BioSimSpace_System
   28
    1MOL      O    1   6.637   6.189   6.209
    1MOL      C    2   6.587   6.299   6.266
    1MOL      C    3   6.501   6.384   6.199
    1MOL      C    4   6.451   6.499   6.264
    1MOL      C    5   6.304   6.678   6.249
    1MOL      C    6   6.332   6.708   6.380
    1MOL      C    7   6.426   6.640   6.453
    1MOL      C    8   6.444   6.672   6.602
    1MOL      C    9   6.482   6.523   6.391
    1MOL      C   10   6.569   6.435   6.460
    1MOL      C   11   6.621   6.325   6.396
    1MOL      O   12   6.364   6.576   6.191
    1MOL      O   13   6.230   6.739   6.187
    1MOL      O   14   6.339   6.608   6.837
    1MOL      O   15   6.354   6.426   6.681
    1MOL      O   16   6.179   6.609   6.655
    1MOL      P   17   6.320   6.575   6.706
    1MOL      H   18   6.537   6.648   6.630
    1MOL      H   19   6.430   6.770   6.617
    1MOL      H   20   6.474   6.363   6.105
    1MOL      H   21   6.281   6.782   6.424
    1MOL      H   22   6.592   6.453   6.555
    1MOL      H   23   6.154   6.704   6.676
    1MOL      C   24   6.600   6.157   6.074
    1MOL      H   25   6.682   6.264   6.444
    1MOL      H   26   6.481   6.142   6.066
    1MOL      H   27   6.635   6.246   6.000
    1MOL      H   28   6.654   6.055   6.040
  12.83690  12.83690  12.83690   0.00000   0.00000  -0.00000   0.00000  -0.00000  -0.00000
