; Gromacs Topology File written by Sire
; File written 06/23/26  18:08:18
[ defaults ]
; nbfunc      comb-rule       gen-pairs      fudgeLJ     fudgeQQ
  1           2               yes            0.5         0.833333

[ atomtypes ]
; name      at.num        mass      charge   ptype       sigma     epsilon
    HW           1    1.007940    0.000000       A    0.000000    0.000000
    OW           8   15.999400    0.000000       A    0.315061    0.636386
     c           6   12.010700    0.000000       A    0.331521    0.413379
    c3           6   12.010700    0.000000       A    0.339771    0.451035
    ca           6   12.010700    0.000000       A    0.331521    0.413379
    cc           6   12.010700    0.000000       A    0.331521    0.413379
    cd           6   12.010700    0.000000       A    0.331521    0.413379
    h1           1    1.007940    0.000000       A    0.242200    0.087027
    ha           1    1.007940    0.000000       A    0.262548    0.067362
    hc           1    1.007940    0.000000       A    0.260018    0.087027
    ho           1    1.007940    0.000000       A    0.053792    0.019665
     o           8   15.999400    0.000000       A    0.304812    0.612119
    oh           8   15.999400    0.000000       A    0.324287    0.389112
    os           8   15.999400    0.000000       A    0.315610    0.303758
    p5          15   30.973761    0.000000       A    0.369402    0.960228

[ moleculetype ]
; name  nrexcl
SOL  3

[ atoms ]
;   nr   type  resnr residue  atom   cgnr     charge         mass
     1     OW      1     SOL    OW      1  -0.834000    16.000000
     2     HW      1     SOL   HW1      1   0.417000     1.008000
     3     HW      1     SOL   HW2      1   0.417000     1.008000

#ifdef FLEXIBLE
[ bonds ]
;   ai     aj  funct  parameters
     1      2      1  0.09572  502416
     1      3      1  0.09572  502416

[ angles ]
;   ai     aj     ak   funct   parameters
     2      1      3       1   104.52  628.02

#else

[ settles ]
; OW    funct   doh dhh
1       1       0.09572 0.15136

[ exclusions ]
1   2   3
2   1   3
3   1   2

#endif

[ moleculetype ]
; name  nrexcl
ligand_2  3

[ atoms ]
;   nr   type  resnr residue  atom   cgnr     charge         mass
     1     os      1     MOL     O      1  -0.330971    16.000000
     2     ca      1     MOL     C      2   0.152029    12.010000
     3     ca      1     MOL     C      3  -0.254071    12.010000
     4     ca      1     MOL     C      4   0.179029    12.010000
     5      c      1     MOL     C      5   0.737729    12.010000
     6     cc      1     MOL     C      6  -0.327271    12.010000
     7     cd      1     MOL     C      7   0.160529    12.010000
     8     c3      1     MOL     C      8  -0.307471    12.010000
     9     ca      1     MOL     C      9  -0.175871    12.010000
    10     ca      1     MOL     C     10  -0.036071    12.010000
    11     ca      1     MOL     C     11  -0.193071    12.010000
    12     os      1     MOL     O     12  -0.344271    16.000000
    13      o      1     MOL     O     13  -0.622571    16.000000
    14      o      1     MOL     O     14  -0.855571    16.000000
    15      o      1     MOL     O     15  -0.855571    16.000000
    16     oh      1     MOL     O     16  -0.791471    16.000000
    17     p5      1     MOL     P     17   1.337529    30.970000
    18     hc      1     MOL     H     18   0.089629     1.008000
    19     hc      1     MOL     H     19   0.089629     1.008000
    20     ha      1     MOL     H     20   0.146929     1.008000
    21     ha      1     MOL     H     21   0.161929     1.008000
    22     ha      1     MOL     H     22   0.223929     1.008000
    23     ho      1     MOL     H     23   0.431929     1.008000
    24     c3      1     MOL     C     24   0.115629    12.010000
    25     ha      1     MOL     H     25   0.149929     1.008000
    26     h1      1     MOL     H     26   0.039296     1.008000
    27     h1      1     MOL     H     27   0.039296     1.008000
    28     h1      1     MOL     H     28   0.039296     1.008000

[ bonds ]
;   ai     aj  funct  parameters
     1      2      1  0.13688  287307
     1     24      1  0.14273  236204
     2      3      1  0.13986  296436
     2     11      1  0.13986  296436
     3      4      1  0.13986  296436
     3     20      1  0.1086  301825
     4      9      1  0.13986  296436
     4     12      1  0.13688  287307
     5      6      1  0.14687  235794
     5     12      1  0.13621  293976
     5     13      1  0.1219  494214
     6      7      1  0.1373  323206
     6     21      1  0.10838  304696
     7      8      1  0.15018  212438
     7      9      1  0.1461  241659
     8     17      1  0.18439  166716
     8     18      1  0.10962  288905
     8     19      1  0.10962  288905
     9     10      1  0.13986  296436
    10     11      1  0.13986  296436
    10     22      1  0.1086  301825
    11     25      1  0.1086  301825
    14     17      1  0.14885  479512
    15     17      1  0.14885  479512
    16     17      1  0.16144  327925
    16     23      1  0.09725  448115
    24     26      1  0.10969  288043
    24     27      1  0.10969  288043
    24     28      1  0.10969  288043

[ pairs ]
;   ai     aj funct 
     1      4     1
     1     10     1
     1     20     1
     1     25     1
     2      9     1
     2     12     1
     2     22     1
     2     26     1
     2     27     1
     2     28     1
     3      5     1
     3      7     1
     3     10     1
     3     24     1
     3     25     1
     4      6     1
     4      8     1
     4     11     1
     4     13     1
     4     22     1
     5      8     1
     5      9     1
     6     10     1
     6     17     1
     6     18     1
     6     19     1
     7     11     1
     7     12     1
     7     13     1
     7     14     1
     7     15     1
     7     16     1
     7     22     1
     8     10     1
     8     21     1
     8     23     1
     9     17     1
     9     18     1
     9     19     1
     9     20     1
     9     21     1
     9     25     1
    10     12     1
    11     20     1
    11     24     1
    12     20     1
    12     21     1
    13     21     1
    14     18     1
    14     19     1
    14     23     1
    15     18     1
    15     19     1
    15     23     1
    16     18     1
    16     19     1
    22     25     1

[ angles ]
;   ai     aj     ak   funct   parameters
     1      2      3       1   119.11  661.072
     1      2     11       1   119.11  661.072
     1     24     26       1   110.34  470.282
     1     24     27       1   110.34  470.282
     1     24     28       1   110.34  470.282
     2      1     24       1   118.39  738.56
     2      3      4       1   120.02  532.791
     2      3     20       1   119.88  375.723
     2     11     10       1   120.02  532.791
     2     11     25       1   119.88  375.723
     3      2     11       1   120.02  532.791
     3      4      9       1   120.02  532.791
     3      4     12       1   119.11  661.072
     4      3     20       1   119.88  375.723
     4      9      7       1   120.83  518.983
     4      9     10       1   120.02  532.791
     4     12      5       1   121.29  747.764
     5      6      7       1   121.32  520.49
     5      6     21       1   116.81  365.431
     6      5     12       1   114.1  658.562
     6      5     13       1   124.06  655.716
     6      7      8       1   126.68  502.582
     6      7      9       1   124.29  515.804
     7      6     21       1   121.4  379.07
     7      8     17       1   116.23  665.256
     7      8     18       1   110.62  367.774
     7      8     19       1   110.62  367.774
     7      9     10       1   120.83  518.983
     8      7      9       1   126.13  490.532
     8     17     14       1   113.69  632.37
     8     17     15       1   113.69  632.37
     8     17     16       1   102.68  650.11
     9      4     12       1   119.11  661.072
     9     10     11       1   120.02  532.791
     9     10     22       1   119.88  375.723
    10     11     25       1   119.88  375.723
    11     10     22       1   119.88  375.723
    12      5     13       1   123.2  847.344
    14     17     15       1   118.29  868.264
    14     17     16       1   115.17  841.486
    15     17     16       1   115.17  841.486
    17      8     18       1   108.27  214.472
    17      8     19       1   108.27  214.472
    17     16     23       1   110.07  335.055
    18      8     19       1   107.73  299.574
    26     24     27       1   108.55  298.236
    26     24     28       1   108.55  298.236
    27     24     28       1   108.55  298.236

[ dihedrals ]
;   ai     aj     ak     al  funct  parameters
     1      2      3      4      1  180  15.167  2
     1      2      3     20      1  180  15.167  2
     1      2     11      3      4  180  4.6024  2
     1      2     11     10      1  180  15.167  2
     1      2     11     25      1  180  15.167  2
     2      1     24     26      1  0  1.60387  3
     2      1     24     27      1  0  1.60387  3
     2      1     24     28      1  0  1.60387  3
     2      3      4      9      1  180  15.167  2
     2      3      4     12      1  180  15.167  2
     2      4      3     20      4  180  4.6024  2
     2     10     11     25      4  180  4.6024  2
     2     11     10      9      1  180  15.167  2
     2     11     10     22      1  180  15.167  2
     3      2      1     24      1  180  6.94544  2
     3      2     11     10      1  180  15.167  2
     3      2     11     25      1  180  15.167  2
     3      4      9      7      1  180  15.167  2
     3      4      9     10      1  180  15.167  2
     3      4     12      5      1  180  4.10032  2
     3      9      4     12      4  180  4.6024  2
     4      3      2     11      1  180  15.167  2
     4      9      7      6      1  180  15.7737  2
     4      9      7      8      1  180  2.5104  2
     4      9     10     11      1  180  15.167  2
     4      9     10     22      1  180  15.167  2
     4     10      9      7      4  180  4.6024  2
     4     12      5      6      1  180  11.2968  2
     4     12      5     13      9  0  0.33472  3
     4     12      5     13      9  0  7.23832  1
     4     12      5     13      9  180  8.9956  2
     5      6      7      8      1  180  16.736  2
     5      6      7      9      1  180  16.736  2
     5      7      6     21      4  180  4.6024  2
     5     12      4      9      1  180  4.10032  2
     6      7      8     17      1  0  0  1
     6      7      8     18      1  0  0  1
     6      7      8     19      1  0  0  1
     6      7      9      8      4  180  4.6024  2
     6      7      9     10      1  180  15.7737  2
     6     13      5     12      4  180  43.932  2
     7      6      5     12      1  180  12.029  2
     7      6      5     13      1  180  12.029  2
     7      8     17     14      1  0  0.0929778  3
     7      8     17     15      1  0  0.0929778  3
     7      8     17     16      1  0  0.0929778  3
     7      9      4     12      1  180  15.167  2
     7      9     10     11      1  180  15.167  2
     7      9     10     22      1  180  15.167  2
     8      7      6     21      1  180  16.736  2
     8      7      9     10      1  180  2.5104  2
     8     17     16     23      1  0  2.23147  3
     9      4      3     20      1  180  15.167  2
     9      7      6     21      1  180  16.736  2
     9      7      8     17      1  0  0  1
     9      7      8     18      1  0  0  1
     9      7      8     19      1  0  0  1
     9     10     11     25      1  180  15.167  2
     9     11     10     22      4  180  4.6024  2
    10      9      4     12      1  180  15.167  2
    11      2      1     24      1  180  6.94544  2
    11      2      3     20      1  180  15.167  2
    12      4      3     20      1  180  15.167  2
    12      5      6     21      1  180  12.029  2
    13      5      6     21      1  180  12.029  2
    14     17      8     18      1  0  0.0929778  3
    14     17      8     19      1  0  0.0929778  3
    14     17     16     23      9  0  4.14216  1
    14     17     16     23      9  180  2.63592  2
    14     17     16     23      9  180  2.88696  3
    15     17      8     18      1  0  0.0929778  3
    15     17      8     19      1  0  0.0929778  3
    15     17     16     23      9  0  4.14216  1
    15     17     16     23      9  180  2.63592  2
    15     17     16     23      9  180  2.88696  3
    16     17      8     18      1  0  0.0929778  3
    16     17      8     19      1  0  0.0929778  3
    22     10     11     25      1  180  15.167  2


[ system ]
BioSimSpace_System

[ molecules ]
;molecule name    nr.
      ligand_2      1
SOL         68500
NA               192
CL               191

