BioSimSpace TIP3P water box
205883
    2SOL     OW   29   0.230   0.628   0.113
    2SOL    HW1   30   0.137   0.626   0.150
    2SOL    HW2   31   0.231   0.589   0.021
    3SOL     OW   32   0.225   0.275   0.996
    3SOL    HW1   33   0.260   0.258   1.088
    3SOL    HW2   34   0.137   0.230   0.984
    4SOL     OW   35   0.019   0.368   0.647
    4SOL    HW1   36  -0.063   0.411   0.686
    4SOL    HW2   37  -0.009   0.295   0.584
    5SOL     OW   38   0.569   1.275   1.165
    5SOL    HW1   39   0.476   1.268   1.128
    5SOL    HW2   40   0.580   1.364   1.209
    6SOL     OW   41   1.555   1.511   0.703
    6SOL    HW1   42   1.498   1.495   0.784
    6SOL    HW2   43   1.496   1.521   0.623
    7SOL     OW   44   1.135   0.703   0.717
    7SOL    HW1   45   1.192   0.781   0.692
    7SOL    HW2   46   1.075   0.729   0.793
    8SOL     OW   47   1.755   0.607   0.231
    8SOL    HW1   48   1.743   0.594   0.132
    8SOL    HW2   49   1.725   0.526   0.280
    9SOL     OW   50   0.768   1.144   1.023
    9SOL    HW1   51   0.690   1.161   1.083
    9SOL    HW2   52   0.802   1.231   0.987
   10SOL     OW   53   0.850   0.798   1.823
   10SOL    HW1   54   0.846   0.874   1.888
   10SOL    HW2   55   0.872   0.834   1.732
   11SOL     OW   56   0.685   1.012   0.665
   11SOL    HW1   57   0.754   0.996   0.735
   11SOL    HW2   58   0.612   1.069   0.703
   12SOL     OW   59   0.686   1.161   1.803
   12SOL    HW1   60   0.746   1.240   1.817
   12SOL    HW2   61   0.600   1.192   1.762
   13SOL     OW   62   0.335   1.435   1.061
   13SOL    HW1   63   0.257   1.404   1.008
   13SOL    HW2   64   0.393   1.493   1.004
   14SOL     OW   65   1.460   1.505   1.339
   14SOL    HW1   66   1.484   1.599   1.365
   14SOL    HW2   67   1.444   1.451   1.421
   15SOL     OW   68   0.438   0.392   1.499
   15SOL    HW1   69   0.520   0.336   1.508
   15SOL    HW2   70   0.357   0.334   1.503
   16SOL     OW   71   1.603   0.447   0.737
   16SOL    HW1   72   1.529   0.493   0.687
   16SOL    HW2   73   1.654   0.515   0.790
   17SOL     OW   74   0.231   1.713   0.483
   17SOL    HW1   75   0.265   1.790   0.537
   17SOL    HW2   76   0.275   1.713   0.393
   18SOL     OW   77   1.127   1.341   1.690
   18SOL    HW1   78   1.174   1.341   1.778
   18SOL    HW2   79   1.079   1.254   1.679
   19SOL     OW   80   0.230   1.434   0.538
   19SOL    HW1   81   0.204   1.530   0.538
   19SOL    HW2   82   0.159   1.380   0.583
   20SOL     OW   83   0.240   1.091   0.886
   20SOL    HW1   84   0.254   1.007   0.938
   20SOL    HW2   85   0.185   1.155   0.941
   21SOL     OW   86   0.620   1.786   1.439
   21SOL    HW1   87   0.528   1.769   1.474
   21SOL    HW2   88   0.648   1.878   1.465
   22SOL     OW   89   0.606   0.964   0.123
   22SOL    HW1   90   0.613   1.048   0.069
   22SOL    HW2   91   0.652   0.977   0.211
   23SOL     OW   92   1.594   0.114   1.480
   23SOL    HW1   93   1.576   0.181   1.408
   23SOL    HW2   94   1.591   0.160   1.569
   24SOL     OW   95   0.122   0.643   0.563
   24SOL    HW1   96   0.077   0.555   0.580
   24SOL    HW2   97   0.121   0.697   0.647
   25SOL     OW   98   1.842   1.767   0.359
   25SOL    HW1   99   1.896   1.738   0.439
   25SOL    HW2  100   1.872   1.857   0.330
   26SOL     OW  101   0.027   1.596   0.117
   26SOL    HW1  102   0.008   1.500   0.138
   26SOL    HW2  103  -0.006   1.654   0.192
   27SOL     OW  104   1.689   0.922   0.612
   27SOL    HW1  105   1.784   0.893   0.620
   27SOL    HW2  106   1.681   0.987   0.537
   28SOL     OW  107   1.641   1.108   0.432
   28SOL    HW1  108   1.727   1.110   0.380
   28SOL    HW2  109   1.655   1.155   0.520
   29SOL     OW  110   0.113   0.737   1.597
   29SOL    HW1  111   0.201   0.724   1.642
   29SOL    HW2  112   0.100   0.834   1.575
   30SOL     OW  113   0.613   1.365   0.726
   30SOL    HW1  114   0.564   1.278   0.735
   30SOL    HW2  115   0.590   1.408   0.639
   31SOL     OW  116   1.293   1.228   1.423
   31SOL    HW1  117   1.330   1.155   1.365
   31SOL    HW2  118   1.345   1.233   1.508
   32SOL     OW  119   0.809   0.004   0.502
   32SOL    HW1  120   0.849   0.095   0.493
   32SOL    HW2  121   0.709   0.012   0.508
   33SOL     OW  122   0.197   0.976   1.264
   33SOL    HW1  123   0.286   0.931   1.250
   33SOL    HW2  124   0.124   0.911   1.245
   34SOL     OW  125   1.525   0.999   0.190
   34SOL    HW1  126   1.462   0.923   0.203
   34SOL    HW2  127   1.573   1.017   0.276
   35SOL     OW  128   1.187   1.792   1.616
   35SOL    HW1  129   1.211   1.852   1.540
   35SOL    HW2  130   1.194   1.697   1.586
   36SOL     OW  131   0.317   0.251   1.801
   36SOL    HW1  132   0.388   0.322   1.807
   36SOL    HW2  133   0.229   0.290   1.829
   37SOL     OW  134   1.466   1.417   0.953
   37SOL    HW1  135   1.407   1.423   1.033
   37SOL    HW2  136   1.451   1.329   0.907
   38SOL     OW  137   1.667   1.714   0.572
   38SOL    HW1  138   1.626   1.691   0.484
   38SOL    HW2  139   1.649   1.640   0.637
   39SOL     OW  140   0.598   0.729   0.270
   39SOL    HW1  141   0.622   0.798   0.202
   39SOL    HW2  142   0.520   0.762   0.324
   40SOL     OW  143   1.281   0.345   0.944
   40SOL    HW1  144   1.195   0.295   0.931
   40SOL    HW2  145   1.343   0.291   1.000
   41SOL     OW  146   1.576   1.662   0.307
   41SOL    HW1  147   1.665   1.708   0.310
   41SOL    HW2  148   1.555   1.638   0.212
   42SOL     OW  149   0.807   0.605   1.465
   42SOL    HW1  150   0.760   0.602   1.554
   42SOL    HW2  151   0.756   0.550   1.399
   43SOL     OW  152   1.394   0.469   1.674
   43SOL    HW1  153   1.374   0.512   1.762
   43SOL    HW2  154   1.472   0.407   1.683
   44SOL     OW  155   0.973   0.890   1.572
   44SOL    HW1  156   1.019   0.806   1.543
   44SOL    HW2  157   0.917   0.924   1.497
   45SOL     OW  158   0.991   0.410   1.242
   45SOL    HW1  159   0.914   0.444   1.296
   45SOL    HW2  160   0.957   0.359   1.163
   46SOL     OW  161   1.041   0.701   0.429
   46SOL    HW1  162   1.067   0.697   0.525
   46SOL    HW2  163   0.956   0.650   0.415
   47SOL     OW  164   0.076   0.811   0.789
   47SOL    HW1  165   0.175   0.799   0.798
   47SOL    HW2  166   0.052   0.906   0.810
   48SOL     OW  167   0.130   1.821   1.571
   48SOL    HW1  168   0.120   1.806   1.670
   48SOL    HW2  169   0.044   1.857   1.535
   49SOL     OW  170   0.865   0.348   0.195
   49SOL    HW1  171   0.924   0.411   0.146
   49SOL    HW2  172   0.884   0.254   0.166
   50SOL     OW  173   1.719   0.585   1.831
   50SOL    HW1  174   1.693   0.674   1.795
   50SOL    HW2  175   1.717   0.517   1.758
   51SOL     OW  176   1.362   1.144   0.545
   51SOL    HW1  177   1.445   1.115   0.497
   51SOL    HW2  178   1.313   1.211   0.489
   52SOL     OW  179   0.550   0.196   0.885
   52SOL    HW1  180   0.545   0.191   0.985
   52SOL    HW2  181   0.552   0.292   0.856
   53SOL     OW  182   1.008   1.456   0.477
   53SOL    HW1  183   0.962   1.528   0.425
   53SOL    HW2  184   1.004   1.476   0.575
   54SOL     OW  185   0.351   1.801   0.853
   54SOL    HW1  186   0.401   1.715   0.859
   54SOL    HW2  187   0.416   1.878   0.850
   55SOL     OW  188   1.795   1.066   0.873
   55SOL    HW1  189   1.733   1.051   0.797
   55SOL    HW2  190   1.743   1.077   0.958
   56SOL     OW  191   1.227   1.550   1.506
   56SOL    HW1  192   1.233   1.473   1.570
   56SOL    HW2  193   1.175   1.524   1.426
   57SOL     OW  194   0.321   0.943   0.242
   57SOL    HW1  195   0.403   0.982   0.200
   57SOL    HW2  196   0.294   0.861   0.193
   58SOL     OW  197   1.458   0.735   0.728
   58SOL    HW1  198   1.453   0.670   0.803
   58SOL    HW2  199   1.538   0.794   0.741
   59SOL     OW  200   0.461   1.266   1.727
   59SOL    HW1  201   0.411   1.267   1.641
   59SOL    HW2  202   0.398   1.248   1.803
   60SOL     OW  203   1.111   1.776   0.237
   60SOL    HW1  204   1.051   1.714   0.287
   60SOL    HW2  205   1.142   1.732   0.152
   61SOL     OW  206   0.202   0.285   1.498
   61SOL    HW1  207   0.122   0.345   1.485
   61SOL    HW2  208   0.192   0.236   1.584
   62SOL     OW  209   1.632   1.377   0.081
   62SOL    HW1  210   1.600   1.471   0.071
   62SOL    HW2  211   1.556   1.314   0.069
   63SOL     OW  212   0.464   1.743   0.323
   63SOL    HW1  213   0.497   1.782   0.409
   63SOL    HW2  214   0.540   1.736   0.258
   64SOL     OW  215   1.400   0.107   0.426
   64SOL    HW1  216   1.376   0.070   0.336
   64SOL    HW2  217   1.499   0.123   0.430
   65SOL     OW  218   0.249   1.785   1.241
   65SOL    HW1  219   0.306   1.720   1.291
   65SOL    HW2  220   0.233   1.752   1.148
   66SOL     OW  221   0.940   1.698   0.904
   66SOL    HW1  222   1.020   1.641   0.925
   66SOL    HW2  223   0.891   1.658   0.827
   67SOL     OW  224   0.382   0.700   0.480
   67SOL    HW1  225   0.427   0.610   0.477
   67SOL    HW2  226   0.288   0.689   0.513
   68SOL     OW  227   1.547   0.222   1.729
   68SOL    HW1  228   1.542   0.259   1.821
   68SOL    HW2  229   1.475   0.153   1.717
   69SOL     OW  230   0.614   0.122   0.117
   69SOL    HW1  231   0.712   0.100   0.124
   69SOL    HW2  232   0.583   0.105   0.024
   70SOL     OW  233   0.781   0.264   1.749
   70SOL    HW1  234   0.848   0.203   1.792
   70SOL    HW2  235   0.708   0.283   1.814
   71SOL     OW  236   0.888   1.514   1.195
   71SOL    HW1  237   0.865   1.489   1.101
   71SOL    HW2  238   0.949   1.445   1.234
   72SOL     OW  239   1.351   0.590   1.433
   72SOL    HW1  240   1.379   0.547   1.518
   72SOL    HW2  241   1.376   0.686   1.434
   73SOL     OW  242   0.803   1.402   0.924
   73SOL    HW1  243   0.893   1.416   0.882
   73SOL    HW2  244   0.732   1.404   0.853
   74SOL     OW  245   0.922   0.503   0.899
   74SOL    HW1  246   0.897   0.494   0.803
   74SOL    HW2  247   0.970   0.421   0.930
   75SOL     OW  248   0.539   0.064   0.512
   75SOL    HW1  249   0.458   0.065   0.570
   75SOL    HW2  250   0.542   0.147   0.457
   76SOL     OW  251   1.434   1.188   0.041
   76SOL    HW1  252   1.466   1.112   0.098
   76SOL    HW2  253   1.342   1.215   0.071
   77SOL     OW  254   0.297   0.035   0.171
   77SOL    HW1  255   0.346   0.119   0.150
   77SOL    HW2  256   0.359  -0.030   0.216
   78SOL     OW  257   0.935   0.236   0.480
   78SOL    HW1  258   0.887   0.277   0.402
   78SOL    HW2  259   1.034   0.234   0.461
   79SOL     OW  260   1.076   0.683   1.464
   79SOL    HW1  261   0.996   0.622   1.467
   79SOL    HW2  262   1.157   0.630   1.440
   80SOL     OW  263   1.227   1.570   0.793
   80SOL    HW1  264   1.248   1.644   0.728
   80SOL    HW2  265   1.295   1.570   0.866
   81SOL     OW  266   0.459   1.152   0.741
   81SOL    HW1  267   0.388   1.125   0.806
   81SOL    HW2  268   0.433   1.124   0.648
   82SOL     OW  269   1.271   1.797   0.591
   82SOL    HW1  270   1.315   1.861   0.527
   82SOL    HW2  271   1.221   1.849   0.661
   83SOL     OW  272   1.032   0.549   0.016
   83SOL    HW1  273   0.991   0.631  -0.023
   83SOL    HW2  274   1.096   0.575   0.089
   84SOL     OW  275   0.078   0.556   1.386
   84SOL    HW1  276   0.170   0.555   1.345
   84SOL    HW2  277   0.072   0.630   1.453
   85SOL     OW  278   0.561   0.222   1.147
   85SOL    HW1  279   0.599   0.138   1.184
   85SOL    HW2  280   0.473   0.241   1.191
   86SOL     OW  281   0.866   0.454   0.642
   86SOL    HW1  282   0.834   0.526   0.580
   86SOL    HW2  283   0.890   0.373   0.589
   87SOL     OW  284   1.017   0.039   0.753
   87SOL    HW1  285   0.945   0.044   0.684
   87SOL    HW2  286   0.993  -0.030   0.822
   88SOL     OW  287   1.429   1.173   0.867
   88SOL    HW1  288   1.374   1.089   0.860
   88SOL    HW2  289   1.455   1.202   0.775
   89SOL     OW  290   1.466   0.590   0.992
   89SOL    HW1  291   1.436   0.495   0.999
   89SOL    HW2  292   1.539   0.606   1.058
   90SOL     OW  293   1.857   0.833   0.377
   90SOL    HW1  294   1.899   0.769   0.441
   90SOL    HW2  295   1.819   0.782   0.299
   91SOL     OW  296   0.488   1.385   0.174
   91SOL    HW1  297   0.401   1.370   0.221
   91SOL    HW2  298   0.471   1.411   0.079
   92SOL     OW  299   1.664   1.280   0.657
   92SOL    HW1  300   1.763   1.288   0.671
   92SOL    HW2  301   1.619   1.364   0.688
   93SOL     OW  302   1.390   0.575   0.078
   93SOL    HW1  303   1.336   0.554   0.159
   93SOL    HW2  304   1.481   0.534   0.087
   94SOL     OW  305   0.527   0.256   0.328
   94SOL    HW1  306   0.554   0.197   0.253
   94SOL    HW2  307   0.527   0.351   0.297
   95SOL     OW  308   1.754   1.223   1.588
   95SOL    HW1  309   1.845   1.184   1.575
   95SOL    HW2  310   1.762   1.319   1.612
   96SOL     OW  311   1.064   1.347   1.340
   96SOL    HW1  312   0.984   1.324   1.395
   96SOL    HW2  313   1.147   1.321   1.389
   97SOL     OW  314   1.592   1.629   1.625
   97SOL    HW1  315   1.619   1.663   1.535
   97SOL    HW2  316   1.671   1.591   1.671
   98SOL     OW  317   1.111   1.195   1.100
   98SOL    HW1  318   1.071   1.239   1.181
   98SOL    HW2  319   1.070   1.232   1.017
   99SOL     OW  320   1.638   1.099   1.079
   99SOL    HW1  321   1.643   1.180   1.138
   99SOL    HW2  322   1.552   1.101   1.028
  100SOL     OW  323   0.915   0.089   1.402
  100SOL    HW1  324   0.940   0.069   1.307
  100SOL    HW2  325   0.987   0.145   1.444
  101SOL     OW  326   0.980   1.116   1.719
  101SOL    HW1  327   0.881   1.122   1.729
  101SOL    HW2  328   1.003   1.036   1.663
  102SOL     OW  329   0.705   1.050   0.368
  102SOL    HW1  330   0.691   1.057   0.467
  102SOL    HW2  331   0.789   0.999   0.350
  103SOL     OW  332   0.410   0.813   1.251
  103SOL    HW1  333   0.496   0.825   1.301
  103SOL    HW2  334   0.368   0.726   1.278
  104SOL     OW  335   1.274   0.386   1.262
  104SOL    HW1  336   1.295   0.460   1.326
  104SOL    HW2  337   1.185   0.403   1.219
  105SOL     OW  338   0.064   1.564   1.331
  105SOL    HW1  339   0.018   1.646   1.297
  105SOL    HW2  340   0.162   1.583   1.340
  106SOL     OW  341   0.367   1.100   0.501
  106SOL    HW1  342   0.360   1.183   0.445
  106SOL    HW2  343   0.371   1.020   0.441
  107SOL     OW  344   0.566   0.537   0.865
  107SOL    HW1  345   0.578   0.603   0.791
  107SOL    HW2  346   0.612   0.571   0.948
  108SOL     OW  347   1.252   1.348   0.388
  108SOL    HW1  348   1.302   1.425   0.428
  108SOL    HW2  349   1.157   1.350   0.420
  109SOL     OW  350   1.272   1.445   1.142
  109SOL    HW1  351   1.319   1.458   1.229
  109SOL    HW2  352   1.206   1.371   1.151
  110SOL     OW  353   1.582   0.639   0.472
  110SOL    HW1  354   1.551   0.700   0.545
  110SOL    HW2  355   1.632   0.691   0.403
  111SOL     OW  356   0.354   1.510   1.329
  111SOL    HW1  357   0.333   1.466   1.242
  111SOL    HW2  358   0.451   1.536   1.332
  112SOL     OW  359   0.402   0.751   1.598
  112SOL    HW1  360   0.470   0.806   1.551
  112SOL    HW2  361   0.442   0.663   1.625
  113SOL     OW  362   1.587   0.779   1.670
  113SOL    HW1  363   1.495   0.817   1.665
  113SOL    HW2  364   1.647   0.826   1.605
  114SOL     OW  365   1.013   0.105   1.770
  114SOL    HW1  366   1.019   0.190   1.718
  114SOL    HW2  367   1.045   0.029   1.713
  115SOL     OW  368   0.504   0.050   1.740
  115SOL    HW1  369   0.462  -0.007   1.670
  115SOL    HW2  370   0.438   0.119   1.772
  116SOL     OW  371   0.573   0.870   1.029
  116SOL    HW1  372   0.617   0.959   1.020
  116SOL    HW2  373   0.510   0.870   1.106
  117SOL     OW  374   1.360   0.862   1.045
  117SOL    HW1  375   1.285   0.862   0.979
  117SOL    HW2  376   1.397   0.770   1.054
  118SOL     OW  377   1.209   0.525   0.275
  118SOL    HW1  378   1.222   0.441   0.329
  118SOL    HW2  379   1.180   0.599   0.335
  119SOL     OW  380   0.307   0.213   1.231
  119SOL    HW1  381   0.284   0.250   1.321
  119SOL    HW2  382   0.277   0.118   1.225
  120SOL     OW  383   0.037   1.310   1.282
  120SOL    HW1  384   0.090   1.261   1.350
  120SOL    HW2  385   0.059   1.408   1.287
  121SOL     OW  386   0.732   0.634   1.064
  121SOL    HW1  387   0.791   0.608   0.988
  121SOL    HW2  388   0.704   0.730   1.053
  122SOL     OW  389   1.728   0.935   1.854
  122SOL    HW1  390   1.682   0.928   1.765
  122SOL    HW2  391   1.666   0.979   1.920
  123SOL     OW  392   0.307   0.063   0.618
  123SOL    HW1  393   0.296   0.157   0.651
  123SOL    HW2  394   0.302   0.000   0.695
  124SOL     OW  395   1.622   0.367   0.374
  124SOL    HW1  396   1.624   0.291   0.438
  124SOL    HW2  397   1.574   0.444   0.414
  125SOL     OW  398   1.023   0.766   0.966
  125SOL    HW1  399   1.038   0.787   1.062
  125SOL    HW2  400   0.993   0.671   0.957
  126SOL     OW  401   0.980   1.573   1.700
  126SOL    HW1  402   0.960   1.617   1.612
  126SOL    HW2  403   1.019   1.482   1.684
  127SOL     OW  404   1.859   1.518   1.605
  127SOL    HW1  405   1.873   1.545   1.510
  127SOL    HW2  406   1.942   1.540   1.658
  128SOL     OW  407   0.350   0.898   1.804
  128SOL    HW1  408   0.426   0.942   1.852
  128SOL    HW2  409   0.385   0.851   1.722
  129SOL     OW  410   1.540   0.274   0.125
  129SOL    HW1  411   1.479   0.199   0.148
  129SOL    HW2  412   1.562   0.326   0.208
  130SOL     OW  413   1.303   0.838   0.042
  130SOL    HW1  414   1.337   0.745   0.057
  130SOL    HW2  415   1.321   0.865  -0.053
  131SOL     OW  416   1.068   1.333   0.849
  131SOL    HW1  417   1.075   1.249   0.794
  131SOL    HW2  418   1.130   1.402   0.813
  132SOL     OW  419   0.319   0.810   0.949
  132SOL    HW1  420   0.412   0.846   0.954
  132SOL    HW2  421   0.313   0.725   1.001
  133SOL     OW  422   0.339   0.509   1.006
  133SOL    HW1  423   0.287   0.426   0.989
  133SOL    HW2  424   0.416   0.514   0.942
  134SOL     OW  425   1.138   0.380   1.678
  134SOL    HW1  426   1.093   0.443   1.742
  134SOL    HW2  427   1.231   0.411   1.661
  135SOL     OW  428   1.160   0.207   1.477
  135SOL    HW1  429   1.160   0.271   1.554
  135SOL    HW2  430   1.188   0.255   1.394
  136SOL     OW  431   0.008   1.326   0.200
  136SOL    HW1  432  -0.085   1.347   0.169
  136SOL    HW2  433   0.018   1.227   0.213
  137SOL     OW  434   0.088   1.801   0.927
  137SOL    HW1  435   0.046   1.715   0.900
  137SOL    HW2  436   0.182   1.804   0.893
  138SOL     OW  437   0.504   1.568   0.910
  138SOL    HW1  438   0.570   1.642   0.919
  138SOL    HW2  439   0.548   1.489   0.868
  139SOL     OW  440   1.002   0.796   1.238
  139SOL    HW1  441   1.043   0.764   1.324
  139SOL    HW2  442   0.906   0.769   1.235
  140SOL     OW  443   0.040   0.544   1.114
  140SOL    HW1  444   0.125   0.511   1.073
  140SOL    HW2  445   0.053   0.559   1.212
  141SOL     OW  446   0.189   0.520   1.722
  141SOL    HW1  447   0.248   0.480   1.652
  141SOL    HW2  448   0.131   0.591   1.681
  142SOL     OW  449   1.369   0.950   1.660
  142SOL    HW1  450   1.408   1.039   1.680
  142SOL    HW2  451   1.379   0.930   1.563
  143SOL     OW  452   0.815   0.572   0.325
  143SOL    HW1  453   0.822   0.483   0.279
  143SOL    HW2  454   0.721   0.606   0.317
  144SOL     OW  455   1.657   0.604   1.206
  144SOL    HW1  456   1.619   0.535   1.268
  144SOL    HW2  457   1.739   0.568   1.162
  145SOL     OW  458   0.252   1.564   1.744
  145SOL    HW1  459   0.222   1.621   1.820
  145SOL    HW2  460   0.245   1.467   1.770
  146SOL     OW  461   0.671   0.464   1.269
  146SOL    HW1  462   0.637   0.375   1.239
  146SOL    HW2  463   0.697   0.518   1.189
  147SOL     OW  464   0.930   1.678   1.465
  147SOL    HW1  465   0.906   1.660   1.370
  147SOL    HW2  466   0.960   1.772   1.475
  148SOL     OW  467   0.473   0.500   0.191
  148SOL    HW1  468   0.534   0.580   0.195
  148SOL    HW2  469   0.378   0.531   0.198
  149SOL     OW  470   0.159   1.137   1.466
  149SOL    HW1  471   0.181   1.076   1.542
  149SOL    HW2  472   0.169   1.088   1.380
  150SOL     OW  473   1.347   1.059   1.234
  150SOL    HW1  474   1.371   0.996   1.160
  150SOL    HW2  475   1.257   1.099   1.216
  151SOL     OW  476   1.302   0.855   0.309
  151SOL    HW1  477   1.216   0.824   0.351
  151SOL    HW2  478   1.298   0.841   0.210
  152SOL     OW  479   1.759   1.747   1.154
  152SOL    HW1  480   1.820   1.777   1.081
  152SOL    HW2  481   1.721   1.658   1.132
  153SOL     OW  482   1.252   1.731   1.128
  153SOL    HW1  483   1.336   1.736   1.074
  153SOL    HW2  484   1.229   1.635   1.146
  154SOL     OW  485   0.083   1.258   1.022
  154SOL    HW1  486   0.078   1.257   1.122
  154SOL    HW2  487   0.000   1.217   0.984
  155SOL     OW  488   0.688   1.662   1.716
  155SOL    HW1  489   0.632   1.743   1.725
  155SOL    HW2  490   0.740   1.666   1.630
  156SOL     OW  491   0.903   0.086   0.133
  156SOL    HW1  492   0.954   0.087   0.047
  156SOL    HW2  493   0.959   0.044   0.204
  157SOL     OW  494   1.726   0.135   0.523
  157SOL    HW1  495   1.799   0.118   0.456
  157SOL    HW2  496   1.695   0.048   0.561
  158SOL     OW  497   1.388   1.573   0.477
  158SOL    HW1  498   1.455   1.585   0.403
  158SOL    HW2  499   1.348   1.662   0.500
  159SOL     OW  500   0.130   1.794   1.851
  159SOL    HW1  501   0.089   1.720   1.904
  159SOL    HW2  502   0.194   1.845   1.909
  160SOL     OW  503   1.280   0.927   0.672
  160SOL    HW1  504   1.340   0.846   0.674
  160SOL    HW2  505   1.320   0.996   0.612
  161SOL     OW  506   0.830   1.273   1.422
  161SOL    HW1  507   0.825   1.306   1.517
  161SOL    HW2  508   0.744   1.292   1.376
  162SOL     OW  509   0.672   1.616   0.154
  162SOL    HW1  510   0.681   1.626   0.055
  162SOL    HW2  511   0.632   1.527   0.175
  163SOL     OW  512   1.650   1.720   1.394
  163SOL    HW1  513   1.703   1.730   1.310
  163SOL    HW2  514   1.623   1.810   1.428
  164SOL     OW  515   1.841   0.175   0.963
  164SOL    HW1  516   1.880   0.090   0.927
  164SOL    HW2  517   1.743   0.177   0.944
  165SOL     OW  518   0.263   0.326   0.720
  165SOL    HW1  519   0.184   0.377   0.686
  165SOL    HW2  520   0.254   0.311   0.818
  166SOL     OW  521   1.194   1.612   0.031
  166SOL    HW1  522   1.200   1.519   0.068
  166SOL    HW2  523   1.135   1.612  -0.049
  167SOL     OW  524   0.822   1.002   1.372
  167SOL    HW1  525   0.862   1.001   1.280
  167SOL    HW2  526   0.832   1.094   1.412
  168SOL     OW  527   0.916   0.910   0.291
  168SOL    HW1  528   0.979   0.948   0.223
  168SOL    HW2  529   0.956   0.827   0.330
  169SOL     OW  530   1.504   1.607   0.044
  169SOL    HW1  531   1.412   1.644   0.051
  169SOL    HW2  532   1.542   1.627  -0.046
  170SOL     OW  533   0.372   1.288   1.490
  170SOL    HW1  534   0.359   1.381   1.456
  170SOL    HW2  535   0.288   1.236   1.477
  171SOL     OW  536   1.614   1.292   1.289
  171SOL    HW1  537   1.674   1.295   1.369
  171SOL    HW2  538   1.539   1.356   1.302
  172SOL     OW  539   1.039   1.098   0.696
  172SOL    HW1  540   0.969   1.051   0.750
  172SOL    HW2  541   1.098   1.030   0.653
  173SOL     OW  542   1.014   0.236   0.971
  173SOL    HW1  543   1.006   0.200   0.878
  173SOL    HW2  544   1.012   0.160   1.036
  174SOL     OW  545   0.590   1.487   0.491
  174SOL    HW1  546   0.632   1.429   0.421
  174SOL    HW2  547   0.546   1.566   0.447
  175SOL     OW  548   1.709   0.385   1.381
  175SOL    HW1  549   1.782   0.454   1.385
  175SOL    HW2  550   1.737   0.310   1.322
  176SOL     OW  551   0.255   1.348   0.290
  176SOL    HW1  552   0.159   1.349   0.263
  176SOL    HW2  553   0.267   1.401   0.374
  177SOL     OW  554   0.105   1.013   1.726
  177SOL    HW1  555   0.028   0.980   1.780
  177SOL    HW2  556   0.190   0.983   1.768
  178SOL     OW  557   0.672   0.203   1.489
  178SOL    HW1  558   0.762   0.187   1.449
  178SOL    HW2  559   0.680   0.208   1.588
  179SOL     OW  560   0.075   0.345   0.033
  179SOL    HW1  561  -0.017   0.317   0.004
  179SOL    HW2  562   0.106   0.422  -0.023
  180SOL     OW  563   1.440   0.856   1.398
  180SOL    HW1  564   1.383   0.908   1.335
  180SOL    HW2  565   1.536   0.868   1.374
  181SOL     OW  566   0.072   0.166   0.318
  181SOL    HW1  567   0.055   0.249   0.264
  181SOL    HW2  568   0.162   0.129   0.296
  182SOL     OW  569   1.183   1.335   0.119
  182SOL    HW1  570   1.084   1.324   0.121
  182SOL    HW2  571   1.217   1.350   0.212
  183SOL     OW  572   0.613   0.842   1.431
  183SOL    HW1  573   0.669   0.923   1.414
  183SOL    HW2  574   0.672   0.762   1.434
  184SOL     OW  575   1.493   1.767   0.959
  184SOL    HW1  576   1.526   1.831   0.890
  184SOL    HW2  577   1.559   1.761   1.034
  185SOL     OW  578   0.716   0.565   1.708
  185SOL    HW1  579   0.735   0.630   1.782
  185SOL    HW2  580   0.776   0.485   1.717
  186SOL     OW  581   1.450   1.220   1.633
  186SOL    HW1  582   1.441   1.210   1.732
  186SOL    HW2  583   1.546   1.213   1.607
  187SOL     OW  584   0.390   1.741   1.560
  187SOL    HW1  585   0.299   1.782   1.558
  187SOL    HW2  586   0.383   1.647   1.592
  188SOL     OW  587   1.674   0.883   1.254
  188SOL    HW1  588   1.647   0.794   1.217
  188SOL    HW2  589   1.675   0.951   1.181
  189SOL     OW  590   1.225   0.325   0.449
  189SOL    HW1  591   1.290   0.251   0.438
  189SOL    HW2  592   1.245   0.375   0.533
  190SOL     OW  593   0.594   0.745   0.652
  190SOL    HW1  594   0.644   0.830   0.633
  190SOL    HW2  595   0.506   0.747   0.604
  191SOL     OW  596   1.777   0.342   1.642
  191SOL    HW1  597   1.760   0.373   1.548
  191SOL    HW2  598   1.693   0.305   1.680
  192SOL     OW  599   1.730   0.934   1.517
  192SOL    HW1  600   1.768   1.025   1.532
  192SOL    HW2  601   1.722   0.917   1.418
  193SOL     OW  602   0.859   1.374   0.016
  193SOL    HW1  603   0.813   1.389   0.104
  193SOL    HW2  604   0.903   1.459  -0.014
  194SOL     OW  605   0.661   1.790   0.953
  194SOL    HW1  606   0.615   1.878   0.940
  194SOL    HW2  607   0.760   1.802   0.946
  195SOL     OW  608   0.859   0.956   0.861
  195SOL    HW1  609   0.913   0.887   0.909
  195SOL    HW2  610   0.827   1.025   0.927
  196SOL     OW  611   1.083   0.984   0.087
  196SOL    HW1  612   1.060   1.037   0.005
  196SOL    HW2  613   1.164   0.928   0.068
  197SOL     OW  614   1.861   1.569   0.851
  197SOL    HW1  615   1.790   1.557   0.781
  197SOL    HW2  616   1.862   1.490   0.911
  198SOL     OW  617   0.221   1.314   1.844
  198SOL    HW1  618   0.156   1.241   1.823
  198SOL    HW2  619   0.225   1.328   1.942
  199SOL     OW  620   0.079   1.240   0.653
  199SOL    HW1  621   0.078   1.193   0.741
  199SOL    HW2  622   0.161   1.212   0.602
  200SOL     OW  623   0.672   1.391   1.624
  200SOL    HW1  624   0.594   1.341   1.662
  200SOL    HW2  625   0.669   1.486   1.655
  201SOL     OW  626   1.824   0.192   1.227
  201SOL    HW1  627   1.820   0.102   1.271
  201SOL    HW2  628   1.827   0.181   1.128
  202SOL     OW  629   0.428   0.424   0.520
  202SOL    HW1  630   0.458   0.352   0.458
  202SOL    HW2  631   0.389   0.384   0.603
  203SOL     OW  632   1.705   1.487   1.104
  203SOL    HW1  633   1.612   1.462   1.077
  203SOL    HW2  634   1.731   1.437   1.186
  204SOL     OW  635   0.317   0.547   1.280
  204SOL    HW1  636   0.355   0.488   1.352
  204SOL    HW2  637   0.357   0.521   1.192
  205SOL     OW  638   0.812   1.586   0.687
  205SOL    HW1  639   0.844   1.596   0.593
  205SOL    HW2  640   0.733   1.524   0.689
  206SOL     OW  641   1.424   0.214   1.112
  206SOL    HW1  642   1.476   0.149   1.167
  206SOL    HW2  643   1.375   0.277   1.173
  207SOL     OW  644   1.001   0.034   1.154
  207SOL    HW1  645   0.938  -0.038   1.123
  207SOL    HW2  646   1.094  -0.002   1.154
  208SOL     OW  647   0.770   1.330   0.301
  208SOL    HW1  648   0.724   1.243   0.318
  208SOL    HW2  649   0.861   1.327   0.342
  209SOL     OW  650   0.618   1.567   1.284
  209SOL    HW1  651   0.613   1.649   1.341
  209SOL    HW2  652   0.707   1.564   1.239
  210SOL     OW  653   1.352   0.052   0.168
  210SOL    HW1  654   1.387   0.011   0.084
  210SOL    HW2  655   1.262   0.014   0.188
  211SOL     OW  656   1.300   0.453   0.691
  211SOL    HW1  657   1.241   0.533   0.695
  211SOL    HW2  658   1.315   0.418   0.784
  212SOL     OW  659   1.593   0.221   0.882
  212SOL    HW1  660   1.509   0.220   0.936
  212SOL    HW2  661   1.595   0.304   0.826
  213SOL     OW  662   0.039   1.077   0.300
  213SOL    HW1  663   0.138   1.066   0.291
  213SOL    HW2  664  -0.001   0.991   0.332
  214SOL     OW  665   0.875   1.646   0.337
  214SOL    HW1  666   0.798   1.611   0.283
  214SOL    HW2  667   0.843   1.717   0.399
  215SOL     OW  668   0.230   0.628   1.975
  215SOL    HW1  669   0.137   0.626   2.012
  215SOL    HW2  670   0.231   0.589   1.883
  216SOL     OW  671   0.225   0.275   2.858
  216SOL    HW1  672   0.260   0.258   2.950
  216SOL    HW2  673   0.137   0.230   2.846
  217SOL     OW  674   0.019   0.368   2.509
  217SOL    HW1  675  -0.063   0.411   2.548
  217SOL    HW2  676  -0.009   0.295   2.446
  218SOL     OW  677   0.569   1.275   3.027
  218SOL    HW1  678   0.476   1.268   2.990
  218SOL    HW2  679   0.580   1.364   3.071
  219SOL     OW  680   1.555   1.511   2.565
  219SOL    HW1  681   1.498   1.495   2.646
  219SOL    HW2  682   1.496   1.521   2.485
  220SOL     OW  683   1.135   0.703   2.579
  220SOL    HW1  684   1.192   0.781   2.554
  220SOL    HW2  685   1.075   0.729   2.655
  221SOL     OW  686   1.755   0.607   2.093
  221SOL    HW1  687   1.743   0.594   1.994
  221SOL    HW2  688   1.725   0.526   2.142
  222SOL     OW  689   0.768   1.144   2.885
  222SOL    HW1  690   0.690   1.161   2.945
  222SOL    HW2  691   0.802   1.231   2.849
  223SOL     OW  692   0.850   0.798   3.685
  223SOL    HW1  693   0.846   0.874   3.750
  223SOL    HW2  694   0.872   0.834   3.594
  224SOL     OW  695   0.685   1.012   2.527
  224SOL    HW1  696   0.754   0.996   2.597
  224SOL    HW2  697   0.612   1.069   2.565
  225SOL     OW  698   0.686   1.161   3.665
  225SOL    HW1  699   0.746   1.240   3.679
  225SOL    HW2  700   0.600   1.192   3.624
  226SOL     OW  701   0.335   1.435   2.923
  226SOL    HW1  702   0.257   1.404   2.870
  226SOL    HW2  703   0.393   1.493   2.866
  227SOL     OW  704   1.460   1.505   3.201
  227SOL    HW1  705   1.484   1.599   3.227
  227SOL    HW2  706   1.444   1.451   3.283
  228SOL     OW  707   0.438   0.392   3.361
  228SOL    HW1  708   0.520   0.336   3.370
  228SOL    HW2  709   0.357   0.334   3.365
  229SOL     OW  710   1.603   0.447   2.599
  229SOL    HW1  711   1.529   0.493   2.549
  229SOL    HW2  712   1.654   0.515   2.652
  230SOL     OW  713   0.231   1.713   2.345
  230SOL    HW1  714   0.265   1.790   2.399
  230SOL    HW2  715   0.275   1.713   2.255
  231SOL     OW  716   1.127   1.341   3.552
  231SOL    HW1  717   1.174   1.341   3.640
  231SOL    HW2  718   1.079   1.254   3.541
  232SOL     OW  719   0.230   1.434   2.400
  232SOL    HW1  720   0.204   1.530   2.400
  232SOL    HW2  721   0.159   1.380   2.445
  233SOL     OW  722   0.240   1.091   2.748
  233SOL    HW1  723   0.254   1.007   2.800
  233SOL    HW2  724   0.185   1.155   2.803
  234SOL     OW  725   0.620   1.786   3.301
  234SOL    HW1  726   0.528   1.769   3.336
  234SOL    HW2  727   0.648   1.878   3.327
  235SOL     OW  728   0.606   0.964   1.985
  235SOL    HW1  729   0.613   1.048   1.931
  235SOL    HW2  730   0.652   0.977   2.073
  236SOL     OW  731   1.594   0.114   3.342
  236SOL    HW1  732   1.576   0.181   3.270
  236SOL    HW2  733   1.591   0.160   3.431
  237SOL     OW  734   0.122   0.643   2.425
  237SOL    HW1  735   0.077   0.555   2.442
  237SOL    HW2  736   0.121   0.697   2.509
  238SOL     OW  737   1.842   1.767   2.221
  238SOL    HW1  738   1.896   1.738   2.301
  238SOL    HW2  739   1.872   1.857   2.192
  239SOL     OW  740   0.027   1.596   1.979
  239SOL    HW1  741   0.008   1.500   2.000
  239SOL    HW2  742  -0.006   1.654   2.054
  240SOL     OW  743   1.689   0.922   2.474
  240SOL    HW1  744   1.784   0.893   2.482
  240SOL    HW2  745   1.681   0.987   2.399
  241SOL     OW  746   1.641   1.108   2.294
  241SOL    HW1  747   1.727   1.110   2.242
  241SOL    HW2  748   1.655   1.155   2.382
  242SOL     OW  749   0.113   0.737   3.459
  242SOL    HW1  750   0.201   0.724   3.504
  242SOL    HW2  751   0.100   0.834   3.437
  243SOL     OW  752   0.613   1.365   2.588
  243SOL    HW1  753   0.564   1.278   2.597
  243SOL    HW2  754   0.590   1.408   2.501
  244SOL     OW  755   1.293   1.228   3.285
  244SOL    HW1  756   1.330   1.155   3.227
  244SOL    HW2  757   1.345   1.233   3.370
  245SOL     OW  758   0.809   0.004   2.364
  245SOL    HW1  759   0.849   0.095   2.355
  245SOL    HW2  760   0.709   0.012   2.370
  246SOL     OW  761   0.197   0.976   3.126
  246SOL    HW1  762   0.286   0.931   3.112
  246SOL    HW2  763   0.124   0.911   3.107
  247SOL     OW  764   1.525   0.999   2.052
  247SOL    HW1  765   1.462   0.923   2.065
  247SOL    HW2  766   1.573   1.017   2.138
  248SOL     OW  767   1.187   1.792   3.478
  248SOL    HW1  768   1.211   1.852   3.402
  248SOL    HW2  769   1.194   1.697   3.448
  249SOL     OW  770   0.317   0.251   3.663
  249SOL    HW1  771   0.388   0.322   3.669
  249SOL    HW2  772   0.229   0.290   3.691
  250SOL     OW  773   1.466   1.417   2.815
  250SOL    HW1  774   1.407   1.423   2.895
  250SOL    HW2  775   1.451   1.329   2.769
  251SOL     OW  776   1.667   1.714   2.434
  251SOL    HW1  777   1.626   1.691   2.346
  251SOL    HW2  778   1.649   1.640   2.499
  252SOL     OW  779   0.598   0.729   2.132
  252SOL    HW1  780   0.622   0.798   2.064
  252SOL    HW2  781   0.520   0.762   2.186
  253SOL     OW  782   1.281   0.345   2.806
  253SOL    HW1  783   1.195   0.295   2.793
  253SOL    HW2  784   1.343   0.291   2.862
  254SOL     OW  785   1.576   1.662   2.169
  254SOL    HW1  786   1.665   1.708   2.172
  254SOL    HW2  787   1.555   1.638   2.074
  255SOL     OW  788   0.807   0.605   3.327
  255SOL    HW1  789   0.760   0.602   3.416
  255SOL    HW2  790   0.756   0.550   3.261
  256SOL     OW  791   1.394   0.469   3.536
  256SOL    HW1  792   1.374   0.512   3.624
  256SOL    HW2  793   1.472   0.407   3.545
  257SOL     OW  794   0.973   0.890   3.434
  257SOL    HW1  795   1.019   0.806   3.405
  257SOL    HW2  796   0.917   0.924   3.359
  258SOL     OW  797   0.991   0.410   3.104
  258SOL    HW1  798   0.914   0.444   3.158
  258SOL    HW2  799   0.957   0.359   3.025
  259SOL     OW  800   1.041   0.701   2.291
  259SOL    HW1  801   1.067   0.697   2.387
  259SOL    HW2  802   0.956   0.650   2.277
  260SOL     OW  803   0.076   0.811   2.651
  260SOL    HW1  804   0.175   0.799   2.660
  260SOL    HW2  805   0.052   0.906   2.672
  261SOL     OW  806   0.130   1.821   3.433
  261SOL    HW1  807   0.120   1.806   3.532
  261SOL    HW2  808   0.044   1.857   3.397
  262SOL     OW  809   0.865   0.348   2.057
  262SOL    HW1  810   0.924   0.411   2.008
  262SOL    HW2  811   0.884   0.254   2.028
  263SOL     OW  812   1.719   0.585   3.693
  263SOL    HW1  813   1.693   0.674   3.657
  263SOL    HW2  814   1.717   0.517   3.620
  264SOL     OW  815   1.362   1.144   2.407
  264SOL    HW1  816   1.445   1.115   2.359
  264SOL    HW2  817   1.313   1.211   2.351
  265SOL     OW  818   0.550   0.196   2.747
  265SOL    HW1  819   0.545   0.191   2.847
  265SOL    HW2  820   0.552   0.292   2.718
  266SOL     OW  821   1.008   1.456   2.339
  266SOL    HW1  822   0.962   1.528   2.287
  266SOL    HW2  823   1.004   1.476   2.437
  267SOL     OW  824   0.351   1.801   2.715
  267SOL    HW1  825   0.401   1.715   2.721
  267SOL    HW2  826   0.416   1.878   2.712
  268SOL     OW  827   1.795   1.066   2.735
  268SOL    HW1  828   1.733   1.051   2.659
  268SOL    HW2  829   1.743   1.077   2.820
  269SOL     OW  830   1.227   1.550   3.368
  269SOL    HW1  831   1.233   1.473   3.432
  269SOL    HW2  832   1.175   1.524   3.288
  270SOL     OW  833   0.321   0.943   2.104
  270SOL    HW1  834   0.403   0.982   2.062
  270SOL    HW2  835   0.294   0.861   2.055
  271SOL     OW  836   1.458   0.735   2.590
  271SOL    HW1  837   1.453   0.670   2.665
  271SOL    HW2  838   1.538   0.794   2.603
  272SOL     OW  839   0.461   1.266   3.589
  272SOL    HW1  840   0.411   1.267   3.503
  272SOL    HW2  841   0.398   1.248   3.665
  273SOL     OW  842   1.111   1.776   2.099
  273SOL    HW1  843   1.051   1.714   2.149
  273SOL    HW2  844   1.142   1.732   2.014
  274SOL     OW  845   0.202   0.285   3.360
  274SOL    HW1  846   0.122   0.345   3.347
  274SOL    HW2  847   0.192   0.236   3.446
  275SOL     OW  848   1.632   1.377   1.943
  275SOL    HW1  849   1.600   1.471   1.933
  275SOL    HW2  850   1.556   1.314   1.931
  276SOL     OW  851   0.464   1.743   2.185
  276SOL    HW1  852   0.497   1.782   2.271
  276SOL    HW2  853   0.540   1.736   2.120
  277SOL     OW  854   1.400   0.107   2.288
  277SOL    HW1  855   1.376   0.070   2.198
  277SOL    HW2  856   1.499   0.123   2.292
  278SOL     OW  857   0.249   1.785   3.103
  278SOL    HW1  858   0.306   1.720   3.153
  278SOL    HW2  859   0.233   1.752   3.010
  279SOL     OW  860   0.940   1.698   2.766
  279SOL    HW1  861   1.020   1.641   2.787
  279SOL    HW2  862   0.891   1.658   2.689
  280SOL     OW  863   0.382   0.700   2.342
  280SOL    HW1  864   0.427   0.610   2.339
  280SOL    HW2  865   0.288   0.689   2.375
  281SOL     OW  866   1.547   0.222   3.591
  281SOL    HW1  867   1.542   0.259   3.683
  281SOL    HW2  868   1.475   0.153   3.579
  282SOL     OW  869   0.614   0.122   1.979
  282SOL    HW1  870   0.712   0.100   1.986
  282SOL    HW2  871   0.583   0.105   1.886
  283SOL     OW  872   0.781   0.264   3.611
  283SOL    HW1  873   0.848   0.203   3.654
  283SOL    HW2  874   0.708   0.283   3.676
  284SOL     OW  875   0.888   1.514   3.057
  284SOL    HW1  876   0.865   1.489   2.963
  284SOL    HW2  877   0.949   1.445   3.096
  285SOL     OW  878   1.351   0.590   3.295
  285SOL    HW1  879   1.379   0.547   3.380
  285SOL    HW2  880   1.376   0.686   3.296
  286SOL     OW  881   0.803   1.402   2.786
  286SOL    HW1  882   0.893   1.416   2.744
  286SOL    HW2  883   0.732   1.404   2.715
  287SOL     OW  884   0.922   0.503   2.761
  287SOL    HW1  885   0.897   0.494   2.665
  287SOL    HW2  886   0.970   0.421   2.792
  288SOL     OW  887   0.539   0.064   2.374
  288SOL    HW1  888   0.458   0.065   2.432
  288SOL    HW2  889   0.542   0.147   2.319
  289SOL     OW  890   1.434   1.188   1.903
  289SOL    HW1  891   1.466   1.112   1.960
  289SOL    HW2  892   1.342   1.215   1.933
  290SOL     OW  893   0.297   0.035   2.033
  290SOL    HW1  894   0.346   0.119   2.012
  290SOL    HW2  895   0.359  -0.030   2.078
  291SOL     OW  896   0.935   0.236   2.342
  291SOL    HW1  897   0.887   0.277   2.264
  291SOL    HW2  898   1.034   0.234   2.323
  292SOL     OW  899   1.076   0.683   3.326
  292SOL    HW1  900   0.996   0.622   3.329
  292SOL    HW2  901   1.157   0.630   3.302
  293SOL     OW  902   1.227   1.570   2.655
  293SOL    HW1  903   1.248   1.644   2.590
  293SOL    HW2  904   1.295   1.570   2.728
  294SOL     OW  905   0.459   1.152   2.603
  294SOL    HW1  906   0.388   1.125   2.668
  294SOL    HW2  907   0.433   1.124   2.510
  295SOL     OW  908   1.271   1.797   2.453
  295SOL    HW1  909   1.315   1.861   2.389
  295SOL    HW2  910   1.221   1.849   2.523
  296SOL     OW  911   1.032   0.549   1.878
  296SOL    HW1  912   0.991   0.631   1.839
  296SOL    HW2  913   1.096   0.575   1.951
  297SOL     OW  914   0.078   0.556   3.248
  297SOL    HW1  915   0.170   0.555   3.207
  297SOL    HW2  916   0.072   0.630   3.315
  298SOL     OW  917   0.561   0.222   3.009
  298SOL    HW1  918   0.599   0.138   3.046
  298SOL    HW2  919   0.473   0.241   3.053
  299SOL     OW  920   0.866   0.454   2.504
  299SOL    HW1  921   0.834   0.526   2.442
  299SOL    HW2  922   0.890   0.373   2.451
  300SOL     OW  923   1.017   0.039   2.615
  300SOL    HW1  924   0.945   0.044   2.546
  300SOL    HW2  925   0.993  -0.030   2.684
  301SOL     OW  926   1.429   1.173   2.729
  301SOL    HW1  927   1.374   1.089   2.722
  301SOL    HW2  928   1.455   1.202   2.637
  302SOL     OW  929   1.466   0.590   2.854
  302SOL    HW1  930   1.436   0.495   2.861
  302SOL    HW2  931   1.539   0.606   2.920
  303SOL     OW  932   1.857   0.833   2.239
  303SOL    HW1  933   1.899   0.769   2.303
  303SOL    HW2  934   1.819   0.782   2.161
  304SOL     OW  935   0.488   1.385   2.036
  304SOL    HW1  936   0.401   1.370   2.083
  304SOL    HW2  937   0.471   1.411   1.941
  305SOL     OW  938   1.664   1.280   2.519
  305SOL    HW1  939   1.763   1.288   2.533
  305SOL    HW2  940   1.619   1.364   2.550
  306SOL     OW  941   1.390   0.575   1.940
  306SOL    HW1  942   1.336   0.554   2.021
  306SOL    HW2  943   1.481   0.534   1.949
  307SOL     OW  944   0.527   0.256   2.190
  307SOL    HW1  945   0.554   0.197   2.115
  307SOL    HW2  946   0.527   0.351   2.159
  308SOL     OW  947   1.754   1.223   3.450
  308SOL    HW1  948   1.845   1.184   3.437
  308SOL    HW2  949   1.762   1.319   3.474
  309SOL     OW  950   1.064   1.347   3.202
  309SOL    HW1  951   0.984   1.324   3.257
  309SOL    HW2  952   1.147   1.321   3.251
  310SOL     OW  953   1.592   1.629   3.487
  310SOL    HW1  954   1.619   1.663   3.397
  310SOL    HW2  955   1.671   1.591   3.533
  311SOL     OW  956   1.111   1.195   2.962
  311SOL    HW1  957   1.071   1.239   3.043
  311SOL    HW2  958   1.070   1.232   2.879
  312SOL     OW  959   1.638   1.099   2.941
  312SOL    HW1  960   1.643   1.180   3.000
  312SOL    HW2  961   1.552   1.101   2.890
  313SOL     OW  962   0.915   0.089   3.264
  313SOL    HW1  963   0.940   0.069   3.169
  313SOL    HW2  964   0.987   0.145   3.306
  314SOL     OW  965   0.980   1.116   3.581
  314SOL    HW1  966   0.881   1.122   3.591
  314SOL    HW2  967   1.003   1.036   3.525
  315SOL     OW  968   0.705   1.050   2.230
  315SOL    HW1  969   0.691   1.057   2.329
  315SOL    HW2  970   0.789   0.999   2.212
  316SOL     OW  971   0.410   0.813   3.113
  316SOL    HW1  972   0.496   0.825   3.163
  316SOL    HW2  973   0.368   0.726   3.140
  317SOL     OW  974   1.274   0.386   3.124
  317SOL    HW1  975   1.295   0.460   3.188
  317SOL    HW2  976   1.185   0.403   3.081
  318SOL     OW  977   0.064   1.564   3.193
  318SOL    HW1  978   0.018   1.646   3.159
  318SOL    HW2  979   0.162   1.583   3.202
  319SOL     OW  980   0.367   1.100   2.363
  319SOL    HW1  981   0.360   1.183   2.307
  319SOL    HW2  982   0.371   1.020   2.303
  320SOL     OW  983   0.566   0.537   2.727
  320SOL    HW1  984   0.578   0.603   2.653
  320SOL    HW2  985   0.612   0.571   2.810
  321SOL     OW  986   1.252   1.348   2.250
  321SOL    HW1  987   1.302   1.425   2.290
  321SOL    HW2  988   1.157   1.350   2.282
  322SOL     OW  989   1.272   1.445   3.004
  322SOL    HW1  990   1.319   1.458   3.091
  322SOL    HW2  991   1.206   1.371   3.013
  323SOL     OW  992   1.582   0.639   2.334
  323SOL    HW1  993   1.551   0.700   2.407
  323SOL    HW2  994   1.632   0.691   2.265
  324SOL     OW  995   0.354   1.510   3.191
  324SOL    HW1  996   0.333   1.466   3.104
  324SOL    HW2  997   0.451   1.536   3.194
  325SOL     OW  998   0.402   0.751   3.460
  325SOL    HW1  999   0.470   0.806   3.413
  325SOL    HW2 1000   0.442   0.663   3.487
  326SOL     OW 1001   1.587   0.779   3.532
  326SOL    HW1 1002   1.495   0.817   3.527
  326SOL    HW2 1003   1.647   0.826   3.467
  327SOL     OW 1004   1.013   0.105   3.632
  327SOL    HW1 1005   1.019   0.190   3.580
  327SOL    HW2 1006   1.045   0.029   3.575
  328SOL     OW 1007   0.504   0.050   3.602
  328SOL    HW1 1008   0.462  -0.007   3.532
  328SOL    HW2 1009   0.438   0.119   3.634
  329SOL     OW 1010   0.573   0.870   2.891
  329SOL    HW1 1011   0.617   0.959   2.882
  329SOL    HW2 1012   0.510   0.870   2.968
  330SOL     OW 1013   1.360   0.862   2.907
  330SOL    HW1 1014   1.285   0.862   2.841
  330SOL    HW2 1015   1.397   0.770   2.916
  331SOL     OW 1016   1.209   0.525   2.137
  331SOL    HW1 1017   1.222   0.441   2.191
  331SOL    HW2 1018   1.180   0.599   2.197
  332SOL     OW 1019   0.307   0.213   3.093
  332SOL    HW1 1020   0.284   0.250   3.183
  332SOL    HW2 1021   0.277   0.118   3.087
  333SOL     OW 1022   0.037   1.310   3.144
  333SOL    HW1 1023   0.090   1.261   3.212
  333SOL    HW2 1024   0.059   1.408   3.149
  334SOL     OW 1025   0.732   0.634   2.926
  334SOL    HW1 1026   0.791   0.608   2.850
  334SOL    HW2 1027   0.704   0.730   2.915
  335SOL     OW 1028   1.728   0.935   3.716
  335SOL    HW1 1029   1.682   0.928   3.627
  335SOL    HW2 1030   1.666   0.979   3.782
  336SOL     OW 1031   0.307   0.063   2.480
  336SOL    HW1 1032   0.296   0.157   2.513
  336SOL    HW2 1033   0.302   0.000   2.557
  337SOL     OW 1034   1.622   0.367   2.236
  337SOL    HW1 1035   1.624   0.291   2.300
  337SOL    HW2 1036   1.574   0.444   2.276
  338SOL     OW 1037   1.023   0.766   2.828
  338SOL    HW1 1038   1.038   0.787   2.924
  338SOL    HW2 1039   0.993   0.671   2.819
  339SOL     OW 1040   0.980   1.573   3.562
  339SOL    HW1 1041   0.960   1.617   3.474
  339SOL    HW2 1042   1.019   1.482   3.546
  340SOL     OW 1043   1.859   1.518   3.467
  340SOL    HW1 1044   1.873   1.545   3.372
  340SOL    HW2 1045   1.942   1.540   3.520
  341SOL     OW 1046   0.350   0.898   3.666
  341SOL    HW1 1047   0.426   0.942   3.714
  341SOL    HW2 1048   0.385   0.851   3.584
  342SOL     OW 1049   1.540   0.274   1.987
  342SOL    HW1 1050   1.479   0.199   2.010
  342SOL    HW2 1051   1.562   0.326   2.070
  343SOL     OW 1052   1.303   0.838   1.904
  343SOL    HW1 1053   1.337   0.745   1.919
  343SOL    HW2 1054   1.321   0.865   1.809
  344SOL     OW 1055   1.068   1.333   2.711
  344SOL    HW1 1056   1.075   1.249   2.656
  344SOL    HW2 1057   1.130   1.402   2.675
  345SOL     OW 1058   0.319   0.810   2.811
  345SOL    HW1 1059   0.412   0.846   2.816
  345SOL    HW2 1060   0.313   0.725   2.863
  346SOL     OW 1061   0.339   0.509   2.868
  346SOL    HW1 1062   0.287   0.426   2.851
  346SOL    HW2 1063   0.416   0.514   2.804
  347SOL     OW 1064   1.138   0.380   3.540
  347SOL    HW1 1065   1.093   0.443   3.604
  347SOL    HW2 1066   1.231   0.411   3.523
  348SOL     OW 1067   1.160   0.207   3.339
  348SOL    HW1 1068   1.160   0.271   3.416
  348SOL    HW2 1069   1.188   0.255   3.256
  349SOL     OW 1070   0.008   1.326   2.062
  349SOL    HW1 1071  -0.085   1.347   2.031
  349SOL    HW2 1072   0.018   1.227   2.075
  350SOL     OW 1073   0.088   1.801   2.789
  350SOL    HW1 1074   0.046   1.715   2.762
  350SOL    HW2 1075   0.182   1.804   2.755
  351SOL     OW 1076   0.504   1.568   2.772
  351SOL    HW1 1077   0.570   1.642   2.781
  351SOL    HW2 1078   0.548   1.489   2.730
  352SOL     OW 1079   1.002   0.796   3.100
  352SOL    HW1 1080   1.043   0.764   3.186
  352SOL    HW2 1081   0.906   0.769   3.097
  353SOL     OW 1082   0.040   0.544   2.976
  353SOL    HW1 1083   0.125   0.511   2.935
  353SOL    HW2 1084   0.053   0.559   3.074
  354SOL     OW 1085   0.189   0.520   3.584
  354SOL    HW1 1086   0.248   0.480   3.514
  354SOL    HW2 1087   0.131   0.591   3.543
  355SOL     OW 1088   1.369   0.950   3.522
  355SOL    HW1 1089   1.408   1.039   3.542
  355SOL    HW2 1090   1.379   0.930   3.425
  356SOL     OW 1091   0.815   0.572   2.187
  356SOL    HW1 1092   0.822   0.483   2.141
  356SOL    HW2 1093   0.721   0.606   2.179
  357SOL     OW 1094   1.657   0.604   3.068
  357SOL    HW1 1095   1.619   0.535   3.130
  357SOL    HW2 1096   1.739   0.568   3.024
  358SOL     OW 1097   0.252   1.564   3.606
  358SOL    HW1 1098   0.222   1.621   3.682
  358SOL    HW2 1099   0.245   1.467   3.632
  359SOL     OW 1100   0.671   0.464   3.131
  359SOL    HW1 1101   0.637   0.375   3.101
  359SOL    HW2 1102   0.697   0.518   3.051
  360SOL     OW 1103   0.930   1.678   3.327
  360SOL    HW1 1104   0.906   1.660   3.232
  360SOL    HW2 1105   0.960   1.772   3.337
  361SOL     OW 1106   0.473   0.500   2.053
  361SOL    HW1 1107   0.534   0.580   2.057
  361SOL    HW2 1108   0.378   0.531   2.060
  362SOL     OW 1109   0.159   1.137   3.328
  362SOL    HW1 1110   0.181   1.076   3.404
  362SOL    HW2 1111   0.169   1.088   3.242
  363SOL     OW 1112   1.347   1.059   3.096
  363SOL    HW1 1113   1.371   0.996   3.022
  363SOL    HW2 1114   1.257   1.099   3.078
  364SOL     OW 1115   1.302   0.855   2.171
  364SOL    HW1 1116   1.216   0.824   2.213
  364SOL    HW2 1117   1.298   0.841   2.072
  365SOL     OW 1118   1.759   1.747   3.016
  365SOL    HW1 1119   1.820   1.777   2.943
  365SOL    HW2 1120   1.721   1.658   2.994
  366SOL     OW 1121   1.252   1.731   2.990
  366SOL    HW1 1122   1.336   1.736   2.936
  366SOL    HW2 1123   1.229   1.635   3.008
  367SOL     OW 1124   0.083   1.258   2.884
  367SOL    HW1 1125   0.078   1.257   2.984
  367SOL    HW2 1126   0.000   1.217   2.846
  368SOL     OW 1127   0.688   1.662   3.578
  368SOL    HW1 1128   0.632   1.743   3.587
  368SOL    HW2 1129   0.740   1.666   3.492
  369SOL     OW 1130   1.726   0.135   2.385
  369SOL    HW1 1131   1.799   0.118   2.318
  369SOL    HW2 1132   1.695   0.048   2.423
  370SOL     OW 1133   1.388   1.573   2.339
  370SOL    HW1 1134   1.455   1.585   2.265
  370SOL    HW2 1135   1.348   1.662   2.362
  371SOL     OW 1136   0.130   1.794   3.713
  371SOL    HW1 1137   0.089   1.720   3.766
  371SOL    HW2 1138   0.194   1.845   3.771
  372SOL     OW 1139   1.280   0.927   2.534
  372SOL    HW1 1140   1.340   0.846   2.536
  372SOL    HW2 1141   1.320   0.996   2.474
  373SOL     OW 1142   0.830   1.273   3.284
  373SOL    HW1 1143   0.825   1.306   3.379
  373SOL    HW2 1144   0.744   1.292   3.238
  374SOL     OW 1145   0.672   1.616   2.016
  374SOL    HW1 1146   0.681   1.626   1.917
  374SOL    HW2 1147   0.632   1.527   2.037
  375SOL     OW 1148   1.650   1.720   3.256
  375SOL    HW1 1149   1.703   1.730   3.172
  375SOL    HW2 1150   1.623   1.810   3.290
  376SOL     OW 1151   1.841   0.175   2.825
  376SOL    HW1 1152   1.880   0.090   2.789
  376SOL    HW2 1153   1.743   0.177   2.806
  377SOL     OW 1154   0.263   0.326   2.582
  377SOL    HW1 1155   0.184   0.377   2.548
  377SOL    HW2 1156   0.254   0.311   2.680
  378SOL     OW 1157   1.194   1.612   1.893
  378SOL    HW1 1158   1.200   1.519   1.930
  378SOL    HW2 1159   1.135   1.612   1.813
  379SOL     OW 1160   0.822   1.002   3.234
  379SOL    HW1 1161   0.862   1.001   3.142
  379SOL    HW2 1162   0.832   1.094   3.274
  380SOL     OW 1163   0.916   0.910   2.153
  380SOL    HW1 1164   0.979   0.948   2.085
  380SOL    HW2 1165   0.956   0.827   2.192
  381SOL     OW 1166   1.504   1.607   1.906
  381SOL    HW1 1167   1.412   1.644   1.913
  381SOL    HW2 1168   1.542   1.627   1.816
  382SOL     OW 1169   0.372   1.288   3.352
  382SOL    HW1 1170   0.359   1.381   3.318
  382SOL    HW2 1171   0.288   1.236   3.339
  383SOL     OW 1172   1.039   1.098   2.558
  383SOL    HW1 1173   0.969   1.051   2.612
  383SOL    HW2 1174   1.098   1.030   2.515
  384SOL     OW 1175   1.014   0.236   2.833
  384SOL    HW1 1176   1.006   0.200   2.740
  384SOL    HW2 1177   1.012   0.160   2.898
  385SOL     OW 1178   0.590   1.487   2.353
  385SOL    HW1 1179   0.632   1.429   2.283
  385SOL    HW2 1180   0.546   1.566   2.309
  386SOL     OW 1181   1.709   0.385   3.243
  386SOL    HW1 1182   1.782   0.454   3.247
  386SOL    HW2 1183   1.737   0.310   3.184
  387SOL     OW 1184   0.255   1.348   2.152
  387SOL    HW1 1185   0.159   1.349   2.125
  387SOL    HW2 1186   0.267   1.401   2.236
  388SOL     OW 1187   0.105   1.013   3.588
  388SOL    HW1 1188   0.028   0.980   3.642
  388SOL    HW2 1189   0.190   0.983   3.630
  389SOL     OW 1190   0.672   0.203   3.351
  389SOL    HW1 1191   0.762   0.187   3.311
  389SOL    HW2 1192   0.680   0.208   3.450
  390SOL     OW 1193   0.075   0.345   1.895
  390SOL    HW1 1194  -0.017   0.317   1.866
  390SOL    HW2 1195   0.106   0.422   1.839
  391SOL     OW 1196   1.440   0.856   3.260
  391SOL    HW1 1197   1.383   0.908   3.197
  391SOL    HW2 1198   1.536   0.868   3.236
  392SOL     OW 1199   0.072   0.166   2.180
  392SOL    HW1 1200   0.055   0.249   2.126
  392SOL    HW2 1201   0.162   0.129   2.158
  393SOL     OW 1202   1.183   1.335   1.981
  393SOL    HW1 1203   1.084   1.324   1.983
  393SOL    HW2 1204   1.217   1.350   2.074
  394SOL     OW 1205   0.613   0.842   3.293
  394SOL    HW1 1206   0.669   0.923   3.276
  394SOL    HW2 1207   0.672   0.762   3.296
  395SOL     OW 1208   1.493   1.767   2.821
  395SOL    HW1 1209   1.526   1.831   2.752
  395SOL    HW2 1210   1.559   1.761   2.896
  396SOL     OW 1211   0.716   0.565   3.570
  396SOL    HW1 1212   0.735   0.630   3.644
  396SOL    HW2 1213   0.776   0.485   3.579
  397SOL     OW 1214   1.450   1.220   3.495
  397SOL    HW1 1215   1.441   1.210   3.594
  397SOL    HW2 1216   1.546   1.213   3.469
  398SOL     OW 1217   0.390   1.741   3.422
  398SOL    HW1 1218   0.299   1.782   3.420
  398SOL    HW2 1219   0.383   1.647   3.454
  399SOL     OW 1220   1.674   0.883   3.116
  399SOL    HW1 1221   1.647   0.794   3.079
  399SOL    HW2 1222   1.675   0.951   3.043
  400SOL     OW 1223   1.225   0.325   2.311
  400SOL    HW1 1224   1.290   0.251   2.300
  400SOL    HW2 1225   1.245   0.375   2.395
  401SOL     OW 1226   0.594   0.745   2.514
  401SOL    HW1 1227   0.644   0.830   2.495
  401SOL    HW2 1228   0.506   0.747   2.466
  402SOL     OW 1229   1.777   0.342   3.504
  402SOL    HW1 1230   1.760   0.373   3.410
  402SOL    HW2 1231   1.693   0.305   3.542
  403SOL     OW 1232   1.730   0.934   3.379
  403SOL    HW1 1233   1.768   1.025   3.394
  403SOL    HW2 1234   1.722   0.917   3.280
  404SOL     OW 1235   0.859   1.374   1.878
  404SOL    HW1 1236   0.813   1.389   1.966
  404SOL    HW2 1237   0.903   1.459   1.848
  405SOL     OW 1238   0.661   1.790   2.815
  405SOL    HW1 1239   0.615   1.878   2.802
  405SOL    HW2 1240   0.760   1.802   2.808
  406SOL     OW 1241   0.859   0.956   2.723
  406SOL    HW1 1242   0.913   0.887   2.771
  406SOL    HW2 1243   0.827   1.025   2.789
  407SOL     OW 1244   1.083   0.984   1.949
  407SOL    HW1 1245   1.060   1.037   1.867
  407SOL    HW2 1246   1.164   0.928   1.930
  408SOL     OW 1247   1.861   1.569   2.713
  408SOL    HW1 1248   1.790   1.557   2.643
  408SOL    HW2 1249   1.862   1.490   2.773
  409SOL     OW 1250   0.221   1.314   3.706
  409SOL    HW1 1251   0.156   1.241   3.685
  409SOL    HW2 1252   0.225   1.328   3.804
  410SOL     OW 1253   0.079   1.240   2.515
  410SOL    HW1 1254   0.078   1.193   2.603
  410SOL    HW2 1255   0.161   1.212   2.464
  411SOL     OW 1256   0.672   1.391   3.486
  411SOL    HW1 1257   0.594   1.341   3.524
  411SOL    HW2 1258   0.669   1.486   3.517
  412SOL     OW 1259   1.824   0.192   3.089
  412SOL    HW1 1260   1.820   0.102   3.133
  412SOL    HW2 1261   1.827   0.181   2.990
  413SOL     OW 1262   0.428   0.424   2.382
  413SOL    HW1 1263   0.458   0.352   2.320
  413SOL    HW2 1264   0.389   0.384   2.465
  414SOL     OW 1265   1.705   1.487   2.966
  414SOL    HW1 1266   1.612   1.462   2.939
  414SOL    HW2 1267   1.731   1.437   3.048
  415SOL     OW 1268   0.317   0.547   3.142
  415SOL    HW1 1269   0.355   0.488   3.214
  415SOL    HW2 1270   0.357   0.521   3.054
  416SOL     OW 1271   0.812   1.586   2.549
  416SOL    HW1 1272   0.844   1.596   2.455
  416SOL    HW2 1273   0.733   1.524   2.551
  417SOL     OW 1274   1.424   0.214   2.974
  417SOL    HW1 1275   1.476   0.149   3.029
  417SOL    HW2 1276   1.375   0.277   3.035
  418SOL     OW 1277   1.001   0.034   3.016
  418SOL    HW1 1278   0.938  -0.038   2.985
  418SOL    HW2 1279   1.094  -0.002   3.016
  419SOL     OW 1280   0.770   1.330   2.163
  419SOL    HW1 1281   0.724   1.243   2.180
  419SOL    HW2 1282   0.861   1.327   2.204
  420SOL     OW 1283   0.618   1.567   3.146
  420SOL    HW1 1284   0.613   1.649   3.203
  420SOL    HW2 1285   0.707   1.564   3.101
  421SOL     OW 1286   1.352   0.052   2.030
  421SOL    HW1 1287   1.387   0.011   1.946
  421SOL    HW2 1288   1.262   0.014   2.050
  422SOL     OW 1289   1.300   0.453   2.553
  422SOL    HW1 1290   1.241   0.533   2.557
  422SOL    HW2 1291   1.315   0.418   2.646
  423SOL     OW 1292   1.593   0.221   2.744
  423SOL    HW1 1293   1.509   0.220   2.798
  423SOL    HW2 1294   1.595   0.304   2.688
  424SOL     OW 1295   0.039   1.077   2.162
  424SOL    HW1 1296   0.138   1.066   2.153
  424SOL    HW2 1297  -0.001   0.991   2.194
  425SOL     OW 1298   0.875   1.646   2.199
  425SOL    HW1 1299   0.798   1.611   2.145
  425SOL    HW2 1300   0.843   1.717   2.261
  426SOL     OW 1301   0.230   0.628   3.837
  426SOL    HW1 1302   0.137   0.626   3.874
  426SOL    HW2 1303   0.231   0.589   3.745
  427SOL     OW 1304   0.225   0.275   4.720
  427SOL    HW1 1305   0.260   0.258   4.812
  427SOL    HW2 1306   0.137   0.230   4.708
  428SOL     OW 1307   0.019   0.368   4.371
  428SOL    HW1 1308  -0.063   0.411   4.410
  428SOL    HW2 1309  -0.009   0.295   4.308
  429SOL     OW 1310   0.569   1.275   4.889
  429SOL    HW1 1311   0.476   1.268   4.852
  429SOL    HW2 1312   0.580   1.364   4.933
  430SOL     OW 1313   1.555   1.511   4.427
  430SOL    HW1 1314   1.498   1.495   4.508
  430SOL    HW2 1315   1.496   1.521   4.347
  431SOL     OW 1316   1.135   0.703   4.441
  431SOL    HW1 1317   1.192   0.781   4.416
  431SOL    HW2 1318   1.075   0.729   4.517
  432SOL     OW 1319   1.755   0.607   3.955
  432SOL    HW1 1320   1.743   0.594   3.856
  432SOL    HW2 1321   1.725   0.526   4.004
  433SOL     OW 1322   0.768   1.144   4.747
  433SOL    HW1 1323   0.690   1.161   4.807
  433SOL    HW2 1324   0.802   1.231   4.711
  434SOL     OW 1325   0.850   0.798   5.547
  434SOL    HW1 1326   0.846   0.874   5.612
  434SOL    HW2 1327   0.872   0.834   5.456
  435SOL     OW 1328   0.685   1.012   4.389
  435SOL    HW1 1329   0.754   0.996   4.459
  435SOL    HW2 1330   0.612   1.069   4.427
  436SOL     OW 1331   0.686   1.161   5.527
  436SOL    HW1 1332   0.746   1.240   5.541
  436SOL    HW2 1333   0.600   1.192   5.486
  437SOL     OW 1334   0.335   1.435   4.785
  437SOL    HW1 1335   0.257   1.404   4.732
  437SOL    HW2 1336   0.393   1.493   4.728
  438SOL     OW 1337   1.460   1.505   5.063
  438SOL    HW1 1338   1.484   1.599   5.089
  438SOL    HW2 1339   1.444   1.451   5.145
  439SOL     OW 1340   0.438   0.392   5.223
  439SOL    HW1 1341   0.520   0.336   5.232
  439SOL    HW2 1342   0.357   0.334   5.227
  440SOL     OW 1343   1.603   0.447   4.461
  440SOL    HW1 1344   1.529   0.493   4.411
  440SOL    HW2 1345   1.654   0.515   4.514
  441SOL     OW 1346   0.231   1.713   4.207
  441SOL    HW1 1347   0.265   1.790   4.261
  441SOL    HW2 1348   0.275   1.713   4.117
  442SOL     OW 1349   1.127   1.341   5.414
  442SOL    HW1 1350   1.174   1.341   5.502
  442SOL    HW2 1351   1.079   1.254   5.403
  443SOL     OW 1352   0.230   1.434   4.262
  443SOL    HW1 1353   0.204   1.530   4.262
  443SOL    HW2 1354   0.159   1.380   4.307
  444SOL     OW 1355   0.240   1.091   4.610
  444SOL    HW1 1356   0.254   1.007   4.662
  444SOL    HW2 1357   0.185   1.155   4.665
  445SOL     OW 1358   0.620   1.786   5.163
  445SOL    HW1 1359   0.528   1.769   5.198
  445SOL    HW2 1360   0.648   1.878   5.189
  446SOL     OW 1361   0.606   0.964   3.847
  446SOL    HW1 1362   0.613   1.048   3.793
  446SOL    HW2 1363   0.652   0.977   3.935
  447SOL     OW 1364   1.594   0.114   5.204
  447SOL    HW1 1365   1.576   0.181   5.132
  447SOL    HW2 1366   1.591   0.160   5.293
  448SOL     OW 1367   0.122   0.643   4.287
  448SOL    HW1 1368   0.077   0.555   4.304
  448SOL    HW2 1369   0.121   0.697   4.371
  449SOL     OW 1370   1.842   1.767   4.083
  449SOL    HW1 1371   1.896   1.738   4.163
  449SOL    HW2 1372   1.872   1.857   4.054
  450SOL     OW 1373   0.027   1.596   3.841
  450SOL    HW1 1374   0.008   1.500   3.862
  450SOL    HW2 1375  -0.006   1.654   3.916
  451SOL     OW 1376   1.689   0.922   4.336
  451SOL    HW1 1377   1.784   0.893   4.344
  451SOL    HW2 1378   1.681   0.987   4.261
  452SOL     OW 1379   1.641   1.108   4.156
  452SOL    HW1 1380   1.727   1.110   4.104
  452SOL    HW2 1381   1.655   1.155   4.244
  453SOL     OW 1382   0.113   0.737   5.321
  453SOL    HW1 1383   0.201   0.724   5.366
  453SOL    HW2 1384   0.100   0.834   5.299
  454SOL     OW 1385   0.613   1.365   4.450
  454SOL    HW1 1386   0.564   1.278   4.459
  454SOL    HW2 1387   0.590   1.408   4.363
  455SOL     OW 1388   1.293   1.228   5.147
  455SOL    HW1 1389   1.330   1.155   5.089
  455SOL    HW2 1390   1.345   1.233   5.232
  456SOL     OW 1391   0.809   0.004   4.226
  456SOL    HW1 1392   0.849   0.095   4.217
  456SOL    HW2 1393   0.709   0.012   4.232
  457SOL     OW 1394   0.197   0.976   4.988
  457SOL    HW1 1395   0.286   0.931   4.974
  457SOL    HW2 1396   0.124   0.911   4.969
  458SOL     OW 1397   1.525   0.999   3.914
  458SOL    HW1 1398   1.462   0.923   3.927
  458SOL    HW2 1399   1.573   1.017   4.000
  459SOL     OW 1400   1.187   1.792   5.340
  459SOL    HW1 1401   1.211   1.852   5.264
  459SOL    HW2 1402   1.194   1.697   5.310
  460SOL     OW 1403   0.317   0.251   5.525
  460SOL    HW1 1404   0.388   0.322   5.531
  460SOL    HW2 1405   0.229   0.290   5.553
  461SOL     OW 1406   1.466   1.417   4.677
  461SOL    HW1 1407   1.407   1.423   4.757
  461SOL    HW2 1408   1.451   1.329   4.631
  462SOL     OW 1409   1.667   1.714   4.296
  462SOL    HW1 1410   1.626   1.691   4.208
  462SOL    HW2 1411   1.649   1.640   4.361
  463SOL     OW 1412   0.598   0.729   3.994
  463SOL    HW1 1413   0.622   0.798   3.926
  463SOL    HW2 1414   0.520   0.762   4.048
  464SOL     OW 1415   1.281   0.345   4.668
  464SOL    HW1 1416   1.195   0.295   4.655
  464SOL    HW2 1417   1.343   0.291   4.724
  465SOL     OW 1418   1.576   1.662   4.031
  465SOL    HW1 1419   1.665   1.708   4.034
  465SOL    HW2 1420   1.555   1.638   3.936
  466SOL     OW 1421   0.807   0.605   5.189
  466SOL    HW1 1422   0.760   0.602   5.278
  466SOL    HW2 1423   0.756   0.550   5.123
  467SOL     OW 1424   1.394   0.469   5.398
  467SOL    HW1 1425   1.374   0.512   5.486
  467SOL    HW2 1426   1.472   0.407   5.407
  468SOL     OW 1427   0.973   0.890   5.296
  468SOL    HW1 1428   1.019   0.806   5.267
  468SOL    HW2 1429   0.917   0.924   5.221
  469SOL     OW 1430   0.991   0.410   4.966
  469SOL    HW1 1431   0.914   0.444   5.020
  469SOL    HW2 1432   0.957   0.359   4.887
  470SOL     OW 1433   1.041   0.701   4.153
  470SOL    HW1 1434   1.067   0.697   4.249
  470SOL    HW2 1435   0.956   0.650   4.139
  471SOL     OW 1436   0.076   0.811   4.513
  471SOL    HW1 1437   0.175   0.799   4.522
  471SOL    HW2 1438   0.052   0.906   4.534
  472SOL     OW 1439   0.130   1.821   5.295
  472SOL    HW1 1440   0.120   1.806   5.394
  472SOL    HW2 1441   0.044   1.857   5.259
  473SOL     OW 1442   0.865   0.348   3.919
  473SOL    HW1 1443   0.924   0.411   3.870
  473SOL    HW2 1444   0.884   0.254   3.890
  474SOL     OW 1445   1.719   0.585   5.555
  474SOL    HW1 1446   1.693   0.674   5.519
  474SOL    HW2 1447   1.717   0.517   5.482
  475SOL     OW 1448   1.362   1.144   4.269
  475SOL    HW1 1449   1.445   1.115   4.221
  475SOL    HW2 1450   1.313   1.211   4.213
  476SOL     OW 1451   0.550   0.196   4.609
  476SOL    HW1 1452   0.545   0.191   4.709
  476SOL    HW2 1453   0.552   0.292   4.580
  477SOL     OW 1454   1.008   1.456   4.201
  477SOL    HW1 1455   0.962   1.528   4.149
  477SOL    HW2 1456   1.004   1.476   4.299
  478SOL     OW 1457   0.351   1.801   4.577
  478SOL    HW1 1458   0.401   1.715   4.583
  478SOL    HW2 1459   0.416   1.878   4.574
  479SOL     OW 1460   1.795   1.066   4.597
  479SOL    HW1 1461   1.733   1.051   4.521
  479SOL    HW2 1462   1.743   1.077   4.682
  480SOL     OW 1463   1.227   1.550   5.230
  480SOL    HW1 1464   1.233   1.473   5.294
  480SOL    HW2 1465   1.175   1.524   5.150
  481SOL     OW 1466   0.321   0.943   3.966
  481SOL    HW1 1467   0.403   0.982   3.924
  481SOL    HW2 1468   0.294   0.861   3.917
  482SOL     OW 1469   1.458   0.735   4.452
  482SOL    HW1 1470   1.453   0.670   4.527
  482SOL    HW2 1471   1.538   0.794   4.465
  483SOL     OW 1472   0.461   1.266   5.451
  483SOL    HW1 1473   0.411   1.267   5.365
  483SOL    HW2 1474   0.398   1.248   5.527
  484SOL     OW 1475   1.111   1.776   3.961
  484SOL    HW1 1476   1.051   1.714   4.011
  484SOL    HW2 1477   1.142   1.732   3.876
  485SOL     OW 1478   0.202   0.285   5.222
  485SOL    HW1 1479   0.122   0.345   5.209
  485SOL    HW2 1480   0.192   0.236   5.308
  486SOL     OW 1481   1.632   1.377   3.805
  486SOL    HW1 1482   1.600   1.471   3.795
  486SOL    HW2 1483   1.556   1.314   3.793
  487SOL     OW 1484   0.464   1.743   4.047
  487SOL    HW1 1485   0.497   1.782   4.133
  487SOL    HW2 1486   0.540   1.736   3.982
  488SOL     OW 1487   1.400   0.107   4.150
  488SOL    HW1 1488   1.376   0.070   4.060
  488SOL    HW2 1489   1.499   0.123   4.154
  489SOL     OW 1490   0.249   1.785   4.965
  489SOL    HW1 1491   0.306   1.720   5.015
  489SOL    HW2 1492   0.233   1.752   4.872
  490SOL     OW 1493   0.940   1.698   4.628
  490SOL    HW1 1494   1.020   1.641   4.649
  490SOL    HW2 1495   0.891   1.658   4.551
  491SOL     OW 1496   0.382   0.700   4.204
  491SOL    HW1 1497   0.427   0.610   4.201
  491SOL    HW2 1498   0.288   0.689   4.237
  492SOL     OW 1499   1.547   0.222   5.453
  492SOL    HW1 1500   1.542   0.259   5.545
  492SOL    HW2 1501   1.475   0.153   5.441
  493SOL     OW 1502   0.614   0.122   3.841
  493SOL    HW1 1503   0.712   0.100   3.848
  493SOL    HW2 1504   0.583   0.105   3.748
  494SOL     OW 1505   0.781   0.264   5.473
  494SOL    HW1 1506   0.848   0.203   5.516
  494SOL    HW2 1507   0.708   0.283   5.538
  495SOL     OW 1508   0.888   1.514   4.919
  495SOL    HW1 1509   0.865   1.489   4.825
  495SOL    HW2 1510   0.949   1.445   4.958
  496SOL     OW 1511   1.351   0.590   5.157
  496SOL    HW1 1512   1.379   0.547   5.242
  496SOL    HW2 1513   1.376   0.686   5.158
  497SOL     OW 1514   0.803   1.402   4.648
  497SOL    HW1 1515   0.893   1.416   4.606
  497SOL    HW2 1516   0.732   1.404   4.577
  498SOL     OW 1517   0.922   0.503   4.623
  498SOL    HW1 1518   0.897   0.494   4.527
  498SOL    HW2 1519   0.970   0.421   4.654
  499SOL     OW 1520   0.539   0.064   4.236
  499SOL    HW1 1521   0.458   0.065   4.294
  499SOL    HW2 1522   0.542   0.147   4.181
  500SOL     OW 1523   1.434   1.188   3.765
  500SOL    HW1 1524   1.466   1.112   3.822
  500SOL    HW2 1525   1.342   1.215   3.795
  501SOL     OW 1526   0.297   0.035   3.895
  501SOL    HW1 1527   0.346   0.119   3.874
  501SOL    HW2 1528   0.359  -0.030   3.940
  502SOL     OW 1529   0.935   0.236   4.204
  502SOL    HW1 1530   0.887   0.277   4.126
  502SOL    HW2 1531   1.034   0.234   4.185
  503SOL     OW 1532   1.076   0.683   5.188
  503SOL    HW1 1533   0.996   0.622   5.191
  503SOL    HW2 1534   1.157   0.630   5.164
  504SOL     OW 1535   1.227   1.570   4.517
  504SOL    HW1 1536   1.248   1.644   4.452
  504SOL    HW2 1537   1.295   1.570   4.590
  505SOL     OW 1538   0.459   1.152   4.465
  505SOL    HW1 1539   0.388   1.125   4.530
  505SOL    HW2 1540   0.433   1.124   4.372
  506SOL     OW 1541   1.271   1.797   4.315
  506SOL    HW1 1542   1.315   1.861   4.251
  506SOL    HW2 1543   1.221   1.849   4.385
  507SOL     OW 1544   1.032   0.549   3.740
  507SOL    HW1 1545   0.991   0.631   3.701
  507SOL    HW2 1546   1.096   0.575   3.813
  508SOL     OW 1547   0.078   0.556   5.110
  508SOL    HW1 1548   0.170   0.555   5.069
  508SOL    HW2 1549   0.072   0.630   5.177
  509SOL     OW 1550   0.561   0.222   4.871
  509SOL    HW1 1551   0.599   0.138   4.908
  509SOL    HW2 1552   0.473   0.241   4.915
  510SOL     OW 1553   0.866   0.454   4.366
  510SOL    HW1 1554   0.834   0.526   4.304
  510SOL    HW2 1555   0.890   0.373   4.313
  511SOL     OW 1556   1.017   0.039   4.477
  511SOL    HW1 1557   0.945   0.044   4.408
  511SOL    HW2 1558   0.993  -0.030   4.546
  512SOL     OW 1559   1.429   1.173   4.591
  512SOL    HW1 1560   1.374   1.089   4.584
  512SOL    HW2 1561   1.455   1.202   4.499
  513SOL     OW 1562   1.466   0.590   4.716
  513SOL    HW1 1563   1.436   0.495   4.723
  513SOL    HW2 1564   1.539   0.606   4.782
  514SOL     OW 1565   1.857   0.833   4.101
  514SOL    HW1 1566   1.899   0.769   4.165
  514SOL    HW2 1567   1.819   0.782   4.023
  515SOL     OW 1568   0.488   1.385   3.898
  515SOL    HW1 1569   0.401   1.370   3.945
  515SOL    HW2 1570   0.471   1.411   3.803
  516SOL     OW 1571   1.664   1.280   4.381
  516SOL    HW1 1572   1.763   1.288   4.395
  516SOL    HW2 1573   1.619   1.364   4.412
  517SOL     OW 1574   1.390   0.575   3.802
  517SOL    HW1 1575   1.336   0.554   3.883
  517SOL    HW2 1576   1.481   0.534   3.811
  518SOL     OW 1577   0.527   0.256   4.052
  518SOL    HW1 1578   0.554   0.197   3.977
  518SOL    HW2 1579   0.527   0.351   4.021
  519SOL     OW 1580   1.754   1.223   5.312
  519SOL    HW1 1581   1.845   1.184   5.299
  519SOL    HW2 1582   1.762   1.319   5.336
  520SOL     OW 1583   1.064   1.347   5.064
  520SOL    HW1 1584   0.984   1.324   5.119
  520SOL    HW2 1585   1.147   1.321   5.113
  521SOL     OW 1586   1.592   1.629   5.349
  521SOL    HW1 1587   1.619   1.663   5.259
  521SOL    HW2 1588   1.671   1.591   5.395
  522SOL     OW 1589   1.111   1.195   4.824
  522SOL    HW1 1590   1.071   1.239   4.905
  522SOL    HW2 1591   1.070   1.232   4.741
  523SOL     OW 1592   1.638   1.099   4.803
  523SOL    HW1 1593   1.643   1.180   4.862
  523SOL    HW2 1594   1.552   1.101   4.752
  524SOL     OW 1595   0.915   0.089   5.126
  524SOL    HW1 1596   0.940   0.069   5.031
  524SOL    HW2 1597   0.987   0.145   5.168
  525SOL     OW 1598   0.980   1.116   5.443
  525SOL    HW1 1599   0.881   1.122   5.453
  525SOL    HW2 1600   1.003   1.036   5.387
  526SOL     OW 1601   0.705   1.050   4.092
  526SOL    HW1 1602   0.691   1.057   4.191
  526SOL    HW2 1603   0.789   0.999   4.074
  527SOL     OW 1604   0.410   0.813   4.975
  527SOL    HW1 1605   0.496   0.825   5.025
  527SOL    HW2 1606   0.368   0.726   5.002
  528SOL     OW 1607   1.274   0.386   4.986
  528SOL    HW1 1608   1.295   0.460   5.050
  528SOL    HW2 1609   1.185   0.403   4.943
  529SOL     OW 1610   0.064   1.564   5.055
  529SOL    HW1 1611   0.018   1.646   5.021
  529SOL    HW2 1612   0.162   1.583   5.064
  530SOL     OW 1613   0.367   1.100   4.225
  530SOL    HW1 1614   0.360   1.183   4.169
  530SOL    HW2 1615   0.371   1.020   4.165
  531SOL     OW 1616   0.566   0.537   4.589
  531SOL    HW1 1617   0.578   0.603   4.515
  531SOL    HW2 1618   0.612   0.571   4.672
  532SOL     OW 1619   1.252   1.348   4.112
  532SOL    HW1 1620   1.302   1.425   4.152
  532SOL    HW2 1621   1.157   1.350   4.144
  533SOL     OW 1622   1.272   1.445   4.866
  533SOL    HW1 1623   1.319   1.458   4.953
  533SOL    HW2 1624   1.206   1.371   4.875
  534SOL     OW 1625   1.582   0.639   4.196
  534SOL    HW1 1626   1.551   0.700   4.269
  534SOL    HW2 1627   1.632   0.691   4.127
  535SOL     OW 1628   0.402   0.751   5.322
  535SOL    HW1 1629   0.470   0.806   5.275
  535SOL    HW2 1630   0.442   0.663   5.349
  536SOL     OW 1631   1.587   0.779   5.394
  536SOL    HW1 1632   1.495   0.817   5.389
  536SOL    HW2 1633   1.647   0.826   5.329
  537SOL     OW 1634   1.013   0.105   5.494
  537SOL    HW1 1635   1.019   0.190   5.442
  537SOL    HW2 1636   1.045   0.029   5.437
  538SOL     OW 1637   0.504   0.050   5.464
  538SOL    HW1 1638   0.462  -0.007   5.394
  538SOL    HW2 1639   0.438   0.119   5.496
  539SOL     OW 1640   0.573   0.870   4.753
  539SOL    HW1 1641   0.617   0.959   4.744
  539SOL    HW2 1642   0.510   0.870   4.830
  540SOL     OW 1643   1.360   0.862   4.769
  540SOL    HW1 1644   1.285   0.862   4.703
  540SOL    HW2 1645   1.397   0.770   4.778
  541SOL     OW 1646   1.209   0.525   3.999
  541SOL    HW1 1647   1.222   0.441   4.053
  541SOL    HW2 1648   1.180   0.599   4.059
  542SOL     OW 1649   0.307   0.213   4.955
  542SOL    HW1 1650   0.284   0.250   5.045
  542SOL    HW2 1651   0.277   0.118   4.949
  543SOL     OW 1652   0.037   1.310   5.006
  543SOL    HW1 1653   0.090   1.261   5.074
  543SOL    HW2 1654   0.059   1.408   5.011
  544SOL     OW 1655   0.732   0.634   4.788
  544SOL    HW1 1656   0.791   0.608   4.712
  544SOL    HW2 1657   0.704   0.730   4.777
  545SOL     OW 1658   1.728   0.935   5.578
  545SOL    HW1 1659   1.682   0.928   5.489
  545SOL    HW2 1660   1.666   0.979   5.644
  546SOL     OW 1661   0.307   0.063   4.342
  546SOL    HW1 1662   0.296   0.157   4.375
  546SOL    HW2 1663   0.302   0.000   4.419
  547SOL     OW 1664   1.622   0.367   4.098
  547SOL    HW1 1665   1.624   0.291   4.162
  547SOL    HW2 1666   1.574   0.444   4.138
  548SOL     OW 1667   1.023   0.766   4.690
  548SOL    HW1 1668   1.038   0.787   4.786
  548SOL    HW2 1669   0.993   0.671   4.681
  549SOL     OW 1670   0.980   1.573   5.424
  549SOL    HW1 1671   0.960   1.617   5.336
  549SOL    HW2 1672   1.019   1.482   5.408
  550SOL     OW 1673   1.859   1.518   5.329
  550SOL    HW1 1674   1.873   1.545   5.234
  550SOL    HW2 1675   1.942   1.540   5.382
  551SOL     OW 1676   0.350   0.898   5.528
  551SOL    HW1 1677   0.426   0.942   5.576
  551SOL    HW2 1678   0.385   0.851   5.446
  552SOL     OW 1679   1.540   0.274   3.849
  552SOL    HW1 1680   1.479   0.199   3.872
  552SOL    HW2 1681   1.562   0.326   3.932
  553SOL     OW 1682   1.303   0.838   3.766
  553SOL    HW1 1683   1.337   0.745   3.781
  553SOL    HW2 1684   1.321   0.865   3.671
  554SOL     OW 1685   1.068   1.333   4.573
  554SOL    HW1 1686   1.075   1.249   4.518
  554SOL    HW2 1687   1.130   1.402   4.537
  555SOL     OW 1688   0.319   0.810   4.673
  555SOL    HW1 1689   0.412   0.846   4.678
  555SOL    HW2 1690   0.313   0.725   4.725
  556SOL     OW 1691   0.339   0.509   4.730
  556SOL    HW1 1692   0.287   0.426   4.713
  556SOL    HW2 1693   0.416   0.514   4.666
  557SOL     OW 1694   1.138   0.380   5.402
  557SOL    HW1 1695   1.093   0.443   5.466
  557SOL    HW2 1696   1.231   0.411   5.385
  558SOL     OW 1697   1.160   0.207   5.201
  558SOL    HW1 1698   1.160   0.271   5.278
  558SOL    HW2 1699   1.188   0.255   5.118
  559SOL     OW 1700   0.008   1.326   3.924
  559SOL    HW1 1701  -0.085   1.347   3.893
  559SOL    HW2 1702   0.018   1.227   3.937
  560SOL     OW 1703   0.088   1.801   4.651
  560SOL    HW1 1704   0.046   1.715   4.624
  560SOL    HW2 1705   0.182   1.804   4.617
  561SOL     OW 1706   0.504   1.568   4.634
  561SOL    HW1 1707   0.570   1.642   4.643
  561SOL    HW2 1708   0.548   1.489   4.592
  562SOL     OW 1709   1.002   0.796   4.962
  562SOL    HW1 1710   1.043   0.764   5.048
  562SOL    HW2 1711   0.906   0.769   4.959
  563SOL     OW 1712   0.040   0.544   4.838
  563SOL    HW1 1713   0.125   0.511   4.797
  563SOL    HW2 1714   0.053   0.559   4.936
  564SOL     OW 1715   0.189   0.520   5.446
  564SOL    HW1 1716   0.248   0.480   5.376
  564SOL    HW2 1717   0.131   0.591   5.405
  565SOL     OW 1718   1.369   0.950   5.384
  565SOL    HW1 1719   1.408   1.039   5.404
  565SOL    HW2 1720   1.379   0.930   5.287
  566SOL     OW 1721   0.815   0.572   4.049
  566SOL    HW1 1722   0.822   0.483   4.003
  566SOL    HW2 1723   0.721   0.606   4.041
  567SOL     OW 1724   1.657   0.604   4.930
  567SOL    HW1 1725   1.619   0.535   4.992
  567SOL    HW2 1726   1.739   0.568   4.886
  568SOL     OW 1727   0.252   1.564   5.468
  568SOL    HW1 1728   0.222   1.621   5.544
  568SOL    HW2 1729   0.245   1.467   5.494
  569SOL     OW 1730   0.671   0.464   4.993
  569SOL    HW1 1731   0.637   0.375   4.963
  569SOL    HW2 1732   0.697   0.518   4.913
  570SOL     OW 1733   0.930   1.678   5.189
  570SOL    HW1 1734   0.906   1.660   5.094
  570SOL    HW2 1735   0.960   1.772   5.199
  571SOL     OW 1736   0.473   0.500   3.915
  571SOL    HW1 1737   0.534   0.580   3.919
  571SOL    HW2 1738   0.378   0.531   3.922
  572SOL     OW 1739   0.159   1.137   5.190
  572SOL    HW1 1740   0.181   1.076   5.266
  572SOL    HW2 1741   0.169   1.088   5.104
  573SOL     OW 1742   1.347   1.059   4.958
  573SOL    HW1 1743   1.371   0.996   4.884
  573SOL    HW2 1744   1.257   1.099   4.940
  574SOL     OW 1745   1.302   0.855   4.033
  574SOL    HW1 1746   1.216   0.824   4.075
  574SOL    HW2 1747   1.298   0.841   3.934
  575SOL     OW 1748   1.759   1.747   4.878
  575SOL    HW1 1749   1.820   1.777   4.805
  575SOL    HW2 1750   1.721   1.658   4.856
  576SOL     OW 1751   1.252   1.731   4.852
  576SOL    HW1 1752   1.336   1.736   4.798
  576SOL    HW2 1753   1.229   1.635   4.870
  577SOL     OW 1754   0.083   1.258   4.746
  577SOL    HW1 1755   0.078   1.257   4.846
  577SOL    HW2 1756   0.000   1.217   4.708
  578SOL     OW 1757   0.688   1.662   5.440
  578SOL    HW1 1758   0.632   1.743   5.449
  578SOL    HW2 1759   0.740   1.666   5.354
  579SOL     OW 1760   1.726   0.135   4.247
  579SOL    HW1 1761   1.799   0.118   4.180
  579SOL    HW2 1762   1.695   0.048   4.285
  580SOL     OW 1763   1.388   1.573   4.201
  580SOL    HW1 1764   1.455   1.585   4.127
  580SOL    HW2 1765   1.348   1.662   4.224
  581SOL     OW 1766   0.130   1.794   5.575
  581SOL    HW1 1767   0.089   1.720   5.628
  581SOL    HW2 1768   0.194   1.845   5.633
  582SOL     OW 1769   1.280   0.927   4.396
  582SOL    HW1 1770   1.340   0.846   4.398
  582SOL    HW2 1771   1.320   0.996   4.336
  583SOL     OW 1772   0.830   1.273   5.146
  583SOL    HW1 1773   0.825   1.306   5.241
  583SOL    HW2 1774   0.744   1.292   5.100
  584SOL     OW 1775   0.672   1.616   3.878
  584SOL    HW1 1776   0.681   1.626   3.779
  584SOL    HW2 1777   0.632   1.527   3.899
  585SOL     OW 1778   1.650   1.720   5.118
  585SOL    HW1 1779   1.703   1.730   5.034
  585SOL    HW2 1780   1.623   1.810   5.152
  586SOL     OW 1781   1.841   0.175   4.687
  586SOL    HW1 1782   1.880   0.090   4.651
  586SOL    HW2 1783   1.743   0.177   4.668
  587SOL     OW 1784   0.263   0.326   4.444
  587SOL    HW1 1785   0.184   0.377   4.410
  587SOL    HW2 1786   0.254   0.311   4.542
  588SOL     OW 1787   1.194   1.612   3.755
  588SOL    HW1 1788   1.200   1.519   3.792
  588SOL    HW2 1789   1.135   1.612   3.675
  589SOL     OW 1790   0.822   1.002   5.096
  589SOL    HW1 1791   0.862   1.001   5.004
  589SOL    HW2 1792   0.832   1.094   5.136
  590SOL     OW 1793   0.916   0.910   4.015
  590SOL    HW1 1794   0.979   0.948   3.947
  590SOL    HW2 1795   0.956   0.827   4.054
  591SOL     OW 1796   1.504   1.607   3.768
  591SOL    HW1 1797   1.412   1.644   3.775
  591SOL    HW2 1798   1.542   1.627   3.678
  592SOL     OW 1799   0.372   1.288   5.214
  592SOL    HW1 1800   0.359   1.381   5.180
  592SOL    HW2 1801   0.288   1.236   5.201
  593SOL     OW 1802   1.039   1.098   4.420
  593SOL    HW1 1803   0.969   1.051   4.474
  593SOL    HW2 1804   1.098   1.030   4.377
  594SOL     OW 1805   1.014   0.236   4.695
  594SOL    HW1 1806   1.006   0.200   4.602
  594SOL    HW2 1807   1.012   0.160   4.760
  595SOL     OW 1808   0.590   1.487   4.215
  595SOL    HW1 1809   0.632   1.429   4.145
  595SOL    HW2 1810   0.546   1.566   4.171
  596SOL     OW 1811   1.709   0.385   5.105
  596SOL    HW1 1812   1.782   0.454   5.109
  596SOL    HW2 1813   1.737   0.310   5.046
  597SOL     OW 1814   0.255   1.348   4.014
  597SOL    HW1 1815   0.159   1.349   3.987
  597SOL    HW2 1816   0.267   1.401   4.098
  598SOL     OW 1817   0.105   1.013   5.450
  598SOL    HW1 1818   0.028   0.980   5.504
  598SOL    HW2 1819   0.190   0.983   5.492
  599SOL     OW 1820   0.672   0.203   5.213
  599SOL    HW1 1821   0.762   0.187   5.173
  599SOL    HW2 1822   0.680   0.208   5.312
  600SOL     OW 1823   0.075   0.345   3.757
  600SOL    HW1 1824  -0.017   0.317   3.728
  600SOL    HW2 1825   0.106   0.422   3.701
  601SOL     OW 1826   1.440   0.856   5.122
  601SOL    HW1 1827   1.383   0.908   5.059
  601SOL    HW2 1828   1.536   0.868   5.098
  602SOL     OW 1829   0.072   0.166   4.042
  602SOL    HW1 1830   0.055   0.249   3.988
  602SOL    HW2 1831   0.162   0.129   4.020
  603SOL     OW 1832   1.183   1.335   3.843
  603SOL    HW1 1833   1.084   1.324   3.845
  603SOL    HW2 1834   1.217   1.350   3.936
  604SOL     OW 1835   0.613   0.842   5.155
  604SOL    HW1 1836   0.669   0.923   5.138
  604SOL    HW2 1837   0.672   0.762   5.158
  605SOL     OW 1838   1.493   1.767   4.683
  605SOL    HW1 1839   1.526   1.831   4.614
  605SOL    HW2 1840   1.559   1.761   4.758
  606SOL     OW 1841   0.716   0.565   5.432
  606SOL    HW1 1842   0.735   0.630   5.506
  606SOL    HW2 1843   0.776   0.485   5.441
  607SOL     OW 1844   1.450   1.220   5.357
  607SOL    HW1 1845   1.441   1.210   5.456
  607SOL    HW2 1846   1.546   1.213   5.331
  608SOL     OW 1847   0.390   1.741   5.284
  608SOL    HW1 1848   0.299   1.782   5.282
  608SOL    HW2 1849   0.383   1.647   5.316
  609SOL     OW 1850   1.674   0.883   4.978
  609SOL    HW1 1851   1.647   0.794   4.941
  609SOL    HW2 1852   1.675   0.951   4.905
  610SOL     OW 1853   1.225   0.325   4.173
  610SOL    HW1 1854   1.290   0.251   4.162
  610SOL    HW2 1855   1.245   0.375   4.257
  611SOL     OW 1856   0.594   0.745   4.376
  611SOL    HW1 1857   0.644   0.830   4.357
  611SOL    HW2 1858   0.506   0.747   4.328
  612SOL     OW 1859   1.777   0.342   5.366
  612SOL    HW1 1860   1.760   0.373   5.272
  612SOL    HW2 1861   1.693   0.305   5.404
  613SOL     OW 1862   1.730   0.934   5.241
  613SOL    HW1 1863   1.768   1.025   5.256
  613SOL    HW2 1864   1.722   0.917   5.142
  614SOL     OW 1865   0.859   1.374   3.740
  614SOL    HW1 1866   0.813   1.389   3.828
  614SOL    HW2 1867   0.903   1.459   3.710
  615SOL     OW 1868   0.661   1.790   4.677
  615SOL    HW1 1869   0.615   1.878   4.664
  615SOL    HW2 1870   0.760   1.802   4.670
  616SOL     OW 1871   0.859   0.956   4.585
  616SOL    HW1 1872   0.913   0.887   4.633
  616SOL    HW2 1873   0.827   1.025   4.651
  617SOL     OW 1874   1.083   0.984   3.811
  617SOL    HW1 1875   1.060   1.037   3.729
  617SOL    HW2 1876   1.164   0.928   3.792
  618SOL     OW 1877   1.861   1.569   4.575
  618SOL    HW1 1878   1.790   1.557   4.505
  618SOL    HW2 1879   1.862   1.490   4.635
  619SOL     OW 1880   0.221   1.314   5.568
  619SOL    HW1 1881   0.156   1.241   5.547
  619SOL    HW2 1882   0.225   1.328   5.666
  620SOL     OW 1883   0.079   1.240   4.377
  620SOL    HW1 1884   0.078   1.193   4.465
  620SOL    HW2 1885   0.161   1.212   4.326
  621SOL     OW 1886   0.672   1.391   5.348
  621SOL    HW1 1887   0.594   1.341   5.386
  621SOL    HW2 1888   0.669   1.486   5.379
  622SOL     OW 1889   1.824   0.192   4.951
  622SOL    HW1 1890   1.820   0.102   4.995
  622SOL    HW2 1891   1.827   0.181   4.852
  623SOL     OW 1892   0.428   0.424   4.244
  623SOL    HW1 1893   0.458   0.352   4.182
  623SOL    HW2 1894   0.389   0.384   4.327
  624SOL     OW 1895   1.705   1.487   4.828
  624SOL    HW1 1896   1.612   1.462   4.801
  624SOL    HW2 1897   1.731   1.437   4.910
  625SOL     OW 1898   0.317   0.547   5.004
  625SOL    HW1 1899   0.355   0.488   5.076
  625SOL    HW2 1900   0.357   0.521   4.916
  626SOL     OW 1901   0.812   1.586   4.411
  626SOL    HW1 1902   0.844   1.596   4.317
  626SOL    HW2 1903   0.733   1.524   4.413
  627SOL     OW 1904   1.424   0.214   4.836
  627SOL    HW1 1905   1.476   0.149   4.891
  627SOL    HW2 1906   1.375   0.277   4.897
  628SOL     OW 1907   1.001   0.034   4.878
  628SOL    HW1 1908   0.938  -0.038   4.847
  628SOL    HW2 1909   1.094  -0.002   4.878
  629SOL     OW 1910   0.770   1.330   4.025
  629SOL    HW1 1911   0.724   1.243   4.042
  629SOL    HW2 1912   0.861   1.327   4.066
  630SOL     OW 1913   0.618   1.567   5.008
  630SOL    HW1 1914   0.613   1.649   5.065
  630SOL    HW2 1915   0.707   1.564   4.963
  631SOL     OW 1916   1.352   0.052   3.892
  631SOL    HW1 1917   1.387   0.011   3.808
  631SOL    HW2 1918   1.262   0.014   3.912
  632SOL     OW 1919   1.300   0.453   4.415
  632SOL    HW1 1920   1.241   0.533   4.419
  632SOL    HW2 1921   1.315   0.418   4.508
  633SOL     OW 1922   1.593   0.221   4.606
  633SOL    HW1 1923   1.509   0.220   4.660
  633SOL    HW2 1924   1.595   0.304   4.550
  634SOL     OW 1925   0.039   1.077   4.024
  634SOL    HW1 1926   0.138   1.066   4.015
  634SOL    HW2 1927  -0.001   0.991   4.056
  635SOL     OW 1928   0.875   1.646   4.061
  635SOL    HW1 1929   0.798   1.611   4.007
  635SOL    HW2 1930   0.843   1.717   4.123
  636SOL     OW 1931   0.230   0.628   5.699
  636SOL    HW1 1932   0.137   0.626   5.736
  636SOL    HW2 1933   0.231   0.589   5.607
  637SOL     OW 1934   0.225   0.275   6.582
  637SOL    HW1 1935   0.260   0.258   6.674
  637SOL    HW2 1936   0.137   0.230   6.570
  638SOL     OW 1937   0.019   0.368   6.233
  638SOL    HW1 1938  -0.063   0.411   6.272
  638SOL    HW2 1939  -0.009   0.295   6.170
  639SOL     OW 1940   0.569   1.275   6.751
  639SOL    HW1 1941   0.476   1.268   6.714
  639SOL    HW2 1942   0.580   1.364   6.795
  640SOL     OW 1943   1.555   1.511   6.289
  640SOL    HW1 1944   1.498   1.495   6.370
  640SOL    HW2 1945   1.496   1.521   6.209
  641SOL     OW 1946   1.135   0.703   6.303
  641SOL    HW1 1947   1.192   0.781   6.278
  641SOL    HW2 1948   1.075   0.729   6.379
  642SOL     OW 1949   1.755   0.607   5.817
  642SOL    HW1 1950   1.743   0.594   5.718
  642SOL    HW2 1951   1.725   0.526   5.866
  643SOL     OW 1952   0.768   1.144   6.609
  643SOL    HW1 1953   0.690   1.161   6.669
  643SOL    HW2 1954   0.802   1.231   6.573
  644SOL     OW 1955   0.850   0.798   7.409
  644SOL    HW1 1956   0.846   0.874   7.474
  644SOL    HW2 1957   0.872   0.834   7.318
  645SOL     OW 1958   0.685   1.012   6.251
  645SOL    HW1 1959   0.754   0.996   6.321
  645SOL    HW2 1960   0.612   1.069   6.289
  646SOL     OW 1961   0.686   1.161   7.389
  646SOL    HW1 1962   0.746   1.240   7.403
  646SOL    HW2 1963   0.600   1.192   7.348
  647SOL     OW 1964   0.335   1.435   6.647
  647SOL    HW1 1965   0.257   1.404   6.594
  647SOL    HW2 1966   0.393   1.493   6.590
  648SOL     OW 1967   1.460   1.505   6.925
  648SOL    HW1 1968   1.484   1.599   6.951
  648SOL    HW2 1969   1.444   1.451   7.007
  649SOL     OW 1970   0.438   0.392   7.085
  649SOL    HW1 1971   0.520   0.336   7.094
  649SOL    HW2 1972   0.357   0.334   7.089
  650SOL     OW 1973   1.603   0.447   6.323
  650SOL    HW1 1974   1.529   0.493   6.273
  650SOL    HW2 1975   1.654   0.515   6.376
  651SOL     OW 1976   0.231   1.713   6.069
  651SOL    HW1 1977   0.265   1.790   6.123
  651SOL    HW2 1978   0.275   1.713   5.979
  652SOL     OW 1979   1.127   1.341   7.276
  652SOL    HW1 1980   1.174   1.341   7.364
  652SOL    HW2 1981   1.079   1.254   7.265
  653SOL     OW 1982   0.230   1.434   6.124
  653SOL    HW1 1983   0.204   1.530   6.124
  653SOL    HW2 1984   0.159   1.380   6.169
  654SOL     OW 1985   0.240   1.091   6.472
  654SOL    HW1 1986   0.254   1.007   6.524
  654SOL    HW2 1987   0.185   1.155   6.527
  655SOL     OW 1988   0.620   1.786   7.025
  655SOL    HW1 1989   0.528   1.769   7.060
  655SOL    HW2 1990   0.648   1.878   7.051
  656SOL     OW 1991   0.606   0.964   5.709
  656SOL    HW1 1992   0.613   1.048   5.655
  656SOL    HW2 1993   0.652   0.977   5.797
  657SOL     OW 1994   1.594   0.114   7.066
  657SOL    HW1 1995   1.576   0.181   6.994
  657SOL    HW2 1996   1.591   0.160   7.155
  658SOL     OW 1997   0.122   0.643   6.149
  658SOL    HW1 1998   0.077   0.555   6.166
  658SOL    HW2 1999   0.121   0.697   6.233
  659SOL     OW 2000   1.842   1.767   5.945
  659SOL    HW1 2001   1.896   1.738   6.025
  659SOL    HW2 2002   1.872   1.857   5.916
  660SOL     OW 2003   0.027   1.596   5.703
  660SOL    HW1 2004   0.008   1.500   5.724
  660SOL    HW2 2005  -0.006   1.654   5.778
  661SOL     OW 2006   1.689   0.922   6.198
  661SOL    HW1 2007   1.784   0.893   6.206
  661SOL    HW2 2008   1.681   0.987   6.123
  662SOL     OW 2009   1.641   1.108   6.018
  662SOL    HW1 2010   1.727   1.110   5.966
  662SOL    HW2 2011   1.655   1.155   6.106
  663SOL     OW 2012   0.113   0.737   7.183
  663SOL    HW1 2013   0.201   0.724   7.228
  663SOL    HW2 2014   0.100   0.834   7.161
  664SOL     OW 2015   0.613   1.365   6.312
  664SOL    HW1 2016   0.564   1.278   6.321
  664SOL    HW2 2017   0.590   1.408   6.225
  665SOL     OW 2018   1.293   1.228   7.009
  665SOL    HW1 2019   1.330   1.155   6.951
  665SOL    HW2 2020   1.345   1.233   7.094
  666SOL     OW 2021   0.809   0.004   6.088
  666SOL    HW1 2022   0.849   0.095   6.079
  666SOL    HW2 2023   0.709   0.012   6.094
  667SOL     OW 2024   0.197   0.976   6.850
  667SOL    HW1 2025   0.286   0.931   6.836
  667SOL    HW2 2026   0.124   0.911   6.831
  668SOL     OW 2027   1.525   0.999   5.776
  668SOL    HW1 2028   1.462   0.923   5.789
  668SOL    HW2 2029   1.573   1.017   5.862
  669SOL     OW 2030   1.187   1.792   7.202
  669SOL    HW1 2031   1.211   1.852   7.126
  669SOL    HW2 2032   1.194   1.697   7.172
  670SOL     OW 2033   0.317   0.251   7.387
  670SOL    HW1 2034   0.388   0.322   7.393
  670SOL    HW2 2035   0.229   0.290   7.415
  671SOL     OW 2036   1.466   1.417   6.539
  671SOL    HW1 2037   1.407   1.423   6.619
  671SOL    HW2 2038   1.451   1.329   6.493
  672SOL     OW 2039   1.667   1.714   6.158
  672SOL    HW1 2040   1.626   1.691   6.070
  672SOL    HW2 2041   1.649   1.640   6.223
  673SOL     OW 2042   0.598   0.729   5.856
  673SOL    HW1 2043   0.622   0.798   5.788
  673SOL    HW2 2044   0.520   0.762   5.910
  674SOL     OW 2045   1.281   0.345   6.530
  674SOL    HW1 2046   1.195   0.295   6.517
  674SOL    HW2 2047   1.343   0.291   6.586
  675SOL     OW 2048   1.576   1.662   5.893
  675SOL    HW1 2049   1.665   1.708   5.896
  675SOL    HW2 2050   1.555   1.638   5.798
  676SOL     OW 2051   0.807   0.605   7.051
  676SOL    HW1 2052   0.760   0.602   7.140
  676SOL    HW2 2053   0.756   0.550   6.985
  677SOL     OW 2054   1.394   0.469   7.260
  677SOL    HW1 2055   1.374   0.512   7.348
  677SOL    HW2 2056   1.472   0.407   7.269
  678SOL     OW 2057   0.973   0.890   7.158
  678SOL    HW1 2058   1.019   0.806   7.129
  678SOL    HW2 2059   0.917   0.924   7.083
  679SOL     OW 2060   0.991   0.410   6.828
  679SOL    HW1 2061   0.914   0.444   6.882
  679SOL    HW2 2062   0.957   0.359   6.749
  680SOL     OW 2063   1.041   0.701   6.015
  680SOL    HW1 2064   1.067   0.697   6.111
  680SOL    HW2 2065   0.956   0.650   6.001
  681SOL     OW 2066   0.076   0.811   6.375
  681SOL    HW1 2067   0.175   0.799   6.384
  681SOL    HW2 2068   0.052   0.906   6.396
  682SOL     OW 2069   0.130   1.821   7.157
  682SOL    HW1 2070   0.120   1.806   7.256
  682SOL    HW2 2071   0.044   1.857   7.121
  683SOL     OW 2072   0.865   0.348   5.781
  683SOL    HW1 2073   0.924   0.411   5.732
  683SOL    HW2 2074   0.884   0.254   5.752
  684SOL     OW 2075   1.719   0.585   7.417
  684SOL    HW1 2076   1.693   0.674   7.381
  684SOL    HW2 2077   1.717   0.517   7.344
  685SOL     OW 2078   1.362   1.144   6.131
  685SOL    HW1 2079   1.445   1.115   6.083
  685SOL    HW2 2080   1.313   1.211   6.075
  686SOL     OW 2081   0.550   0.196   6.471
  686SOL    HW1 2082   0.545   0.191   6.571
  686SOL    HW2 2083   0.552   0.292   6.442
  687SOL     OW 2084   1.008   1.456   6.063
  687SOL    HW1 2085   0.962   1.528   6.011
  687SOL    HW2 2086   1.004   1.476   6.161
  688SOL     OW 2087   0.351   1.801   6.439
  688SOL    HW1 2088   0.401   1.715   6.445
  688SOL    HW2 2089   0.416   1.878   6.436
  689SOL     OW 2090   1.795   1.066   6.459
  689SOL    HW1 2091   1.733   1.051   6.383
  689SOL    HW2 2092   1.743   1.077   6.544
  690SOL     OW 2093   1.227   1.550   7.092
  690SOL    HW1 2094   1.233   1.473   7.156
  690SOL    HW2 2095   1.175   1.524   7.012
  691SOL     OW 2096   0.321   0.943   5.828
  691SOL    HW1 2097   0.403   0.982   5.786
  691SOL    HW2 2098   0.294   0.861   5.779
  692SOL     OW 2099   1.458   0.735   6.314
  692SOL    HW1 2100   1.453   0.670   6.389
  692SOL    HW2 2101   1.538   0.794   6.327
  693SOL     OW 2102   0.461   1.266   7.313
  693SOL    HW1 2103   0.411   1.267   7.227
  693SOL    HW2 2104   0.398   1.248   7.389
  694SOL     OW 2105   1.111   1.776   5.823
  694SOL    HW1 2106   1.051   1.714   5.873
  694SOL    HW2 2107   1.142   1.732   5.738
  695SOL     OW 2108   0.202   0.285   7.084
  695SOL    HW1 2109   0.122   0.345   7.071
  695SOL    HW2 2110   0.192   0.236   7.170
  696SOL     OW 2111   1.632   1.377   5.667
  696SOL    HW1 2112   1.600   1.471   5.657
  696SOL    HW2 2113   1.556   1.314   5.655
  697SOL     OW 2114   0.464   1.743   5.909
  697SOL    HW1 2115   0.497   1.782   5.995
  697SOL    HW2 2116   0.540   1.736   5.844
  698SOL     OW 2117   1.400   0.107   6.012
  698SOL    HW1 2118   1.376   0.070   5.922
  698SOL    HW2 2119   1.499   0.123   6.016
  699SOL     OW 2120   0.249   1.785   6.827
  699SOL    HW1 2121   0.306   1.720   6.877
  699SOL    HW2 2122   0.233   1.752   6.734
  700SOL     OW 2123   0.940   1.698   6.490
  700SOL    HW1 2124   1.020   1.641   6.511
  700SOL    HW2 2125   0.891   1.658   6.413
  701SOL     OW 2126   0.382   0.700   6.066
  701SOL    HW1 2127   0.427   0.610   6.063
  701SOL    HW2 2128   0.288   0.689   6.099
  702SOL     OW 2129   1.547   0.222   7.315
  702SOL    HW1 2130   1.542   0.259   7.407
  702SOL    HW2 2131   1.475   0.153   7.303
  703SOL     OW 2132   0.614   0.122   5.703
  703SOL    HW1 2133   0.712   0.100   5.710
  703SOL    HW2 2134   0.583   0.105   5.610
  704SOL     OW 2135   0.781   0.264   7.335
  704SOL    HW1 2136   0.848   0.203   7.378
  704SOL    HW2 2137   0.708   0.283   7.400
  705SOL     OW 2138   0.888   1.514   6.781
  705SOL    HW1 2139   0.865   1.489   6.687
  705SOL    HW2 2140   0.949   1.445   6.820
  706SOL     OW 2141   1.351   0.590   7.019
  706SOL    HW1 2142   1.379   0.547   7.104
  706SOL    HW2 2143   1.376   0.686   7.020
  707SOL     OW 2144   0.803   1.402   6.510
  707SOL    HW1 2145   0.893   1.416   6.468
  707SOL    HW2 2146   0.732   1.404   6.439
  708SOL     OW 2147   0.922   0.503   6.485
  708SOL    HW1 2148   0.897   0.494   6.389
  708SOL    HW2 2149   0.970   0.421   6.516
  709SOL     OW 2150   0.539   0.064   6.098
  709SOL    HW1 2151   0.458   0.065   6.156
  709SOL    HW2 2152   0.542   0.147   6.043
  710SOL     OW 2153   1.434   1.188   5.627
  710SOL    HW1 2154   1.466   1.112   5.684
  710SOL    HW2 2155   1.342   1.215   5.657
  711SOL     OW 2156   0.297   0.035   5.757
  711SOL    HW1 2157   0.346   0.119   5.736
  711SOL    HW2 2158   0.359  -0.030   5.802
  712SOL     OW 2159   0.935   0.236   6.066
  712SOL    HW1 2160   0.887   0.277   5.988
  712SOL    HW2 2161   1.034   0.234   6.047
  713SOL     OW 2162   1.076   0.683   7.050
  713SOL    HW1 2163   0.996   0.622   7.053
  713SOL    HW2 2164   1.157   0.630   7.026
  714SOL     OW 2165   1.227   1.570   6.379
  714SOL    HW1 2166   1.248   1.644   6.314
  714SOL    HW2 2167   1.295   1.570   6.452
  715SOL     OW 2168   0.459   1.152   6.327
  715SOL    HW1 2169   0.388   1.125   6.392
  715SOL    HW2 2170   0.433   1.124   6.234
  716SOL     OW 2171   1.271   1.797   6.177
  716SOL    HW1 2172   1.315   1.861   6.113
  716SOL    HW2 2173   1.221   1.849   6.247
  717SOL     OW 2174   1.032   0.549   5.602
  717SOL    HW1 2175   0.991   0.631   5.563
  717SOL    HW2 2176   1.096   0.575   5.675
  718SOL     OW 2177   0.078   0.556   6.972
  718SOL    HW1 2178   0.170   0.555   6.931
  718SOL    HW2 2179   0.072   0.630   7.039
  719SOL     OW 2180   0.561   0.222   6.733
  719SOL    HW1 2181   0.599   0.138   6.770
  719SOL    HW2 2182   0.473   0.241   6.777
  720SOL     OW 2183   0.866   0.454   6.228
  720SOL    HW1 2184   0.834   0.526   6.166
  720SOL    HW2 2185   0.890   0.373   6.175
  721SOL     OW 2186   1.017   0.039   6.339
  721SOL    HW1 2187   0.945   0.044   6.270
  721SOL    HW2 2188   0.993  -0.030   6.408
  722SOL     OW 2189   1.429   1.173   6.453
  722SOL    HW1 2190   1.374   1.089   6.446
  722SOL    HW2 2191   1.455   1.202   6.361
  723SOL     OW 2192   1.466   0.590   6.578
  723SOL    HW1 2193   1.436   0.495   6.585
  723SOL    HW2 2194   1.539   0.606   6.644
  724SOL     OW 2195   1.857   0.833   5.963
  724SOL    HW1 2196   1.899   0.769   6.027
  724SOL    HW2 2197   1.819   0.782   5.885
  725SOL     OW 2198   0.488   1.385   5.760
  725SOL    HW1 2199   0.401   1.370   5.807
  725SOL    HW2 2200   0.471   1.411   5.665
  726SOL     OW 2201   1.664   1.280   6.243
  726SOL    HW1 2202   1.763   1.288   6.257
  726SOL    HW2 2203   1.619   1.364   6.274
  727SOL     OW 2204   1.390   0.575   5.664
  727SOL    HW1 2205   1.336   0.554   5.745
  727SOL    HW2 2206   1.481   0.534   5.673
  728SOL     OW 2207   0.527   0.256   5.914
  728SOL    HW1 2208   0.554   0.197   5.839
  728SOL    HW2 2209   0.527   0.351   5.883
  729SOL     OW 2210   1.754   1.223   7.174
  729SOL    HW1 2211   1.845   1.184   7.161
  729SOL    HW2 2212   1.762   1.319   7.198
  730SOL     OW 2213   1.064   1.347   6.926
  730SOL    HW1 2214   0.984   1.324   6.981
  730SOL    HW2 2215   1.147   1.321   6.975
  731SOL     OW 2216   1.592   1.629   7.211
  731SOL    HW1 2217   1.619   1.663   7.121
  731SOL    HW2 2218   1.671   1.591   7.257
  732SOL     OW 2219   1.111   1.195   6.686
  732SOL    HW1 2220   1.071   1.239   6.767
  732SOL    HW2 2221   1.070   1.232   6.603
  733SOL     OW 2222   1.638   1.099   6.665
  733SOL    HW1 2223   1.643   1.180   6.724
  733SOL    HW2 2224   1.552   1.101   6.614
  734SOL     OW 2225   0.915   0.089   6.988
  734SOL    HW1 2226   0.940   0.069   6.893
  734SOL    HW2 2227   0.987   0.145   7.030
  735SOL     OW 2228   0.980   1.116   7.305
  735SOL    HW1 2229   0.881   1.122   7.315
  735SOL    HW2 2230   1.003   1.036   7.249
  736SOL     OW 2231   0.705   1.050   5.954
  736SOL    HW1 2232   0.691   1.057   6.053
  736SOL    HW2 2233   0.789   0.999   5.936
  737SOL     OW 2234   0.410   0.813   6.837
  737SOL    HW1 2235   0.496   0.825   6.887
  737SOL    HW2 2236   0.368   0.726   6.864
  738SOL     OW 2237   1.274   0.386   6.848
  738SOL    HW1 2238   1.295   0.460   6.912
  738SOL    HW2 2239   1.185   0.403   6.805
  739SOL     OW 2240   0.064   1.564   6.917
  739SOL    HW1 2241   0.018   1.646   6.883
  739SOL    HW2 2242   0.162   1.583   6.926
  740SOL     OW 2243   0.367   1.100   6.087
  740SOL    HW1 2244   0.360   1.183   6.031
  740SOL    HW2 2245   0.371   1.020   6.027
  741SOL     OW 2246   0.566   0.537   6.451
  741SOL    HW1 2247   0.578   0.603   6.377
  741SOL    HW2 2248   0.612   0.571   6.534
  742SOL     OW 2249   1.252   1.348   5.974
  742SOL    HW1 2250   1.302   1.425   6.014
  742SOL    HW2 2251   1.157   1.350   6.006
  743SOL     OW 2252   1.272   1.445   6.728
  743SOL    HW1 2253   1.319   1.458   6.815
  743SOL    HW2 2254   1.206   1.371   6.737
  744SOL     OW 2255   1.582   0.639   6.058
  744SOL    HW1 2256   1.551   0.700   6.131
  744SOL    HW2 2257   1.632   0.691   5.989
  745SOL     OW 2258   0.354   1.510   6.915
  745SOL    HW1 2259   0.333   1.466   6.828
  745SOL    HW2 2260   0.451   1.536   6.918
  746SOL     OW 2261   0.402   0.751   7.184
  746SOL    HW1 2262   0.470   0.806   7.137
  746SOL    HW2 2263   0.442   0.663   7.211
  747SOL     OW 2264   1.587   0.779   7.256
  747SOL    HW1 2265   1.495   0.817   7.251
  747SOL    HW2 2266   1.647   0.826   7.191
  748SOL     OW 2267   1.013   0.105   7.356
  748SOL    HW1 2268   1.019   0.190   7.304
  748SOL    HW2 2269   1.045   0.029   7.299
  749SOL     OW 2270   0.504   0.050   7.326
  749SOL    HW1 2271   0.462  -0.007   7.256
  749SOL    HW2 2272   0.438   0.119   7.358
  750SOL     OW 2273   0.573   0.870   6.615
  750SOL    HW1 2274   0.617   0.959   6.606
  750SOL    HW2 2275   0.510   0.870   6.692
  751SOL     OW 2276   1.360   0.862   6.631
  751SOL    HW1 2277   1.285   0.862   6.565
  751SOL    HW2 2278   1.397   0.770   6.640
  752SOL     OW 2279   1.209   0.525   5.861
  752SOL    HW1 2280   1.222   0.441   5.915
  752SOL    HW2 2281   1.180   0.599   5.921
  753SOL     OW 2282   0.307   0.213   6.817
  753SOL    HW1 2283   0.284   0.250   6.907
  753SOL    HW2 2284   0.277   0.118   6.811
  754SOL     OW 2285   0.037   1.310   6.868
  754SOL    HW1 2286   0.090   1.261   6.936
  754SOL    HW2 2287   0.059   1.408   6.873
  755SOL     OW 2288   0.732   0.634   6.650
  755SOL    HW1 2289   0.791   0.608   6.574
  755SOL    HW2 2290   0.704   0.730   6.639
  756SOL     OW 2291   1.728   0.935   7.440
  756SOL    HW1 2292   1.682   0.928   7.351
  756SOL    HW2 2293   1.666   0.979   7.506
  757SOL     OW 2294   0.307   0.063   6.204
  757SOL    HW1 2295   0.296   0.157   6.237
  757SOL    HW2 2296   0.302   0.000   6.281
  758SOL     OW 2297   1.622   0.367   5.960
  758SOL    HW1 2298   1.624   0.291   6.024
  758SOL    HW2 2299   1.574   0.444   6.000
  759SOL     OW 2300   1.023   0.766   6.552
  759SOL    HW1 2301   1.038   0.787   6.648
  759SOL    HW2 2302   0.993   0.671   6.543
  760SOL     OW 2303   0.980   1.573   7.286
  760SOL    HW1 2304   0.960   1.617   7.198
  760SOL    HW2 2305   1.019   1.482   7.270
  761SOL     OW 2306   1.859   1.518   7.191
  761SOL    HW1 2307   1.873   1.545   7.096
  761SOL    HW2 2308   1.942   1.540   7.244
  762SOL     OW 2309   0.350   0.898   7.390
  762SOL    HW1 2310   0.426   0.942   7.438
  762SOL    HW2 2311   0.385   0.851   7.308
  763SOL     OW 2312   1.540   0.274   5.711
  763SOL    HW1 2313   1.479   0.199   5.734
  763SOL    HW2 2314   1.562   0.326   5.794
  764SOL     OW 2315   1.303   0.838   5.628
  764SOL    HW1 2316   1.337   0.745   5.643
  764SOL    HW2 2317   1.321   0.865   5.533
  765SOL     OW 2318   1.068   1.333   6.435
  765SOL    HW1 2319   1.075   1.249   6.380
  765SOL    HW2 2320   1.130   1.402   6.399
  766SOL     OW 2321   0.319   0.810   6.535
  766SOL    HW1 2322   0.412   0.846   6.540
  766SOL    HW2 2323   0.313   0.725   6.587
  767SOL     OW 2324   0.339   0.509   6.592
  767SOL    HW1 2325   0.287   0.426   6.575
  767SOL    HW2 2326   0.416   0.514   6.528
  768SOL     OW 2327   1.138   0.380   7.264
  768SOL    HW1 2328   1.093   0.443   7.328
  768SOL    HW2 2329   1.231   0.411   7.247
  769SOL     OW 2330   1.160   0.207   7.063
  769SOL    HW1 2331   1.160   0.271   7.140
  769SOL    HW2 2332   1.188   0.255   6.980
  770SOL     OW 2333   0.008   1.326   5.786
  770SOL    HW1 2334  -0.085   1.347   5.755
  770SOL    HW2 2335   0.018   1.227   5.799
  771SOL     OW 2336   0.088   1.801   6.513
  771SOL    HW1 2337   0.046   1.715   6.486
  771SOL    HW2 2338   0.182   1.804   6.479
  772SOL     OW 2339   0.504   1.568   6.496
  772SOL    HW1 2340   0.570   1.642   6.505
  772SOL    HW2 2341   0.548   1.489   6.454
  773SOL     OW 2342   1.002   0.796   6.824
  773SOL    HW1 2343   1.043   0.764   6.910
  773SOL    HW2 2344   0.906   0.769   6.821
  774SOL     OW 2345   0.040   0.544   6.700
  774SOL    HW1 2346   0.125   0.511   6.659
  774SOL    HW2 2347   0.053   0.559   6.798
  775SOL     OW 2348   0.189   0.520   7.308
  775SOL    HW1 2349   0.248   0.480   7.238
  775SOL    HW2 2350   0.131   0.591   7.267
  776SOL     OW 2351   1.369   0.950   7.246
  776SOL    HW1 2352   1.408   1.039   7.266
  776SOL    HW2 2353   1.379   0.930   7.149
  777SOL     OW 2354   0.815   0.572   5.911
  777SOL    HW1 2355   0.822   0.483   5.865
  777SOL    HW2 2356   0.721   0.606   5.903
  778SOL     OW 2357   1.657   0.604   6.792
  778SOL    HW1 2358   1.619   0.535   6.854
  778SOL    HW2 2359   1.739   0.568   6.748
  779SOL     OW 2360   0.252   1.564   7.330
  779SOL    HW1 2361   0.222   1.621   7.406
  779SOL    HW2 2362   0.245   1.467   7.356
  780SOL     OW 2363   0.671   0.464   6.855
  780SOL    HW1 2364   0.637   0.375   6.825
  780SOL    HW2 2365   0.697   0.518   6.775
  781SOL     OW 2366   0.930   1.678   7.051
  781SOL    HW1 2367   0.906   1.660   6.956
  781SOL    HW2 2368   0.960   1.772   7.061
  782SOL     OW 2369   0.473   0.500   5.777
  782SOL    HW1 2370   0.534   0.580   5.781
  782SOL    HW2 2371   0.378   0.531   5.784
  783SOL     OW 2372   0.159   1.137   7.052
  783SOL    HW1 2373   0.181   1.076   7.128
  783SOL    HW2 2374   0.169   1.088   6.966
  784SOL     OW 2375   1.347   1.059   6.820
  784SOL    HW1 2376   1.371   0.996   6.746
  784SOL    HW2 2377   1.257   1.099   6.802
  785SOL     OW 2378   1.302   0.855   5.895
  785SOL    HW1 2379   1.216   0.824   5.937
  785SOL    HW2 2380   1.298   0.841   5.796
  786SOL     OW 2381   1.759   1.747   6.740
  786SOL    HW1 2382   1.820   1.777   6.667
  786SOL    HW2 2383   1.721   1.658   6.718
  787SOL     OW 2384   1.252   1.731   6.714
  787SOL    HW1 2385   1.336   1.736   6.660
  787SOL    HW2 2386   1.229   1.635   6.732
  788SOL     OW 2387   0.083   1.258   6.608
  788SOL    HW1 2388   0.078   1.257   6.708
  788SOL    HW2 2389   0.000   1.217   6.570
  789SOL     OW 2390   0.688   1.662   7.302
  789SOL    HW1 2391   0.632   1.743   7.311
  789SOL    HW2 2392   0.740   1.666   7.216
  790SOL     OW 2393   1.726   0.135   6.109
  790SOL    HW1 2394   1.799   0.118   6.042
  790SOL    HW2 2395   1.695   0.048   6.147
  791SOL     OW 2396   1.388   1.573   6.063
  791SOL    HW1 2397   1.455   1.585   5.989
  791SOL    HW2 2398   1.348   1.662   6.086
  792SOL     OW 2399   0.130   1.794   7.437
  792SOL    HW1 2400   0.089   1.720   7.490
  792SOL    HW2 2401   0.194   1.845   7.495
  793SOL     OW 2402   1.280   0.927   6.258
  793SOL    HW1 2403   1.340   0.846   6.260
  793SOL    HW2 2404   1.320   0.996   6.198
  794SOL     OW 2405   0.830   1.273   7.008
  794SOL    HW1 2406   0.825   1.306   7.103
  794SOL    HW2 2407   0.744   1.292   6.962
  795SOL     OW 2408   0.672   1.616   5.740
  795SOL    HW1 2409   0.681   1.626   5.641
  795SOL    HW2 2410   0.632   1.527   5.761
  796SOL     OW 2411   1.650   1.720   6.980
  796SOL    HW1 2412   1.703   1.730   6.896
  796SOL    HW2 2413   1.623   1.810   7.014
  797SOL     OW 2414   1.841   0.175   6.549
  797SOL    HW1 2415   1.880   0.090   6.513
  797SOL    HW2 2416   1.743   0.177   6.530
  798SOL     OW 2417   0.263   0.326   6.306
  798SOL    HW1 2418   0.184   0.377   6.272
  798SOL    HW2 2419   0.254   0.311   6.404
  799SOL     OW 2420   1.194   1.612   5.617
  799SOL    HW1 2421   1.200   1.519   5.654
  799SOL    HW2 2422   1.135   1.612   5.537
  800SOL     OW 2423   0.822   1.002   6.958
  800SOL    HW1 2424   0.862   1.001   6.866
  800SOL    HW2 2425   0.832   1.094   6.998
  801SOL     OW 2426   0.916   0.910   5.877
  801SOL    HW1 2427   0.979   0.948   5.809
  801SOL    HW2 2428   0.956   0.827   5.916
  802SOL     OW 2429   1.504   1.607   5.630
  802SOL    HW1 2430   1.412   1.644   5.637
  802SOL    HW2 2431   1.542   1.627   5.540
  803SOL     OW 2432   0.372   1.288   7.076
  803SOL    HW1 2433   0.359   1.381   7.042
  803SOL    HW2 2434   0.288   1.236   7.063
  804SOL     OW 2435   1.614   1.292   6.875
  804SOL    HW1 2436   1.674   1.295   6.955
  804SOL    HW2 2437   1.539   1.356   6.888
  805SOL     OW 2438   1.039   1.098   6.282
  805SOL    HW1 2439   0.969   1.051   6.336
  805SOL    HW2 2440   1.098   1.030   6.239
  806SOL     OW 2441   1.014   0.236   6.557
  806SOL    HW1 2442   1.006   0.200   6.464
  806SOL    HW2 2443   1.012   0.160   6.622
  807SOL     OW 2444   0.590   1.487   6.077
  807SOL    HW1 2445   0.632   1.429   6.007
  807SOL    HW2 2446   0.546   1.566   6.033
  808SOL     OW 2447   1.709   0.385   6.967
  808SOL    HW1 2448   1.782   0.454   6.971
  808SOL    HW2 2449   1.737   0.310   6.908
  809SOL     OW 2450   0.255   1.348   5.876
  809SOL    HW1 2451   0.159   1.349   5.849
  809SOL    HW2 2452   0.267   1.401   5.960
  810SOL     OW 2453   0.105   1.013   7.312
  810SOL    HW1 2454   0.028   0.980   7.366
  810SOL    HW2 2455   0.190   0.983   7.354
  811SOL     OW 2456   0.672   0.203   7.075
  811SOL    HW1 2457   0.762   0.187   7.035
  811SOL    HW2 2458   0.680   0.208   7.174
  812SOL     OW 2459   0.075   0.345   5.619
  812SOL    HW1 2460  -0.017   0.317   5.590
  812SOL    HW2 2461   0.106   0.422   5.563
  813SOL     OW 2462   1.440   0.856   6.984
  813SOL    HW1 2463   1.383   0.908   6.921
  813SOL    HW2 2464   1.536   0.868   6.960
  814SOL     OW 2465   0.072   0.166   5.904
  814SOL    HW1 2466   0.055   0.249   5.850
  814SOL    HW2 2467   0.162   0.129   5.882
  815SOL     OW 2468   1.183   1.335   5.705
  815SOL    HW1 2469   1.084   1.324   5.707
  815SOL    HW2 2470   1.217   1.350   5.798
  816SOL     OW 2471   0.613   0.842   7.017
  816SOL    HW1 2472   0.669   0.923   7.000
  816SOL    HW2 2473   0.672   0.762   7.020
  817SOL     OW 2474   1.493   1.767   6.545
  817SOL    HW1 2475   1.526   1.831   6.476
  817SOL    HW2 2476   1.559   1.761   6.620
  818SOL     OW 2477   0.716   0.565   7.294
  818SOL    HW1 2478   0.735   0.630   7.368
  818SOL    HW2 2479   0.776   0.485   7.303
  819SOL     OW 2480   1.450   1.220   7.219
  819SOL    HW1 2481   1.441   1.210   7.318
  819SOL    HW2 2482   1.546   1.213   7.193
  820SOL     OW 2483   0.390   1.741   7.146
  820SOL    HW1 2484   0.299   1.782   7.144
  820SOL    HW2 2485   0.383   1.647   7.178
  821SOL     OW 2486   1.674   0.883   6.840
  821SOL    HW1 2487   1.647   0.794   6.803
  821SOL    HW2 2488   1.675   0.951   6.767
  822SOL     OW 2489   1.225   0.325   6.035
  822SOL    HW1 2490   1.290   0.251   6.024
  822SOL    HW2 2491   1.245   0.375   6.119
  823SOL     OW 2492   0.594   0.745   6.238
  823SOL    HW1 2493   0.644   0.830   6.219
  823SOL    HW2 2494   0.506   0.747   6.190
  824SOL     OW 2495   1.777   0.342   7.228
  824SOL    HW1 2496   1.760   0.373   7.134
  824SOL    HW2 2497   1.693   0.305   7.266
  825SOL     OW 2498   1.730   0.934   7.103
  825SOL    HW1 2499   1.768   1.025   7.118
  825SOL    HW2 2500   1.722   0.917   7.004
  826SOL     OW 2501   0.859   1.374   5.602
  826SOL    HW1 2502   0.813   1.389   5.690
  826SOL    HW2 2503   0.903   1.459   5.572
  827SOL     OW 2504   0.661   1.790   6.539
  827SOL    HW1 2505   0.615   1.878   6.526
  827SOL    HW2 2506   0.760   1.802   6.532
  828SOL     OW 2507   0.859   0.956   6.447
  828SOL    HW1 2508   0.913   0.887   6.495
  828SOL    HW2 2509   0.827   1.025   6.513
  829SOL     OW 2510   1.083   0.984   5.673
  829SOL    HW1 2511   1.060   1.037   5.591
  829SOL    HW2 2512   1.164   0.928   5.654
  830SOL     OW 2513   1.861   1.569   6.437
  830SOL    HW1 2514   1.790   1.557   6.367
  830SOL    HW2 2515   1.862   1.490   6.497
  831SOL     OW 2516   0.221   1.314   7.430
  831SOL    HW1 2517   0.156   1.241   7.409
  831SOL    HW2 2518   0.225   1.328   7.528
  832SOL     OW 2519   0.079   1.240   6.239
  832SOL    HW1 2520   0.078   1.193   6.327
  832SOL    HW2 2521   0.161   1.212   6.188
  833SOL     OW 2522   0.672   1.391   7.210
  833SOL    HW1 2523   0.594   1.341   7.248
  833SOL    HW2 2524   0.669   1.486   7.241
  834SOL     OW 2525   1.824   0.192   6.813
  834SOL    HW1 2526   1.820   0.102   6.857
  834SOL    HW2 2527   1.827   0.181   6.714
  835SOL     OW 2528   0.428   0.424   6.106
  835SOL    HW1 2529   0.458   0.352   6.044
  835SOL    HW2 2530   0.389   0.384   6.189
  836SOL     OW 2531   1.705   1.487   6.690
  836SOL    HW1 2532   1.612   1.462   6.663
  836SOL    HW2 2533   1.731   1.437   6.772
  837SOL     OW 2534   0.317   0.547   6.866
  837SOL    HW1 2535   0.355   0.488   6.938
  837SOL    HW2 2536   0.357   0.521   6.778
  838SOL     OW 2537   0.812   1.586   6.273
  838SOL    HW1 2538   0.844   1.596   6.179
  838SOL    HW2 2539   0.733   1.524   6.275
  839SOL     OW 2540   1.424   0.214   6.698
  839SOL    HW1 2541   1.476   0.149   6.753
  839SOL    HW2 2542   1.375   0.277   6.759
  840SOL     OW 2543   1.001   0.034   6.740
  840SOL    HW1 2544   0.938  -0.038   6.709
  840SOL    HW2 2545   1.094  -0.002   6.740
  841SOL     OW 2546   0.770   1.330   5.887
  841SOL    HW1 2547   0.724   1.243   5.904
  841SOL    HW2 2548   0.861   1.327   5.928
  842SOL     OW 2549   0.618   1.567   6.870
  842SOL    HW1 2550   0.613   1.649   6.927
  842SOL    HW2 2551   0.707   1.564   6.825
  843SOL     OW 2552   1.352   0.052   5.754
  843SOL    HW1 2553   1.387   0.011   5.670
  843SOL    HW2 2554   1.262   0.014   5.774
  844SOL     OW 2555   1.300   0.453   6.277
  844SOL    HW1 2556   1.241   0.533   6.281
  844SOL    HW2 2557   1.315   0.418   6.370
  845SOL     OW 2558   1.593   0.221   6.468
  845SOL    HW1 2559   1.509   0.220   6.522
  845SOL    HW2 2560   1.595   0.304   6.412
  846SOL     OW 2561   0.039   1.077   5.886
  846SOL    HW1 2562   0.138   1.066   5.877
  846SOL    HW2 2563  -0.001   0.991   5.918
  847SOL     OW 2564   0.875   1.646   5.923
  847SOL    HW1 2565   0.798   1.611   5.869
  847SOL    HW2 2566   0.843   1.717   5.985
  848SOL     OW 2567   0.230   0.628   7.561
  848SOL    HW1 2568   0.137   0.626   7.598
  848SOL    HW2 2569   0.231   0.589   7.469
  849SOL     OW 2570   0.225   0.275   8.444
  849SOL    HW1 2571   0.260   0.258   8.536
  849SOL    HW2 2572   0.137   0.230   8.432
  850SOL     OW 2573   0.019   0.368   8.095
  850SOL    HW1 2574  -0.063   0.411   8.134
  850SOL    HW2 2575  -0.009   0.295   8.032
  851SOL     OW 2576   0.569   1.275   8.613
  851SOL    HW1 2577   0.476   1.268   8.576
  851SOL    HW2 2578   0.580   1.364   8.657
  852SOL     OW 2579   1.555   1.511   8.151
  852SOL    HW1 2580   1.498   1.495   8.232
  852SOL    HW2 2581   1.496   1.521   8.071
  853SOL     OW 2582   1.135   0.703   8.165
  853SOL    HW1 2583   1.192   0.781   8.140
  853SOL    HW2 2584   1.075   0.729   8.241
  854SOL     OW 2585   1.755   0.607   7.679
  854SOL    HW1 2586   1.743   0.594   7.580
  854SOL    HW2 2587   1.725   0.526   7.728
  855SOL     OW 2588   0.768   1.144   8.471
  855SOL    HW1 2589   0.690   1.161   8.531
  855SOL    HW2 2590   0.802   1.231   8.435
  856SOL     OW 2591   0.850   0.798   9.271
  856SOL    HW1 2592   0.846   0.874   9.336
  856SOL    HW2 2593   0.872   0.834   9.180
  857SOL     OW 2594   0.685   1.012   8.113
  857SOL    HW1 2595   0.754   0.996   8.183
  857SOL    HW2 2596   0.612   1.069   8.151
  858SOL     OW 2597   0.686   1.161   9.251
  858SOL    HW1 2598   0.746   1.240   9.265
  858SOL    HW2 2599   0.600   1.192   9.210
  859SOL     OW 2600   0.335   1.435   8.509
  859SOL    HW1 2601   0.257   1.404   8.456
  859SOL    HW2 2602   0.393   1.493   8.452
  860SOL     OW 2603   1.460   1.505   8.787
  860SOL    HW1 2604   1.484   1.599   8.813
  860SOL    HW2 2605   1.444   1.451   8.869
  861SOL     OW 2606   0.438   0.392   8.947
  861SOL    HW1 2607   0.520   0.336   8.956
  861SOL    HW2 2608   0.357   0.334   8.951
  862SOL     OW 2609   1.603   0.447   8.185
  862SOL    HW1 2610   1.529   0.493   8.135
  862SOL    HW2 2611   1.654   0.515   8.238
  863SOL     OW 2612   0.231   1.713   7.931
  863SOL    HW1 2613   0.265   1.790   7.985
  863SOL    HW2 2614   0.275   1.713   7.841
  864SOL     OW 2615   1.127   1.341   9.138
  864SOL    HW1 2616   1.174   1.341   9.226
  864SOL    HW2 2617   1.079   1.254   9.127
  865SOL     OW 2618   0.230   1.434   7.986
  865SOL    HW1 2619   0.204   1.530   7.986
  865SOL    HW2 2620   0.159   1.380   8.031
  866SOL     OW 2621   0.240   1.091   8.334
  866SOL    HW1 2622   0.254   1.007   8.386
  866SOL    HW2 2623   0.185   1.155   8.389
  867SOL     OW 2624   0.620   1.786   8.887
  867SOL    HW1 2625   0.528   1.769   8.922
  867SOL    HW2 2626   0.648   1.878   8.913
  868SOL     OW 2627   0.606   0.964   7.571
  868SOL    HW1 2628   0.613   1.048   7.517
  868SOL    HW2 2629   0.652   0.977   7.659
  869SOL     OW 2630   1.594   0.114   8.928
  869SOL    HW1 2631   1.576   0.181   8.856
  869SOL    HW2 2632   1.591   0.160   9.017
  870SOL     OW 2633   0.122   0.643   8.011
  870SOL    HW1 2634   0.077   0.555   8.028
  870SOL    HW2 2635   0.121   0.697   8.095
  871SOL     OW 2636   1.842   1.767   7.807
  871SOL    HW1 2637   1.896   1.738   7.887
  871SOL    HW2 2638   1.872   1.857   7.778
  872SOL     OW 2639   0.027   1.596   7.565
  872SOL    HW1 2640   0.008   1.500   7.586
  872SOL    HW2 2641  -0.006   1.654   7.640
  873SOL     OW 2642   1.689   0.922   8.060
  873SOL    HW1 2643   1.784   0.893   8.068
  873SOL    HW2 2644   1.681   0.987   7.985
  874SOL     OW 2645   1.641   1.108   7.880
  874SOL    HW1 2646   1.727   1.110   7.828
  874SOL    HW2 2647   1.655   1.155   7.968
  875SOL     OW 2648   0.113   0.737   9.045
  875SOL    HW1 2649   0.201   0.724   9.090
  875SOL    HW2 2650   0.100   0.834   9.023
  876SOL     OW 2651   0.613   1.365   8.174
  876SOL    HW1 2652   0.564   1.278   8.183
  876SOL    HW2 2653   0.590   1.408   8.087
  877SOL     OW 2654   1.293   1.228   8.871
  877SOL    HW1 2655   1.330   1.155   8.813
  877SOL    HW2 2656   1.345   1.233   8.956
  878SOL     OW 2657   0.809   0.004   7.950
  878SOL    HW1 2658   0.849   0.095   7.941
  878SOL    HW2 2659   0.709   0.012   7.956
  879SOL     OW 2660   0.197   0.976   8.712
  879SOL    HW1 2661   0.286   0.931   8.698
  879SOL    HW2 2662   0.124   0.911   8.693
  880SOL     OW 2663   1.525   0.999   7.638
  880SOL    HW1 2664   1.462   0.923   7.651
  880SOL    HW2 2665   1.573   1.017   7.724
  881SOL     OW 2666   1.187   1.792   9.064
  881SOL    HW1 2667   1.211   1.852   8.988
  881SOL    HW2 2668   1.194   1.697   9.034
  882SOL     OW 2669   0.317   0.251   9.249
  882SOL    HW1 2670   0.388   0.322   9.255
  882SOL    HW2 2671   0.229   0.290   9.277
  883SOL     OW 2672   1.466   1.417   8.401
  883SOL    HW1 2673   1.407   1.423   8.481
  883SOL    HW2 2674   1.451   1.329   8.355
  884SOL     OW 2675   1.667   1.714   8.020
  884SOL    HW1 2676   1.626   1.691   7.932
  884SOL    HW2 2677   1.649   1.640   8.085
  885SOL     OW 2678   0.598   0.729   7.718
  885SOL    HW1 2679   0.622   0.798   7.650
  885SOL    HW2 2680   0.520   0.762   7.772
  886SOL     OW 2681   1.281   0.345   8.392
  886SOL    HW1 2682   1.195   0.295   8.379
  886SOL    HW2 2683   1.343   0.291   8.448
  887SOL     OW 2684   1.576   1.662   7.755
  887SOL    HW1 2685   1.665   1.708   7.758
  887SOL    HW2 2686   1.555   1.638   7.660
  888SOL     OW 2687   0.807   0.605   8.913
  888SOL    HW1 2688   0.760   0.602   9.002
  888SOL    HW2 2689   0.756   0.550   8.847
  889SOL     OW 2690   1.394   0.469   9.122
  889SOL    HW1 2691   1.374   0.512   9.210
  889SOL    HW2 2692   1.472   0.407   9.131
  890SOL     OW 2693   0.973   0.890   9.020
  890SOL    HW1 2694   1.019   0.806   8.991
  890SOL    HW2 2695   0.917   0.924   8.945
  891SOL     OW 2696   0.991   0.410   8.690
  891SOL    HW1 2697   0.914   0.444   8.744
  891SOL    HW2 2698   0.957   0.359   8.611
  892SOL     OW 2699   1.041   0.701   7.877
  892SOL    HW1 2700   1.067   0.697   7.973
  892SOL    HW2 2701   0.956   0.650   7.863
  893SOL     OW 2702   0.076   0.811   8.237
  893SOL    HW1 2703   0.175   0.799   8.246
  893SOL    HW2 2704   0.052   0.906   8.258
  894SOL     OW 2705   0.130   1.821   9.019
  894SOL    HW1 2706   0.120   1.806   9.118
  894SOL    HW2 2707   0.044   1.857   8.983
  895SOL     OW 2708   0.865   0.348   7.643
  895SOL    HW1 2709   0.924   0.411   7.594
  895SOL    HW2 2710   0.884   0.254   7.614
  896SOL     OW 2711   1.719   0.585   9.279
  896SOL    HW1 2712   1.693   0.674   9.243
  896SOL    HW2 2713   1.717   0.517   9.206
  897SOL     OW 2714   1.362   1.144   7.993
  897SOL    HW1 2715   1.445   1.115   7.945
  897SOL    HW2 2716   1.313   1.211   7.937
  898SOL     OW 2717   0.550   0.196   8.333
  898SOL    HW1 2718   0.545   0.191   8.433
  898SOL    HW2 2719   0.552   0.292   8.304
  899SOL     OW 2720   1.008   1.456   7.925
  899SOL    HW1 2721   0.962   1.528   7.873
  899SOL    HW2 2722   1.004   1.476   8.023
  900SOL     OW 2723   0.351   1.801   8.301
  900SOL    HW1 2724   0.401   1.715   8.307
  900SOL    HW2 2725   0.416   1.878   8.298
  901SOL     OW 2726   1.795   1.066   8.321
  901SOL    HW1 2727   1.733   1.051   8.245
  901SOL    HW2 2728   1.743   1.077   8.406
  902SOL     OW 2729   1.227   1.550   8.954
  902SOL    HW1 2730   1.233   1.473   9.018
  902SOL    HW2 2731   1.175   1.524   8.874
  903SOL     OW 2732   0.321   0.943   7.690
  903SOL    HW1 2733   0.403   0.982   7.648
  903SOL    HW2 2734   0.294   0.861   7.641
  904SOL     OW 2735   1.458   0.735   8.176
  904SOL    HW1 2736   1.453   0.670   8.251
  904SOL    HW2 2737   1.538   0.794   8.189
  905SOL     OW 2738   0.461   1.266   9.175
  905SOL    HW1 2739   0.411   1.267   9.089
  905SOL    HW2 2740   0.398   1.248   9.251
  906SOL     OW 2741   1.111   1.776   7.685
  906SOL    HW1 2742   1.051   1.714   7.735
  906SOL    HW2 2743   1.142   1.732   7.600
  907SOL     OW 2744   0.202   0.285   8.946
  907SOL    HW1 2745   0.122   0.345   8.933
  907SOL    HW2 2746   0.192   0.236   9.032
  908SOL     OW 2747   1.632   1.377   7.529
  908SOL    HW1 2748   1.600   1.471   7.519
  908SOL    HW2 2749   1.556   1.314   7.517
  909SOL     OW 2750   0.464   1.743   7.771
  909SOL    HW1 2751   0.497   1.782   7.857
  909SOL    HW2 2752   0.540   1.736   7.706
  910SOL     OW 2753   1.400   0.107   7.874
  910SOL    HW1 2754   1.376   0.070   7.784
  910SOL    HW2 2755   1.499   0.123   7.878
  911SOL     OW 2756   0.249   1.785   8.689
  911SOL    HW1 2757   0.306   1.720   8.739
  911SOL    HW2 2758   0.233   1.752   8.596
  912SOL     OW 2759   0.940   1.698   8.352
  912SOL    HW1 2760   1.020   1.641   8.373
  912SOL    HW2 2761   0.891   1.658   8.275
  913SOL     OW 2762   0.382   0.700   7.928
  913SOL    HW1 2763   0.427   0.610   7.925
  913SOL    HW2 2764   0.288   0.689   7.961
  914SOL     OW 2765   1.547   0.222   9.177
  914SOL    HW1 2766   1.542   0.259   9.269
  914SOL    HW2 2767   1.475   0.153   9.165
  915SOL     OW 2768   0.614   0.122   7.565
  915SOL    HW1 2769   0.712   0.100   7.572
  915SOL    HW2 2770   0.583   0.105   7.472
  916SOL     OW 2771   0.781   0.264   9.197
  916SOL    HW1 2772   0.848   0.203   9.240
  916SOL    HW2 2773   0.708   0.283   9.262
  917SOL     OW 2774   0.888   1.514   8.643
  917SOL    HW1 2775   0.865   1.489   8.549
  917SOL    HW2 2776   0.949   1.445   8.682
  918SOL     OW 2777   1.351   0.590   8.881
  918SOL    HW1 2778   1.379   0.547   8.966
  918SOL    HW2 2779   1.376   0.686   8.882
  919SOL     OW 2780   0.803   1.402   8.372
  919SOL    HW1 2781   0.893   1.416   8.330
  919SOL    HW2 2782   0.732   1.404   8.301
  920SOL     OW 2783   0.922   0.503   8.347
  920SOL    HW1 2784   0.897   0.494   8.251
  920SOL    HW2 2785   0.970   0.421   8.378
  921SOL     OW 2786   0.539   0.064   7.960
  921SOL    HW1 2787   0.458   0.065   8.018
  921SOL    HW2 2788   0.542   0.147   7.905
  922SOL     OW 2789   1.434   1.188   7.489
  922SOL    HW1 2790   1.466   1.112   7.546
  922SOL    HW2 2791   1.342   1.215   7.519
  923SOL     OW 2792   0.297   0.035   7.619
  923SOL    HW1 2793   0.346   0.119   7.598
  923SOL    HW2 2794   0.359  -0.030   7.664
  924SOL     OW 2795   0.935   0.236   7.928
  924SOL    HW1 2796   0.887   0.277   7.850
  924SOL    HW2 2797   1.034   0.234   7.909
  925SOL     OW 2798   1.076   0.683   8.912
  925SOL    HW1 2799   0.996   0.622   8.915
  925SOL    HW2 2800   1.157   0.630   8.888
  926SOL     OW 2801   1.227   1.570   8.241
  926SOL    HW1 2802   1.248   1.644   8.176
  926SOL    HW2 2803   1.295   1.570   8.314
  927SOL     OW 2804   0.459   1.152   8.189
  927SOL    HW1 2805   0.388   1.125   8.254
  927SOL    HW2 2806   0.433   1.124   8.096
  928SOL     OW 2807   1.271   1.797   8.039
  928SOL    HW1 2808   1.315   1.861   7.975
  928SOL    HW2 2809   1.221   1.849   8.109
  929SOL     OW 2810   1.032   0.549   7.464
  929SOL    HW1 2811   0.991   0.631   7.425
  929SOL    HW2 2812   1.096   0.575   7.537
  930SOL     OW 2813   0.078   0.556   8.834
  930SOL    HW1 2814   0.170   0.555   8.793
  930SOL    HW2 2815   0.072   0.630   8.901
  931SOL     OW 2816   0.561   0.222   8.595
  931SOL    HW1 2817   0.599   0.138   8.632
  931SOL    HW2 2818   0.473   0.241   8.639
  932SOL     OW 2819   0.866   0.454   8.090
  932SOL    HW1 2820   0.834   0.526   8.028
  932SOL    HW2 2821   0.890   0.373   8.037
  933SOL     OW 2822   1.017   0.039   8.201
  933SOL    HW1 2823   0.945   0.044   8.132
  933SOL    HW2 2824   0.993  -0.030   8.270
  934SOL     OW 2825   1.429   1.173   8.315
  934SOL    HW1 2826   1.374   1.089   8.308
  934SOL    HW2 2827   1.455   1.202   8.223
  935SOL     OW 2828   1.466   0.590   8.440
  935SOL    HW1 2829   1.436   0.495   8.447
  935SOL    HW2 2830   1.539   0.606   8.506
  936SOL     OW 2831   1.857   0.833   7.825
  936SOL    HW1 2832   1.899   0.769   7.889
  936SOL    HW2 2833   1.819   0.782   7.747
  937SOL     OW 2834   0.488   1.385   7.622
  937SOL    HW1 2835   0.401   1.370   7.669
  937SOL    HW2 2836   0.471   1.411   7.527
  938SOL     OW 2837   1.664   1.280   8.105
  938SOL    HW1 2838   1.763   1.288   8.119
  938SOL    HW2 2839   1.619   1.364   8.136
  939SOL     OW 2840   1.390   0.575   7.526
  939SOL    HW1 2841   1.336   0.554   7.607
  939SOL    HW2 2842   1.481   0.534   7.535
  940SOL     OW 2843   0.527   0.256   7.776
  940SOL    HW1 2844   0.554   0.197   7.701
  940SOL    HW2 2845   0.527   0.351   7.745
  941SOL     OW 2846   1.754   1.223   9.036
  941SOL    HW1 2847   1.845   1.184   9.023
  941SOL    HW2 2848   1.762   1.319   9.060
  942SOL     OW 2849   1.064   1.347   8.788
  942SOL    HW1 2850   0.984   1.324   8.843
  942SOL    HW2 2851   1.147   1.321   8.837
  943SOL     OW 2852   1.592   1.629   9.073
  943SOL    HW1 2853   1.619   1.663   8.983
  943SOL    HW2 2854   1.671   1.591   9.119
  944SOL     OW 2855   1.111   1.195   8.548
  944SOL    HW1 2856   1.071   1.239   8.629
  944SOL    HW2 2857   1.070   1.232   8.465
  945SOL     OW 2858   1.638   1.099   8.527
  945SOL    HW1 2859   1.643   1.180   8.586
  945SOL    HW2 2860   1.552   1.101   8.476
  946SOL     OW 2861   0.915   0.089   8.850
  946SOL    HW1 2862   0.940   0.069   8.755
  946SOL    HW2 2863   0.987   0.145   8.892
  947SOL     OW 2864   0.980   1.116   9.167
  947SOL    HW1 2865   0.881   1.122   9.177
  947SOL    HW2 2866   1.003   1.036   9.111
  948SOL     OW 2867   0.705   1.050   7.816
  948SOL    HW1 2868   0.691   1.057   7.915
  948SOL    HW2 2869   0.789   0.999   7.798
  949SOL     OW 2870   0.410   0.813   8.699
  949SOL    HW1 2871   0.496   0.825   8.749
  949SOL    HW2 2872   0.368   0.726   8.726
  950SOL     OW 2873   1.274   0.386   8.710
  950SOL    HW1 2874   1.295   0.460   8.774
  950SOL    HW2 2875   1.185   0.403   8.667
  951SOL     OW 2876   0.064   1.564   8.779
  951SOL    HW1 2877   0.018   1.646   8.745
  951SOL    HW2 2878   0.162   1.583   8.788
  952SOL     OW 2879   0.367   1.100   7.949
  952SOL    HW1 2880   0.360   1.183   7.893
  952SOL    HW2 2881   0.371   1.020   7.889
  953SOL     OW 2882   0.566   0.537   8.313
  953SOL    HW1 2883   0.578   0.603   8.239
  953SOL    HW2 2884   0.612   0.571   8.396
  954SOL     OW 2885   1.252   1.348   7.836
  954SOL    HW1 2886   1.302   1.425   7.876
  954SOL    HW2 2887   1.157   1.350   7.868
  955SOL     OW 2888   1.272   1.445   8.590
  955SOL    HW1 2889   1.319   1.458   8.677
  955SOL    HW2 2890   1.206   1.371   8.599
  956SOL     OW 2891   1.582   0.639   7.920
  956SOL    HW1 2892   1.551   0.700   7.993
  956SOL    HW2 2893   1.632   0.691   7.851
  957SOL     OW 2894   0.354   1.510   8.777
  957SOL    HW1 2895   0.333   1.466   8.690
  957SOL    HW2 2896   0.451   1.536   8.780
  958SOL     OW 2897   0.402   0.751   9.046
  958SOL    HW1 2898   0.470   0.806   8.999
  958SOL    HW2 2899   0.442   0.663   9.073
  959SOL     OW 2900   1.587   0.779   9.118
  959SOL    HW1 2901   1.495   0.817   9.113
  959SOL    HW2 2902   1.647   0.826   9.053
  960SOL     OW 2903   1.013   0.105   9.218
  960SOL    HW1 2904   1.019   0.190   9.166
  960SOL    HW2 2905   1.045   0.029   9.161
  961SOL     OW 2906   0.504   0.050   9.188
  961SOL    HW1 2907   0.462  -0.007   9.118
  961SOL    HW2 2908   0.438   0.119   9.220
  962SOL     OW 2909   0.573   0.870   8.477
  962SOL    HW1 2910   0.617   0.959   8.468
  962SOL    HW2 2911   0.510   0.870   8.554
  963SOL     OW 2912   1.360   0.862   8.493
  963SOL    HW1 2913   1.285   0.862   8.427
  963SOL    HW2 2914   1.397   0.770   8.502
  964SOL     OW 2915   1.209   0.525   7.723
  964SOL    HW1 2916   1.222   0.441   7.777
  964SOL    HW2 2917   1.180   0.599   7.783
  965SOL     OW 2918   0.307   0.213   8.679
  965SOL    HW1 2919   0.284   0.250   8.769
  965SOL    HW2 2920   0.277   0.118   8.673
  966SOL     OW 2921   0.037   1.310   8.730
  966SOL    HW1 2922   0.090   1.261   8.798
  966SOL    HW2 2923   0.059   1.408   8.735
  967SOL     OW 2924   0.732   0.634   8.512
  967SOL    HW1 2925   0.791   0.608   8.436
  967SOL    HW2 2926   0.704   0.730   8.501
  968SOL     OW 2927   1.728   0.935   9.302
  968SOL    HW1 2928   1.682   0.928   9.213
  968SOL    HW2 2929   1.666   0.979   9.368
  969SOL     OW 2930   0.307   0.063   8.066
  969SOL    HW1 2931   0.296   0.157   8.099
  969SOL    HW2 2932   0.302   0.000   8.143
  970SOL     OW 2933   1.622   0.367   7.822
  970SOL    HW1 2934   1.624   0.291   7.886
  970SOL    HW2 2935   1.574   0.444   7.862
  971SOL     OW 2936   1.023   0.766   8.414
  971SOL    HW1 2937   1.038   0.787   8.510
  971SOL    HW2 2938   0.993   0.671   8.405
  972SOL     OW 2939   0.980   1.573   9.148
  972SOL    HW1 2940   0.960   1.617   9.060
  972SOL    HW2 2941   1.019   1.482   9.132
  973SOL     OW 2942   1.859   1.518   9.053
  973SOL    HW1 2943   1.873   1.545   8.958
  973SOL    HW2 2944   1.942   1.540   9.106
  974SOL     OW 2945   0.350   0.898   9.252
  974SOL    HW1 2946   0.426   0.942   9.300
  974SOL    HW2 2947   0.385   0.851   9.170
  975SOL     OW 2948   1.540   0.274   7.573
  975SOL    HW1 2949   1.479   0.199   7.596
  975SOL    HW2 2950   1.562   0.326   7.656
  976SOL     OW 2951   1.303   0.838   7.490
  976SOL    HW1 2952   1.337   0.745   7.505
  976SOL    HW2 2953   1.321   0.865   7.395
  977SOL     OW 2954   1.068   1.333   8.297
  977SOL    HW1 2955   1.075   1.249   8.242
  977SOL    HW2 2956   1.130   1.402   8.261
  978SOL     OW 2957   0.319   0.810   8.397
  978SOL    HW1 2958   0.412   0.846   8.402
  978SOL    HW2 2959   0.313   0.725   8.449
  979SOL     OW 2960   0.339   0.509   8.454
  979SOL    HW1 2961   0.287   0.426   8.437
  979SOL    HW2 2962   0.416   0.514   8.390
  980SOL     OW 2963   1.138   0.380   9.126
  980SOL    HW1 2964   1.093   0.443   9.190
  980SOL    HW2 2965   1.231   0.411   9.109
  981SOL     OW 2966   1.160   0.207   8.925
  981SOL    HW1 2967   1.160   0.271   9.002
  981SOL    HW2 2968   1.188   0.255   8.842
  982SOL     OW 2969   0.008   1.326   7.648
  982SOL    HW1 2970  -0.085   1.347   7.617
  982SOL    HW2 2971   0.018   1.227   7.661
  983SOL     OW 2972   0.088   1.801   8.375
  983SOL    HW1 2973   0.046   1.715   8.348
  983SOL    HW2 2974   0.182   1.804   8.341
  984SOL     OW 2975   0.504   1.568   8.358
  984SOL    HW1 2976   0.570   1.642   8.367
  984SOL    HW2 2977   0.548   1.489   8.316
  985SOL     OW 2978   1.002   0.796   8.686
  985SOL    HW1 2979   1.043   0.764   8.772
  985SOL    HW2 2980   0.906   0.769   8.683
  986SOL     OW 2981   0.040   0.544   8.562
  986SOL    HW1 2982   0.125   0.511   8.521
  986SOL    HW2 2983   0.053   0.559   8.660
  987SOL     OW 2984   0.189   0.520   9.170
  987SOL    HW1 2985   0.248   0.480   9.100
  987SOL    HW2 2986   0.131   0.591   9.129
  988SOL     OW 2987   1.369   0.950   9.108
  988SOL    HW1 2988   1.408   1.039   9.128
  988SOL    HW2 2989   1.379   0.930   9.011
  989SOL     OW 2990   0.815   0.572   7.773
  989SOL    HW1 2991   0.822   0.483   7.727
  989SOL    HW2 2992   0.721   0.606   7.765
  990SOL     OW 2993   1.657   0.604   8.654
  990SOL    HW1 2994   1.619   0.535   8.716
  990SOL    HW2 2995   1.739   0.568   8.610
  991SOL     OW 2996   0.252   1.564   9.192
  991SOL    HW1 2997   0.222   1.621   9.268
  991SOL    HW2 2998   0.245   1.467   9.218
  992SOL     OW 2999   0.671   0.464   8.717
  992SOL    HW1 3000   0.637   0.375   8.687
  992SOL    HW2 3001   0.697   0.518   8.637
  993SOL     OW 3002   0.930   1.678   8.913
  993SOL    HW1 3003   0.906   1.660   8.818
  993SOL    HW2 3004   0.960   1.772   8.923
  994SOL     OW 3005   0.473   0.500   7.639
  994SOL    HW1 3006   0.534   0.580   7.643
  994SOL    HW2 3007   0.378   0.531   7.646
  995SOL     OW 3008   0.159   1.137   8.914
  995SOL    HW1 3009   0.181   1.076   8.990
  995SOL    HW2 3010   0.169   1.088   8.828
  996SOL     OW 3011   1.347   1.059   8.682
  996SOL    HW1 3012   1.371   0.996   8.608
  996SOL    HW2 3013   1.257   1.099   8.664
  997SOL     OW 3014   1.302   0.855   7.757
  997SOL    HW1 3015   1.216   0.824   7.799
  997SOL    HW2 3016   1.298   0.841   7.658
  998SOL     OW 3017   1.759   1.747   8.602
  998SOL    HW1 3018   1.820   1.777   8.529
  998SOL    HW2 3019   1.721   1.658   8.580
  999SOL     OW 3020   1.252   1.731   8.576
  999SOL    HW1 3021   1.336   1.736   8.522
  999SOL    HW2 3022   1.229   1.635   8.594
 1000SOL     OW 3023   0.083   1.258   8.470
 1000SOL    HW1 3024   0.078   1.257   8.570
 1000SOL    HW2 3025   0.000   1.217   8.432
 1001SOL     OW 3026   0.688   1.662   9.164
 1001SOL    HW1 3027   0.632   1.743   9.173
 1001SOL    HW2 3028   0.740   1.666   9.078
 1002SOL     OW 3029   1.726   0.135   7.971
 1002SOL    HW1 3030   1.799   0.118   7.904
 1002SOL    HW2 3031   1.695   0.048   8.009
 1003SOL     OW 3032   1.388   1.573   7.925
 1003SOL    HW1 3033   1.455   1.585   7.851
 1003SOL    HW2 3034   1.348   1.662   7.948
 1004SOL     OW 3035   0.130   1.794   9.299
 1004SOL    HW1 3036   0.089   1.720   9.352
 1004SOL    HW2 3037   0.194   1.845   9.357
 1005SOL     OW 3038   1.280   0.927   8.120
 1005SOL    HW1 3039   1.340   0.846   8.122
 1005SOL    HW2 3040   1.320   0.996   8.060
 1006SOL     OW 3041   0.830   1.273   8.870
 1006SOL    HW1 3042   0.825   1.306   8.965
 1006SOL    HW2 3043   0.744   1.292   8.824
 1007SOL     OW 3044   0.672   1.616   7.602
 1007SOL    HW1 3045   0.681   1.626   7.503
 1007SOL    HW2 3046   0.632   1.527   7.623
 1008SOL     OW 3047   1.650   1.720   8.842
 1008SOL    HW1 3048   1.703   1.730   8.758
 1008SOL    HW2 3049   1.623   1.810   8.876
 1009SOL     OW 3050   1.841   0.175   8.411
 1009SOL    HW1 3051   1.880   0.090   8.375
 1009SOL    HW2 3052   1.743   0.177   8.392
 1010SOL     OW 3053   0.263   0.326   8.168
 1010SOL    HW1 3054   0.184   0.377   8.134
 1010SOL    HW2 3055   0.254   0.311   8.266
 1011SOL     OW 3056   1.194   1.612   7.479
 1011SOL    HW1 3057   1.200   1.519   7.516
 1011SOL    HW2 3058   1.135   1.612   7.399
 1012SOL     OW 3059   0.822   1.002   8.820
 1012SOL    HW1 3060   0.862   1.001   8.728
 1012SOL    HW2 3061   0.832   1.094   8.860
 1013SOL     OW 3062   0.916   0.910   7.739
 1013SOL    HW1 3063   0.979   0.948   7.671
 1013SOL    HW2 3064   0.956   0.827   7.778
 1014SOL     OW 3065   1.504   1.607   7.492
 1014SOL    HW1 3066   1.412   1.644   7.499
 1014SOL    HW2 3067   1.542   1.627   7.402
 1015SOL     OW 3068   0.372   1.288   8.938
 1015SOL    HW1 3069   0.359   1.381   8.904
 1015SOL    HW2 3070   0.288   1.236   8.925
 1016SOL     OW 3071   1.614   1.292   8.737
 1016SOL    HW1 3072   1.674   1.295   8.817
 1016SOL    HW2 3073   1.539   1.356   8.750
 1017SOL     OW 3074   1.039   1.098   8.144
 1017SOL    HW1 3075   0.969   1.051   8.198
 1017SOL    HW2 3076   1.098   1.030   8.101
 1018SOL     OW 3077   1.014   0.236   8.419
 1018SOL    HW1 3078   1.006   0.200   8.326
 1018SOL    HW2 3079   1.012   0.160   8.484
 1019SOL     OW 3080   0.590   1.487   7.939
 1019SOL    HW1 3081   0.632   1.429   7.869
 1019SOL    HW2 3082   0.546   1.566   7.895
 1020SOL     OW 3083   1.709   0.385   8.829
 1020SOL    HW1 3084   1.782   0.454   8.833
 1020SOL    HW2 3085   1.737   0.310   8.770
 1021SOL     OW 3086   0.255   1.348   7.738
 1021SOL    HW1 3087   0.159   1.349   7.711
 1021SOL    HW2 3088   0.267   1.401   7.822
 1022SOL     OW 3089   0.105   1.013   9.174
 1022SOL    HW1 3090   0.028   0.980   9.228
 1022SOL    HW2 3091   0.190   0.983   9.216
 1023SOL     OW 3092   0.672   0.203   8.937
 1023SOL    HW1 3093   0.762   0.187   8.897
 1023SOL    HW2 3094   0.680   0.208   9.036
 1024SOL     OW 3095   0.075   0.345   7.481
 1024SOL    HW1 3096  -0.017   0.317   7.452
 1024SOL    HW2 3097   0.106   0.422   7.425
 1025SOL     OW 3098   1.440   0.856   8.846
 1025SOL    HW1 3099   1.383   0.908   8.783
 1025SOL    HW2 3100   1.536   0.868   8.822
 1026SOL     OW 3101   0.072   0.166   7.766
 1026SOL    HW1 3102   0.055   0.249   7.712
 1026SOL    HW2 3103   0.162   0.129   7.744
 1027SOL     OW 3104   1.183   1.335   7.567
 1027SOL    HW1 3105   1.084   1.324   7.569
 1027SOL    HW2 3106   1.217   1.350   7.660
 1028SOL     OW 3107   0.613   0.842   8.879
 1028SOL    HW1 3108   0.669   0.923   8.862
 1028SOL    HW2 3109   0.672   0.762   8.882
 1029SOL     OW 3110   1.493   1.767   8.407
 1029SOL    HW1 3111   1.526   1.831   8.338
 1029SOL    HW2 3112   1.559   1.761   8.482
 1030SOL     OW 3113   0.716   0.565   9.156
 1030SOL    HW1 3114   0.735   0.630   9.230
 1030SOL    HW2 3115   0.776   0.485   9.165
 1031SOL     OW 3116   1.450   1.220   9.081
 1031SOL    HW1 3117   1.441   1.210   9.180
 1031SOL    HW2 3118   1.546   1.213   9.055
 1032SOL     OW 3119   0.390   1.741   9.008
 1032SOL    HW1 3120   0.299   1.782   9.006
 1032SOL    HW2 3121   0.383   1.647   9.040
 1033SOL     OW 3122   1.674   0.883   8.702
 1033SOL    HW1 3123   1.647   0.794   8.665
 1033SOL    HW2 3124   1.675   0.951   8.629
 1034SOL     OW 3125   1.225   0.325   7.897
 1034SOL    HW1 3126   1.290   0.251   7.886
 1034SOL    HW2 3127   1.245   0.375   7.981
 1035SOL     OW 3128   0.594   0.745   8.100
 1035SOL    HW1 3129   0.644   0.830   8.081
 1035SOL    HW2 3130   0.506   0.747   8.052
 1036SOL     OW 3131   1.777   0.342   9.090
 1036SOL    HW1 3132   1.760   0.373   8.996
 1036SOL    HW2 3133   1.693   0.305   9.128
 1037SOL     OW 3134   1.730   0.934   8.965
 1037SOL    HW1 3135   1.768   1.025   8.980
 1037SOL    HW2 3136   1.722   0.917   8.866
 1038SOL     OW 3137   0.859   1.374   7.464
 1038SOL    HW1 3138   0.813   1.389   7.552
 1038SOL    HW2 3139   0.903   1.459   7.434
 1039SOL     OW 3140   0.661   1.790   8.401
 1039SOL    HW1 3141   0.615   1.878   8.388
 1039SOL    HW2 3142   0.760   1.802   8.394
 1040SOL     OW 3143   0.859   0.956   8.309
 1040SOL    HW1 3144   0.913   0.887   8.357
 1040SOL    HW2 3145   0.827   1.025   8.375
 1041SOL     OW 3146   1.083   0.984   7.535
 1041SOL    HW1 3147   1.060   1.037   7.453
 1041SOL    HW2 3148   1.164   0.928   7.516
 1042SOL     OW 3149   1.861   1.569   8.299
 1042SOL    HW1 3150   1.790   1.557   8.229
 1042SOL    HW2 3151   1.862   1.490   8.359
 1043SOL     OW 3152   0.221   1.314   9.292
 1043SOL    HW1 3153   0.156   1.241   9.271
 1043SOL    HW2 3154   0.225   1.328   9.390
 1044SOL     OW 3155   0.079   1.240   8.101
 1044SOL    HW1 3156   0.078   1.193   8.189
 1044SOL    HW2 3157   0.161   1.212   8.050
 1045SOL     OW 3158   0.672   1.391   9.072
 1045SOL    HW1 3159   0.594   1.341   9.110
 1045SOL    HW2 3160   0.669   1.486   9.103
 1046SOL     OW 3161   1.824   0.192   8.675
 1046SOL    HW1 3162   1.820   0.102   8.719
 1046SOL    HW2 3163   1.827   0.181   8.576
 1047SOL     OW 3164   0.428   0.424   7.968
 1047SOL    HW1 3165   0.458   0.352   7.906
 1047SOL    HW2 3166   0.389   0.384   8.051
 1048SOL     OW 3167   1.705   1.487   8.552
 1048SOL    HW1 3168   1.612   1.462   8.525
 1048SOL    HW2 3169   1.731   1.437   8.634
 1049SOL     OW 3170   0.317   0.547   8.728
 1049SOL    HW1 3171   0.355   0.488   8.800
 1049SOL    HW2 3172   0.357   0.521   8.640
 1050SOL     OW 3173   0.812   1.586   8.135
 1050SOL    HW1 3174   0.844   1.596   8.041
 1050SOL    HW2 3175   0.733   1.524   8.137
 1051SOL     OW 3176   1.424   0.214   8.560
 1051SOL    HW1 3177   1.476   0.149   8.615
 1051SOL    HW2 3178   1.375   0.277   8.621
 1052SOL     OW 3179   1.001   0.034   8.602
 1052SOL    HW1 3180   0.938  -0.038   8.571
 1052SOL    HW2 3181   1.094  -0.002   8.602
 1053SOL     OW 3182   0.770   1.330   7.749
 1053SOL    HW1 3183   0.724   1.243   7.766
 1053SOL    HW2 3184   0.861   1.327   7.790
 1054SOL     OW 3185   0.618   1.567   8.732
 1054SOL    HW1 3186   0.613   1.649   8.789
 1054SOL    HW2 3187   0.707   1.564   8.687
 1055SOL     OW 3188   1.352   0.052   7.616
 1055SOL    HW1 3189   1.387   0.011   7.532
 1055SOL    HW2 3190   1.262   0.014   7.636
 1056SOL     OW 3191   1.300   0.453   8.139
 1056SOL    HW1 3192   1.241   0.533   8.143
 1056SOL    HW2 3193   1.315   0.418   8.232
 1057SOL     OW 3194   1.593   0.221   8.330
 1057SOL    HW1 3195   1.509   0.220   8.384
 1057SOL    HW2 3196   1.595   0.304   8.274
 1058SOL     OW 3197   0.039   1.077   7.748
 1058SOL    HW1 3198   0.138   1.066   7.739
 1058SOL    HW2 3199  -0.001   0.991   7.780
 1059SOL     OW 3200   0.875   1.646   7.785
 1059SOL    HW1 3201   0.798   1.611   7.731
 1059SOL    HW2 3202   0.843   1.717   7.847
 1060SOL     OW 3203   0.230   0.628   9.423
 1060SOL    HW1 3204   0.137   0.626   9.460
 1060SOL    HW2 3205   0.231   0.589   9.331
 1061SOL     OW 3206   0.225   0.275  10.306
 1061SOL    HW1 3207   0.260   0.258  10.398
 1061SOL    HW2 3208   0.137   0.230  10.294
 1062SOL     OW 3209   0.019   0.368   9.957
 1062SOL    HW1 3210  -0.063   0.411   9.996
 1062SOL    HW2 3211  -0.009   0.295   9.894
 1063SOL     OW 3212   0.569   1.275  10.475
 1063SOL    HW1 3213   0.476   1.268  10.438
 1063SOL    HW2 3214   0.580   1.364  10.519
 1064SOL     OW 3215   1.555   1.511  10.013
 1064SOL    HW1 3216   1.498   1.495  10.094
 1064SOL    HW2 3217   1.496   1.521   9.933
 1065SOL     OW 3218   1.135   0.703  10.027
 1065SOL    HW1 3219   1.192   0.781  10.002
 1065SOL    HW2 3220   1.075   0.729  10.103
 1066SOL     OW 3221   1.755   0.607   9.541
 1066SOL    HW1 3222   1.743   0.594   9.442
 1066SOL    HW2 3223   1.725   0.526   9.590
 1067SOL     OW 3224   0.768   1.144  10.333
 1067SOL    HW1 3225   0.690   1.161  10.393
 1067SOL    HW2 3226   0.802   1.231  10.297
 1068SOL     OW 3227   0.850   0.798  11.133
 1068SOL    HW1 3228   0.846   0.874  11.198
 1068SOL    HW2 3229   0.872   0.834  11.042
 1069SOL     OW 3230   0.685   1.012   9.975
 1069SOL    HW1 3231   0.754   0.996  10.045
 1069SOL    HW2 3232   0.612   1.069  10.013
 1070SOL     OW 3233   0.686   1.161  11.113
 1070SOL    HW1 3234   0.746   1.240  11.127
 1070SOL    HW2 3235   0.600   1.192  11.072
 1071SOL     OW 3236   0.335   1.435  10.371
 1071SOL    HW1 3237   0.257   1.404  10.318
 1071SOL    HW2 3238   0.393   1.493  10.314
 1072SOL     OW 3239   1.460   1.505  10.649
 1072SOL    HW1 3240   1.484   1.599  10.675
 1072SOL    HW2 3241   1.444   1.451  10.731
 1073SOL     OW 3242   0.438   0.392  10.809
 1073SOL    HW1 3243   0.520   0.336  10.818
 1073SOL    HW2 3244   0.357   0.334  10.813
 1074SOL     OW 3245   1.603   0.447  10.047
 1074SOL    HW1 3246   1.529   0.493   9.997
 1074SOL    HW2 3247   1.654   0.515  10.100
 1075SOL     OW 3248   0.231   1.713   9.793
 1075SOL    HW1 3249   0.265   1.790   9.847
 1075SOL    HW2 3250   0.275   1.713   9.703
 1076SOL     OW 3251   1.127   1.341  11.000
 1076SOL    HW1 3252   1.174   1.341  11.088
 1076SOL    HW2 3253   1.079   1.254  10.989
 1077SOL     OW 3254   0.230   1.434   9.848
 1077SOL    HW1 3255   0.204   1.530   9.848
 1077SOL    HW2 3256   0.159   1.380   9.893
 1078SOL     OW 3257   0.240   1.091  10.196
 1078SOL    HW1 3258   0.254   1.007  10.248
 1078SOL    HW2 3259   0.185   1.155  10.251
 1079SOL     OW 3260   0.620   1.786  10.749
 1079SOL    HW1 3261   0.528   1.769  10.784
 1079SOL    HW2 3262   0.648   1.878  10.775
 1080SOL     OW 3263   0.606   0.964   9.433
 1080SOL    HW1 3264   0.613   1.048   9.379
 1080SOL    HW2 3265   0.652   0.977   9.521
 1081SOL     OW 3266   1.594   0.114  10.790
 1081SOL    HW1 3267   1.576   0.181  10.718
 1081SOL    HW2 3268   1.591   0.160  10.879
 1082SOL     OW 3269   0.122   0.643   9.873
 1082SOL    HW1 3270   0.077   0.555   9.890
 1082SOL    HW2 3271   0.121   0.697   9.957
 1083SOL     OW 3272   1.842   1.767   9.669
 1083SOL    HW1 3273   1.896   1.738   9.749
 1083SOL    HW2 3274   1.872   1.857   9.640
 1084SOL     OW 3275   0.027   1.596   9.427
 1084SOL    HW1 3276   0.008   1.500   9.448
 1084SOL    HW2 3277  -0.006   1.654   9.502
 1085SOL     OW 3278   1.689   0.922   9.922
 1085SOL    HW1 3279   1.784   0.893   9.930
 1085SOL    HW2 3280   1.681   0.987   9.847
 1086SOL     OW 3281   1.641   1.108   9.742
 1086SOL    HW1 3282   1.727   1.110   9.690
 1086SOL    HW2 3283   1.655   1.155   9.830
 1087SOL     OW 3284   0.113   0.737  10.907
 1087SOL    HW1 3285   0.201   0.724  10.952
 1087SOL    HW2 3286   0.100   0.834  10.885
 1088SOL     OW 3287   0.613   1.365  10.036
 1088SOL    HW1 3288   0.564   1.278  10.045
 1088SOL    HW2 3289   0.590   1.408   9.949
 1089SOL     OW 3290   1.293   1.228  10.733
 1089SOL    HW1 3291   1.330   1.155  10.675
 1089SOL    HW2 3292   1.345   1.233  10.818
 1090SOL     OW 3293   0.809   0.004   9.812
 1090SOL    HW1 3294   0.849   0.095   9.803
 1090SOL    HW2 3295   0.709   0.012   9.818
 1091SOL     OW 3296   0.197   0.976  10.574
 1091SOL    HW1 3297   0.286   0.931  10.560
 1091SOL    HW2 3298   0.124   0.911  10.555
 1092SOL     OW 3299   1.525   0.999   9.500
 1092SOL    HW1 3300   1.462   0.923   9.513
 1092SOL    HW2 3301   1.573   1.017   9.586
 1093SOL     OW 3302   1.187   1.792  10.926
 1093SOL    HW1 3303   1.211   1.852  10.850
 1093SOL    HW2 3304   1.194   1.697  10.896
 1094SOL     OW 3305   0.317   0.251  11.111
 1094SOL    HW1 3306   0.388   0.322  11.117
 1094SOL    HW2 3307   0.229   0.290  11.139
 1095SOL     OW 3308   1.466   1.417  10.263
 1095SOL    HW1 3309   1.407   1.423  10.343
 1095SOL    HW2 3310   1.451   1.329  10.217
 1096SOL     OW 3311   1.667   1.714   9.882
 1096SOL    HW1 3312   1.626   1.691   9.794
 1096SOL    HW2 3313   1.649   1.640   9.947
 1097SOL     OW 3314   0.598   0.729   9.580
 1097SOL    HW1 3315   0.622   0.798   9.512
 1097SOL    HW2 3316   0.520   0.762   9.634
 1098SOL     OW 3317   1.281   0.345  10.254
 1098SOL    HW1 3318   1.195   0.295  10.241
 1098SOL    HW2 3319   1.343   0.291  10.310
 1099SOL     OW 3320   1.576   1.662   9.617
 1099SOL    HW1 3321   1.665   1.708   9.620
 1099SOL    HW2 3322   1.555   1.638   9.522
 1100SOL     OW 3323   0.807   0.605  10.775
 1100SOL    HW1 3324   0.760   0.602  10.864
 1100SOL    HW2 3325   0.756   0.550  10.709
 1101SOL     OW 3326   1.394   0.469  10.984
 1101SOL    HW1 3327   1.374   0.512  11.072
 1101SOL    HW2 3328   1.472   0.407  10.993
 1102SOL     OW 3329   0.973   0.890  10.882
 1102SOL    HW1 3330   1.019   0.806  10.853
 1102SOL    HW2 3331   0.917   0.924  10.807
 1103SOL     OW 3332   0.991   0.410  10.552
 1103SOL    HW1 3333   0.914   0.444  10.606
 1103SOL    HW2 3334   0.957   0.359  10.473
 1104SOL     OW 3335   1.041   0.701   9.739
 1104SOL    HW1 3336   1.067   0.697   9.835
 1104SOL    HW2 3337   0.956   0.650   9.725
 1105SOL     OW 3338   0.076   0.811  10.099
 1105SOL    HW1 3339   0.175   0.799  10.108
 1105SOL    HW2 3340   0.052   0.906  10.120
 1106SOL     OW 3341   0.130   1.821  10.881
 1106SOL    HW1 3342   0.120   1.806  10.980
 1106SOL    HW2 3343   0.044   1.857  10.845
 1107SOL     OW 3344   0.865   0.348   9.505
 1107SOL    HW1 3345   0.924   0.411   9.456
 1107SOL    HW2 3346   0.884   0.254   9.476
 1108SOL     OW 3347   1.719   0.585  11.141
 1108SOL    HW1 3348   1.693   0.674  11.105
 1108SOL    HW2 3349   1.717   0.517  11.068
 1109SOL     OW 3350   1.362   1.144   9.855
 1109SOL    HW1 3351   1.445   1.115   9.807
 1109SOL    HW2 3352   1.313   1.211   9.799
 1110SOL     OW 3353   0.550   0.196  10.195
 1110SOL    HW1 3354   0.545   0.191  10.295
 1110SOL    HW2 3355   0.552   0.292  10.166
 1111SOL     OW 3356   1.008   1.456   9.787
 1111SOL    HW1 3357   0.962   1.528   9.735
 1111SOL    HW2 3358   1.004   1.476   9.885
 1112SOL     OW 3359   0.351   1.801  10.163
 1112SOL    HW1 3360   0.401   1.715  10.169
 1112SOL    HW2 3361   0.416   1.878  10.160
 1113SOL     OW 3362   1.795   1.066  10.183
 1113SOL    HW1 3363   1.733   1.051  10.107
 1113SOL    HW2 3364   1.743   1.077  10.268
 1114SOL     OW 3365   1.227   1.550  10.816
 1114SOL    HW1 3366   1.233   1.473  10.880
 1114SOL    HW2 3367   1.175   1.524  10.736
 1115SOL     OW 3368   0.321   0.943   9.552
 1115SOL    HW1 3369   0.403   0.982   9.510
 1115SOL    HW2 3370   0.294   0.861   9.503
 1116SOL     OW 3371   1.458   0.735  10.038
 1116SOL    HW1 3372   1.453   0.670  10.113
 1116SOL    HW2 3373   1.538   0.794  10.051
 1117SOL     OW 3374   0.461   1.266  11.037
 1117SOL    HW1 3375   0.411   1.267  10.951
 1117SOL    HW2 3376   0.398   1.248  11.113
 1118SOL     OW 3377   1.111   1.776   9.547
 1118SOL    HW1 3378   1.051   1.714   9.597
 1118SOL    HW2 3379   1.142   1.732   9.462
 1119SOL     OW 3380   0.202   0.285  10.808
 1119SOL    HW1 3381   0.122   0.345  10.795
 1119SOL    HW2 3382   0.192   0.236  10.894
 1120SOL     OW 3383   1.632   1.377   9.391
 1120SOL    HW1 3384   1.600   1.471   9.381
 1120SOL    HW2 3385   1.556   1.314   9.379
 1121SOL     OW 3386   0.464   1.743   9.633
 1121SOL    HW1 3387   0.497   1.782   9.719
 1121SOL    HW2 3388   0.540   1.736   9.568
 1122SOL     OW 3389   1.400   0.107   9.736
 1122SOL    HW1 3390   1.376   0.070   9.646
 1122SOL    HW2 3391   1.499   0.123   9.740
 1123SOL     OW 3392   0.249   1.785  10.551
 1123SOL    HW1 3393   0.306   1.720  10.601
 1123SOL    HW2 3394   0.233   1.752  10.458
 1124SOL     OW 3395   0.940   1.698  10.214
 1124SOL    HW1 3396   1.020   1.641  10.235
 1124SOL    HW2 3397   0.891   1.658  10.137
 1125SOL     OW 3398   0.382   0.700   9.790
 1125SOL    HW1 3399   0.427   0.610   9.787
 1125SOL    HW2 3400   0.288   0.689   9.823
 1126SOL     OW 3401   1.547   0.222  11.039
 1126SOL    HW1 3402   1.542   0.259  11.131
 1126SOL    HW2 3403   1.475   0.153  11.027
 1127SOL     OW 3404   0.614   0.122   9.427
 1127SOL    HW1 3405   0.712   0.100   9.434
 1127SOL    HW2 3406   0.583   0.105   9.334
 1128SOL     OW 3407   0.781   0.264  11.059
 1128SOL    HW1 3408   0.848   0.203  11.102
 1128SOL    HW2 3409   0.708   0.283  11.124
 1129SOL     OW 3410   0.888   1.514  10.505
 1129SOL    HW1 3411   0.865   1.489  10.411
 1129SOL    HW2 3412   0.949   1.445  10.544
 1130SOL     OW 3413   1.351   0.590  10.743
 1130SOL    HW1 3414   1.379   0.547  10.828
 1130SOL    HW2 3415   1.376   0.686  10.744
 1131SOL     OW 3416   0.803   1.402  10.234
 1131SOL    HW1 3417   0.893   1.416  10.192
 1131SOL    HW2 3418   0.732   1.404  10.163
 1132SOL     OW 3419   0.922   0.503  10.209
 1132SOL    HW1 3420   0.897   0.494  10.113
 1132SOL    HW2 3421   0.970   0.421  10.240
 1133SOL     OW 3422   0.539   0.064   9.822
 1133SOL    HW1 3423   0.458   0.065   9.880
 1133SOL    HW2 3424   0.542   0.147   9.767
 1134SOL     OW 3425   1.434   1.188   9.351
 1134SOL    HW1 3426   1.466   1.112   9.408
 1134SOL    HW2 3427   1.342   1.215   9.381
 1135SOL     OW 3428   0.297   0.035   9.481
 1135SOL    HW1 3429   0.346   0.119   9.460
 1135SOL    HW2 3430   0.359  -0.030   9.526
 1136SOL     OW 3431   0.935   0.236   9.790
 1136SOL    HW1 3432   0.887   0.277   9.712
 1136SOL    HW2 3433   1.034   0.234   9.771
 1137SOL     OW 3434   1.076   0.683  10.774
 1137SOL    HW1 3435   0.996   0.622  10.777
 1137SOL    HW2 3436   1.157   0.630  10.750
 1138SOL     OW 3437   1.227   1.570  10.103
 1138SOL    HW1 3438   1.248   1.644  10.038
 1138SOL    HW2 3439   1.295   1.570  10.176
 1139SOL     OW 3440   0.459   1.152  10.051
 1139SOL    HW1 3441   0.388   1.125  10.116
 1139SOL    HW2 3442   0.433   1.124   9.958
 1140SOL     OW 3443   1.271   1.797   9.901
 1140SOL    HW1 3444   1.315   1.861   9.837
 1140SOL    HW2 3445   1.221   1.849   9.971
 1141SOL     OW 3446   1.032   0.549   9.326
 1141SOL    HW1 3447   0.991   0.631   9.287
 1141SOL    HW2 3448   1.096   0.575   9.399
 1142SOL     OW 3449   0.078   0.556  10.696
 1142SOL    HW1 3450   0.170   0.555  10.655
 1142SOL    HW2 3451   0.072   0.630  10.763
 1143SOL     OW 3452   0.561   0.222  10.457
 1143SOL    HW1 3453   0.599   0.138  10.494
 1143SOL    HW2 3454   0.473   0.241  10.501
 1144SOL     OW 3455   0.866   0.454   9.952
 1144SOL    HW1 3456   0.834   0.526   9.890
 1144SOL    HW2 3457   0.890   0.373   9.899
 1145SOL     OW 3458   1.017   0.039  10.063
 1145SOL    HW1 3459   0.945   0.044   9.994
 1145SOL    HW2 3460   0.993  -0.030  10.132
 1146SOL     OW 3461   1.429   1.173  10.177
 1146SOL    HW1 3462   1.374   1.089  10.170
 1146SOL    HW2 3463   1.455   1.202  10.085
 1147SOL     OW 3464   1.857   0.833   9.687
 1147SOL    HW1 3465   1.899   0.769   9.751
 1147SOL    HW2 3466   1.819   0.782   9.609
 1148SOL     OW 3467   0.488   1.385   9.484
 1148SOL    HW1 3468   0.401   1.370   9.531
 1148SOL    HW2 3469   0.471   1.411   9.389
 1149SOL     OW 3470   1.664   1.280   9.967
 1149SOL    HW1 3471   1.763   1.288   9.981
 1149SOL    HW2 3472   1.619   1.364   9.998
 1150SOL     OW 3473   1.390   0.575   9.388
 1150SOL    HW1 3474   1.336   0.554   9.469
 1150SOL    HW2 3475   1.481   0.534   9.397
 1151SOL     OW 3476   0.527   0.256   9.638
 1151SOL    HW1 3477   0.554   0.197   9.563
 1151SOL    HW2 3478   0.527   0.351   9.607
 1152SOL     OW 3479   1.754   1.223  10.898
 1152SOL    HW1 3480   1.845   1.184  10.885
 1152SOL    HW2 3481   1.762   1.319  10.922
 1153SOL     OW 3482   1.064   1.347  10.650
 1153SOL    HW1 3483   0.984   1.324  10.705
 1153SOL    HW2 3484   1.147   1.321  10.699
 1154SOL     OW 3485   1.592   1.629  10.935
 1154SOL    HW1 3486   1.619   1.663  10.845
 1154SOL    HW2 3487   1.671   1.591  10.981
 1155SOL     OW 3488   1.111   1.195  10.410
 1155SOL    HW1 3489   1.071   1.239  10.491
 1155SOL    HW2 3490   1.070   1.232  10.327
 1156SOL     OW 3491   1.638   1.099  10.389
 1156SOL    HW1 3492   1.643   1.180  10.448
 1156SOL    HW2 3493   1.552   1.101  10.338
 1157SOL     OW 3494   0.915   0.089  10.712
 1157SOL    HW1 3495   0.940   0.069  10.617
 1157SOL    HW2 3496   0.987   0.145  10.754
 1158SOL     OW 3497   0.980   1.116  11.029
 1158SOL    HW1 3498   0.881   1.122  11.039
 1158SOL    HW2 3499   1.003   1.036  10.973
 1159SOL     OW 3500   0.705   1.050   9.678
 1159SOL    HW1 3501   0.691   1.057   9.777
 1159SOL    HW2 3502   0.789   0.999   9.660
 1160SOL     OW 3503   0.410   0.813  10.561
 1160SOL    HW1 3504   0.496   0.825  10.611
 1160SOL    HW2 3505   0.368   0.726  10.588
 1161SOL     OW 3506   1.274   0.386  10.572
 1161SOL    HW1 3507   1.295   0.460  10.636
 1161SOL    HW2 3508   1.185   0.403  10.529
 1162SOL     OW 3509   0.064   1.564  10.641
 1162SOL    HW1 3510   0.018   1.646  10.607
 1162SOL    HW2 3511   0.162   1.583  10.650
 1163SOL     OW 3512   0.367   1.100   9.811
 1163SOL    HW1 3513   0.360   1.183   9.755
 1163SOL    HW2 3514   0.371   1.020   9.751
 1164SOL     OW 3515   0.566   0.537  10.175
 1164SOL    HW1 3516   0.578   0.603  10.101
 1164SOL    HW2 3517   0.612   0.571  10.258
 1165SOL     OW 3518   1.252   1.348   9.698
 1165SOL    HW1 3519   1.302   1.425   9.738
 1165SOL    HW2 3520   1.157   1.350   9.730
 1166SOL     OW 3521   1.272   1.445  10.452
 1166SOL    HW1 3522   1.319   1.458  10.539
 1166SOL    HW2 3523   1.206   1.371  10.461
 1167SOL     OW 3524   1.582   0.639   9.782
 1167SOL    HW1 3525   1.551   0.700   9.855
 1167SOL    HW2 3526   1.632   0.691   9.713
 1168SOL     OW 3527   0.354   1.510  10.639
 1168SOL    HW1 3528   0.333   1.466  10.552
 1168SOL    HW2 3529   0.451   1.536  10.642
 1169SOL     OW 3530   0.402   0.751  10.908
 1169SOL    HW1 3531   0.470   0.806  10.861
 1169SOL    HW2 3532   0.442   0.663  10.935
 1170SOL     OW 3533   1.587   0.779  10.980
 1170SOL    HW1 3534   1.495   0.817  10.975
 1170SOL    HW2 3535   1.647   0.826  10.915
 1171SOL     OW 3536   1.013   0.105  11.080
 1171SOL    HW1 3537   1.019   0.190  11.028
 1171SOL    HW2 3538   1.045   0.029  11.023
 1172SOL     OW 3539   0.504   0.050  11.050
 1172SOL    HW1 3540   0.462  -0.007  10.980
 1172SOL    HW2 3541   0.438   0.119  11.082
 1173SOL     OW 3542   0.573   0.870  10.339
 1173SOL    HW1 3543   0.617   0.959  10.330
 1173SOL    HW2 3544   0.510   0.870  10.416
 1174SOL     OW 3545   1.360   0.862  10.355
 1174SOL    HW1 3546   1.285   0.862  10.289
 1174SOL    HW2 3547   1.397   0.770  10.364
 1175SOL     OW 3548   1.209   0.525   9.585
 1175SOL    HW1 3549   1.222   0.441   9.639
 1175SOL    HW2 3550   1.180   0.599   9.645
 1176SOL     OW 3551   0.307   0.213  10.541
 1176SOL    HW1 3552   0.284   0.250  10.631
 1176SOL    HW2 3553   0.277   0.118  10.535
 1177SOL     OW 3554   0.037   1.310  10.592
 1177SOL    HW1 3555   0.090   1.261  10.660
 1177SOL    HW2 3556   0.059   1.408  10.597
 1178SOL     OW 3557   0.732   0.634  10.374
 1178SOL    HW1 3558   0.791   0.608  10.298
 1178SOL    HW2 3559   0.704   0.730  10.363
 1179SOL     OW 3560   1.728   0.935  11.164
 1179SOL    HW1 3561   1.682   0.928  11.075
 1179SOL    HW2 3562   1.666   0.979  11.230
 1180SOL     OW 3563   0.307   0.063   9.928
 1180SOL    HW1 3564   0.296   0.157   9.961
 1180SOL    HW2 3565   0.302   0.000  10.005
 1181SOL     OW 3566   1.622   0.367   9.684
 1181SOL    HW1 3567   1.624   0.291   9.748
 1181SOL    HW2 3568   1.574   0.444   9.724
 1182SOL     OW 3569   1.023   0.766  10.276
 1182SOL    HW1 3570   1.038   0.787  10.372
 1182SOL    HW2 3571   0.993   0.671  10.267
 1183SOL     OW 3572   0.980   1.573  11.010
 1183SOL    HW1 3573   0.960   1.617  10.922
 1183SOL    HW2 3574   1.019   1.482  10.994
 1184SOL     OW 3575   1.859   1.518  10.915
 1184SOL    HW1 3576   1.873   1.545  10.820
 1184SOL    HW2 3577   1.942   1.540  10.968
 1185SOL     OW 3578   0.350   0.898  11.114
 1185SOL    HW1 3579   0.426   0.942  11.162
 1185SOL    HW2 3580   0.385   0.851  11.032
 1186SOL     OW 3581   1.540   0.274   9.435
 1186SOL    HW1 3582   1.479   0.199   9.458
 1186SOL    HW2 3583   1.562   0.326   9.518
 1187SOL     OW 3584   1.303   0.838   9.352
 1187SOL    HW1 3585   1.337   0.745   9.367
 1187SOL    HW2 3586   1.321   0.865   9.257
 1188SOL     OW 3587   1.068   1.333  10.159
 1188SOL    HW1 3588   1.075   1.249  10.104
 1188SOL    HW2 3589   1.130   1.402  10.123
 1189SOL     OW 3590   0.319   0.810  10.259
 1189SOL    HW1 3591   0.412   0.846  10.264
 1189SOL    HW2 3592   0.313   0.725  10.311
 1190SOL     OW 3593   0.339   0.509  10.316
 1190SOL    HW1 3594   0.287   0.426  10.299
 1190SOL    HW2 3595   0.416   0.514  10.252
 1191SOL     OW 3596   1.138   0.380  10.988
 1191SOL    HW1 3597   1.093   0.443  11.052
 1191SOL    HW2 3598   1.231   0.411  10.971
 1192SOL     OW 3599   1.160   0.207  10.787
 1192SOL    HW1 3600   1.160   0.271  10.864
 1192SOL    HW2 3601   1.188   0.255  10.704
 1193SOL     OW 3602   0.008   1.326   9.510
 1193SOL    HW1 3603  -0.085   1.347   9.479
 1193SOL    HW2 3604   0.018   1.227   9.523
 1194SOL     OW 3605   0.088   1.801  10.237
 1194SOL    HW1 3606   0.046   1.715  10.210
 1194SOL    HW2 3607   0.182   1.804  10.203
 1195SOL     OW 3608   0.504   1.568  10.220
 1195SOL    HW1 3609   0.570   1.642  10.229
 1195SOL    HW2 3610   0.548   1.489  10.178
 1196SOL     OW 3611   1.002   0.796  10.548
 1196SOL    HW1 3612   1.043   0.764  10.634
 1196SOL    HW2 3613   0.906   0.769  10.545
 1197SOL     OW 3614   0.040   0.544  10.424
 1197SOL    HW1 3615   0.125   0.511  10.383
 1197SOL    HW2 3616   0.053   0.559  10.522
 1198SOL     OW 3617   0.189   0.520  11.032
 1198SOL    HW1 3618   0.248   0.480  10.962
 1198SOL    HW2 3619   0.131   0.591  10.991
 1199SOL     OW 3620   1.369   0.950  10.970
 1199SOL    HW1 3621   1.408   1.039  10.990
 1199SOL    HW2 3622   1.379   0.930  10.873
 1200SOL     OW 3623   0.815   0.572   9.635
 1200SOL    HW1 3624   0.822   0.483   9.589
 1200SOL    HW2 3625   0.721   0.606   9.627
 1201SOL     OW 3626   1.657   0.604  10.516
 1201SOL    HW1 3627   1.619   0.535  10.578
 1201SOL    HW2 3628   1.739   0.568  10.472
 1202SOL     OW 3629   0.252   1.564  11.054
 1202SOL    HW1 3630   0.222   1.621  11.130
 1202SOL    HW2 3631   0.245   1.467  11.080
 1203SOL     OW 3632   0.671   0.464  10.579
 1203SOL    HW1 3633   0.637   0.375  10.549
 1203SOL    HW2 3634   0.697   0.518  10.499
 1204SOL     OW 3635   0.930   1.678  10.775
 1204SOL    HW1 3636   0.906   1.660  10.680
 1204SOL    HW2 3637   0.960   1.772  10.785
 1205SOL     OW 3638   0.473   0.500   9.501
 1205SOL    HW1 3639   0.534   0.580   9.505
 1205SOL    HW2 3640   0.378   0.531   9.508
 1206SOL     OW 3641   0.159   1.137  10.776
 1206SOL    HW1 3642   0.181   1.076  10.852
 1206SOL    HW2 3643   0.169   1.088  10.690
 1207SOL     OW 3644   1.347   1.059  10.544
 1207SOL    HW1 3645   1.371   0.996  10.470
 1207SOL    HW2 3646   1.257   1.099  10.526
 1208SOL     OW 3647   1.302   0.855   9.619
 1208SOL    HW1 3648   1.216   0.824   9.661
 1208SOL    HW2 3649   1.298   0.841   9.520
 1209SOL     OW 3650   1.759   1.747  10.464
 1209SOL    HW1 3651   1.820   1.777  10.391
 1209SOL    HW2 3652   1.721   1.658  10.442
 1210SOL     OW 3653   1.252   1.731  10.438
 1210SOL    HW1 3654   1.336   1.736  10.384
 1210SOL    HW2 3655   1.229   1.635  10.456
 1211SOL     OW 3656   0.083   1.258  10.332
 1211SOL    HW1 3657   0.078   1.257  10.432
 1211SOL    HW2 3658   0.000   1.217  10.294
 1212SOL     OW 3659   0.688   1.662  11.026
 1212SOL    HW1 3660   0.632   1.743  11.035
 1212SOL    HW2 3661   0.740   1.666  10.940
 1213SOL     OW 3662   1.726   0.135   9.833
 1213SOL    HW1 3663   1.799   0.118   9.766
 1213SOL    HW2 3664   1.695   0.048   9.871
 1214SOL     OW 3665   1.388   1.573   9.787
 1214SOL    HW1 3666   1.455   1.585   9.713
 1214SOL    HW2 3667   1.348   1.662   9.810
 1215SOL     OW 3668   0.130   1.794  11.161
 1215SOL    HW1 3669   0.089   1.720  11.214
 1215SOL    HW2 3670   0.194   1.845  11.219
 1216SOL     OW 3671   1.280   0.927   9.982
 1216SOL    HW1 3672   1.340   0.846   9.984
 1216SOL    HW2 3673   1.320   0.996   9.922
 1217SOL     OW 3674   0.830   1.273  10.732
 1217SOL    HW1 3675   0.825   1.306  10.827
 1217SOL    HW2 3676   0.744   1.292  10.686
 1218SOL     OW 3677   0.672   1.616   9.464
 1218SOL    HW1 3678   0.681   1.626   9.365
 1218SOL    HW2 3679   0.632   1.527   9.485
 1219SOL     OW 3680   1.650   1.720  10.704
 1219SOL    HW1 3681   1.703   1.730  10.620
 1219SOL    HW2 3682   1.623   1.810  10.738
 1220SOL     OW 3683   1.841   0.175  10.273
 1220SOL    HW1 3684   1.880   0.090  10.237
 1220SOL    HW2 3685   1.743   0.177  10.254
 1221SOL     OW 3686   0.263   0.326  10.030
 1221SOL    HW1 3687   0.184   0.377   9.996
 1221SOL    HW2 3688   0.254   0.311  10.128
 1222SOL     OW 3689   1.194   1.612   9.341
 1222SOL    HW1 3690   1.200   1.519   9.378
 1222SOL    HW2 3691   1.135   1.612   9.261
 1223SOL     OW 3692   0.822   1.002  10.682
 1223SOL    HW1 3693   0.862   1.001  10.590
 1223SOL    HW2 3694   0.832   1.094  10.722
 1224SOL     OW 3695   0.916   0.910   9.601
 1224SOL    HW1 3696   0.979   0.948   9.533
 1224SOL    HW2 3697   0.956   0.827   9.640
 1225SOL     OW 3698   1.504   1.607   9.354
 1225SOL    HW1 3699   1.412   1.644   9.361
 1225SOL    HW2 3700   1.542   1.627   9.264
 1226SOL     OW 3701   0.372   1.288  10.800
 1226SOL    HW1 3702   0.359   1.381  10.766
 1226SOL    HW2 3703   0.288   1.236  10.787
 1227SOL     OW 3704   1.614   1.292  10.599
 1227SOL    HW1 3705   1.674   1.295  10.679
 1227SOL    HW2 3706   1.539   1.356  10.612
 1228SOL     OW 3707   1.039   1.098  10.006
 1228SOL    HW1 3708   0.969   1.051  10.060
 1228SOL    HW2 3709   1.098   1.030   9.963
 1229SOL     OW 3710   1.014   0.236  10.281
 1229SOL    HW1 3711   1.006   0.200  10.188
 1229SOL    HW2 3712   1.012   0.160  10.346
 1230SOL     OW 3713   0.590   1.487   9.801
 1230SOL    HW1 3714   0.632   1.429   9.731
 1230SOL    HW2 3715   0.546   1.566   9.757
 1231SOL     OW 3716   1.709   0.385  10.691
 1231SOL    HW1 3717   1.782   0.454  10.695
 1231SOL    HW2 3718   1.737   0.310  10.632
 1232SOL     OW 3719   0.255   1.348   9.600
 1232SOL    HW1 3720   0.159   1.349   9.573
 1232SOL    HW2 3721   0.267   1.401   9.684
 1233SOL     OW 3722   0.105   1.013  11.036
 1233SOL    HW1 3723   0.028   0.980  11.090
 1233SOL    HW2 3724   0.190   0.983  11.078
 1234SOL     OW 3725   0.672   0.203  10.799
 1234SOL    HW1 3726   0.762   0.187  10.759
 1234SOL    HW2 3727   0.680   0.208  10.898
 1235SOL     OW 3728   0.075   0.345   9.343
 1235SOL    HW1 3729  -0.017   0.317   9.314
 1235SOL    HW2 3730   0.106   0.422   9.287
 1236SOL     OW 3731   1.440   0.856  10.708
 1236SOL    HW1 3732   1.383   0.908  10.645
 1236SOL    HW2 3733   1.536   0.868  10.684
 1237SOL     OW 3734   0.072   0.166   9.628
 1237SOL    HW1 3735   0.055   0.249   9.574
 1237SOL    HW2 3736   0.162   0.129   9.606
 1238SOL     OW 3737   1.183   1.335   9.429
 1238SOL    HW1 3738   1.084   1.324   9.431
 1238SOL    HW2 3739   1.217   1.350   9.522
 1239SOL     OW 3740   0.613   0.842  10.741
 1239SOL    HW1 3741   0.669   0.923  10.724
 1239SOL    HW2 3742   0.672   0.762  10.744
 1240SOL     OW 3743   1.493   1.767  10.269
 1240SOL    HW1 3744   1.526   1.831  10.200
 1240SOL    HW2 3745   1.559   1.761  10.344
 1241SOL     OW 3746   0.716   0.565  11.018
 1241SOL    HW1 3747   0.735   0.630  11.092
 1241SOL    HW2 3748   0.776   0.485  11.027
 1242SOL     OW 3749   1.450   1.220  10.943
 1242SOL    HW1 3750   1.441   1.210  11.042
 1242SOL    HW2 3751   1.546   1.213  10.917
 1243SOL     OW 3752   0.390   1.741  10.870
 1243SOL    HW1 3753   0.299   1.782  10.868
 1243SOL    HW2 3754   0.383   1.647  10.902
 1244SOL     OW 3755   1.674   0.883  10.564
 1244SOL    HW1 3756   1.647   0.794  10.527
 1244SOL    HW2 3757   1.675   0.951  10.491
 1245SOL     OW 3758   1.225   0.325   9.759
 1245SOL    HW1 3759   1.290   0.251   9.748
 1245SOL    HW2 3760   1.245   0.375   9.843
 1246SOL     OW 3761   0.594   0.745   9.962
 1246SOL    HW1 3762   0.644   0.830   9.943
 1246SOL    HW2 3763   0.506   0.747   9.914
 1247SOL     OW 3764   1.777   0.342  10.952
 1247SOL    HW1 3765   1.760   0.373  10.858
 1247SOL    HW2 3766   1.693   0.305  10.990
 1248SOL     OW 3767   1.730   0.934  10.827
 1248SOL    HW1 3768   1.768   1.025  10.842
 1248SOL    HW2 3769   1.722   0.917  10.728
 1249SOL     OW 3770   0.859   1.374   9.326
 1249SOL    HW1 3771   0.813   1.389   9.414
 1249SOL    HW2 3772   0.903   1.459   9.296
 1250SOL     OW 3773   0.661   1.790  10.263
 1250SOL    HW1 3774   0.615   1.878  10.250
 1250SOL    HW2 3775   0.760   1.802  10.256
 1251SOL     OW 3776   0.859   0.956  10.171
 1251SOL    HW1 3777   0.913   0.887  10.219
 1251SOL    HW2 3778   0.827   1.025  10.237
 1252SOL     OW 3779   1.083   0.984   9.397
 1252SOL    HW1 3780   1.060   1.037   9.315
 1252SOL    HW2 3781   1.164   0.928   9.378
 1253SOL     OW 3782   1.861   1.569  10.161
 1253SOL    HW1 3783   1.790   1.557  10.091
 1253SOL    HW2 3784   1.862   1.490  10.221
 1254SOL     OW 3785   0.221   1.314  11.154
 1254SOL    HW1 3786   0.156   1.241  11.133
 1254SOL    HW2 3787   0.225   1.328  11.252
 1255SOL     OW 3788   0.079   1.240   9.963
 1255SOL    HW1 3789   0.078   1.193  10.051
 1255SOL    HW2 3790   0.161   1.212   9.912
 1256SOL     OW 3791   0.672   1.391  10.934
 1256SOL    HW1 3792   0.594   1.341  10.972
 1256SOL    HW2 3793   0.669   1.486  10.965
 1257SOL     OW 3794   1.824   0.192  10.537
 1257SOL    HW1 3795   1.820   0.102  10.581
 1257SOL    HW2 3796   1.827   0.181  10.438
 1258SOL     OW 3797   0.428   0.424   9.830
 1258SOL    HW1 3798   0.458   0.352   9.768
 1258SOL    HW2 3799   0.389   0.384   9.913
 1259SOL     OW 3800   1.705   1.487  10.414
 1259SOL    HW1 3801   1.612   1.462  10.387
 1259SOL    HW2 3802   1.731   1.437  10.496
 1260SOL     OW 3803   0.317   0.547  10.590
 1260SOL    HW1 3804   0.355   0.488  10.662
 1260SOL    HW2 3805   0.357   0.521  10.502
 1261SOL     OW 3806   0.812   1.586   9.997
 1261SOL    HW1 3807   0.844   1.596   9.903
 1261SOL    HW2 3808   0.733   1.524   9.999
 1262SOL     OW 3809   1.424   0.214  10.422
 1262SOL    HW1 3810   1.476   0.149  10.477
 1262SOL    HW2 3811   1.375   0.277  10.483
 1263SOL     OW 3812   1.001   0.034  10.464
 1263SOL    HW1 3813   0.938  -0.038  10.433
 1263SOL    HW2 3814   1.094  -0.002  10.464
 1264SOL     OW 3815   0.770   1.330   9.611
 1264SOL    HW1 3816   0.724   1.243   9.628
 1264SOL    HW2 3817   0.861   1.327   9.652
 1265SOL     OW 3818   0.618   1.567  10.594
 1265SOL    HW1 3819   0.613   1.649  10.651
 1265SOL    HW2 3820   0.707   1.564  10.549
 1266SOL     OW 3821   1.352   0.052   9.478
 1266SOL    HW1 3822   1.387   0.011   9.394
 1266SOL    HW2 3823   1.262   0.014   9.498
 1267SOL     OW 3824   1.300   0.453  10.001
 1267SOL    HW1 3825   1.241   0.533  10.005
 1267SOL    HW2 3826   1.315   0.418  10.094
 1268SOL     OW 3827   1.593   0.221  10.192
 1268SOL    HW1 3828   1.509   0.220  10.246
 1268SOL    HW2 3829   1.595   0.304  10.136
 1269SOL     OW 3830   0.039   1.077   9.610
 1269SOL    HW1 3831   0.138   1.066   9.601
 1269SOL    HW2 3832  -0.001   0.991   9.642
 1270SOL     OW 3833   0.875   1.646   9.647
 1270SOL    HW1 3834   0.798   1.611   9.593
 1270SOL    HW2 3835   0.843   1.717   9.709
 1271SOL     OW 3836   0.230   0.628  11.285
 1271SOL    HW1 3837   0.137   0.626  11.322
 1271SOL    HW2 3838   0.231   0.589  11.193
 1272SOL     OW 3839   0.225   0.275  12.168
 1272SOL    HW1 3840   0.260   0.258  12.260
 1272SOL    HW2 3841   0.137   0.230  12.156
 1273SOL     OW 3842   0.019   0.368  11.819
 1273SOL    HW1 3843  -0.063   0.411  11.858
 1273SOL    HW2 3844  -0.009   0.295  11.756
 1274SOL     OW 3845   0.569   1.275  12.337
 1274SOL    HW1 3846   0.476   1.268  12.300
 1274SOL    HW2 3847   0.580   1.364  12.381
 1275SOL     OW 3848   1.555   1.511  11.875
 1275SOL    HW1 3849   1.498   1.495  11.956
 1275SOL    HW2 3850   1.496   1.521  11.795
 1276SOL     OW 3851   1.135   0.703  11.889
 1276SOL    HW1 3852   1.192   0.781  11.864
 1276SOL    HW2 3853   1.075   0.729  11.965
 1277SOL     OW 3854   1.755   0.607  11.403
 1277SOL    HW1 3855   1.743   0.594  11.304
 1277SOL    HW2 3856   1.725   0.526  11.452
 1278SOL     OW 3857   0.768   1.144  12.195
 1278SOL    HW1 3858   0.690   1.161  12.255
 1278SOL    HW2 3859   0.802   1.231  12.159
 1279SOL     OW 3860   0.685   1.012  11.837
 1279SOL    HW1 3861   0.754   0.996  11.907
 1279SOL    HW2 3862   0.612   1.069  11.875
 1280SOL     OW 3863   0.335   1.435  12.233
 1280SOL    HW1 3864   0.257   1.404  12.180
 1280SOL    HW2 3865   0.393   1.493  12.176
 1281SOL     OW 3866   1.460   1.505  12.511
 1281SOL    HW1 3867   1.484   1.599  12.537
 1281SOL    HW2 3868   1.444   1.451  12.593
 1282SOL     OW 3869   0.438   0.392  12.671
 1282SOL    HW1 3870   0.520   0.336  12.680
 1282SOL    HW2 3871   0.357   0.334  12.675
 1283SOL     OW 3872   1.603   0.447  11.909
 1283SOL    HW1 3873   1.529   0.493  11.859
 1283SOL    HW2 3874   1.654   0.515  11.962
 1284SOL     OW 3875   0.231   1.713  11.655
 1284SOL    HW1 3876   0.265   1.790  11.709
 1284SOL    HW2 3877   0.275   1.713  11.565
 1285SOL     OW 3878   0.230   1.434  11.710
 1285SOL    HW1 3879   0.204   1.530  11.710
 1285SOL    HW2 3880   0.159   1.380  11.755
 1286SOL     OW 3881   0.240   1.091  12.058
 1286SOL    HW1 3882   0.254   1.007  12.110
 1286SOL    HW2 3883   0.185   1.155  12.113
 1287SOL     OW 3884   0.620   1.786  12.611
 1287SOL    HW1 3885   0.528   1.769  12.646
 1287SOL    HW2 3886   0.648   1.878  12.637
 1288SOL     OW 3887   0.606   0.964  11.295
 1288SOL    HW1 3888   0.613   1.048  11.241
 1288SOL    HW2 3889   0.652   0.977  11.383
 1289SOL     OW 3890   1.594   0.114  12.652
 1289SOL    HW1 3891   1.576   0.181  12.580
 1289SOL    HW2 3892   1.591   0.160  12.741
 1290SOL     OW 3893   0.122   0.643  11.735
 1290SOL    HW1 3894   0.077   0.555  11.752
 1290SOL    HW2 3895   0.121   0.697  11.819
 1291SOL     OW 3896   1.842   1.767  11.531
 1291SOL    HW1 3897   1.896   1.738  11.611
 1291SOL    HW2 3898   1.872   1.857  11.502
 1292SOL     OW 3899   0.027   1.596  11.289
 1292SOL    HW1 3900   0.008   1.500  11.310
 1292SOL    HW2 3901  -0.006   1.654  11.364
 1293SOL     OW 3902   1.689   0.922  11.784
 1293SOL    HW1 3903   1.784   0.893  11.792
 1293SOL    HW2 3904   1.681   0.987  11.709
 1294SOL     OW 3905   1.641   1.108  11.604
 1294SOL    HW1 3906   1.727   1.110  11.552
 1294SOL    HW2 3907   1.655   1.155  11.692
 1295SOL     OW 3908   0.113   0.737  12.769
 1295SOL    HW1 3909   0.201   0.724  12.814
 1295SOL    HW2 3910   0.100   0.834  12.747
 1296SOL     OW 3911   0.613   1.365  11.898
 1296SOL    HW1 3912   0.564   1.278  11.907
 1296SOL    HW2 3913   0.590   1.408  11.811
 1297SOL     OW 3914   1.293   1.228  12.595
 1297SOL    HW1 3915   1.330   1.155  12.537
 1297SOL    HW2 3916   1.345   1.233  12.680
 1298SOL     OW 3917   0.809   0.004  11.674
 1298SOL    HW1 3918   0.849   0.095  11.665
 1298SOL    HW2 3919   0.709   0.012  11.680
 1299SOL     OW 3920   0.197   0.976  12.436
 1299SOL    HW1 3921   0.286   0.931  12.422
 1299SOL    HW2 3922   0.124   0.911  12.417
 1300SOL     OW 3923   1.525   0.999  11.362
 1300SOL    HW1 3924   1.462   0.923  11.375
 1300SOL    HW2 3925   1.573   1.017  11.448
 1301SOL     OW 3926   1.466   1.417  12.125
 1301SOL    HW1 3927   1.407   1.423  12.205
 1301SOL    HW2 3928   1.451   1.329  12.079
 1302SOL     OW 3929   1.667   1.714  11.744
 1302SOL    HW1 3930   1.626   1.691  11.656
 1302SOL    HW2 3931   1.649   1.640  11.809
 1303SOL     OW 3932   0.598   0.729  11.442
 1303SOL    HW1 3933   0.622   0.798  11.374
 1303SOL    HW2 3934   0.520   0.762  11.496
 1304SOL     OW 3935   1.281   0.345  12.116
 1304SOL    HW1 3936   1.195   0.295  12.103
 1304SOL    HW2 3937   1.343   0.291  12.172
 1305SOL     OW 3938   1.576   1.662  11.479
 1305SOL    HW1 3939   1.665   1.708  11.482
 1305SOL    HW2 3940   1.555   1.638  11.384
 1306SOL     OW 3941   0.807   0.605  12.637
 1306SOL    HW1 3942   0.760   0.602  12.726
 1306SOL    HW2 3943   0.756   0.550  12.571
 1307SOL     OW 3944   0.973   0.890  12.744
 1307SOL    HW1 3945   1.019   0.806  12.715
 1307SOL    HW2 3946   0.917   0.924  12.669
 1308SOL     OW 3947   0.991   0.410  12.414
 1308SOL    HW1 3948   0.914   0.444  12.468
 1308SOL    HW2 3949   0.957   0.359  12.335
 1309SOL     OW 3950   1.041   0.701  11.601
 1309SOL    HW1 3951   1.067   0.697  11.697
 1309SOL    HW2 3952   0.956   0.650  11.587
 1310SOL     OW 3953   0.076   0.811  11.961
 1310SOL    HW1 3954   0.175   0.799  11.970
 1310SOL    HW2 3955   0.052   0.906  11.982
 1311SOL     OW 3956   0.130   1.821  12.743
 1311SOL    HW1 3957   0.120   1.806  12.842
 1311SOL    HW2 3958   0.044   1.857  12.707
 1312SOL     OW 3959   0.865   0.348  11.367
 1312SOL    HW1 3960   0.924   0.411  11.318
 1312SOL    HW2 3961   0.884   0.254  11.338
 1313SOL     OW 3962   1.362   1.144  11.717
 1313SOL    HW1 3963   1.445   1.115  11.669
 1313SOL    HW2 3964   1.313   1.211  11.661
 1314SOL     OW 3965   0.550   0.196  12.057
 1314SOL    HW1 3966   0.545   0.191  12.157
 1314SOL    HW2 3967   0.552   0.292  12.028
 1315SOL     OW 3968   1.008   1.456  11.649
 1315SOL    HW1 3969   0.962   1.528  11.597
 1315SOL    HW2 3970   1.004   1.476  11.747
 1316SOL     OW 3971   0.351   1.801  12.025
 1316SOL    HW1 3972   0.401   1.715  12.031
 1316SOL    HW2 3973   0.416   1.878  12.022
 1317SOL     OW 3974   1.795   1.066  12.045
 1317SOL    HW1 3975   1.733   1.051  11.969
 1317SOL    HW2 3976   1.743   1.077  12.130
 1318SOL     OW 3977   1.227   1.550  12.678
 1318SOL    HW1 3978   1.233   1.473  12.742
 1318SOL    HW2 3979   1.175   1.524  12.598
 1319SOL     OW 3980   0.321   0.943  11.414
 1319SOL    HW1 3981   0.403   0.982  11.372
 1319SOL    HW2 3982   0.294   0.861  11.365
 1320SOL     OW 3983   1.458   0.735  11.900
 1320SOL    HW1 3984   1.453   0.670  11.975
 1320SOL    HW2 3985   1.538   0.794  11.913
 1321SOL     OW 3986   1.111   1.776  11.409
 1321SOL    HW1 3987   1.051   1.714  11.459
 1321SOL    HW2 3988   1.142   1.732  11.324
 1322SOL     OW 3989   1.632   1.377  11.253
 1322SOL    HW1 3990   1.600   1.471  11.243
 1322SOL    HW2 3991   1.556   1.314  11.241
 1323SOL     OW 3992   0.464   1.743  11.495
 1323SOL    HW1 3993   0.497   1.782  11.581
 1323SOL    HW2 3994   0.540   1.736  11.430
 1324SOL     OW 3995   1.400   0.107  11.598
 1324SOL    HW1 3996   1.376   0.070  11.508
 1324SOL    HW2 3997   1.499   0.123  11.602
 1325SOL     OW 3998   0.249   1.785  12.413
 1325SOL    HW1 3999   0.306   1.720  12.463
 1325SOL    HW2 4000   0.233   1.752  12.320
 1326SOL     OW 4001   0.940   1.698  12.076
 1326SOL    HW1 4002   1.020   1.641  12.097
 1326SOL    HW2 4003   0.891   1.658  11.999
 1327SOL     OW 4004   0.382   0.700  11.652
 1327SOL    HW1 4005   0.427   0.610  11.649
 1327SOL    HW2 4006   0.288   0.689  11.685
 1328SOL     OW 4007   0.614   0.122  11.289
 1328SOL    HW1 4008   0.712   0.100  11.296
 1328SOL    HW2 4009   0.583   0.105  11.196
 1329SOL     OW 4010   0.888   1.514  12.367
 1329SOL    HW1 4011   0.865   1.489  12.273
 1329SOL    HW2 4012   0.949   1.445  12.406
 1330SOL     OW 4013   1.351   0.590  12.605
 1330SOL    HW1 4014   1.379   0.547  12.690
 1330SOL    HW2 4015   1.376   0.686  12.606
 1331SOL     OW 4016   0.803   1.402  12.096
 1331SOL    HW1 4017   0.893   1.416  12.054
 1331SOL    HW2 4018   0.732   1.404  12.025
 1332SOL     OW 4019   0.922   0.503  12.071
 1332SOL    HW1 4020   0.897   0.494  11.975
 1332SOL    HW2 4021   0.970   0.421  12.102
 1333SOL     OW 4022   0.539   0.064  11.684
 1333SOL    HW1 4023   0.458   0.065  11.742
 1333SOL    HW2 4024   0.542   0.147  11.629
 1334SOL     OW 4025   1.434   1.188  11.213
 1334SOL    HW1 4026   1.466   1.112  11.270
 1334SOL    HW2 4027   1.342   1.215  11.243
 1335SOL     OW 4028   0.297   0.035  11.343
 1335SOL    HW1 4029   0.346   0.119  11.322
 1335SOL    HW2 4030   0.359  -0.030  11.388
 1336SOL     OW 4031   0.935   0.236  11.652
 1336SOL    HW1 4032   0.887   0.277  11.574
 1336SOL    HW2 4033   1.034   0.234  11.633
 1337SOL     OW 4034   1.076   0.683  12.636
 1337SOL    HW1 4035   0.996   0.622  12.639
 1337SOL    HW2 4036   1.157   0.630  12.612
 1338SOL     OW 4037   1.227   1.570  11.965
 1338SOL    HW1 4038   1.248   1.644  11.900
 1338SOL    HW2 4039   1.295   1.570  12.038
 1339SOL     OW 4040   0.459   1.152  11.913
 1339SOL    HW1 4041   0.388   1.125  11.978
 1339SOL    HW2 4042   0.433   1.124  11.820
 1340SOL     OW 4043   1.271   1.797  11.763
 1340SOL    HW1 4044   1.315   1.861  11.699
 1340SOL    HW2 4045   1.221   1.849  11.833
 1341SOL     OW 4046   1.032   0.549  11.188
 1341SOL    HW1 4047   0.991   0.631  11.149
 1341SOL    HW2 4048   1.096   0.575  11.261
 1342SOL     OW 4049   0.078   0.556  12.558
 1342SOL    HW1 4050   0.170   0.555  12.517
 1342SOL    HW2 4051   0.072   0.630  12.625
 1343SOL     OW 4052   0.561   0.222  12.319
 1343SOL    HW1 4053   0.599   0.138  12.356
 1343SOL    HW2 4054   0.473   0.241  12.363
 1344SOL     OW 4055   0.866   0.454  11.814
 1344SOL    HW1 4056   0.834   0.526  11.752
 1344SOL    HW2 4057   0.890   0.373  11.761
 1345SOL     OW 4058   1.017   0.039  11.925
 1345SOL    HW1 4059   0.945   0.044  11.856
 1345SOL    HW2 4060   0.993  -0.030  11.994
 1346SOL     OW 4061   1.429   1.173  12.039
 1346SOL    HW1 4062   1.374   1.089  12.032
 1346SOL    HW2 4063   1.455   1.202  11.947
 1347SOL     OW 4064   1.466   0.590  12.164
 1347SOL    HW1 4065   1.436   0.495  12.171
 1347SOL    HW2 4066   1.539   0.606  12.230
 1348SOL     OW 4067   1.857   0.833  11.549
 1348SOL    HW1 4068   1.899   0.769  11.613
 1348SOL    HW2 4069   1.819   0.782  11.471
 1349SOL     OW 4070   0.488   1.385  11.346
 1349SOL    HW1 4071   0.401   1.370  11.393
 1349SOL    HW2 4072   0.471   1.411  11.251
 1350SOL     OW 4073   1.664   1.280  11.829
 1350SOL    HW1 4074   1.763   1.288  11.843
 1350SOL    HW2 4075   1.619   1.364  11.860
 1351SOL     OW 4076   1.390   0.575  11.250
 1351SOL    HW1 4077   1.336   0.554  11.331
 1351SOL    HW2 4078   1.481   0.534  11.259
 1352SOL     OW 4079   0.527   0.256  11.500
 1352SOL    HW1 4080   0.554   0.197  11.425
 1352SOL    HW2 4081   0.527   0.351  11.469
 1353SOL     OW 4082   1.754   1.223  12.760
 1353SOL    HW1 4083   1.845   1.184  12.747
 1353SOL    HW2 4084   1.762   1.319  12.784
 1354SOL     OW 4085   1.064   1.347  12.512
 1354SOL    HW1 4086   0.984   1.324  12.567
 1354SOL    HW2 4087   1.147   1.321  12.561
 1355SOL     OW 4088   1.111   1.195  12.272
 1355SOL    HW1 4089   1.071   1.239  12.353
 1355SOL    HW2 4090   1.070   1.232  12.189
 1356SOL     OW 4091   1.638   1.099  12.251
 1356SOL    HW1 4092   1.643   1.180  12.310
 1356SOL    HW2 4093   1.552   1.101  12.200
 1357SOL     OW 4094   0.915   0.089  12.574
 1357SOL    HW1 4095   0.940   0.069  12.479
 1357SOL    HW2 4096   0.987   0.145  12.616
 1358SOL     OW 4097   0.705   1.050  11.540
 1358SOL    HW1 4098   0.691   1.057  11.639
 1358SOL    HW2 4099   0.789   0.999  11.522
 1359SOL     OW 4100   0.410   0.813  12.423
 1359SOL    HW1 4101   0.496   0.825  12.473
 1359SOL    HW2 4102   0.368   0.726  12.450
 1360SOL     OW 4103   1.274   0.386  12.434
 1360SOL    HW1 4104   1.295   0.460  12.498
 1360SOL    HW2 4105   1.185   0.403  12.391
 1361SOL     OW 4106   0.064   1.564  12.503
 1361SOL    HW1 4107   0.018   1.646  12.469
 1361SOL    HW2 4108   0.162   1.583  12.512
 1362SOL     OW 4109   0.367   1.100  11.673
 1362SOL    HW1 4110   0.360   1.183  11.617
 1362SOL    HW2 4111   0.371   1.020  11.613
 1363SOL     OW 4112   0.566   0.537  12.037
 1363SOL    HW1 4113   0.578   0.603  11.963
 1363SOL    HW2 4114   0.612   0.571  12.120
 1364SOL     OW 4115   1.252   1.348  11.560
 1364SOL    HW1 4116   1.302   1.425  11.600
 1364SOL    HW2 4117   1.157   1.350  11.592
 1365SOL     OW 4118   1.272   1.445  12.314
 1365SOL    HW1 4119   1.319   1.458  12.401
 1365SOL    HW2 4120   1.206   1.371  12.323
 1366SOL     OW 4121   1.582   0.639  11.644
 1366SOL    HW1 4122   1.551   0.700  11.717
 1366SOL    HW2 4123   1.632   0.691  11.575
 1367SOL     OW 4124   0.354   1.510  12.501
 1367SOL    HW1 4125   0.333   1.466  12.414
 1367SOL    HW2 4126   0.451   1.536  12.504
 1368SOL     OW 4127   0.402   0.751  12.770
 1368SOL    HW1 4128   0.470   0.806  12.723
 1368SOL    HW2 4129   0.442   0.663  12.797
 1369SOL     OW 4130   1.587   0.779  12.842
 1369SOL    HW1 4131   1.495   0.817  12.837
 1369SOL    HW2 4132   1.647   0.826  12.777
 1370SOL     OW 4133   0.573   0.870  12.201
 1370SOL    HW1 4134   0.617   0.959  12.192
 1370SOL    HW2 4135   0.510   0.870  12.278
 1371SOL     OW 4136   1.360   0.862  12.217
 1371SOL    HW1 4137   1.285   0.862  12.151
 1371SOL    HW2 4138   1.397   0.770  12.226
 1372SOL     OW 4139   1.209   0.525  11.447
 1372SOL    HW1 4140   1.222   0.441  11.501
 1372SOL    HW2 4141   1.180   0.599  11.507
 1373SOL     OW 4142   0.307   0.213  12.403
 1373SOL    HW1 4143   0.284   0.250  12.493
 1373SOL    HW2 4144   0.277   0.118  12.397
 1374SOL     OW 4145   0.037   1.310  12.454
 1374SOL    HW1 4146   0.090   1.261  12.522
 1374SOL    HW2 4147   0.059   1.408  12.459
 1375SOL     OW 4148   0.732   0.634  12.236
 1375SOL    HW1 4149   0.791   0.608  12.160
 1375SOL    HW2 4150   0.704   0.730  12.225
 1376SOL     OW 4151   0.307   0.063  11.790
 1376SOL    HW1 4152   0.296   0.157  11.823
 1376SOL    HW2 4153   0.302   0.000  11.867
 1377SOL     OW 4154   1.622   0.367  11.546
 1377SOL    HW1 4155   1.624   0.291  11.610
 1377SOL    HW2 4156   1.574   0.444  11.586
 1378SOL     OW 4157   1.023   0.766  12.138
 1378SOL    HW1 4158   1.038   0.787  12.234
 1378SOL    HW2 4159   0.993   0.671  12.129
 1379SOL     OW 4160   1.540   0.274  11.297
 1379SOL    HW1 4161   1.479   0.199  11.320
 1379SOL    HW2 4162   1.562   0.326  11.380
 1380SOL     OW 4163   1.303   0.838  11.214
 1380SOL    HW1 4164   1.337   0.745  11.229
 1380SOL    HW2 4165   1.321   0.865  11.119
 1381SOL     OW 4166   1.068   1.333  12.021
 1381SOL    HW1 4167   1.075   1.249  11.966
 1381SOL    HW2 4168   1.130   1.402  11.985
 1382SOL     OW 4169   0.319   0.810  12.121
 1382SOL    HW1 4170   0.412   0.846  12.126
 1382SOL    HW2 4171   0.313   0.725  12.173
 1383SOL     OW 4172   0.339   0.509  12.178
 1383SOL    HW1 4173   0.287   0.426  12.161
 1383SOL    HW2 4174   0.416   0.514  12.114
 1384SOL     OW 4175   1.160   0.207  12.649
 1384SOL    HW1 4176   1.160   0.271  12.726
 1384SOL    HW2 4177   1.188   0.255  12.566
 1385SOL     OW 4178   0.008   1.326  11.372
 1385SOL    HW1 4179  -0.085   1.347  11.341
 1385SOL    HW2 4180   0.018   1.227  11.385
 1386SOL     OW 4181   0.088   1.801  12.099
 1386SOL    HW1 4182   0.046   1.715  12.072
 1386SOL    HW2 4183   0.182   1.804  12.065
 1387SOL     OW 4184   0.504   1.568  12.082
 1387SOL    HW1 4185   0.570   1.642  12.091
 1387SOL    HW2 4186   0.548   1.489  12.040
 1388SOL     OW 4187   1.002   0.796  12.410
 1388SOL    HW1 4188   1.043   0.764  12.496
 1388SOL    HW2 4189   0.906   0.769  12.407
 1389SOL     OW 4190   0.040   0.544  12.286
 1389SOL    HW1 4191   0.125   0.511  12.245
 1389SOL    HW2 4192   0.053   0.559  12.384
 1390SOL     OW 4193   0.815   0.572  11.497
 1390SOL    HW1 4194   0.822   0.483  11.451
 1390SOL    HW2 4195   0.721   0.606  11.489
 1391SOL     OW 4196   1.657   0.604  12.378
 1391SOL    HW1 4197   1.619   0.535  12.440
 1391SOL    HW2 4198   1.739   0.568  12.334
 1392SOL     OW 4199   0.252   1.564  12.916
 1392SOL    HW1 4200   0.222   1.621  12.992
 1392SOL    HW2 4201   0.245   1.467  12.942
 1393SOL     OW 4202   0.671   0.464  12.441
 1393SOL    HW1 4203   0.637   0.375  12.411
 1393SOL    HW2 4204   0.697   0.518  12.361
 1394SOL     OW 4205   0.930   1.678  12.637
 1394SOL    HW1 4206   0.906   1.660  12.542
 1394SOL    HW2 4207   0.960   1.772  12.647
 1395SOL     OW 4208   0.473   0.500  11.363
 1395SOL    HW1 4209   0.534   0.580  11.367
 1395SOL    HW2 4210   0.378   0.531  11.370
 1396SOL     OW 4211   0.159   1.137  12.638
 1396SOL    HW1 4212   0.181   1.076  12.714
 1396SOL    HW2 4213   0.169   1.088  12.552
 1397SOL     OW 4214   1.347   1.059  12.406
 1397SOL    HW1 4215   1.371   0.996  12.332
 1397SOL    HW2 4216   1.257   1.099  12.388
 1398SOL     OW 4217   1.302   0.855  11.481
 1398SOL    HW1 4218   1.216   0.824  11.523
 1398SOL    HW2 4219   1.298   0.841  11.382
 1399SOL     OW 4220   1.759   1.747  12.326
 1399SOL    HW1 4221   1.820   1.777  12.253
 1399SOL    HW2 4222   1.721   1.658  12.304
 1400SOL     OW 4223   1.252   1.731  12.300
 1400SOL    HW1 4224   1.336   1.736  12.246
 1400SOL    HW2 4225   1.229   1.635  12.318
 1401SOL     OW 4226   0.083   1.258  12.194
 1401SOL    HW1 4227   0.078   1.257  12.294
 1401SOL    HW2 4228   0.000   1.217  12.156
 1402SOL     OW 4229   1.726   0.135  11.695
 1402SOL    HW1 4230   1.799   0.118  11.628
 1402SOL    HW2 4231   1.695   0.048  11.733
 1403SOL     OW 4232   1.388   1.573  11.649
 1403SOL    HW1 4233   1.455   1.585  11.575
 1403SOL    HW2 4234   1.348   1.662  11.672
 1404SOL     OW 4235   1.280   0.927  11.844
 1404SOL    HW1 4236   1.340   0.846  11.846
 1404SOL    HW2 4237   1.320   0.996  11.784
 1405SOL     OW 4238   0.830   1.273  12.594
 1405SOL    HW1 4239   0.825   1.306  12.689
 1405SOL    HW2 4240   0.744   1.292  12.548
 1406SOL     OW 4241   0.672   1.616  11.326
 1406SOL    HW1 4242   0.681   1.626  11.227
 1406SOL    HW2 4243   0.632   1.527  11.347
 1407SOL     OW 4244   1.650   1.720  12.566
 1407SOL    HW1 4245   1.703   1.730  12.482
 1407SOL    HW2 4246   1.623   1.810  12.600
 1408SOL     OW 4247   1.841   0.175  12.135
 1408SOL    HW1 4248   1.880   0.090  12.099
 1408SOL    HW2 4249   1.743   0.177  12.116
 1409SOL     OW 4250   0.263   0.326  11.892
 1409SOL    HW1 4251   0.184   0.377  11.858
 1409SOL    HW2 4252   0.254   0.311  11.990
 1410SOL     OW 4253   1.194   1.612  11.203
 1410SOL    HW1 4254   1.200   1.519  11.240
 1410SOL    HW2 4255   1.135   1.612  11.123
 1411SOL     OW 4256   0.822   1.002  12.544
 1411SOL    HW1 4257   0.862   1.001  12.452
 1411SOL    HW2 4258   0.832   1.094  12.584
 1412SOL     OW 4259   0.916   0.910  11.463
 1412SOL    HW1 4260   0.979   0.948  11.395
 1412SOL    HW2 4261   0.956   0.827  11.502
 1413SOL     OW 4262   1.504   1.607  11.216
 1413SOL    HW1 4263   1.412   1.644  11.223
 1413SOL    HW2 4264   1.542   1.627  11.126
 1414SOL     OW 4265   0.372   1.288  12.662
 1414SOL    HW1 4266   0.359   1.381  12.628
 1414SOL    HW2 4267   0.288   1.236  12.649
 1415SOL     OW 4268   1.614   1.292  12.461
 1415SOL    HW1 4269   1.674   1.295  12.541
 1415SOL    HW2 4270   1.539   1.356  12.474
 1416SOL     OW 4271   1.039   1.098  11.868
 1416SOL    HW1 4272   0.969   1.051  11.922
 1416SOL    HW2 4273   1.098   1.030  11.825
 1417SOL     OW 4274   1.014   0.236  12.143
 1417SOL    HW1 4275   1.006   0.200  12.050
 1417SOL    HW2 4276   1.012   0.160  12.208
 1418SOL     OW 4277   0.590   1.487  11.663
 1418SOL    HW1 4278   0.632   1.429  11.593
 1418SOL    HW2 4279   0.546   1.566  11.619
 1419SOL     OW 4280   1.709   0.385  12.553
 1419SOL    HW1 4281   1.782   0.454  12.557
 1419SOL    HW2 4282   1.737   0.310  12.494
 1420SOL     OW 4283   0.255   1.348  11.462
 1420SOL    HW1 4284   0.159   1.349  11.435
 1420SOL    HW2 4285   0.267   1.401  11.546
 1421SOL     OW 4286   0.105   1.013  12.898
 1421SOL    HW1 4287   0.028   0.980  12.952
 1421SOL    HW2 4288   0.190   0.983  12.940
 1422SOL     OW 4289   0.672   0.203  12.661
 1422SOL    HW1 4290   0.762   0.187  12.621
 1422SOL    HW2 4291   0.680   0.208  12.760
 1423SOL     OW 4292   0.075   0.345  11.205
 1423SOL    HW1 4293  -0.017   0.317  11.176
 1423SOL    HW2 4294   0.106   0.422  11.149
 1424SOL     OW 4295   1.440   0.856  12.570
 1424SOL    HW1 4296   1.383   0.908  12.507
 1424SOL    HW2 4297   1.536   0.868  12.546
 1425SOL     OW 4298   0.072   0.166  11.490
 1425SOL    HW1 4299   0.055   0.249  11.436
 1425SOL    HW2 4300   0.162   0.129  11.468
 1426SOL     OW 4301   1.183   1.335  11.291
 1426SOL    HW1 4302   1.084   1.324  11.293
 1426SOL    HW2 4303   1.217   1.350  11.384
 1427SOL     OW 4304   0.613   0.842  12.603
 1427SOL    HW1 4305   0.669   0.923  12.586
 1427SOL    HW2 4306   0.672   0.762  12.606
 1428SOL     OW 4307   1.493   1.767  12.131
 1428SOL    HW1 4308   1.526   1.831  12.062
 1428SOL    HW2 4309   1.559   1.761  12.206
 1429SOL     OW 4310   0.716   0.565  12.880
 1429SOL    HW1 4311   0.735   0.630  12.954
 1429SOL    HW2 4312   0.776   0.485  12.889
 1430SOL     OW 4313   0.390   1.741  12.732
 1430SOL    HW1 4314   0.299   1.782  12.730
 1430SOL    HW2 4315   0.383   1.647  12.764
 1431SOL     OW 4316   1.674   0.883  12.426
 1431SOL    HW1 4317   1.647   0.794  12.389
 1431SOL    HW2 4318   1.675   0.951  12.353
 1432SOL     OW 4319   1.225   0.325  11.621
 1432SOL    HW1 4320   1.290   0.251  11.610
 1432SOL    HW2 4321   1.245   0.375  11.705
 1433SOL     OW 4322   0.594   0.745  11.824
 1433SOL    HW1 4323   0.644   0.830  11.805
 1433SOL    HW2 4324   0.506   0.747  11.776
 1434SOL     OW 4325   1.777   0.342  12.814
 1434SOL    HW1 4326   1.760   0.373  12.720
 1434SOL    HW2 4327   1.693   0.305  12.852
 1435SOL     OW 4328   1.730   0.934  12.689
 1435SOL    HW1 4329   1.768   1.025  12.704
 1435SOL    HW2 4330   1.722   0.917  12.590
 1436SOL     OW 4331   0.859   1.374  11.188
 1436SOL    HW1 4332   0.813   1.389  11.276
 1436SOL    HW2 4333   0.903   1.459  11.158
 1437SOL     OW 4334   0.661   1.790  12.125
 1437SOL    HW1 4335   0.615   1.878  12.112
 1437SOL    HW2 4336   0.760   1.802  12.118
 1438SOL     OW 4337   0.859   0.956  12.033
 1438SOL    HW1 4338   0.913   0.887  12.081
 1438SOL    HW2 4339   0.827   1.025  12.099
 1439SOL     OW 4340   1.083   0.984  11.259
 1439SOL    HW1 4341   1.060   1.037  11.177
 1439SOL    HW2 4342   1.164   0.928  11.240
 1440SOL     OW 4343   1.861   1.569  12.023
 1440SOL    HW1 4344   1.790   1.557  11.953
 1440SOL    HW2 4345   1.862   1.490  12.083
 1441SOL     OW 4346   0.079   1.240  11.825
 1441SOL    HW1 4347   0.078   1.193  11.913
 1441SOL    HW2 4348   0.161   1.212  11.774
 1442SOL     OW 4349   0.672   1.391  12.796
 1442SOL    HW1 4350   0.594   1.341  12.834
 1442SOL    HW2 4351   0.669   1.486  12.827
 1443SOL     OW 4352   1.824   0.192  12.399
 1443SOL    HW1 4353   1.820   0.102  12.443
 1443SOL    HW2 4354   1.827   0.181  12.300
 1444SOL     OW 4355   0.428   0.424  11.692
 1444SOL    HW1 4356   0.458   0.352  11.630
 1444SOL    HW2 4357   0.389   0.384  11.775
 1445SOL     OW 4358   1.705   1.487  12.276
 1445SOL    HW1 4359   1.612   1.462  12.249
 1445SOL    HW2 4360   1.731   1.437  12.358
 1446SOL     OW 4361   0.317   0.547  12.452
 1446SOL    HW1 4362   0.355   0.488  12.524
 1446SOL    HW2 4363   0.357   0.521  12.364
 1447SOL     OW 4364   0.812   1.586  11.859
 1447SOL    HW1 4365   0.844   1.596  11.765
 1447SOL    HW2 4366   0.733   1.524  11.861
 1448SOL     OW 4367   1.424   0.214  12.284
 1448SOL    HW1 4368   1.476   0.149  12.339
 1448SOL    HW2 4369   1.375   0.277  12.345
 1449SOL     OW 4370   1.001   0.034  12.326
 1449SOL    HW1 4371   0.938  -0.038  12.295
 1449SOL    HW2 4372   1.094  -0.002  12.326
 1450SOL     OW 4373   0.770   1.330  11.473
 1450SOL    HW1 4374   0.724   1.243  11.490
 1450SOL    HW2 4375   0.861   1.327  11.514
 1451SOL     OW 4376   0.618   1.567  12.456
 1451SOL    HW1 4377   0.613   1.649  12.513
 1451SOL    HW2 4378   0.707   1.564  12.411
 1452SOL     OW 4379   1.352   0.052  11.340
 1452SOL    HW1 4380   1.387   0.011  11.256
 1452SOL    HW2 4381   1.262   0.014  11.360
 1453SOL     OW 4382   1.300   0.453  11.863
 1453SOL    HW1 4383   1.241   0.533  11.867
 1453SOL    HW2 4384   1.315   0.418  11.956
 1454SOL     OW 4385   1.593   0.221  12.054
 1454SOL    HW1 4386   1.509   0.220  12.108
 1454SOL    HW2 4387   1.595   0.304  11.998
 1455SOL     OW 4388   0.039   1.077  11.472
 1455SOL    HW1 4389   0.138   1.066  11.463
 1455SOL    HW2 4390  -0.001   0.991  11.504
 1456SOL     OW 4391   0.875   1.646  11.509
 1456SOL    HW1 4392   0.798   1.611  11.455
 1456SOL    HW2 4393   0.843   1.717  11.571
 1457SOL     OW 4394   0.230   2.490   0.113
 1457SOL    HW1 4395   0.137   2.488   0.150
 1457SOL    HW2 4396   0.231   2.451   0.021
 1458SOL     OW 4397   0.225   2.137   0.996
 1458SOL    HW1 4398   0.260   2.120   1.088
 1458SOL    HW2 4399   0.137   2.092   0.984
 1459SOL     OW 4400   0.019   2.230   0.647
 1459SOL    HW1 4401  -0.063   2.273   0.686
 1459SOL    HW2 4402  -0.009   2.157   0.584
 1460SOL     OW 4403   0.569   3.137   1.165
 1460SOL    HW1 4404   0.476   3.130   1.128
 1460SOL    HW2 4405   0.580   3.226   1.209
 1461SOL     OW 4406   1.555   3.373   0.703
 1461SOL    HW1 4407   1.498   3.357   0.784
 1461SOL    HW2 4408   1.496   3.383   0.623
 1462SOL     OW 4409   1.135   2.565   0.717
 1462SOL    HW1 4410   1.192   2.643   0.692
 1462SOL    HW2 4411   1.075   2.591   0.793
 1463SOL     OW 4412   1.755   2.469   0.231
 1463SOL    HW1 4413   1.743   2.456   0.132
 1463SOL    HW2 4414   1.725   2.388   0.280
 1464SOL     OW 4415   0.768   3.006   1.023
 1464SOL    HW1 4416   0.690   3.023   1.083
 1464SOL    HW2 4417   0.802   3.093   0.987
 1465SOL     OW 4418   0.850   2.660   1.823
 1465SOL    HW1 4419   0.846   2.736   1.888
 1465SOL    HW2 4420   0.872   2.696   1.732
 1466SOL     OW 4421   0.685   2.874   0.665
 1466SOL    HW1 4422   0.754   2.858   0.735
 1466SOL    HW2 4423   0.612   2.931   0.703
 1467SOL     OW 4424   0.686   3.023   1.803
 1467SOL    HW1 4425   0.746   3.102   1.817
 1467SOL    HW2 4426   0.600   3.054   1.762
 1468SOL     OW 4427   0.335   3.297   1.061
 1468SOL    HW1 4428   0.257   3.266   1.008
 1468SOL    HW2 4429   0.393   3.355   1.004
 1469SOL     OW 4430   1.460   3.367   1.339
 1469SOL    HW1 4431   1.484   3.461   1.365
 1469SOL    HW2 4432   1.444   3.313   1.421
 1470SOL     OW 4433   0.438   2.254   1.499
 1470SOL    HW1 4434   0.520   2.198   1.508
 1470SOL    HW2 4435   0.357   2.196   1.503
 1471SOL     OW 4436   1.603   2.309   0.737
 1471SOL    HW1 4437   1.529   2.355   0.687
 1471SOL    HW2 4438   1.654   2.377   0.790
 1472SOL     OW 4439   0.231   3.575   0.483
 1472SOL    HW1 4440   0.265   3.652   0.537
 1472SOL    HW2 4441   0.275   3.575   0.393
 1473SOL     OW 4442   1.127   3.203   1.690
 1473SOL    HW1 4443   1.174   3.203   1.778
 1473SOL    HW2 4444   1.079   3.116   1.679
 1474SOL     OW 4445   0.230   3.296   0.538
 1474SOL    HW1 4446   0.204   3.392   0.538
 1474SOL    HW2 4447   0.159   3.242   0.583
 1475SOL     OW 4448   0.240   2.953   0.886
 1475SOL    HW1 4449   0.254   2.869   0.938
 1475SOL    HW2 4450   0.185   3.017   0.941
 1476SOL     OW 4451   0.620   3.648   1.439
 1476SOL    HW1 4452   0.528   3.631   1.474
 1476SOL    HW2 4453   0.648   3.740   1.465
 1477SOL     OW 4454   0.606   2.826   0.123
 1477SOL    HW1 4455   0.613   2.910   0.069
 1477SOL    HW2 4456   0.652   2.839   0.211
 1478SOL     OW 4457   0.122   2.505   0.563
 1478SOL    HW1 4458   0.077   2.417   0.580
 1478SOL    HW2 4459   0.121   2.559   0.647
 1479SOL     OW 4460   1.842   3.629   0.359
 1479SOL    HW1 4461   1.896   3.600   0.439
 1479SOL    HW2 4462   1.872   3.719   0.330
 1480SOL     OW 4463   0.027   3.458   0.117
 1480SOL    HW1 4464   0.008   3.362   0.138
 1480SOL    HW2 4465  -0.006   3.516   0.192
 1481SOL     OW 4466   1.689   2.784   0.612
 1481SOL    HW1 4467   1.784   2.755   0.620
 1481SOL    HW2 4468   1.681   2.849   0.537
 1482SOL     OW 4469   1.641   2.970   0.432
 1482SOL    HW1 4470   1.727   2.972   0.380
 1482SOL    HW2 4471   1.655   3.017   0.520
 1483SOL     OW 4472   0.113   2.599   1.597
 1483SOL    HW1 4473   0.201   2.586   1.642
 1483SOL    HW2 4474   0.100   2.696   1.575
 1484SOL     OW 4475   0.613   3.227   0.726
 1484SOL    HW1 4476   0.564   3.140   0.735
 1484SOL    HW2 4477   0.590   3.270   0.639
 1485SOL     OW 4478   1.293   3.090   1.423
 1485SOL    HW1 4479   1.330   3.017   1.365
 1485SOL    HW2 4480   1.345   3.095   1.508
 1486SOL     OW 4481   0.809   1.866   0.502
 1486SOL    HW1 4482   0.849   1.957   0.493
 1486SOL    HW2 4483   0.709   1.874   0.508
 1487SOL     OW 4484   0.197   2.838   1.264
 1487SOL    HW1 4485   0.286   2.793   1.250
 1487SOL    HW2 4486   0.124   2.773   1.245
 1488SOL     OW 4487   1.525   2.861   0.190
 1488SOL    HW1 4488   1.462   2.785   0.203
 1488SOL    HW2 4489   1.573   2.879   0.276
 1489SOL     OW 4490   1.187   3.654   1.616
 1489SOL    HW1 4491   1.211   3.714   1.540
 1489SOL    HW2 4492   1.194   3.559   1.586
 1490SOL     OW 4493   0.317   2.113   1.801
 1490SOL    HW1 4494   0.388   2.184   1.807
 1490SOL    HW2 4495   0.229   2.152   1.829
 1491SOL     OW 4496   1.466   3.279   0.953
 1491SOL    HW1 4497   1.407   3.285   1.033
 1491SOL    HW2 4498   1.451   3.191   0.907
 1492SOL     OW 4499   1.667   3.576   0.572
 1492SOL    HW1 4500   1.626   3.553   0.484
 1492SOL    HW2 4501   1.649   3.502   0.637
 1493SOL     OW 4502   0.598   2.591   0.270
 1493SOL    HW1 4503   0.622   2.660   0.202
 1493SOL    HW2 4504   0.520   2.624   0.324
 1494SOL     OW 4505   1.281   2.207   0.944
 1494SOL    HW1 4506   1.195   2.157   0.931
 1494SOL    HW2 4507   1.343   2.153   1.000
 1495SOL     OW 4508   1.576   3.524   0.307
 1495SOL    HW1 4509   1.665   3.570   0.310
 1495SOL    HW2 4510   1.555   3.500   0.212
 1496SOL     OW 4511   0.807   2.467   1.465
 1496SOL    HW1 4512   0.760   2.464   1.554
 1496SOL    HW2 4513   0.756   2.412   1.399
 1497SOL     OW 4514   1.394   2.331   1.674
 1497SOL    HW1 4515   1.374   2.374   1.762
 1497SOL    HW2 4516   1.472   2.269   1.683
 1498SOL     OW 4517   0.973   2.752   1.572
 1498SOL    HW1 4518   1.019   2.668   1.543
 1498SOL    HW2 4519   0.917   2.786   1.497
 1499SOL     OW 4520   0.991   2.272   1.242
 1499SOL    HW1 4521   0.914   2.306   1.296
 1499SOL    HW2 4522   0.957   2.221   1.163
 1500SOL     OW 4523   1.041   2.563   0.429
 1500SOL    HW1 4524   1.067   2.559   0.525
 1500SOL    HW2 4525   0.956   2.512   0.415
 1501SOL     OW 4526   0.076   2.673   0.789
 1501SOL    HW1 4527   0.175   2.661   0.798
 1501SOL    HW2 4528   0.052   2.768   0.810
 1502SOL     OW 4529   0.130   3.683   1.571
 1502SOL    HW1 4530   0.120   3.668   1.670
 1502SOL    HW2 4531   0.044   3.719   1.535
 1503SOL     OW 4532   0.865   2.210   0.195
 1503SOL    HW1 4533   0.924   2.273   0.146
 1503SOL    HW2 4534   0.884   2.116   0.166
 1504SOL     OW 4535   1.719   2.447   1.831
 1504SOL    HW1 4536   1.693   2.536   1.795
 1504SOL    HW2 4537   1.717   2.379   1.758
 1505SOL     OW 4538   1.362   3.006   0.545
 1505SOL    HW1 4539   1.445   2.977   0.497
 1505SOL    HW2 4540   1.313   3.073   0.489
 1506SOL     OW 4541   0.550   2.058   0.885
 1506SOL    HW1 4542   0.545   2.053   0.985
 1506SOL    HW2 4543   0.552   2.154   0.856
 1507SOL     OW 4544   1.008   3.318   0.477
 1507SOL    HW1 4545   0.962   3.390   0.425
 1507SOL    HW2 4546   1.004   3.338   0.575
 1508SOL     OW 4547   0.351   3.663   0.853
 1508SOL    HW1 4548   0.401   3.577   0.859
 1508SOL    HW2 4549   0.416   3.740   0.850
 1509SOL     OW 4550   1.795   2.928   0.873
 1509SOL    HW1 4551   1.733   2.913   0.797
 1509SOL    HW2 4552   1.743   2.939   0.958
 1510SOL     OW 4553   1.227   3.412   1.506
 1510SOL    HW1 4554   1.233   3.335   1.570
 1510SOL    HW2 4555   1.175   3.386   1.426
 1511SOL     OW 4556   0.321   2.805   0.242
 1511SOL    HW1 4557   0.403   2.844   0.200
 1511SOL    HW2 4558   0.294   2.723   0.193
 1512SOL     OW 4559   1.458   2.597   0.728
 1512SOL    HW1 4560   1.453   2.532   0.803
 1512SOL    HW2 4561   1.538   2.656   0.741
 1513SOL     OW 4562   0.461   3.128   1.727
 1513SOL    HW1 4563   0.411   3.129   1.641
 1513SOL    HW2 4564   0.398   3.110   1.803
 1514SOL     OW 4565   1.111   3.638   0.237
 1514SOL    HW1 4566   1.051   3.576   0.287
 1514SOL    HW2 4567   1.142   3.594   0.152
 1515SOL     OW 4568   0.202   2.147   1.498
 1515SOL    HW1 4569   0.122   2.207   1.485
 1515SOL    HW2 4570   0.192   2.098   1.584
 1516SOL     OW 4571   1.632   3.239   0.081
 1516SOL    HW1 4572   1.600   3.333   0.071
 1516SOL    HW2 4573   1.556   3.176   0.069
 1517SOL     OW 4574   0.464   3.605   0.323
 1517SOL    HW1 4575   0.497   3.644   0.409
 1517SOL    HW2 4576   0.540   3.598   0.258
 1518SOL     OW 4577   1.400   1.969   0.426
 1518SOL    HW1 4578   1.376   1.932   0.336
 1518SOL    HW2 4579   1.499   1.985   0.430
 1519SOL     OW 4580   0.249   3.647   1.241
 1519SOL    HW1 4581   0.306   3.582   1.291
 1519SOL    HW2 4582   0.233   3.614   1.148
 1520SOL     OW 4583   0.940   3.560   0.904
 1520SOL    HW1 4584   1.020   3.503   0.925
 1520SOL    HW2 4585   0.891   3.520   0.827
 1521SOL     OW 4586   0.382   2.562   0.480
 1521SOL    HW1 4587   0.427   2.472   0.477
 1521SOL    HW2 4588   0.288   2.551   0.513
 1522SOL     OW 4589   1.547   2.084   1.729
 1522SOL    HW1 4590   1.542   2.121   1.821
 1522SOL    HW2 4591   1.475   2.015   1.717
 1523SOL     OW 4592   0.614   1.984   0.117
 1523SOL    HW1 4593   0.712   1.962   0.124
 1523SOL    HW2 4594   0.583   1.967   0.024
 1524SOL     OW 4595   0.781   2.126   1.749
 1524SOL    HW1 4596   0.848   2.065   1.792
 1524SOL    HW2 4597   0.708   2.145   1.814
 1525SOL     OW 4598   0.888   3.376   1.195
 1525SOL    HW1 4599   0.865   3.351   1.101
 1525SOL    HW2 4600   0.949   3.307   1.234
 1526SOL     OW 4601   1.351   2.452   1.433
 1526SOL    HW1 4602   1.379   2.409   1.518
 1526SOL    HW2 4603   1.376   2.548   1.434
 1527SOL     OW 4604   0.803   3.264   0.924
 1527SOL    HW1 4605   0.893   3.278   0.882
 1527SOL    HW2 4606   0.732   3.266   0.853
 1528SOL     OW 4607   0.922   2.365   0.899
 1528SOL    HW1 4608   0.897   2.356   0.803
 1528SOL    HW2 4609   0.970   2.283   0.930
 1529SOL     OW 4610   0.539   1.926   0.512
 1529SOL    HW1 4611   0.458   1.927   0.570
 1529SOL    HW2 4612   0.542   2.009   0.457
 1530SOL     OW 4613   1.434   3.050   0.041
 1530SOL    HW1 4614   1.466   2.974   0.098
 1530SOL    HW2 4615   1.342   3.077   0.071
 1531SOL     OW 4616   0.297   1.897   0.171
 1531SOL    HW1 4617   0.346   1.981   0.150
 1531SOL    HW2 4618   0.359   1.832   0.216
 1532SOL     OW 4619   0.935   2.098   0.480
 1532SOL    HW1 4620   0.887   2.139   0.402
 1532SOL    HW2 4621   1.034   2.096   0.461
 1533SOL     OW 4622   1.076   2.545   1.464
 1533SOL    HW1 4623   0.996   2.484   1.467
 1533SOL    HW2 4624   1.157   2.492   1.440
 1534SOL     OW 4625   1.227   3.432   0.793
 1534SOL    HW1 4626   1.248   3.506   0.728
 1534SOL    HW2 4627   1.295   3.432   0.866
 1535SOL     OW 4628   0.459   3.014   0.741
 1535SOL    HW1 4629   0.388   2.987   0.806
 1535SOL    HW2 4630   0.433   2.986   0.648
 1536SOL     OW 4631   1.271   3.659   0.591
 1536SOL    HW1 4632   1.315   3.723   0.527
 1536SOL    HW2 4633   1.221   3.711   0.661
 1537SOL     OW 4634   1.032   2.411   0.016
 1537SOL    HW1 4635   0.991   2.493  -0.023
 1537SOL    HW2 4636   1.096   2.437   0.089
 1538SOL     OW 4637   0.078   2.418   1.386
 1538SOL    HW1 4638   0.170   2.417   1.345
 1538SOL    HW2 4639   0.072   2.492   1.453
 1539SOL     OW 4640   0.561   2.084   1.147
 1539SOL    HW1 4641   0.599   2.000   1.184
 1539SOL    HW2 4642   0.473   2.103   1.191
 1540SOL     OW 4643   0.866   2.316   0.642
 1540SOL    HW1 4644   0.834   2.388   0.580
 1540SOL    HW2 4645   0.890   2.235   0.589
 1541SOL     OW 4646   1.017   1.901   0.753
 1541SOL    HW1 4647   0.945   1.906   0.684
 1541SOL    HW2 4648   0.993   1.832   0.822
 1542SOL     OW 4649   1.429   3.035   0.867
 1542SOL    HW1 4650   1.374   2.951   0.860
 1542SOL    HW2 4651   1.455   3.064   0.775
 1543SOL     OW 4652   1.466   2.452   0.992
 1543SOL    HW1 4653   1.436   2.357   0.999
 1543SOL    HW2 4654   1.539   2.468   1.058
 1544SOL     OW 4655   1.857   2.695   0.377
 1544SOL    HW1 4656   1.899   2.631   0.441
 1544SOL    HW2 4657   1.819   2.644   0.299
 1545SOL     OW 4658   0.488   3.247   0.174
 1545SOL    HW1 4659   0.401   3.232   0.221
 1545SOL    HW2 4660   0.471   3.273   0.079
 1546SOL     OW 4661   1.664   3.142   0.657
 1546SOL    HW1 4662   1.763   3.150   0.671
 1546SOL    HW2 4663   1.619   3.226   0.688
 1547SOL     OW 4664   1.390   2.437   0.078
 1547SOL    HW1 4665   1.336   2.416   0.159
 1547SOL    HW2 4666   1.481   2.396   0.087
 1548SOL     OW 4667   0.527   2.118   0.328
 1548SOL    HW1 4668   0.554   2.059   0.253
 1548SOL    HW2 4669   0.527   2.213   0.297
 1549SOL     OW 4670   1.754   3.085   1.588
 1549SOL    HW1 4671   1.845   3.046   1.575
 1549SOL    HW2 4672   1.762   3.181   1.612
 1550SOL     OW 4673   1.064   3.209   1.340
 1550SOL    HW1 4674   0.984   3.186   1.395
 1550SOL    HW2 4675   1.147   3.183   1.389
 1551SOL     OW 4676   1.592   3.491   1.625
 1551SOL    HW1 4677   1.619   3.525   1.535
 1551SOL    HW2 4678   1.671   3.453   1.671
 1552SOL     OW 4679   1.111   3.057   1.100
 1552SOL    HW1 4680   1.071   3.101   1.181
 1552SOL    HW2 4681   1.070   3.094   1.017
 1553SOL     OW 4682   1.638   2.961   1.079
 1553SOL    HW1 4683   1.643   3.042   1.138
 1553SOL    HW2 4684   1.552   2.963   1.028
 1554SOL     OW 4685   0.915   1.951   1.402
 1554SOL    HW1 4686   0.940   1.931   1.307
 1554SOL    HW2 4687   0.987   2.007   1.444
 1555SOL     OW 4688   0.980   2.978   1.719
 1555SOL    HW1 4689   0.881   2.984   1.729
 1555SOL    HW2 4690   1.003   2.898   1.663
 1556SOL     OW 4691   0.705   2.912   0.368
 1556SOL    HW1 4692   0.691   2.919   0.467
 1556SOL    HW2 4693   0.789   2.861   0.350
 1557SOL     OW 4694   0.410   2.675   1.251
 1557SOL    HW1 4695   0.496   2.687   1.301
 1557SOL    HW2 4696   0.368   2.588   1.278
 1558SOL     OW 4697   1.274   2.248   1.262
 1558SOL    HW1 4698   1.295   2.322   1.326
 1558SOL    HW2 4699   1.185   2.265   1.219
 1559SOL     OW 4700   0.064   3.426   1.331
 1559SOL    HW1 4701   0.018   3.508   1.297
 1559SOL    HW2 4702   0.162   3.445   1.340
 1560SOL     OW 4703   0.367   2.962   0.501
 1560SOL    HW1 4704   0.360   3.045   0.445
 1560SOL    HW2 4705   0.371   2.882   0.441
 1561SOL     OW 4706   0.566   2.399   0.865
 1561SOL    HW1 4707   0.578   2.465   0.791
 1561SOL    HW2 4708   0.612   2.433   0.948
 1562SOL     OW 4709   1.252   3.210   0.388
 1562SOL    HW1 4710   1.302   3.287   0.428
 1562SOL    HW2 4711   1.157   3.212   0.420
 1563SOL     OW 4712   1.272   3.307   1.142
 1563SOL    HW1 4713   1.319   3.320   1.229
 1563SOL    HW2 4714   1.206   3.233   1.151
 1564SOL     OW 4715   1.582   2.501   0.472
 1564SOL    HW1 4716   1.551   2.562   0.545
 1564SOL    HW2 4717   1.632   2.553   0.403
 1565SOL     OW 4718   0.354   3.372   1.329
 1565SOL    HW1 4719   0.333   3.328   1.242
 1565SOL    HW2 4720   0.451   3.398   1.332
 1566SOL     OW 4721   0.402   2.613   1.598
 1566SOL    HW1 4722   0.470   2.668   1.551
 1566SOL    HW2 4723   0.442   2.525   1.625
 1567SOL     OW 4724   1.587   2.641   1.670
 1567SOL    HW1 4725   1.495   2.679   1.665
 1567SOL    HW2 4726   1.647   2.688   1.605
 1568SOL     OW 4727   1.013   1.967   1.770
 1568SOL    HW1 4728   1.019   2.052   1.718
 1568SOL    HW2 4729   1.045   1.891   1.713
 1569SOL     OW 4730   0.504   1.912   1.740
 1569SOL    HW1 4731   0.462   1.855   1.670
 1569SOL    HW2 4732   0.438   1.981   1.772
 1570SOL     OW 4733   0.573   2.732   1.029
 1570SOL    HW1 4734   0.617   2.821   1.020
 1570SOL    HW2 4735   0.510   2.732   1.106
 1571SOL     OW 4736   1.360   2.724   1.045
 1571SOL    HW1 4737   1.285   2.724   0.979
 1571SOL    HW2 4738   1.397   2.632   1.054
 1572SOL     OW 4739   1.209   2.387   0.275
 1572SOL    HW1 4740   1.222   2.303   0.329
 1572SOL    HW2 4741   1.180   2.461   0.335
 1573SOL     OW 4742   0.307   2.075   1.231
 1573SOL    HW1 4743   0.284   2.112   1.321
 1573SOL    HW2 4744   0.277   1.980   1.225
 1574SOL     OW 4745   0.037   3.172   1.282
 1574SOL    HW1 4746   0.090   3.123   1.350
 1574SOL    HW2 4747   0.059   3.270   1.287
 1575SOL     OW 4748   0.732   2.496   1.064
 1575SOL    HW1 4749   0.791   2.470   0.988
 1575SOL    HW2 4750   0.704   2.592   1.053
 1576SOL     OW 4751   1.728   2.797   1.854
 1576SOL    HW1 4752   1.682   2.790   1.765
 1576SOL    HW2 4753   1.666   2.841   1.920
 1577SOL     OW 4754   0.307   1.925   0.618
 1577SOL    HW1 4755   0.296   2.019   0.651
 1577SOL    HW2 4756   0.302   1.862   0.695
 1578SOL     OW 4757   1.622   2.229   0.374
 1578SOL    HW1 4758   1.624   2.153   0.438
 1578SOL    HW2 4759   1.574   2.306   0.414
 1579SOL     OW 4760   1.023   2.628   0.966
 1579SOL    HW1 4761   1.038   2.649   1.062
 1579SOL    HW2 4762   0.993   2.533   0.957
 1580SOL     OW 4763   0.980   3.435   1.700
 1580SOL    HW1 4764   0.960   3.479   1.612
 1580SOL    HW2 4765   1.019   3.344   1.684
 1581SOL     OW 4766   1.859   3.380   1.605
 1581SOL    HW1 4767   1.873   3.407   1.510
 1581SOL    HW2 4768   1.942   3.402   1.658
 1582SOL     OW 4769   0.350   2.760   1.804
 1582SOL    HW1 4770   0.426   2.804   1.852
 1582SOL    HW2 4771   0.385   2.713   1.722
 1583SOL     OW 4772   1.540   2.136   0.125
 1583SOL    HW1 4773   1.479   2.061   0.148
 1583SOL    HW2 4774   1.562   2.188   0.208
 1584SOL     OW 4775   1.303   2.700   0.042
 1584SOL    HW1 4776   1.337   2.607   0.057
 1584SOL    HW2 4777   1.321   2.727  -0.053
 1585SOL     OW 4778   1.068   3.195   0.849
 1585SOL    HW1 4779   1.075   3.111   0.794
 1585SOL    HW2 4780   1.130   3.264   0.813
 1586SOL     OW 4781   0.319   2.672   0.949
 1586SOL    HW1 4782   0.412   2.708   0.954
 1586SOL    HW2 4783   0.313   2.587   1.001
 1587SOL     OW 4784   0.339   2.371   1.006
 1587SOL    HW1 4785   0.287   2.288   0.989
 1587SOL    HW2 4786   0.416   2.376   0.942
 1588SOL     OW 4787   1.138   2.242   1.678
 1588SOL    HW1 4788   1.093   2.305   1.742
 1588SOL    HW2 4789   1.231   2.273   1.661
 1589SOL     OW 4790   1.160   2.069   1.477
 1589SOL    HW1 4791   1.160   2.133   1.554
 1589SOL    HW2 4792   1.188   2.117   1.394
 1590SOL     OW 4793   0.008   3.188   0.200
 1590SOL    HW1 4794  -0.085   3.209   0.169
 1590SOL    HW2 4795   0.018   3.089   0.213
 1591SOL     OW 4796   0.088   3.663   0.927
 1591SOL    HW1 4797   0.046   3.577   0.900
 1591SOL    HW2 4798   0.182   3.666   0.893
 1592SOL     OW 4799   0.504   3.430   0.910
 1592SOL    HW1 4800   0.570   3.504   0.919
 1592SOL    HW2 4801   0.548   3.351   0.868
 1593SOL     OW 4802   1.002   2.658   1.238
 1593SOL    HW1 4803   1.043   2.626   1.324
 1593SOL    HW2 4804   0.906   2.631   1.235
 1594SOL     OW 4805   0.040   2.406   1.114
 1594SOL    HW1 4806   0.125   2.373   1.073
 1594SOL    HW2 4807   0.053   2.421   1.212
 1595SOL     OW 4808   0.189   2.382   1.722
 1595SOL    HW1 4809   0.248   2.342   1.652
 1595SOL    HW2 4810   0.131   2.453   1.681
 1596SOL     OW 4811   1.369   2.812   1.660
 1596SOL    HW1 4812   1.408   2.901   1.680
 1596SOL    HW2 4813   1.379   2.792   1.563
 1597SOL     OW 4814   0.815   2.434   0.325
 1597SOL    HW1 4815   0.822   2.345   0.279
 1597SOL    HW2 4816   0.721   2.468   0.317
 1598SOL     OW 4817   1.657   2.466   1.206
 1598SOL    HW1 4818   1.619   2.397   1.268
 1598SOL    HW2 4819   1.739   2.430   1.162
 1599SOL     OW 4820   0.252   3.426   1.744
 1599SOL    HW1 4821   0.222   3.483   1.820
 1599SOL    HW2 4822   0.245   3.329   1.770
 1600SOL     OW 4823   0.671   2.326   1.269
 1600SOL    HW1 4824   0.637   2.237   1.239
 1600SOL    HW2 4825   0.697   2.380   1.189
 1601SOL     OW 4826   0.930   3.540   1.465
 1601SOL    HW1 4827   0.906   3.522   1.370
 1601SOL    HW2 4828   0.960   3.634   1.475
 1602SOL     OW 4829   0.473   2.362   0.191
 1602SOL    HW1 4830   0.534   2.442   0.195
 1602SOL    HW2 4831   0.378   2.393   0.198
 1603SOL     OW 4832   0.159   2.999   1.466
 1603SOL    HW1 4833   0.181   2.938   1.542
 1603SOL    HW2 4834   0.169   2.950   1.380
 1604SOL     OW 4835   1.347   2.921   1.234
 1604SOL    HW1 4836   1.371   2.858   1.160
 1604SOL    HW2 4837   1.257   2.961   1.216
 1605SOL     OW 4838   1.302   2.717   0.309
 1605SOL    HW1 4839   1.216   2.686   0.351
 1605SOL    HW2 4840   1.298   2.703   0.210
 1606SOL     OW 4841   1.759   3.609   1.154
 1606SOL    HW1 4842   1.820   3.639   1.081
 1606SOL    HW2 4843   1.721   3.520   1.132
 1607SOL     OW 4844   1.252   3.593   1.128
 1607SOL    HW1 4845   1.336   3.598   1.074
 1607SOL    HW2 4846   1.229   3.497   1.146
 1608SOL     OW 4847   0.083   3.120   1.022
 1608SOL    HW1 4848   0.078   3.119   1.122
 1608SOL    HW2 4849   0.000   3.079   0.984
 1609SOL     OW 4850   0.688   3.524   1.716
 1609SOL    HW1 4851   0.632   3.605   1.725
 1609SOL    HW2 4852   0.740   3.528   1.630
 1610SOL     OW 4853   0.903   1.948   0.133
 1610SOL    HW1 4854   0.954   1.949   0.047
 1610SOL    HW2 4855   0.959   1.906   0.204
 1611SOL     OW 4856   1.726   1.997   0.523
 1611SOL    HW1 4857   1.799   1.980   0.456
 1611SOL    HW2 4858   1.695   1.910   0.561
 1612SOL     OW 4859   1.388   3.435   0.477
 1612SOL    HW1 4860   1.455   3.447   0.403
 1612SOL    HW2 4861   1.348   3.524   0.500
 1613SOL     OW 4862   0.130   3.656   1.851
 1613SOL    HW1 4863   0.089   3.582   1.904
 1613SOL    HW2 4864   0.194   3.707   1.909
 1614SOL     OW 4865   1.280   2.789   0.672
 1614SOL    HW1 4866   1.340   2.708   0.674
 1614SOL    HW2 4867   1.320   2.858   0.612
 1615SOL     OW 4868   0.830   3.135   1.422
 1615SOL    HW1 4869   0.825   3.168   1.517
 1615SOL    HW2 4870   0.744   3.154   1.376
 1616SOL     OW 4871   0.672   3.478   0.154
 1616SOL    HW1 4872   0.681   3.488   0.055
 1616SOL    HW2 4873   0.632   3.389   0.175
 1617SOL     OW 4874   1.650   3.582   1.394
 1617SOL    HW1 4875   1.703   3.592   1.310
 1617SOL    HW2 4876   1.623   3.672   1.428
 1618SOL     OW 4877   1.841   2.037   0.963
 1618SOL    HW1 4878   1.880   1.952   0.927
 1618SOL    HW2 4879   1.743   2.039   0.944
 1619SOL     OW 4880   0.263   2.188   0.720
 1619SOL    HW1 4881   0.184   2.239   0.686
 1619SOL    HW2 4882   0.254   2.173   0.818
 1620SOL     OW 4883   1.194   3.474   0.031
 1620SOL    HW1 4884   1.200   3.381   0.068
 1620SOL    HW2 4885   1.135   3.474  -0.049
 1621SOL     OW 4886   0.822   2.864   1.372
 1621SOL    HW1 4887   0.862   2.863   1.280
 1621SOL    HW2 4888   0.832   2.956   1.412
 1622SOL     OW 4889   0.916   2.772   0.291
 1622SOL    HW1 4890   0.979   2.810   0.223
 1622SOL    HW2 4891   0.956   2.689   0.330
 1623SOL     OW 4892   1.504   3.469   0.044
 1623SOL    HW1 4893   1.412   3.506   0.051
 1623SOL    HW2 4894   1.542   3.489  -0.046
 1624SOL     OW 4895   0.372   3.150   1.490
 1624SOL    HW1 4896   0.359   3.243   1.456
 1624SOL    HW2 4897   0.288   3.098   1.477
 1625SOL     OW 4898   1.614   3.154   1.289
 1625SOL    HW1 4899   1.674   3.157   1.369
 1625SOL    HW2 4900   1.539   3.218   1.302
 1626SOL     OW 4901   1.039   2.960   0.696
 1626SOL    HW1 4902   0.969   2.913   0.750
 1626SOL    HW2 4903   1.098   2.892   0.653
 1627SOL     OW 4904   1.014   2.098   0.971
 1627SOL    HW1 4905   1.006   2.062   0.878
 1627SOL    HW2 4906   1.012   2.022   1.036
 1628SOL     OW 4907   0.590   3.349   0.491
 1628SOL    HW1 4908   0.632   3.291   0.421
 1628SOL    HW2 4909   0.546   3.428   0.447
 1629SOL     OW 4910   1.709   2.247   1.381
 1629SOL    HW1 4911   1.782   2.316   1.385
 1629SOL    HW2 4912   1.737   2.172   1.322
 1630SOL     OW 4913   0.255   3.210   0.290
 1630SOL    HW1 4914   0.159   3.211   0.263
 1630SOL    HW2 4915   0.267   3.263   0.374
 1631SOL     OW 4916   0.105   2.875   1.726
 1631SOL    HW1 4917   0.028   2.842   1.780
 1631SOL    HW2 4918   0.190   2.845   1.768
 1632SOL     OW 4919   0.672   2.065   1.489
 1632SOL    HW1 4920   0.762   2.049   1.449
 1632SOL    HW2 4921   0.680   2.070   1.588
 1633SOL     OW 4922   0.075   2.207   0.033
 1633SOL    HW1 4923  -0.017   2.179   0.004
 1633SOL    HW2 4924   0.106   2.284  -0.023
 1634SOL     OW 4925   1.440   2.718   1.398
 1634SOL    HW1 4926   1.383   2.770   1.335
 1634SOL    HW2 4927   1.536   2.730   1.374
 1635SOL     OW 4928   0.072   2.028   0.318
 1635SOL    HW1 4929   0.055   2.111   0.264
 1635SOL    HW2 4930   0.162   1.991   0.296
 1636SOL     OW 4931   1.183   3.197   0.119
 1636SOL    HW1 4932   1.084   3.186   0.121
 1636SOL    HW2 4933   1.217   3.212   0.212
 1637SOL     OW 4934   0.613   2.704   1.431
 1637SOL    HW1 4935   0.669   2.785   1.414
 1637SOL    HW2 4936   0.672   2.624   1.434
 1638SOL     OW 4937   1.493   3.629   0.959
 1638SOL    HW1 4938   1.526   3.693   0.890
 1638SOL    HW2 4939   1.559   3.623   1.034
 1639SOL     OW 4940   0.716   2.427   1.708
 1639SOL    HW1 4941   0.735   2.492   1.782
 1639SOL    HW2 4942   0.776   2.347   1.717
 1640SOL     OW 4943   1.450   3.082   1.633
 1640SOL    HW1 4944   1.441   3.072   1.732
 1640SOL    HW2 4945   1.546   3.075   1.607
 1641SOL     OW 4946   0.390   3.603   1.560
 1641SOL    HW1 4947   0.299   3.644   1.558
 1641SOL    HW2 4948   0.383   3.509   1.592
 1642SOL     OW 4949   1.674   2.745   1.254
 1642SOL    HW1 4950   1.647   2.656   1.217
 1642SOL    HW2 4951   1.675   2.813   1.181
 1643SOL     OW 4952   1.225   2.187   0.449
 1643SOL    HW1 4953   1.290   2.113   0.438
 1643SOL    HW2 4954   1.245   2.237   0.533
 1644SOL     OW 4955   0.594   2.607   0.652
 1644SOL    HW1 4956   0.644   2.692   0.633
 1644SOL    HW2 4957   0.506   2.609   0.604
 1645SOL     OW 4958   1.777   2.204   1.642
 1645SOL    HW1 4959   1.760   2.235   1.548
 1645SOL    HW2 4960   1.693   2.167   1.680
 1646SOL     OW 4961   1.730   2.796   1.517
 1646SOL    HW1 4962   1.768   2.887   1.532
 1646SOL    HW2 4963   1.722   2.779   1.418
 1647SOL     OW 4964   0.859   3.236   0.016
 1647SOL    HW1 4965   0.813   3.251   0.104
 1647SOL    HW2 4966   0.903   3.321  -0.014
 1648SOL     OW 4967   0.661   3.652   0.953
 1648SOL    HW1 4968   0.615   3.740   0.940
 1648SOL    HW2 4969   0.760   3.664   0.946
 1649SOL     OW 4970   0.859   2.818   0.861
 1649SOL    HW1 4971   0.913   2.749   0.909
 1649SOL    HW2 4972   0.827   2.887   0.927
 1650SOL     OW 4973   1.083   2.846   0.087
 1650SOL    HW1 4974   1.060   2.899   0.005
 1650SOL    HW2 4975   1.164   2.790   0.068
 1651SOL     OW 4976   1.861   3.431   0.851
 1651SOL    HW1 4977   1.790   3.419   0.781
 1651SOL    HW2 4978   1.862   3.352   0.911
 1652SOL     OW 4979   0.221   3.176   1.844
 1652SOL    HW1 4980   0.156   3.103   1.823
 1652SOL    HW2 4981   0.225   3.190   1.942
 1653SOL     OW 4982   0.079   3.102   0.653
 1653SOL    HW1 4983   0.078   3.055   0.741
 1653SOL    HW2 4984   0.161   3.074   0.602
 1654SOL     OW 4985   0.672   3.253   1.624
 1654SOL    HW1 4986   0.594   3.203   1.662
 1654SOL    HW2 4987   0.669   3.348   1.655
 1655SOL     OW 4988   1.824   2.054   1.227
 1655SOL    HW1 4989   1.820   1.964   1.271
 1655SOL    HW2 4990   1.827   2.043   1.128
 1656SOL     OW 4991   0.428   2.286   0.520
 1656SOL    HW1 4992   0.458   2.214   0.458
 1656SOL    HW2 4993   0.389   2.246   0.603
 1657SOL     OW 4994   1.705   3.349   1.104
 1657SOL    HW1 4995   1.612   3.324   1.077
 1657SOL    HW2 4996   1.731   3.299   1.186
 1658SOL     OW 4997   0.317   2.409   1.280
 1658SOL    HW1 4998   0.355   2.350   1.352
 1658SOL    HW2 4999   0.357   2.383   1.192
 1659SOL     OW 5000   0.812   3.448   0.687
 1659SOL    HW1 5001   0.844   3.458   0.593
 1659SOL    HW2 5002   0.733   3.386   0.689
 1660SOL     OW 5003   1.424   2.076   1.112
 1660SOL    HW1 5004   1.476   2.011   1.167
 1660SOL    HW2 5005   1.375   2.139   1.173
 1661SOL     OW 5006   1.001   1.896   1.154
 1661SOL    HW1 5007   0.938   1.824   1.123
 1661SOL    HW2 5008   1.094   1.860   1.154
 1662SOL     OW 5009   0.770   3.192   0.301
 1662SOL    HW1 5010   0.724   3.105   0.318
 1662SOL    HW2 5011   0.861   3.189   0.342
 1663SOL     OW 5012   0.618   3.429   1.284
 1663SOL    HW1 5013   0.613   3.511   1.341
 1663SOL    HW2 5014   0.707   3.426   1.239
 1664SOL     OW 5015   1.352   1.914   0.168
 1664SOL    HW1 5016   1.387   1.873   0.084
 1664SOL    HW2 5017   1.262   1.876   0.188
 1665SOL     OW 5018   1.300   2.315   0.691
 1665SOL    HW1 5019   1.241   2.395   0.695
 1665SOL    HW2 5020   1.315   2.280   0.784
 1666SOL     OW 5021   1.593   2.083   0.882
 1666SOL    HW1 5022   1.509   2.082   0.936
 1666SOL    HW2 5023   1.595   2.166   0.826
 1667SOL     OW 5024   0.039   2.939   0.300
 1667SOL    HW1 5025   0.138   2.928   0.291
 1667SOL    HW2 5026  -0.001   2.853   0.332
 1668SOL     OW 5027   0.875   3.508   0.337
 1668SOL    HW1 5028   0.798   3.473   0.283
 1668SOL    HW2 5029   0.843   3.579   0.399
 1669SOL     OW 5030   0.230   2.490   1.975
 1669SOL    HW1 5031   0.137   2.488   2.012
 1669SOL    HW2 5032   0.231   2.451   1.883
 1670SOL     OW 5033   0.225   2.137   2.858
 1670SOL    HW1 5034   0.260   2.120   2.950
 1670SOL    HW2 5035   0.137   2.092   2.846
 1671SOL     OW 5036   0.019   2.230   2.509
 1671SOL    HW1 5037  -0.063   2.273   2.548
 1671SOL    HW2 5038  -0.009   2.157   2.446
 1672SOL     OW 5039   0.569   3.137   3.027
 1672SOL    HW1 5040   0.476   3.130   2.990
 1672SOL    HW2 5041   0.580   3.226   3.071
 1673SOL     OW 5042   1.555   3.373   2.565
 1673SOL    HW1 5043   1.498   3.357   2.646
 1673SOL    HW2 5044   1.496   3.383   2.485
 1674SOL     OW 5045   1.135   2.565   2.579
 1674SOL    HW1 5046   1.192   2.643   2.554
 1674SOL    HW2 5047   1.075   2.591   2.655
 1675SOL     OW 5048   1.755   2.469   2.093
 1675SOL    HW1 5049   1.743   2.456   1.994
 1675SOL    HW2 5050   1.725   2.388   2.142
 1676SOL     OW 5051   0.768   3.006   2.885
 1676SOL    HW1 5052   0.690   3.023   2.945
 1676SOL    HW2 5053   0.802   3.093   2.849
 1677SOL     OW 5054   0.850   2.660   3.685
 1677SOL    HW1 5055   0.846   2.736   3.750
 1677SOL    HW2 5056   0.872   2.696   3.594
 1678SOL     OW 5057   0.685   2.874   2.527
 1678SOL    HW1 5058   0.754   2.858   2.597
 1678SOL    HW2 5059   0.612   2.931   2.565
 1679SOL     OW 5060   0.686   3.023   3.665
 1679SOL    HW1 5061   0.746   3.102   3.679
 1679SOL    HW2 5062   0.600   3.054   3.624
 1680SOL     OW 5063   0.335   3.297   2.923
 1680SOL    HW1 5064   0.257   3.266   2.870
 1680SOL    HW2 5065   0.393   3.355   2.866
 1681SOL     OW 5066   1.460   3.367   3.201
 1681SOL    HW1 5067   1.484   3.461   3.227
 1681SOL    HW2 5068   1.444   3.313   3.283
 1682SOL     OW 5069   0.438   2.254   3.361
 1682SOL    HW1 5070   0.520   2.198   3.370
 1682SOL    HW2 5071   0.357   2.196   3.365
 1683SOL     OW 5072   1.603   2.309   2.599
 1683SOL    HW1 5073   1.529   2.355   2.549
 1683SOL    HW2 5074   1.654   2.377   2.652
 1684SOL     OW 5075   0.231   3.575   2.345
 1684SOL    HW1 5076   0.265   3.652   2.399
 1684SOL    HW2 5077   0.275   3.575   2.255
 1685SOL     OW 5078   1.127   3.203   3.552
 1685SOL    HW1 5079   1.174   3.203   3.640
 1685SOL    HW2 5080   1.079   3.116   3.541
 1686SOL     OW 5081   0.230   3.296   2.400
 1686SOL    HW1 5082   0.204   3.392   2.400
 1686SOL    HW2 5083   0.159   3.242   2.445
 1687SOL     OW 5084   0.240   2.953   2.748
 1687SOL    HW1 5085   0.254   2.869   2.800
 1687SOL    HW2 5086   0.185   3.017   2.803
 1688SOL     OW 5087   0.620   3.648   3.301
 1688SOL    HW1 5088   0.528   3.631   3.336
 1688SOL    HW2 5089   0.648   3.740   3.327
 1689SOL     OW 5090   0.606   2.826   1.985
 1689SOL    HW1 5091   0.613   2.910   1.931
 1689SOL    HW2 5092   0.652   2.839   2.073
 1690SOL     OW 5093   1.594   1.976   3.342
 1690SOL    HW1 5094   1.576   2.043   3.270
 1690SOL    HW2 5095   1.591   2.022   3.431
 1691SOL     OW 5096   0.122   2.505   2.425
 1691SOL    HW1 5097   0.077   2.417   2.442
 1691SOL    HW2 5098   0.121   2.559   2.509
 1692SOL     OW 5099   1.842   3.629   2.221
 1692SOL    HW1 5100   1.896   3.600   2.301
 1692SOL    HW2 5101   1.872   3.719   2.192
 1693SOL     OW 5102   0.027   3.458   1.979
 1693SOL    HW1 5103   0.008   3.362   2.000
 1693SOL    HW2 5104  -0.006   3.516   2.054
 1694SOL     OW 5105   1.689   2.784   2.474
 1694SOL    HW1 5106   1.784   2.755   2.482
 1694SOL    HW2 5107   1.681   2.849   2.399
 1695SOL     OW 5108   1.641   2.970   2.294
 1695SOL    HW1 5109   1.727   2.972   2.242
 1695SOL    HW2 5110   1.655   3.017   2.382
 1696SOL     OW 5111   0.113   2.599   3.459
 1696SOL    HW1 5112   0.201   2.586   3.504
 1696SOL    HW2 5113   0.100   2.696   3.437
 1697SOL     OW 5114   0.613   3.227   2.588
 1697SOL    HW1 5115   0.564   3.140   2.597
 1697SOL    HW2 5116   0.590   3.270   2.501
 1698SOL     OW 5117   1.293   3.090   3.285
 1698SOL    HW1 5118   1.330   3.017   3.227
 1698SOL    HW2 5119   1.345   3.095   3.370
 1699SOL     OW 5120   0.809   1.866   2.364
 1699SOL    HW1 5121   0.849   1.957   2.355
 1699SOL    HW2 5122   0.709   1.874   2.370
 1700SOL     OW 5123   0.197   2.838   3.126
 1700SOL    HW1 5124   0.286   2.793   3.112
 1700SOL    HW2 5125   0.124   2.773   3.107
 1701SOL     OW 5126   1.525   2.861   2.052
 1701SOL    HW1 5127   1.462   2.785   2.065
 1701SOL    HW2 5128   1.573   2.879   2.138
 1702SOL     OW 5129   1.187   3.654   3.478
 1702SOL    HW1 5130   1.211   3.714   3.402
 1702SOL    HW2 5131   1.194   3.559   3.448
 1703SOL     OW 5132   0.317   2.113   3.663
 1703SOL    HW1 5133   0.388   2.184   3.669
 1703SOL    HW2 5134   0.229   2.152   3.691
 1704SOL     OW 5135   1.466   3.279   2.815
 1704SOL    HW1 5136   1.407   3.285   2.895
 1704SOL    HW2 5137   1.451   3.191   2.769
 1705SOL     OW 5138   1.667   3.576   2.434
 1705SOL    HW1 5139   1.626   3.553   2.346
 1705SOL    HW2 5140   1.649   3.502   2.499
 1706SOL     OW 5141   0.598   2.591   2.132
 1706SOL    HW1 5142   0.622   2.660   2.064
 1706SOL    HW2 5143   0.520   2.624   2.186
 1707SOL     OW 5144   1.281   2.207   2.806
 1707SOL    HW1 5145   1.195   2.157   2.793
 1707SOL    HW2 5146   1.343   2.153   2.862
 1708SOL     OW 5147   1.576   3.524   2.169
 1708SOL    HW1 5148   1.665   3.570   2.172
 1708SOL    HW2 5149   1.555   3.500   2.074
 1709SOL     OW 5150   0.807   2.467   3.327
 1709SOL    HW1 5151   0.760   2.464   3.416
 1709SOL    HW2 5152   0.756   2.412   3.261
 1710SOL     OW 5153   1.394   2.331   3.536
 1710SOL    HW1 5154   1.374   2.374   3.624
 1710SOL    HW2 5155   1.472   2.269   3.545
 1711SOL     OW 5156   0.973   2.752   3.434
 1711SOL    HW1 5157   1.019   2.668   3.405
 1711SOL    HW2 5158   0.917   2.786   3.359
 1712SOL     OW 5159   0.991   2.272   3.104
 1712SOL    HW1 5160   0.914   2.306   3.158
 1712SOL    HW2 5161   0.957   2.221   3.025
 1713SOL     OW 5162   1.041   2.563   2.291
 1713SOL    HW1 5163   1.067   2.559   2.387
 1713SOL    HW2 5164   0.956   2.512   2.277
 1714SOL     OW 5165   0.076   2.673   2.651
 1714SOL    HW1 5166   0.175   2.661   2.660
 1714SOL    HW2 5167   0.052   2.768   2.672
 1715SOL     OW 5168   0.130   3.683   3.433
 1715SOL    HW1 5169   0.120   3.668   3.532
 1715SOL    HW2 5170   0.044   3.719   3.397
 1716SOL     OW 5171   0.865   2.210   2.057
 1716SOL    HW1 5172   0.924   2.273   2.008
 1716SOL    HW2 5173   0.884   2.116   2.028
 1717SOL     OW 5174   1.719   2.447   3.693
 1717SOL    HW1 5175   1.693   2.536   3.657
 1717SOL    HW2 5176   1.717   2.379   3.620
 1718SOL     OW 5177   1.362   3.006   2.407
 1718SOL    HW1 5178   1.445   2.977   2.359
 1718SOL    HW2 5179   1.313   3.073   2.351
 1719SOL     OW 5180   0.550   2.058   2.747
 1719SOL    HW1 5181   0.545   2.053   2.847
 1719SOL    HW2 5182   0.552   2.154   2.718
 1720SOL     OW 5183   1.008   3.318   2.339
 1720SOL    HW1 5184   0.962   3.390   2.287
 1720SOL    HW2 5185   1.004   3.338   2.437
 1721SOL     OW 5186   0.351   3.663   2.715
 1721SOL    HW1 5187   0.401   3.577   2.721
 1721SOL    HW2 5188   0.416   3.740   2.712
 1722SOL     OW 5189   1.795   2.928   2.735
 1722SOL    HW1 5190   1.733   2.913   2.659
 1722SOL    HW2 5191   1.743   2.939   2.820
 1723SOL     OW 5192   1.227   3.412   3.368
 1723SOL    HW1 5193   1.233   3.335   3.432
 1723SOL    HW2 5194   1.175   3.386   3.288
 1724SOL     OW 5195   0.321   2.805   2.104
 1724SOL    HW1 5196   0.403   2.844   2.062
 1724SOL    HW2 5197   0.294   2.723   2.055
 1725SOL     OW 5198   1.458   2.597   2.590
 1725SOL    HW1 5199   1.453   2.532   2.665
 1725SOL    HW2 5200   1.538   2.656   2.603
 1726SOL     OW 5201   0.461   3.128   3.589
 1726SOL    HW1 5202   0.411   3.129   3.503
 1726SOL    HW2 5203   0.398   3.110   3.665
 1727SOL     OW 5204   1.111   3.638   2.099
 1727SOL    HW1 5205   1.051   3.576   2.149
 1727SOL    HW2 5206   1.142   3.594   2.014
 1728SOL     OW 5207   0.202   2.147   3.360
 1728SOL    HW1 5208   0.122   2.207   3.347
 1728SOL    HW2 5209   0.192   2.098   3.446
 1729SOL     OW 5210   1.632   3.239   1.943
 1729SOL    HW1 5211   1.600   3.333   1.933
 1729SOL    HW2 5212   1.556   3.176   1.931
 1730SOL     OW 5213   0.464   3.605   2.185
 1730SOL    HW1 5214   0.497   3.644   2.271
 1730SOL    HW2 5215   0.540   3.598   2.120
 1731SOL     OW 5216   1.400   1.969   2.288
 1731SOL    HW1 5217   1.376   1.932   2.198
 1731SOL    HW2 5218   1.499   1.985   2.292
 1732SOL     OW 5219   0.249   3.647   3.103
 1732SOL    HW1 5220   0.306   3.582   3.153
 1732SOL    HW2 5221   0.233   3.614   3.010
 1733SOL     OW 5222   0.940   3.560   2.766
 1733SOL    HW1 5223   1.020   3.503   2.787
 1733SOL    HW2 5224   0.891   3.520   2.689
 1734SOL     OW 5225   0.382   2.562   2.342
 1734SOL    HW1 5226   0.427   2.472   2.339
 1734SOL    HW2 5227   0.288   2.551   2.375
 1735SOL     OW 5228   1.547   2.084   3.591
 1735SOL    HW1 5229   1.542   2.121   3.683
 1735SOL    HW2 5230   1.475   2.015   3.579
 1736SOL     OW 5231   0.614   1.984   1.979
 1736SOL    HW1 5232   0.712   1.962   1.986
 1736SOL    HW2 5233   0.583   1.967   1.886
 1737SOL     OW 5234   0.781   2.126   3.611
 1737SOL    HW1 5235   0.848   2.065   3.654
 1737SOL    HW2 5236   0.708   2.145   3.676
 1738SOL     OW 5237   0.888   3.376   3.057
 1738SOL    HW1 5238   0.865   3.351   2.963
 1738SOL    HW2 5239   0.949   3.307   3.096
 1739SOL     OW 5240   1.351   2.452   3.295
 1739SOL    HW1 5241   1.379   2.409   3.380
 1739SOL    HW2 5242   1.376   2.548   3.296
 1740SOL     OW 5243   0.803   3.264   2.786
 1740SOL    HW1 5244   0.893   3.278   2.744
 1740SOL    HW2 5245   0.732   3.266   2.715
 1741SOL     OW 5246   0.922   2.365   2.761
 1741SOL    HW1 5247   0.897   2.356   2.665
 1741SOL    HW2 5248   0.970   2.283   2.792
 1742SOL     OW 5249   0.539   1.926   2.374
 1742SOL    HW1 5250   0.458   1.927   2.432
 1742SOL    HW2 5251   0.542   2.009   2.319
 1743SOL     OW 5252   1.434   3.050   1.903
 1743SOL    HW1 5253   1.466   2.974   1.960
 1743SOL    HW2 5254   1.342   3.077   1.933
 1744SOL     OW 5255   0.297   1.897   2.033
 1744SOL    HW1 5256   0.346   1.981   2.012
 1744SOL    HW2 5257   0.359   1.832   2.078
 1745SOL     OW 5258   0.935   2.098   2.342
 1745SOL    HW1 5259   0.887   2.139   2.264
 1745SOL    HW2 5260   1.034   2.096   2.323
 1746SOL     OW 5261   1.076   2.545   3.326
 1746SOL    HW1 5262   0.996   2.484   3.329
 1746SOL    HW2 5263   1.157   2.492   3.302
 1747SOL     OW 5264   1.227   3.432   2.655
 1747SOL    HW1 5265   1.248   3.506   2.590
 1747SOL    HW2 5266   1.295   3.432   2.728
 1748SOL     OW 5267   0.459   3.014   2.603
 1748SOL    HW1 5268   0.388   2.987   2.668
 1748SOL    HW2 5269   0.433   2.986   2.510
 1749SOL     OW 5270   1.271   3.659   2.453
 1749SOL    HW1 5271   1.315   3.723   2.389
 1749SOL    HW2 5272   1.221   3.711   2.523
 1750SOL     OW 5273   1.032   2.411   1.878
 1750SOL    HW1 5274   0.991   2.493   1.839
 1750SOL    HW2 5275   1.096   2.437   1.951
 1751SOL     OW 5276   0.078   2.418   3.248
 1751SOL    HW1 5277   0.170   2.417   3.207
 1751SOL    HW2 5278   0.072   2.492   3.315
 1752SOL     OW 5279   0.561   2.084   3.009
 1752SOL    HW1 5280   0.599   2.000   3.046
 1752SOL    HW2 5281   0.473   2.103   3.053
 1753SOL     OW 5282   0.866   2.316   2.504
 1753SOL    HW1 5283   0.834   2.388   2.442
 1753SOL    HW2 5284   0.890   2.235   2.451
 1754SOL     OW 5285   1.017   1.901   2.615
 1754SOL    HW1 5286   0.945   1.906   2.546
 1754SOL    HW2 5287   0.993   1.832   2.684
 1755SOL     OW 5288   1.429   3.035   2.729
 1755SOL    HW1 5289   1.374   2.951   2.722
 1755SOL    HW2 5290   1.455   3.064   2.637
 1756SOL     OW 5291   1.466   2.452   2.854
 1756SOL    HW1 5292   1.436   2.357   2.861
 1756SOL    HW2 5293   1.539   2.468   2.920
 1757SOL     OW 5294   1.857   2.695   2.239
 1757SOL    HW1 5295   1.899   2.631   2.303
 1757SOL    HW2 5296   1.819   2.644   2.161
 1758SOL     OW 5297   0.488   3.247   2.036
 1758SOL    HW1 5298   0.401   3.232   2.083
 1758SOL    HW2 5299   0.471   3.273   1.941
 1759SOL     OW 5300   1.664   3.142   2.519
 1759SOL    HW1 5301   1.763   3.150   2.533
 1759SOL    HW2 5302   1.619   3.226   2.550
 1760SOL     OW 5303   1.390   2.437   1.940
 1760SOL    HW1 5304   1.336   2.416   2.021
 1760SOL    HW2 5305   1.481   2.396   1.949
 1761SOL     OW 5306   0.527   2.118   2.190
 1761SOL    HW1 5307   0.554   2.059   2.115
 1761SOL    HW2 5308   0.527   2.213   2.159
 1762SOL     OW 5309   1.754   3.085   3.450
 1762SOL    HW1 5310   1.845   3.046   3.437
 1762SOL    HW2 5311   1.762   3.181   3.474
 1763SOL     OW 5312   1.064   3.209   3.202
 1763SOL    HW1 5313   0.984   3.186   3.257
 1763SOL    HW2 5314   1.147   3.183   3.251
 1764SOL     OW 5315   1.592   3.491   3.487
 1764SOL    HW1 5316   1.619   3.525   3.397
 1764SOL    HW2 5317   1.671   3.453   3.533
 1765SOL     OW 5318   1.111   3.057   2.962
 1765SOL    HW1 5319   1.071   3.101   3.043
 1765SOL    HW2 5320   1.070   3.094   2.879
 1766SOL     OW 5321   1.638   2.961   2.941
 1766SOL    HW1 5322   1.643   3.042   3.000
 1766SOL    HW2 5323   1.552   2.963   2.890
 1767SOL     OW 5324   0.915   1.951   3.264
 1767SOL    HW1 5325   0.940   1.931   3.169
 1767SOL    HW2 5326   0.987   2.007   3.306
 1768SOL     OW 5327   0.980   2.978   3.581
 1768SOL    HW1 5328   0.881   2.984   3.591
 1768SOL    HW2 5329   1.003   2.898   3.525
 1769SOL     OW 5330   0.705   2.912   2.230
 1769SOL    HW1 5331   0.691   2.919   2.329
 1769SOL    HW2 5332   0.789   2.861   2.212
 1770SOL     OW 5333   0.410   2.675   3.113
 1770SOL    HW1 5334   0.496   2.687   3.163
 1770SOL    HW2 5335   0.368   2.588   3.140
 1771SOL     OW 5336   1.274   2.248   3.124
 1771SOL    HW1 5337   1.295   2.322   3.188
 1771SOL    HW2 5338   1.185   2.265   3.081
 1772SOL     OW 5339   0.064   3.426   3.193
 1772SOL    HW1 5340   0.018   3.508   3.159
 1772SOL    HW2 5341   0.162   3.445   3.202
 1773SOL     OW 5342   0.367   2.962   2.363
 1773SOL    HW1 5343   0.360   3.045   2.307
 1773SOL    HW2 5344   0.371   2.882   2.303
 1774SOL     OW 5345   0.566   2.399   2.727
 1774SOL    HW1 5346   0.578   2.465   2.653
 1774SOL    HW2 5347   0.612   2.433   2.810
 1775SOL     OW 5348   1.252   3.210   2.250
 1775SOL    HW1 5349   1.302   3.287   2.290
 1775SOL    HW2 5350   1.157   3.212   2.282
 1776SOL     OW 5351   1.272   3.307   3.004
 1776SOL    HW1 5352   1.319   3.320   3.091
 1776SOL    HW2 5353   1.206   3.233   3.013
 1777SOL     OW 5354   1.582   2.501   2.334
 1777SOL    HW1 5355   1.551   2.562   2.407
 1777SOL    HW2 5356   1.632   2.553   2.265
 1778SOL     OW 5357   0.354   3.372   3.191
 1778SOL    HW1 5358   0.333   3.328   3.104
 1778SOL    HW2 5359   0.451   3.398   3.194
 1779SOL     OW 5360   0.402   2.613   3.460
 1779SOL    HW1 5361   0.470   2.668   3.413
 1779SOL    HW2 5362   0.442   2.525   3.487
 1780SOL     OW 5363   1.587   2.641   3.532
 1780SOL    HW1 5364   1.495   2.679   3.527
 1780SOL    HW2 5365   1.647   2.688   3.467
 1781SOL     OW 5366   1.013   1.967   3.632
 1781SOL    HW1 5367   1.019   2.052   3.580
 1781SOL    HW2 5368   1.045   1.891   3.575
 1782SOL     OW 5369   0.504   1.912   3.602
 1782SOL    HW1 5370   0.462   1.855   3.532
 1782SOL    HW2 5371   0.438   1.981   3.634
 1783SOL     OW 5372   0.573   2.732   2.891
 1783SOL    HW1 5373   0.617   2.821   2.882
 1783SOL    HW2 5374   0.510   2.732   2.968
 1784SOL     OW 5375   1.360   2.724   2.907
 1784SOL    HW1 5376   1.285   2.724   2.841
 1784SOL    HW2 5377   1.397   2.632   2.916
 1785SOL     OW 5378   1.209   2.387   2.137
 1785SOL    HW1 5379   1.222   2.303   2.191
 1785SOL    HW2 5380   1.180   2.461   2.197
 1786SOL     OW 5381   0.307   2.075   3.093
 1786SOL    HW1 5382   0.284   2.112   3.183
 1786SOL    HW2 5383   0.277   1.980   3.087
 1787SOL     OW 5384   0.037   3.172   3.144
 1787SOL    HW1 5385   0.090   3.123   3.212
 1787SOL    HW2 5386   0.059   3.270   3.149
 1788SOL     OW 5387   0.732   2.496   2.926
 1788SOL    HW1 5388   0.791   2.470   2.850
 1788SOL    HW2 5389   0.704   2.592   2.915
 1789SOL     OW 5390   1.728   2.797   3.716
 1789SOL    HW1 5391   1.682   2.790   3.627
 1789SOL    HW2 5392   1.666   2.841   3.782
 1790SOL     OW 5393   0.307   1.925   2.480
 1790SOL    HW1 5394   0.296   2.019   2.513
 1790SOL    HW2 5395   0.302   1.862   2.557
 1791SOL     OW 5396   1.622   2.229   2.236
 1791SOL    HW1 5397   1.624   2.153   2.300
 1791SOL    HW2 5398   1.574   2.306   2.276
 1792SOL     OW 5399   1.023   2.628   2.828
 1792SOL    HW1 5400   1.038   2.649   2.924
 1792SOL    HW2 5401   0.993   2.533   2.819
 1793SOL     OW 5402   0.980   3.435   3.562
 1793SOL    HW1 5403   0.960   3.479   3.474
 1793SOL    HW2 5404   1.019   3.344   3.546
 1794SOL     OW 5405   1.859   3.380   3.467
 1794SOL    HW1 5406   1.873   3.407   3.372
 1794SOL    HW2 5407   1.942   3.402   3.520
 1795SOL     OW 5408   0.350   2.760   3.666
 1795SOL    HW1 5409   0.426   2.804   3.714
 1795SOL    HW2 5410   0.385   2.713   3.584
 1796SOL     OW 5411   1.540   2.136   1.987
 1796SOL    HW1 5412   1.479   2.061   2.010
 1796SOL    HW2 5413   1.562   2.188   2.070
 1797SOL     OW 5414   1.303   2.700   1.904
 1797SOL    HW1 5415   1.337   2.607   1.919
 1797SOL    HW2 5416   1.321   2.727   1.809
 1798SOL     OW 5417   1.068   3.195   2.711
 1798SOL    HW1 5418   1.075   3.111   2.656
 1798SOL    HW2 5419   1.130   3.264   2.675
 1799SOL     OW 5420   0.319   2.672   2.811
 1799SOL    HW1 5421   0.412   2.708   2.816
 1799SOL    HW2 5422   0.313   2.587   2.863
 1800SOL     OW 5423   0.339   2.371   2.868
 1800SOL    HW1 5424   0.287   2.288   2.851
 1800SOL    HW2 5425   0.416   2.376   2.804
 1801SOL     OW 5426   1.138   2.242   3.540
 1801SOL    HW1 5427   1.093   2.305   3.604
 1801SOL    HW2 5428   1.231   2.273   3.523
 1802SOL     OW 5429   1.160   2.069   3.339
 1802SOL    HW1 5430   1.160   2.133   3.416
 1802SOL    HW2 5431   1.188   2.117   3.256
 1803SOL     OW 5432   0.008   3.188   2.062
 1803SOL    HW1 5433  -0.085   3.209   2.031
 1803SOL    HW2 5434   0.018   3.089   2.075
 1804SOL     OW 5435   0.088   3.663   2.789
 1804SOL    HW1 5436   0.046   3.577   2.762
 1804SOL    HW2 5437   0.182   3.666   2.755
 1805SOL     OW 5438   0.504   3.430   2.772
 1805SOL    HW1 5439   0.570   3.504   2.781
 1805SOL    HW2 5440   0.548   3.351   2.730
 1806SOL     OW 5441   1.002   2.658   3.100
 1806SOL    HW1 5442   1.043   2.626   3.186
 1806SOL    HW2 5443   0.906   2.631   3.097
 1807SOL     OW 5444   0.040   2.406   2.976
 1807SOL    HW1 5445   0.125   2.373   2.935
 1807SOL    HW2 5446   0.053   2.421   3.074
 1808SOL     OW 5447   0.189   2.382   3.584
 1808SOL    HW1 5448   0.248   2.342   3.514
 1808SOL    HW2 5449   0.131   2.453   3.543
 1809SOL     OW 5450   1.369   2.812   3.522
 1809SOL    HW1 5451   1.408   2.901   3.542
 1809SOL    HW2 5452   1.379   2.792   3.425
 1810SOL     OW 5453   0.815   2.434   2.187
 1810SOL    HW1 5454   0.822   2.345   2.141
 1810SOL    HW2 5455   0.721   2.468   2.179
 1811SOL     OW 5456   1.657   2.466   3.068
 1811SOL    HW1 5457   1.619   2.397   3.130
 1811SOL    HW2 5458   1.739   2.430   3.024
 1812SOL     OW 5459   0.252   3.426   3.606
 1812SOL    HW1 5460   0.222   3.483   3.682
 1812SOL    HW2 5461   0.245   3.329   3.632
 1813SOL     OW 5462   0.671   2.326   3.131
 1813SOL    HW1 5463   0.637   2.237   3.101
 1813SOL    HW2 5464   0.697   2.380   3.051
 1814SOL     OW 5465   0.930   3.540   3.327
 1814SOL    HW1 5466   0.906   3.522   3.232
 1814SOL    HW2 5467   0.960   3.634   3.337
 1815SOL     OW 5468   0.473   2.362   2.053
 1815SOL    HW1 5469   0.534   2.442   2.057
 1815SOL    HW2 5470   0.378   2.393   2.060
 1816SOL     OW 5471   0.159   2.999   3.328
 1816SOL    HW1 5472   0.181   2.938   3.404
 1816SOL    HW2 5473   0.169   2.950   3.242
 1817SOL     OW 5474   1.347   2.921   3.096
 1817SOL    HW1 5475   1.371   2.858   3.022
 1817SOL    HW2 5476   1.257   2.961   3.078
 1818SOL     OW 5477   1.302   2.717   2.171
 1818SOL    HW1 5478   1.216   2.686   2.213
 1818SOL    HW2 5479   1.298   2.703   2.072
 1819SOL     OW 5480   1.759   3.609   3.016
 1819SOL    HW1 5481   1.820   3.639   2.943
 1819SOL    HW2 5482   1.721   3.520   2.994
 1820SOL     OW 5483   1.252   3.593   2.990
 1820SOL    HW1 5484   1.336   3.598   2.936
 1820SOL    HW2 5485   1.229   3.497   3.008
 1821SOL     OW 5486   0.083   3.120   2.884
 1821SOL    HW1 5487   0.078   3.119   2.984
 1821SOL    HW2 5488   0.000   3.079   2.846
 1822SOL     OW 5489   0.688   3.524   3.578
 1822SOL    HW1 5490   0.632   3.605   3.587
 1822SOL    HW2 5491   0.740   3.528   3.492
 1823SOL     OW 5492   1.726   1.997   2.385
 1823SOL    HW1 5493   1.799   1.980   2.318
 1823SOL    HW2 5494   1.695   1.910   2.423
 1824SOL     OW 5495   1.388   3.435   2.339
 1824SOL    HW1 5496   1.455   3.447   2.265
 1824SOL    HW2 5497   1.348   3.524   2.362
 1825SOL     OW 5498   0.130   3.656   3.713
 1825SOL    HW1 5499   0.089   3.582   3.766
 1825SOL    HW2 5500   0.194   3.707   3.771
 1826SOL     OW 5501   1.280   2.789   2.534
 1826SOL    HW1 5502   1.340   2.708   2.536
 1826SOL    HW2 5503   1.320   2.858   2.474
 1827SOL     OW 5504   0.830   3.135   3.284
 1827SOL    HW1 5505   0.825   3.168   3.379
 1827SOL    HW2 5506   0.744   3.154   3.238
 1828SOL     OW 5507   0.672   3.478   2.016
 1828SOL    HW1 5508   0.681   3.488   1.917
 1828SOL    HW2 5509   0.632   3.389   2.037
 1829SOL     OW 5510   1.650   3.582   3.256
 1829SOL    HW1 5511   1.703   3.592   3.172
 1829SOL    HW2 5512   1.623   3.672   3.290
 1830SOL     OW 5513   1.841   2.037   2.825
 1830SOL    HW1 5514   1.880   1.952   2.789
 1830SOL    HW2 5515   1.743   2.039   2.806
 1831SOL     OW 5516   0.263   2.188   2.582
 1831SOL    HW1 5517   0.184   2.239   2.548
 1831SOL    HW2 5518   0.254   2.173   2.680
 1832SOL     OW 5519   1.194   3.474   1.893
 1832SOL    HW1 5520   1.200   3.381   1.930
 1832SOL    HW2 5521   1.135   3.474   1.813
 1833SOL     OW 5522   0.822   2.864   3.234
 1833SOL    HW1 5523   0.862   2.863   3.142
 1833SOL    HW2 5524   0.832   2.956   3.274
 1834SOL     OW 5525   0.916   2.772   2.153
 1834SOL    HW1 5526   0.979   2.810   2.085
 1834SOL    HW2 5527   0.956   2.689   2.192
 1835SOL     OW 5528   1.504   3.469   1.906
 1835SOL    HW1 5529   1.412   3.506   1.913
 1835SOL    HW2 5530   1.542   3.489   1.816
 1836SOL     OW 5531   0.372   3.150   3.352
 1836SOL    HW1 5532   0.359   3.243   3.318
 1836SOL    HW2 5533   0.288   3.098   3.339
 1837SOL     OW 5534   1.614   3.154   3.151
 1837SOL    HW1 5535   1.674   3.157   3.231
 1837SOL    HW2 5536   1.539   3.218   3.164
 1838SOL     OW 5537   1.039   2.960   2.558
 1838SOL    HW1 5538   0.969   2.913   2.612
 1838SOL    HW2 5539   1.098   2.892   2.515
 1839SOL     OW 5540   1.014   2.098   2.833
 1839SOL    HW1 5541   1.006   2.062   2.740
 1839SOL    HW2 5542   1.012   2.022   2.898
 1840SOL     OW 5543   0.590   3.349   2.353
 1840SOL    HW1 5544   0.632   3.291   2.283
 1840SOL    HW2 5545   0.546   3.428   2.309
 1841SOL     OW 5546   1.709   2.247   3.243
 1841SOL    HW1 5547   1.782   2.316   3.247
 1841SOL    HW2 5548   1.737   2.172   3.184
 1842SOL     OW 5549   0.255   3.210   2.152
 1842SOL    HW1 5550   0.159   3.211   2.125
 1842SOL    HW2 5551   0.267   3.263   2.236
 1843SOL     OW 5552   0.105   2.875   3.588
 1843SOL    HW1 5553   0.028   2.842   3.642
 1843SOL    HW2 5554   0.190   2.845   3.630
 1844SOL     OW 5555   0.672   2.065   3.351
 1844SOL    HW1 5556   0.762   2.049   3.311
 1844SOL    HW2 5557   0.680   2.070   3.450
 1845SOL     OW 5558   0.075   2.207   1.895
 1845SOL    HW1 5559  -0.017   2.179   1.866
 1845SOL    HW2 5560   0.106   2.284   1.839
 1846SOL     OW 5561   1.440   2.718   3.260
 1846SOL    HW1 5562   1.383   2.770   3.197
 1846SOL    HW2 5563   1.536   2.730   3.236
 1847SOL     OW 5564   0.072   2.028   2.180
 1847SOL    HW1 5565   0.055   2.111   2.126
 1847SOL    HW2 5566   0.162   1.991   2.158
 1848SOL     OW 5567   1.183   3.197   1.981
 1848SOL    HW1 5568   1.084   3.186   1.983
 1848SOL    HW2 5569   1.217   3.212   2.074
 1849SOL     OW 5570   0.613   2.704   3.293
 1849SOL    HW1 5571   0.669   2.785   3.276
 1849SOL    HW2 5572   0.672   2.624   3.296
 1850SOL     OW 5573   1.493   3.629   2.821
 1850SOL    HW1 5574   1.526   3.693   2.752
 1850SOL    HW2 5575   1.559   3.623   2.896
 1851SOL     OW 5576   0.716   2.427   3.570
 1851SOL    HW1 5577   0.735   2.492   3.644
 1851SOL    HW2 5578   0.776   2.347   3.579
 1852SOL     OW 5579   1.450   3.082   3.495
 1852SOL    HW1 5580   1.441   3.072   3.594
 1852SOL    HW2 5581   1.546   3.075   3.469
 1853SOL     OW 5582   0.390   3.603   3.422
 1853SOL    HW1 5583   0.299   3.644   3.420
 1853SOL    HW2 5584   0.383   3.509   3.454
 1854SOL     OW 5585   1.674   2.745   3.116
 1854SOL    HW1 5586   1.647   2.656   3.079
 1854SOL    HW2 5587   1.675   2.813   3.043
 1855SOL     OW 5588   1.225   2.187   2.311
 1855SOL    HW1 5589   1.290   2.113   2.300
 1855SOL    HW2 5590   1.245   2.237   2.395
 1856SOL     OW 5591   0.594   2.607   2.514
 1856SOL    HW1 5592   0.644   2.692   2.495
 1856SOL    HW2 5593   0.506   2.609   2.466
 1857SOL     OW 5594   1.777   2.204   3.504
 1857SOL    HW1 5595   1.760   2.235   3.410
 1857SOL    HW2 5596   1.693   2.167   3.542
 1858SOL     OW 5597   1.730   2.796   3.379
 1858SOL    HW1 5598   1.768   2.887   3.394
 1858SOL    HW2 5599   1.722   2.779   3.280
 1859SOL     OW 5600   0.859   3.236   1.878
 1859SOL    HW1 5601   0.813   3.251   1.966
 1859SOL    HW2 5602   0.903   3.321   1.848
 1860SOL     OW 5603   0.661   3.652   2.815
 1860SOL    HW1 5604   0.615   3.740   2.802
 1860SOL    HW2 5605   0.760   3.664   2.808
 1861SOL     OW 5606   0.859   2.818   2.723
 1861SOL    HW1 5607   0.913   2.749   2.771
 1861SOL    HW2 5608   0.827   2.887   2.789
 1862SOL     OW 5609   1.083   2.846   1.949
 1862SOL    HW1 5610   1.060   2.899   1.867
 1862SOL    HW2 5611   1.164   2.790   1.930
 1863SOL     OW 5612   1.861   3.431   2.713
 1863SOL    HW1 5613   1.790   3.419   2.643
 1863SOL    HW2 5614   1.862   3.352   2.773
 1864SOL     OW 5615   0.221   3.176   3.706
 1864SOL    HW1 5616   0.156   3.103   3.685
 1864SOL    HW2 5617   0.225   3.190   3.804
 1865SOL     OW 5618   0.079   3.102   2.515
 1865SOL    HW1 5619   0.078   3.055   2.603
 1865SOL    HW2 5620   0.161   3.074   2.464
 1866SOL     OW 5621   0.672   3.253   3.486
 1866SOL    HW1 5622   0.594   3.203   3.524
 1866SOL    HW2 5623   0.669   3.348   3.517
 1867SOL     OW 5624   1.824   2.054   3.089
 1867SOL    HW1 5625   1.820   1.964   3.133
 1867SOL    HW2 5626   1.827   2.043   2.990
 1868SOL     OW 5627   0.428   2.286   2.382
 1868SOL    HW1 5628   0.458   2.214   2.320
 1868SOL    HW2 5629   0.389   2.246   2.465
 1869SOL     OW 5630   1.705   3.349   2.966
 1869SOL    HW1 5631   1.612   3.324   2.939
 1869SOL    HW2 5632   1.731   3.299   3.048
 1870SOL     OW 5633   0.317   2.409   3.142
 1870SOL    HW1 5634   0.355   2.350   3.214
 1870SOL    HW2 5635   0.357   2.383   3.054
 1871SOL     OW 5636   0.812   3.448   2.549
 1871SOL    HW1 5637   0.844   3.458   2.455
 1871SOL    HW2 5638   0.733   3.386   2.551
 1872SOL     OW 5639   1.424   2.076   2.974
 1872SOL    HW1 5640   1.476   2.011   3.029
 1872SOL    HW2 5641   1.375   2.139   3.035
 1873SOL     OW 5642   1.001   1.896   3.016
 1873SOL    HW1 5643   0.938   1.824   2.985
 1873SOL    HW2 5644   1.094   1.860   3.016
 1874SOL     OW 5645   0.770   3.192   2.163
 1874SOL    HW1 5646   0.724   3.105   2.180
 1874SOL    HW2 5647   0.861   3.189   2.204
 1875SOL     OW 5648   0.618   3.429   3.146
 1875SOL    HW1 5649   0.613   3.511   3.203
 1875SOL    HW2 5650   0.707   3.426   3.101
 1876SOL     OW 5651   1.352   1.914   2.030
 1876SOL    HW1 5652   1.387   1.873   1.946
 1876SOL    HW2 5653   1.262   1.876   2.050
 1877SOL     OW 5654   1.300   2.315   2.553
 1877SOL    HW1 5655   1.241   2.395   2.557
 1877SOL    HW2 5656   1.315   2.280   2.646
 1878SOL     OW 5657   1.593   2.083   2.744
 1878SOL    HW1 5658   1.509   2.082   2.798
 1878SOL    HW2 5659   1.595   2.166   2.688
 1879SOL     OW 5660   0.039   2.939   2.162
 1879SOL    HW1 5661   0.138   2.928   2.153
 1879SOL    HW2 5662  -0.001   2.853   2.194
 1880SOL     OW 5663   0.875   3.508   2.199
 1880SOL    HW1 5664   0.798   3.473   2.145
 1880SOL    HW2 5665   0.843   3.579   2.261
 1881SOL     OW 5666   0.230   2.490   3.837
 1881SOL    HW1 5667   0.137   2.488   3.874
 1881SOL    HW2 5668   0.231   2.451   3.745
 1882SOL     OW 5669   0.225   2.137   4.720
 1882SOL    HW1 5670   0.260   2.120   4.812
 1882SOL    HW2 5671   0.137   2.092   4.708
 1883SOL     OW 5672   0.019   2.230   4.371
 1883SOL    HW1 5673  -0.063   2.273   4.410
 1883SOL    HW2 5674  -0.009   2.157   4.308
 1884SOL     OW 5675   0.569   3.137   4.889
 1884SOL    HW1 5676   0.476   3.130   4.852
 1884SOL    HW2 5677   0.580   3.226   4.933
 1885SOL     OW 5678   1.555   3.373   4.427
 1885SOL    HW1 5679   1.498   3.357   4.508
 1885SOL    HW2 5680   1.496   3.383   4.347
 1886SOL     OW 5681   1.135   2.565   4.441
 1886SOL    HW1 5682   1.192   2.643   4.416
 1886SOL    HW2 5683   1.075   2.591   4.517
 1887SOL     OW 5684   1.755   2.469   3.955
 1887SOL    HW1 5685   1.743   2.456   3.856
 1887SOL    HW2 5686   1.725   2.388   4.004
 1888SOL     OW 5687   0.768   3.006   4.747
 1888SOL    HW1 5688   0.690   3.023   4.807
 1888SOL    HW2 5689   0.802   3.093   4.711
 1889SOL     OW 5690   0.850   2.660   5.547
 1889SOL    HW1 5691   0.846   2.736   5.612
 1889SOL    HW2 5692   0.872   2.696   5.456
 1890SOL     OW 5693   0.685   2.874   4.389
 1890SOL    HW1 5694   0.754   2.858   4.459
 1890SOL    HW2 5695   0.612   2.931   4.427
 1891SOL     OW 5696   0.686   3.023   5.527
 1891SOL    HW1 5697   0.746   3.102   5.541
 1891SOL    HW2 5698   0.600   3.054   5.486
 1892SOL     OW 5699   0.335   3.297   4.785
 1892SOL    HW1 5700   0.257   3.266   4.732
 1892SOL    HW2 5701   0.393   3.355   4.728
 1893SOL     OW 5702   1.460   3.367   5.063
 1893SOL    HW1 5703   1.484   3.461   5.089
 1893SOL    HW2 5704   1.444   3.313   5.145
 1894SOL     OW 5705   0.438   2.254   5.223
 1894SOL    HW1 5706   0.520   2.198   5.232
 1894SOL    HW2 5707   0.357   2.196   5.227
 1895SOL     OW 5708   1.603   2.309   4.461
 1895SOL    HW1 5709   1.529   2.355   4.411
 1895SOL    HW2 5710   1.654   2.377   4.514
 1896SOL     OW 5711   0.231   3.575   4.207
 1896SOL    HW1 5712   0.265   3.652   4.261
 1896SOL    HW2 5713   0.275   3.575   4.117
 1897SOL     OW 5714   1.127   3.203   5.414
 1897SOL    HW1 5715   1.174   3.203   5.502
 1897SOL    HW2 5716   1.079   3.116   5.403
 1898SOL     OW 5717   0.230   3.296   4.262
 1898SOL    HW1 5718   0.204   3.392   4.262
 1898SOL    HW2 5719   0.159   3.242   4.307
 1899SOL     OW 5720   0.240   2.953   4.610
 1899SOL    HW1 5721   0.254   2.869   4.662
 1899SOL    HW2 5722   0.185   3.017   4.665
 1900SOL     OW 5723   0.620   3.648   5.163
 1900SOL    HW1 5724   0.528   3.631   5.198
 1900SOL    HW2 5725   0.648   3.740   5.189
 1901SOL     OW 5726   0.606   2.826   3.847
 1901SOL    HW1 5727   0.613   2.910   3.793
 1901SOL    HW2 5728   0.652   2.839   3.935
 1902SOL     OW 5729   1.594   1.976   5.204
 1902SOL    HW1 5730   1.576   2.043   5.132
 1902SOL    HW2 5731   1.591   2.022   5.293
 1903SOL     OW 5732   0.122   2.505   4.287
 1903SOL    HW1 5733   0.077   2.417   4.304
 1903SOL    HW2 5734   0.121   2.559   4.371
 1904SOL     OW 5735   1.842   3.629   4.083
 1904SOL    HW1 5736   1.896   3.600   4.163
 1904SOL    HW2 5737   1.872   3.719   4.054
 1905SOL     OW 5738   0.027   3.458   3.841
 1905SOL    HW1 5739   0.008   3.362   3.862
 1905SOL    HW2 5740  -0.006   3.516   3.916
 1906SOL     OW 5741   1.689   2.784   4.336
 1906SOL    HW1 5742   1.784   2.755   4.344
 1906SOL    HW2 5743   1.681   2.849   4.261
 1907SOL     OW 5744   1.641   2.970   4.156
 1907SOL    HW1 5745   1.727   2.972   4.104
 1907SOL    HW2 5746   1.655   3.017   4.244
 1908SOL     OW 5747   0.113   2.599   5.321
 1908SOL    HW1 5748   0.201   2.586   5.366
 1908SOL    HW2 5749   0.100   2.696   5.299
 1909SOL     OW 5750   0.613   3.227   4.450
 1909SOL    HW1 5751   0.564   3.140   4.459
 1909SOL    HW2 5752   0.590   3.270   4.363
 1910SOL     OW 5753   1.293   3.090   5.147
 1910SOL    HW1 5754   1.330   3.017   5.089
 1910SOL    HW2 5755   1.345   3.095   5.232
 1911SOL     OW 5756   0.809   1.866   4.226
 1911SOL    HW1 5757   0.849   1.957   4.217
 1911SOL    HW2 5758   0.709   1.874   4.232
 1912SOL     OW 5759   0.197   2.838   4.988
 1912SOL    HW1 5760   0.286   2.793   4.974
 1912SOL    HW2 5761   0.124   2.773   4.969
 1913SOL     OW 5762   1.525   2.861   3.914
 1913SOL    HW1 5763   1.462   2.785   3.927
 1913SOL    HW2 5764   1.573   2.879   4.000
 1914SOL     OW 5765   1.187   3.654   5.340
 1914SOL    HW1 5766   1.211   3.714   5.264
 1914SOL    HW2 5767   1.194   3.559   5.310
 1915SOL     OW 5768   0.317   2.113   5.525
 1915SOL    HW1 5769   0.388   2.184   5.531
 1915SOL    HW2 5770   0.229   2.152   5.553
 1916SOL     OW 5771   1.466   3.279   4.677
 1916SOL    HW1 5772   1.407   3.285   4.757
 1916SOL    HW2 5773   1.451   3.191   4.631
 1917SOL     OW 5774   1.667   3.576   4.296
 1917SOL    HW1 5775   1.626   3.553   4.208
 1917SOL    HW2 5776   1.649   3.502   4.361
 1918SOL     OW 5777   0.598   2.591   3.994
 1918SOL    HW1 5778   0.622   2.660   3.926
 1918SOL    HW2 5779   0.520   2.624   4.048
 1919SOL     OW 5780   1.281   2.207   4.668
 1919SOL    HW1 5781   1.195   2.157   4.655
 1919SOL    HW2 5782   1.343   2.153   4.724
 1920SOL     OW 5783   1.576   3.524   4.031
 1920SOL    HW1 5784   1.665   3.570   4.034
 1920SOL    HW2 5785   1.555   3.500   3.936
 1921SOL     OW 5786   0.807   2.467   5.189
 1921SOL    HW1 5787   0.760   2.464   5.278
 1921SOL    HW2 5788   0.756   2.412   5.123
 1922SOL     OW 5789   1.394   2.331   5.398
 1922SOL    HW1 5790   1.374   2.374   5.486
 1922SOL    HW2 5791   1.472   2.269   5.407
 1923SOL     OW 5792   0.973   2.752   5.296
 1923SOL    HW1 5793   1.019   2.668   5.267
 1923SOL    HW2 5794   0.917   2.786   5.221
 1924SOL     OW 5795   0.991   2.272   4.966
 1924SOL    HW1 5796   0.914   2.306   5.020
 1924SOL    HW2 5797   0.957   2.221   4.887
 1925SOL     OW 5798   1.041   2.563   4.153
 1925SOL    HW1 5799   1.067   2.559   4.249
 1925SOL    HW2 5800   0.956   2.512   4.139
 1926SOL     OW 5801   0.076   2.673   4.513
 1926SOL    HW1 5802   0.175   2.661   4.522
 1926SOL    HW2 5803   0.052   2.768   4.534
 1927SOL     OW 5804   0.130   3.683   5.295
 1927SOL    HW1 5805   0.120   3.668   5.394
 1927SOL    HW2 5806   0.044   3.719   5.259
 1928SOL     OW 5807   0.865   2.210   3.919
 1928SOL    HW1 5808   0.924   2.273   3.870
 1928SOL    HW2 5809   0.884   2.116   3.890
 1929SOL     OW 5810   1.719   2.447   5.555
 1929SOL    HW1 5811   1.693   2.536   5.519
 1929SOL    HW2 5812   1.717   2.379   5.482
 1930SOL     OW 5813   1.362   3.006   4.269
 1930SOL    HW1 5814   1.445   2.977   4.221
 1930SOL    HW2 5815   1.313   3.073   4.213
 1931SOL     OW 5816   0.550   2.058   4.609
 1931SOL    HW1 5817   0.545   2.053   4.709
 1931SOL    HW2 5818   0.552   2.154   4.580
 1932SOL     OW 5819   1.008   3.318   4.201
 1932SOL    HW1 5820   0.962   3.390   4.149
 1932SOL    HW2 5821   1.004   3.338   4.299
 1933SOL     OW 5822   0.351   3.663   4.577
 1933SOL    HW1 5823   0.401   3.577   4.583
 1933SOL    HW2 5824   0.416   3.740   4.574
 1934SOL     OW 5825   1.795   2.928   4.597
 1934SOL    HW1 5826   1.733   2.913   4.521
 1934SOL    HW2 5827   1.743   2.939   4.682
 1935SOL     OW 5828   1.227   3.412   5.230
 1935SOL    HW1 5829   1.233   3.335   5.294
 1935SOL    HW2 5830   1.175   3.386   5.150
 1936SOL     OW 5831   0.321   2.805   3.966
 1936SOL    HW1 5832   0.403   2.844   3.924
 1936SOL    HW2 5833   0.294   2.723   3.917
 1937SOL     OW 5834   1.458   2.597   4.452
 1937SOL    HW1 5835   1.453   2.532   4.527
 1937SOL    HW2 5836   1.538   2.656   4.465
 1938SOL     OW 5837   0.461   3.128   5.451
 1938SOL    HW1 5838   0.411   3.129   5.365
 1938SOL    HW2 5839   0.398   3.110   5.527
 1939SOL     OW 5840   1.111   3.638   3.961
 1939SOL    HW1 5841   1.051   3.576   4.011
 1939SOL    HW2 5842   1.142   3.594   3.876
 1940SOL     OW 5843   0.202   2.147   5.222
 1940SOL    HW1 5844   0.122   2.207   5.209
 1940SOL    HW2 5845   0.192   2.098   5.308
 1941SOL     OW 5846   1.632   3.239   3.805
 1941SOL    HW1 5847   1.600   3.333   3.795
 1941SOL    HW2 5848   1.556   3.176   3.793
 1942SOL     OW 5849   0.464   3.605   4.047
 1942SOL    HW1 5850   0.497   3.644   4.133
 1942SOL    HW2 5851   0.540   3.598   3.982
 1943SOL     OW 5852   1.400   1.969   4.150
 1943SOL    HW1 5853   1.376   1.932   4.060
 1943SOL    HW2 5854   1.499   1.985   4.154
 1944SOL     OW 5855   0.249   3.647   4.965
 1944SOL    HW1 5856   0.306   3.582   5.015
 1944SOL    HW2 5857   0.233   3.614   4.872
 1945SOL     OW 5858   0.940   3.560   4.628
 1945SOL    HW1 5859   1.020   3.503   4.649
 1945SOL    HW2 5860   0.891   3.520   4.551
 1946SOL     OW 5861   0.382   2.562   4.204
 1946SOL    HW1 5862   0.427   2.472   4.201
 1946SOL    HW2 5863   0.288   2.551   4.237
 1947SOL     OW 5864   1.547   2.084   5.453
 1947SOL    HW1 5865   1.542   2.121   5.545
 1947SOL    HW2 5866   1.475   2.015   5.441
 1948SOL     OW 5867   0.614   1.984   3.841
 1948SOL    HW1 5868   0.712   1.962   3.848
 1948SOL    HW2 5869   0.583   1.967   3.748
 1949SOL     OW 5870   0.781   2.126   5.473
 1949SOL    HW1 5871   0.848   2.065   5.516
 1949SOL    HW2 5872   0.708   2.145   5.538
 1950SOL     OW 5873   0.888   3.376   4.919
 1950SOL    HW1 5874   0.865   3.351   4.825
 1950SOL    HW2 5875   0.949   3.307   4.958
 1951SOL     OW 5876   1.351   2.452   5.157
 1951SOL    HW1 5877   1.379   2.409   5.242
 1951SOL    HW2 5878   1.376   2.548   5.158
 1952SOL     OW 5879   0.803   3.264   4.648
 1952SOL    HW1 5880   0.893   3.278   4.606
 1952SOL    HW2 5881   0.732   3.266   4.577
 1953SOL     OW 5882   0.922   2.365   4.623
 1953SOL    HW1 5883   0.897   2.356   4.527
 1953SOL    HW2 5884   0.970   2.283   4.654
 1954SOL     OW 5885   0.539   1.926   4.236
 1954SOL    HW1 5886   0.458   1.927   4.294
 1954SOL    HW2 5887   0.542   2.009   4.181
 1955SOL     OW 5888   1.434   3.050   3.765
 1955SOL    HW1 5889   1.466   2.974   3.822
 1955SOL    HW2 5890   1.342   3.077   3.795
 1956SOL     OW 5891   0.297   1.897   3.895
 1956SOL    HW1 5892   0.346   1.981   3.874
 1956SOL    HW2 5893   0.359   1.832   3.940
 1957SOL     OW 5894   0.935   2.098   4.204
 1957SOL    HW1 5895   0.887   2.139   4.126
 1957SOL    HW2 5896   1.034   2.096   4.185
 1958SOL     OW 5897   1.076   2.545   5.188
 1958SOL    HW1 5898   0.996   2.484   5.191
 1958SOL    HW2 5899   1.157   2.492   5.164
 1959SOL     OW 5900   1.227   3.432   4.517
 1959SOL    HW1 5901   1.248   3.506   4.452
 1959SOL    HW2 5902   1.295   3.432   4.590
 1960SOL     OW 5903   0.459   3.014   4.465
 1960SOL    HW1 5904   0.388   2.987   4.530
 1960SOL    HW2 5905   0.433   2.986   4.372
 1961SOL     OW 5906   1.271   3.659   4.315
 1961SOL    HW1 5907   1.315   3.723   4.251
 1961SOL    HW2 5908   1.221   3.711   4.385
 1962SOL     OW 5909   1.032   2.411   3.740
 1962SOL    HW1 5910   0.991   2.493   3.701
 1962SOL    HW2 5911   1.096   2.437   3.813
 1963SOL     OW 5912   0.078   2.418   5.110
 1963SOL    HW1 5913   0.170   2.417   5.069
 1963SOL    HW2 5914   0.072   2.492   5.177
 1964SOL     OW 5915   0.561   2.084   4.871
 1964SOL    HW1 5916   0.599   2.000   4.908
 1964SOL    HW2 5917   0.473   2.103   4.915
 1965SOL     OW 5918   0.866   2.316   4.366
 1965SOL    HW1 5919   0.834   2.388   4.304
 1965SOL    HW2 5920   0.890   2.235   4.313
 1966SOL     OW 5921   1.017   1.901   4.477
 1966SOL    HW1 5922   0.945   1.906   4.408
 1966SOL    HW2 5923   0.993   1.832   4.546
 1967SOL     OW 5924   1.429   3.035   4.591
 1967SOL    HW1 5925   1.374   2.951   4.584
 1967SOL    HW2 5926   1.455   3.064   4.499
 1968SOL     OW 5927   1.466   2.452   4.716
 1968SOL    HW1 5928   1.436   2.357   4.723
 1968SOL    HW2 5929   1.539   2.468   4.782
 1969SOL     OW 5930   1.857   2.695   4.101
 1969SOL    HW1 5931   1.899   2.631   4.165
 1969SOL    HW2 5932   1.819   2.644   4.023
 1970SOL     OW 5933   0.488   3.247   3.898
 1970SOL    HW1 5934   0.401   3.232   3.945
 1970SOL    HW2 5935   0.471   3.273   3.803
 1971SOL     OW 5936   1.664   3.142   4.381
 1971SOL    HW1 5937   1.763   3.150   4.395
 1971SOL    HW2 5938   1.619   3.226   4.412
 1972SOL     OW 5939   1.390   2.437   3.802
 1972SOL    HW1 5940   1.336   2.416   3.883
 1972SOL    HW2 5941   1.481   2.396   3.811
 1973SOL     OW 5942   0.527   2.118   4.052
 1973SOL    HW1 5943   0.554   2.059   3.977
 1973SOL    HW2 5944   0.527   2.213   4.021
 1974SOL     OW 5945   1.754   3.085   5.312
 1974SOL    HW1 5946   1.845   3.046   5.299
 1974SOL    HW2 5947   1.762   3.181   5.336
 1975SOL     OW 5948   1.064   3.209   5.064
 1975SOL    HW1 5949   0.984   3.186   5.119
 1975SOL    HW2 5950   1.147   3.183   5.113
 1976SOL     OW 5951   1.592   3.491   5.349
 1976SOL    HW1 5952   1.619   3.525   5.259
 1976SOL    HW2 5953   1.671   3.453   5.395
 1977SOL     OW 5954   1.111   3.057   4.824
 1977SOL    HW1 5955   1.071   3.101   4.905
 1977SOL    HW2 5956   1.070   3.094   4.741
 1978SOL     OW 5957   1.638   2.961   4.803
 1978SOL    HW1 5958   1.643   3.042   4.862
 1978SOL    HW2 5959   1.552   2.963   4.752
 1979SOL     OW 5960   0.915   1.951   5.126
 1979SOL    HW1 5961   0.940   1.931   5.031
 1979SOL    HW2 5962   0.987   2.007   5.168
 1980SOL     OW 5963   0.980   2.978   5.443
 1980SOL    HW1 5964   0.881   2.984   5.453
 1980SOL    HW2 5965   1.003   2.898   5.387
 1981SOL     OW 5966   0.705   2.912   4.092
 1981SOL    HW1 5967   0.691   2.919   4.191
 1981SOL    HW2 5968   0.789   2.861   4.074
 1982SOL     OW 5969   0.410   2.675   4.975
 1982SOL    HW1 5970   0.496   2.687   5.025
 1982SOL    HW2 5971   0.368   2.588   5.002
 1983SOL     OW 5972   1.274   2.248   4.986
 1983SOL    HW1 5973   1.295   2.322   5.050
 1983SOL    HW2 5974   1.185   2.265   4.943
 1984SOL     OW 5975   0.064   3.426   5.055
 1984SOL    HW1 5976   0.018   3.508   5.021
 1984SOL    HW2 5977   0.162   3.445   5.064
 1985SOL     OW 5978   0.367   2.962   4.225
 1985SOL    HW1 5979   0.360   3.045   4.169
 1985SOL    HW2 5980   0.371   2.882   4.165
 1986SOL     OW 5981   0.566   2.399   4.589
 1986SOL    HW1 5982   0.578   2.465   4.515
 1986SOL    HW2 5983   0.612   2.433   4.672
 1987SOL     OW 5984   1.252   3.210   4.112
 1987SOL    HW1 5985   1.302   3.287   4.152
 1987SOL    HW2 5986   1.157   3.212   4.144
 1988SOL     OW 5987   1.272   3.307   4.866
 1988SOL    HW1 5988   1.319   3.320   4.953
 1988SOL    HW2 5989   1.206   3.233   4.875
 1989SOL     OW 5990   1.582   2.501   4.196
 1989SOL    HW1 5991   1.551   2.562   4.269
 1989SOL    HW2 5992   1.632   2.553   4.127
 1990SOL     OW 5993   0.354   3.372   5.053
 1990SOL    HW1 5994   0.333   3.328   4.966
 1990SOL    HW2 5995   0.451   3.398   5.056
 1991SOL     OW 5996   0.402   2.613   5.322
 1991SOL    HW1 5997   0.470   2.668   5.275
 1991SOL    HW2 5998   0.442   2.525   5.349
 1992SOL     OW 5999   1.587   2.641   5.394
 1992SOL    HW1 6000   1.495   2.679   5.389
 1992SOL    HW2 6001   1.647   2.688   5.329
 1993SOL     OW 6002   1.013   1.967   5.494
 1993SOL    HW1 6003   1.019   2.052   5.442
 1993SOL    HW2 6004   1.045   1.891   5.437
 1994SOL     OW 6005   0.504   1.912   5.464
 1994SOL    HW1 6006   0.462   1.855   5.394
 1994SOL    HW2 6007   0.438   1.981   5.496
 1995SOL     OW 6008   0.573   2.732   4.753
 1995SOL    HW1 6009   0.617   2.821   4.744
 1995SOL    HW2 6010   0.510   2.732   4.830
 1996SOL     OW 6011   1.360   2.724   4.769
 1996SOL    HW1 6012   1.285   2.724   4.703
 1996SOL    HW2 6013   1.397   2.632   4.778
 1997SOL     OW 6014   1.209   2.387   3.999
 1997SOL    HW1 6015   1.222   2.303   4.053
 1997SOL    HW2 6016   1.180   2.461   4.059
 1998SOL     OW 6017   0.307   2.075   4.955
 1998SOL    HW1 6018   0.284   2.112   5.045
 1998SOL    HW2 6019   0.277   1.980   4.949
 1999SOL     OW 6020   0.037   3.172   5.006
 1999SOL    HW1 6021   0.090   3.123   5.074
 1999SOL    HW2 6022   0.059   3.270   5.011
 2000SOL     OW 6023   0.732   2.496   4.788
 2000SOL    HW1 6024   0.791   2.470   4.712
 2000SOL    HW2 6025   0.704   2.592   4.777
 2001SOL     OW 6026   1.728   2.797   5.578
 2001SOL    HW1 6027   1.682   2.790   5.489
 2001SOL    HW2 6028   1.666   2.841   5.644
 2002SOL     OW 6029   0.307   1.925   4.342
 2002SOL    HW1 6030   0.296   2.019   4.375
 2002SOL    HW2 6031   0.302   1.862   4.419
 2003SOL     OW 6032   1.622   2.229   4.098
 2003SOL    HW1 6033   1.624   2.153   4.162
 2003SOL    HW2 6034   1.574   2.306   4.138
 2004SOL     OW 6035   1.023   2.628   4.690
 2004SOL    HW1 6036   1.038   2.649   4.786
 2004SOL    HW2 6037   0.993   2.533   4.681
 2005SOL     OW 6038   0.980   3.435   5.424
 2005SOL    HW1 6039   0.960   3.479   5.336
 2005SOL    HW2 6040   1.019   3.344   5.408
 2006SOL     OW 6041   1.859   3.380   5.329
 2006SOL    HW1 6042   1.873   3.407   5.234
 2006SOL    HW2 6043   1.942   3.402   5.382
 2007SOL     OW 6044   0.350   2.760   5.528
 2007SOL    HW1 6045   0.426   2.804   5.576
 2007SOL    HW2 6046   0.385   2.713   5.446
 2008SOL     OW 6047   1.540   2.136   3.849
 2008SOL    HW1 6048   1.479   2.061   3.872
 2008SOL    HW2 6049   1.562   2.188   3.932
 2009SOL     OW 6050   1.303   2.700   3.766
 2009SOL    HW1 6051   1.337   2.607   3.781
 2009SOL    HW2 6052   1.321   2.727   3.671
 2010SOL     OW 6053   1.068   3.195   4.573
 2010SOL    HW1 6054   1.075   3.111   4.518
 2010SOL    HW2 6055   1.130   3.264   4.537
 2011SOL     OW 6056   0.319   2.672   4.673
 2011SOL    HW1 6057   0.412   2.708   4.678
 2011SOL    HW2 6058   0.313   2.587   4.725
 2012SOL     OW 6059   0.339   2.371   4.730
 2012SOL    HW1 6060   0.287   2.288   4.713
 2012SOL    HW2 6061   0.416   2.376   4.666
 2013SOL     OW 6062   1.138   2.242   5.402
 2013SOL    HW1 6063   1.093   2.305   5.466
 2013SOL    HW2 6064   1.231   2.273   5.385
 2014SOL     OW 6065   1.160   2.069   5.201
 2014SOL    HW1 6066   1.160   2.133   5.278
 2014SOL    HW2 6067   1.188   2.117   5.118
 2015SOL     OW 6068   0.008   3.188   3.924
 2015SOL    HW1 6069  -0.085   3.209   3.893
 2015SOL    HW2 6070   0.018   3.089   3.937
 2016SOL     OW 6071   0.088   3.663   4.651
 2016SOL    HW1 6072   0.046   3.577   4.624
 2016SOL    HW2 6073   0.182   3.666   4.617
 2017SOL     OW 6074   0.504   3.430   4.634
 2017SOL    HW1 6075   0.570   3.504   4.643
 2017SOL    HW2 6076   0.548   3.351   4.592
 2018SOL     OW 6077   1.002   2.658   4.962
 2018SOL    HW1 6078   1.043   2.626   5.048
 2018SOL    HW2 6079   0.906   2.631   4.959
 2019SOL     OW 6080   0.040   2.406   4.838
 2019SOL    HW1 6081   0.125   2.373   4.797
 2019SOL    HW2 6082   0.053   2.421   4.936
 2020SOL     OW 6083   0.189   2.382   5.446
 2020SOL    HW1 6084   0.248   2.342   5.376
 2020SOL    HW2 6085   0.131   2.453   5.405
 2021SOL     OW 6086   1.369   2.812   5.384
 2021SOL    HW1 6087   1.408   2.901   5.404
 2021SOL    HW2 6088   1.379   2.792   5.287
 2022SOL     OW 6089   0.815   2.434   4.049
 2022SOL    HW1 6090   0.822   2.345   4.003
 2022SOL    HW2 6091   0.721   2.468   4.041
 2023SOL     OW 6092   1.657   2.466   4.930
 2023SOL    HW1 6093   1.619   2.397   4.992
 2023SOL    HW2 6094   1.739   2.430   4.886
 2024SOL     OW 6095   0.252   3.426   5.468
 2024SOL    HW1 6096   0.222   3.483   5.544
 2024SOL    HW2 6097   0.245   3.329   5.494
 2025SOL     OW 6098   0.671   2.326   4.993
 2025SOL    HW1 6099   0.637   2.237   4.963
 2025SOL    HW2 6100   0.697   2.380   4.913
 2026SOL     OW 6101   0.930   3.540   5.189
 2026SOL    HW1 6102   0.906   3.522   5.094
 2026SOL    HW2 6103   0.960   3.634   5.199
 2027SOL     OW 6104   0.473   2.362   3.915
 2027SOL    HW1 6105   0.534   2.442   3.919
 2027SOL    HW2 6106   0.378   2.393   3.922
 2028SOL     OW 6107   0.159   2.999   5.190
 2028SOL    HW1 6108   0.181   2.938   5.266
 2028SOL    HW2 6109   0.169   2.950   5.104
 2029SOL     OW 6110   1.347   2.921   4.958
 2029SOL    HW1 6111   1.371   2.858   4.884
 2029SOL    HW2 6112   1.257   2.961   4.940
 2030SOL     OW 6113   1.302   2.717   4.033
 2030SOL    HW1 6114   1.216   2.686   4.075
 2030SOL    HW2 6115   1.298   2.703   3.934
 2031SOL     OW 6116   1.759   3.609   4.878
 2031SOL    HW1 6117   1.820   3.639   4.805
 2031SOL    HW2 6118   1.721   3.520   4.856
 2032SOL     OW 6119   1.252   3.593   4.852
 2032SOL    HW1 6120   1.336   3.598   4.798
 2032SOL    HW2 6121   1.229   3.497   4.870
 2033SOL     OW 6122   0.083   3.120   4.746
 2033SOL    HW1 6123   0.078   3.119   4.846
 2033SOL    HW2 6124   0.000   3.079   4.708
 2034SOL     OW 6125   0.688   3.524   5.440
 2034SOL    HW1 6126   0.632   3.605   5.449
 2034SOL    HW2 6127   0.740   3.528   5.354
 2035SOL     OW 6128   1.726   1.997   4.247
 2035SOL    HW1 6129   1.799   1.980   4.180
 2035SOL    HW2 6130   1.695   1.910   4.285
 2036SOL     OW 6131   1.388   3.435   4.201
 2036SOL    HW1 6132   1.455   3.447   4.127
 2036SOL    HW2 6133   1.348   3.524   4.224
 2037SOL     OW 6134   0.130   3.656   5.575
 2037SOL    HW1 6135   0.089   3.582   5.628
 2037SOL    HW2 6136   0.194   3.707   5.633
 2038SOL     OW 6137   1.280   2.789   4.396
 2038SOL    HW1 6138   1.340   2.708   4.398
 2038SOL    HW2 6139   1.320   2.858   4.336
 2039SOL     OW 6140   0.830   3.135   5.146
 2039SOL    HW1 6141   0.825   3.168   5.241
 2039SOL    HW2 6142   0.744   3.154   5.100
 2040SOL     OW 6143   0.672   3.478   3.878
 2040SOL    HW1 6144   0.681   3.488   3.779
 2040SOL    HW2 6145   0.632   3.389   3.899
 2041SOL     OW 6146   1.650   3.582   5.118
 2041SOL    HW1 6147   1.703   3.592   5.034
 2041SOL    HW2 6148   1.623   3.672   5.152
 2042SOL     OW 6149   1.841   2.037   4.687
 2042SOL    HW1 6150   1.880   1.952   4.651
 2042SOL    HW2 6151   1.743   2.039   4.668
 2043SOL     OW 6152   0.263   2.188   4.444
 2043SOL    HW1 6153   0.184   2.239   4.410
 2043SOL    HW2 6154   0.254   2.173   4.542
 2044SOL     OW 6155   1.194   3.474   3.755
 2044SOL    HW1 6156   1.200   3.381   3.792
 2044SOL    HW2 6157   1.135   3.474   3.675
 2045SOL     OW 6158   0.822   2.864   5.096
 2045SOL    HW1 6159   0.862   2.863   5.004
 2045SOL    HW2 6160   0.832   2.956   5.136
 2046SOL     OW 6161   0.916   2.772   4.015
 2046SOL    HW1 6162   0.979   2.810   3.947
 2046SOL    HW2 6163   0.956   2.689   4.054
 2047SOL     OW 6164   1.504   3.469   3.768
 2047SOL    HW1 6165   1.412   3.506   3.775
 2047SOL    HW2 6166   1.542   3.489   3.678
 2048SOL     OW 6167   0.372   3.150   5.214
 2048SOL    HW1 6168   0.359   3.243   5.180
 2048SOL    HW2 6169   0.288   3.098   5.201
 2049SOL     OW 6170   1.614   3.154   5.013
 2049SOL    HW1 6171   1.674   3.157   5.093
 2049SOL    HW2 6172   1.539   3.218   5.026
 2050SOL     OW 6173   1.039   2.960   4.420
 2050SOL    HW1 6174   0.969   2.913   4.474
 2050SOL    HW2 6175   1.098   2.892   4.377
 2051SOL     OW 6176   1.014   2.098   4.695
 2051SOL    HW1 6177   1.006   2.062   4.602
 2051SOL    HW2 6178   1.012   2.022   4.760
 2052SOL     OW 6179   0.590   3.349   4.215
 2052SOL    HW1 6180   0.632   3.291   4.145
 2052SOL    HW2 6181   0.546   3.428   4.171
 2053SOL     OW 6182   1.709   2.247   5.105
 2053SOL    HW1 6183   1.782   2.316   5.109
 2053SOL    HW2 6184   1.737   2.172   5.046
 2054SOL     OW 6185   0.255   3.210   4.014
 2054SOL    HW1 6186   0.159   3.211   3.987
 2054SOL    HW2 6187   0.267   3.263   4.098
 2055SOL     OW 6188   0.105   2.875   5.450
 2055SOL    HW1 6189   0.028   2.842   5.504
 2055SOL    HW2 6190   0.190   2.845   5.492
 2056SOL     OW 6191   0.672   2.065   5.213
 2056SOL    HW1 6192   0.762   2.049   5.173
 2056SOL    HW2 6193   0.680   2.070   5.312
 2057SOL     OW 6194   0.075   2.207   3.757
 2057SOL    HW1 6195  -0.017   2.179   3.728
 2057SOL    HW2 6196   0.106   2.284   3.701
 2058SOL     OW 6197   1.440   2.718   5.122
 2058SOL    HW1 6198   1.383   2.770   5.059
 2058SOL    HW2 6199   1.536   2.730   5.098
 2059SOL     OW 6200   0.072   2.028   4.042
 2059SOL    HW1 6201   0.055   2.111   3.988
 2059SOL    HW2 6202   0.162   1.991   4.020
 2060SOL     OW 6203   1.183   3.197   3.843
 2060SOL    HW1 6204   1.084   3.186   3.845
 2060SOL    HW2 6205   1.217   3.212   3.936
 2061SOL     OW 6206   0.613   2.704   5.155
 2061SOL    HW1 6207   0.669   2.785   5.138
 2061SOL    HW2 6208   0.672   2.624   5.158
 2062SOL     OW 6209   1.493   3.629   4.683
 2062SOL    HW1 6210   1.526   3.693   4.614
 2062SOL    HW2 6211   1.559   3.623   4.758
 2063SOL     OW 6212   0.716   2.427   5.432
 2063SOL    HW1 6213   0.735   2.492   5.506
 2063SOL    HW2 6214   0.776   2.347   5.441
 2064SOL     OW 6215   1.450   3.082   5.357
 2064SOL    HW1 6216   1.441   3.072   5.456
 2064SOL    HW2 6217   1.546   3.075   5.331
 2065SOL     OW 6218   0.390   3.603   5.284
 2065SOL    HW1 6219   0.299   3.644   5.282
 2065SOL    HW2 6220   0.383   3.509   5.316
 2066SOL     OW 6221   1.674   2.745   4.978
 2066SOL    HW1 6222   1.647   2.656   4.941
 2066SOL    HW2 6223   1.675   2.813   4.905
 2067SOL     OW 6224   1.225   2.187   4.173
 2067SOL    HW1 6225   1.290   2.113   4.162
 2067SOL    HW2 6226   1.245   2.237   4.257
 2068SOL     OW 6227   0.594   2.607   4.376
 2068SOL    HW1 6228   0.644   2.692   4.357
 2068SOL    HW2 6229   0.506   2.609   4.328
 2069SOL     OW 6230   1.777   2.204   5.366
 2069SOL    HW1 6231   1.760   2.235   5.272
 2069SOL    HW2 6232   1.693   2.167   5.404
 2070SOL     OW 6233   1.730   2.796   5.241
 2070SOL    HW1 6234   1.768   2.887   5.256
 2070SOL    HW2 6235   1.722   2.779   5.142
 2071SOL     OW 6236   0.859   3.236   3.740
 2071SOL    HW1 6237   0.813   3.251   3.828
 2071SOL    HW2 6238   0.903   3.321   3.710
 2072SOL     OW 6239   0.661   3.652   4.677
 2072SOL    HW1 6240   0.615   3.740   4.664
 2072SOL    HW2 6241   0.760   3.664   4.670
 2073SOL     OW 6242   0.859   2.818   4.585
 2073SOL    HW1 6243   0.913   2.749   4.633
 2073SOL    HW2 6244   0.827   2.887   4.651
 2074SOL     OW 6245   1.083   2.846   3.811
 2074SOL    HW1 6246   1.060   2.899   3.729
 2074SOL    HW2 6247   1.164   2.790   3.792
 2075SOL     OW 6248   1.861   3.431   4.575
 2075SOL    HW1 6249   1.790   3.419   4.505
 2075SOL    HW2 6250   1.862   3.352   4.635
 2076SOL     OW 6251   0.221   3.176   5.568
 2076SOL    HW1 6252   0.156   3.103   5.547
 2076SOL    HW2 6253   0.225   3.190   5.666
 2077SOL     OW 6254   0.079   3.102   4.377
 2077SOL    HW1 6255   0.078   3.055   4.465
 2077SOL    HW2 6256   0.161   3.074   4.326
 2078SOL     OW 6257   0.672   3.253   5.348
 2078SOL    HW1 6258   0.594   3.203   5.386
 2078SOL    HW2 6259   0.669   3.348   5.379
 2079SOL     OW 6260   1.824   2.054   4.951
 2079SOL    HW1 6261   1.820   1.964   4.995
 2079SOL    HW2 6262   1.827   2.043   4.852
 2080SOL     OW 6263   0.428   2.286   4.244
 2080SOL    HW1 6264   0.458   2.214   4.182
 2080SOL    HW2 6265   0.389   2.246   4.327
 2081SOL     OW 6266   1.705   3.349   4.828
 2081SOL    HW1 6267   1.612   3.324   4.801
 2081SOL    HW2 6268   1.731   3.299   4.910
 2082SOL     OW 6269   0.317   2.409   5.004
 2082SOL    HW1 6270   0.355   2.350   5.076
 2082SOL    HW2 6271   0.357   2.383   4.916
 2083SOL     OW 6272   0.812   3.448   4.411
 2083SOL    HW1 6273   0.844   3.458   4.317
 2083SOL    HW2 6274   0.733   3.386   4.413
 2084SOL     OW 6275   1.424   2.076   4.836
 2084SOL    HW1 6276   1.476   2.011   4.891
 2084SOL    HW2 6277   1.375   2.139   4.897
 2085SOL     OW 6278   1.001   1.896   4.878
 2085SOL    HW1 6279   0.938   1.824   4.847
 2085SOL    HW2 6280   1.094   1.860   4.878
 2086SOL     OW 6281   0.770   3.192   4.025
 2086SOL    HW1 6282   0.724   3.105   4.042
 2086SOL    HW2 6283   0.861   3.189   4.066
 2087SOL     OW 6284   0.618   3.429   5.008
 2087SOL    HW1 6285   0.613   3.511   5.065
 2087SOL    HW2 6286   0.707   3.426   4.963
 2088SOL     OW 6287   1.352   1.914   3.892
 2088SOL    HW1 6288   1.387   1.873   3.808
 2088SOL    HW2 6289   1.262   1.876   3.912
 2089SOL     OW 6290   1.300   2.315   4.415
 2089SOL    HW1 6291   1.241   2.395   4.419
 2089SOL    HW2 6292   1.315   2.280   4.508
 2090SOL     OW 6293   1.593   2.083   4.606
 2090SOL    HW1 6294   1.509   2.082   4.660
 2090SOL    HW2 6295   1.595   2.166   4.550
 2091SOL     OW 6296   0.039   2.939   4.024
 2091SOL    HW1 6297   0.138   2.928   4.015
 2091SOL    HW2 6298  -0.001   2.853   4.056
 2092SOL     OW 6299   0.875   3.508   4.061
 2092SOL    HW1 6300   0.798   3.473   4.007
 2092SOL    HW2 6301   0.843   3.579   4.123
 2093SOL     OW 6302   0.230   2.490   5.699
 2093SOL    HW1 6303   0.137   2.488   5.736
 2093SOL    HW2 6304   0.231   2.451   5.607
 2094SOL     OW 6305   0.225   2.137   6.582
 2094SOL    HW1 6306   0.260   2.120   6.674
 2094SOL    HW2 6307   0.137   2.092   6.570
 2095SOL     OW 6308   0.019   2.230   6.233
 2095SOL    HW1 6309  -0.063   2.273   6.272
 2095SOL    HW2 6310  -0.009   2.157   6.170
 2096SOL     OW 6311   0.569   3.137   6.751
 2096SOL    HW1 6312   0.476   3.130   6.714
 2096SOL    HW2 6313   0.580   3.226   6.795
 2097SOL     OW 6314   1.555   3.373   6.289
 2097SOL    HW1 6315   1.498   3.357   6.370
 2097SOL    HW2 6316   1.496   3.383   6.209
 2098SOL     OW 6317   1.135   2.565   6.303
 2098SOL    HW1 6318   1.192   2.643   6.278
 2098SOL    HW2 6319   1.075   2.591   6.379
 2099SOL     OW 6320   1.755   2.469   5.817
 2099SOL    HW1 6321   1.743   2.456   5.718
 2099SOL    HW2 6322   1.725   2.388   5.866
 2100SOL     OW 6323   0.768   3.006   6.609
 2100SOL    HW1 6324   0.690   3.023   6.669
 2100SOL    HW2 6325   0.802   3.093   6.573
 2101SOL     OW 6326   0.850   2.660   7.409
 2101SOL    HW1 6327   0.846   2.736   7.474
 2101SOL    HW2 6328   0.872   2.696   7.318
 2102SOL     OW 6329   0.685   2.874   6.251
 2102SOL    HW1 6330   0.754   2.858   6.321
 2102SOL    HW2 6331   0.612   2.931   6.289
 2103SOL     OW 6332   0.686   3.023   7.389
 2103SOL    HW1 6333   0.746   3.102   7.403
 2103SOL    HW2 6334   0.600   3.054   7.348
 2104SOL     OW 6335   0.335   3.297   6.647
 2104SOL    HW1 6336   0.257   3.266   6.594
 2104SOL    HW2 6337   0.393   3.355   6.590
 2105SOL     OW 6338   1.460   3.367   6.925
 2105SOL    HW1 6339   1.484   3.461   6.951
 2105SOL    HW2 6340   1.444   3.313   7.007
 2106SOL     OW 6341   0.438   2.254   7.085
 2106SOL    HW1 6342   0.520   2.198   7.094
 2106SOL    HW2 6343   0.357   2.196   7.089
 2107SOL     OW 6344   1.603   2.309   6.323
 2107SOL    HW1 6345   1.529   2.355   6.273
 2107SOL    HW2 6346   1.654   2.377   6.376
 2108SOL     OW 6347   0.231   3.575   6.069
 2108SOL    HW1 6348   0.265   3.652   6.123
 2108SOL    HW2 6349   0.275   3.575   5.979
 2109SOL     OW 6350   1.127   3.203   7.276
 2109SOL    HW1 6351   1.174   3.203   7.364
 2109SOL    HW2 6352   1.079   3.116   7.265
 2110SOL     OW 6353   0.230   3.296   6.124
 2110SOL    HW1 6354   0.204   3.392   6.124
 2110SOL    HW2 6355   0.159   3.242   6.169
 2111SOL     OW 6356   0.240   2.953   6.472
 2111SOL    HW1 6357   0.254   2.869   6.524
 2111SOL    HW2 6358   0.185   3.017   6.527
 2112SOL     OW 6359   0.620   3.648   7.025
 2112SOL    HW1 6360   0.528   3.631   7.060
 2112SOL    HW2 6361   0.648   3.740   7.051
 2113SOL     OW 6362   0.606   2.826   5.709
 2113SOL    HW1 6363   0.613   2.910   5.655
 2113SOL    HW2 6364   0.652   2.839   5.797
 2114SOL     OW 6365   1.594   1.976   7.066
 2114SOL    HW1 6366   1.576   2.043   6.994
 2114SOL    HW2 6367   1.591   2.022   7.155
 2115SOL     OW 6368   0.122   2.505   6.149
 2115SOL    HW1 6369   0.077   2.417   6.166
 2115SOL    HW2 6370   0.121   2.559   6.233
 2116SOL     OW 6371   1.842   3.629   5.945
 2116SOL    HW1 6372   1.896   3.600   6.025
 2116SOL    HW2 6373   1.872   3.719   5.916
 2117SOL     OW 6374   0.027   3.458   5.703
 2117SOL    HW1 6375   0.008   3.362   5.724
 2117SOL    HW2 6376  -0.006   3.516   5.778
 2118SOL     OW 6377   1.689   2.784   6.198
 2118SOL    HW1 6378   1.784   2.755   6.206
 2118SOL    HW2 6379   1.681   2.849   6.123
 2119SOL     OW 6380   1.641   2.970   6.018
 2119SOL    HW1 6381   1.727   2.972   5.966
 2119SOL    HW2 6382   1.655   3.017   6.106
 2120SOL     OW 6383   0.113   2.599   7.183
 2120SOL    HW1 6384   0.201   2.586   7.228
 2120SOL    HW2 6385   0.100   2.696   7.161
 2121SOL     OW 6386   0.613   3.227   6.312
 2121SOL    HW1 6387   0.564   3.140   6.321
 2121SOL    HW2 6388   0.590   3.270   6.225
 2122SOL     OW 6389   1.293   3.090   7.009
 2122SOL    HW1 6390   1.330   3.017   6.951
 2122SOL    HW2 6391   1.345   3.095   7.094
 2123SOL     OW 6392   0.809   1.866   6.088
 2123SOL    HW1 6393   0.849   1.957   6.079
 2123SOL    HW2 6394   0.709   1.874   6.094
 2124SOL     OW 6395   0.197   2.838   6.850
 2124SOL    HW1 6396   0.286   2.793   6.836
 2124SOL    HW2 6397   0.124   2.773   6.831
 2125SOL     OW 6398   1.525   2.861   5.776
 2125SOL    HW1 6399   1.462   2.785   5.789
 2125SOL    HW2 6400   1.573   2.879   5.862
 2126SOL     OW 6401   1.187   3.654   7.202
 2126SOL    HW1 6402   1.211   3.714   7.126
 2126SOL    HW2 6403   1.194   3.559   7.172
 2127SOL     OW 6404   0.317   2.113   7.387
 2127SOL    HW1 6405   0.388   2.184   7.393
 2127SOL    HW2 6406   0.229   2.152   7.415
 2128SOL     OW 6407   1.466   3.279   6.539
 2128SOL    HW1 6408   1.407   3.285   6.619
 2128SOL    HW2 6409   1.451   3.191   6.493
 2129SOL     OW 6410   1.667   3.576   6.158
 2129SOL    HW1 6411   1.626   3.553   6.070
 2129SOL    HW2 6412   1.649   3.502   6.223
 2130SOL     OW 6413   0.598   2.591   5.856
 2130SOL    HW1 6414   0.622   2.660   5.788
 2130SOL    HW2 6415   0.520   2.624   5.910
 2131SOL     OW 6416   1.281   2.207   6.530
 2131SOL    HW1 6417   1.195   2.157   6.517
 2131SOL    HW2 6418   1.343   2.153   6.586
 2132SOL     OW 6419   1.576   3.524   5.893
 2132SOL    HW1 6420   1.665   3.570   5.896
 2132SOL    HW2 6421   1.555   3.500   5.798
 2133SOL     OW 6422   0.807   2.467   7.051
 2133SOL    HW1 6423   0.760   2.464   7.140
 2133SOL    HW2 6424   0.756   2.412   6.985
 2134SOL     OW 6425   1.394   2.331   7.260
 2134SOL    HW1 6426   1.374   2.374   7.348
 2134SOL    HW2 6427   1.472   2.269   7.269
 2135SOL     OW 6428   0.973   2.752   7.158
 2135SOL    HW1 6429   1.019   2.668   7.129
 2135SOL    HW2 6430   0.917   2.786   7.083
 2136SOL     OW 6431   0.991   2.272   6.828
 2136SOL    HW1 6432   0.914   2.306   6.882
 2136SOL    HW2 6433   0.957   2.221   6.749
 2137SOL     OW 6434   1.041   2.563   6.015
 2137SOL    HW1 6435   1.067   2.559   6.111
 2137SOL    HW2 6436   0.956   2.512   6.001
 2138SOL     OW 6437   0.076   2.673   6.375
 2138SOL    HW1 6438   0.175   2.661   6.384
 2138SOL    HW2 6439   0.052   2.768   6.396
 2139SOL     OW 6440   0.130   3.683   7.157
 2139SOL    HW1 6441   0.120   3.668   7.256
 2139SOL    HW2 6442   0.044   3.719   7.121
 2140SOL     OW 6443   0.865   2.210   5.781
 2140SOL    HW1 6444   0.924   2.273   5.732
 2140SOL    HW2 6445   0.884   2.116   5.752
 2141SOL     OW 6446   1.719   2.447   7.417
 2141SOL    HW1 6447   1.693   2.536   7.381
 2141SOL    HW2 6448   1.717   2.379   7.344
 2142SOL     OW 6449   1.362   3.006   6.131
 2142SOL    HW1 6450   1.445   2.977   6.083
 2142SOL    HW2 6451   1.313   3.073   6.075
 2143SOL     OW 6452   0.550   2.058   6.471
 2143SOL    HW1 6453   0.545   2.053   6.571
 2143SOL    HW2 6454   0.552   2.154   6.442
 2144SOL     OW 6455   1.008   3.318   6.063
 2144SOL    HW1 6456   0.962   3.390   6.011
 2144SOL    HW2 6457   1.004   3.338   6.161
 2145SOL     OW 6458   0.351   3.663   6.439
 2145SOL    HW1 6459   0.401   3.577   6.445
 2145SOL    HW2 6460   0.416   3.740   6.436
 2146SOL     OW 6461   1.795   2.928   6.459
 2146SOL    HW1 6462   1.733   2.913   6.383
 2146SOL    HW2 6463   1.743   2.939   6.544
 2147SOL     OW 6464   1.227   3.412   7.092
 2147SOL    HW1 6465   1.233   3.335   7.156
 2147SOL    HW2 6466   1.175   3.386   7.012
 2148SOL     OW 6467   0.321   2.805   5.828
 2148SOL    HW1 6468   0.403   2.844   5.786
 2148SOL    HW2 6469   0.294   2.723   5.779
 2149SOL     OW 6470   1.458   2.597   6.314
 2149SOL    HW1 6471   1.453   2.532   6.389
 2149SOL    HW2 6472   1.538   2.656   6.327
 2150SOL     OW 6473   0.461   3.128   7.313
 2150SOL    HW1 6474   0.411   3.129   7.227
 2150SOL    HW2 6475   0.398   3.110   7.389
 2151SOL     OW 6476   1.111   3.638   5.823
 2151SOL    HW1 6477   1.051   3.576   5.873
 2151SOL    HW2 6478   1.142   3.594   5.738
 2152SOL     OW 6479   0.202   2.147   7.084
 2152SOL    HW1 6480   0.122   2.207   7.071
 2152SOL    HW2 6481   0.192   2.098   7.170
 2153SOL     OW 6482   1.632   3.239   5.667
 2153SOL    HW1 6483   1.600   3.333   5.657
 2153SOL    HW2 6484   1.556   3.176   5.655
 2154SOL     OW 6485   0.464   3.605   5.909
 2154SOL    HW1 6486   0.497   3.644   5.995
 2154SOL    HW2 6487   0.540   3.598   5.844
 2155SOL     OW 6488   1.400   1.969   6.012
 2155SOL    HW1 6489   1.376   1.932   5.922
 2155SOL    HW2 6490   1.499   1.985   6.016
 2156SOL     OW 6491   0.249   3.647   6.827
 2156SOL    HW1 6492   0.306   3.582   6.877
 2156SOL    HW2 6493   0.233   3.614   6.734
 2157SOL     OW 6494   0.940   3.560   6.490
 2157SOL    HW1 6495   1.020   3.503   6.511
 2157SOL    HW2 6496   0.891   3.520   6.413
 2158SOL     OW 6497   0.382   2.562   6.066
 2158SOL    HW1 6498   0.427   2.472   6.063
 2158SOL    HW2 6499   0.288   2.551   6.099
 2159SOL     OW 6500   1.547   2.084   7.315
 2159SOL    HW1 6501   1.542   2.121   7.407
 2159SOL    HW2 6502   1.475   2.015   7.303
 2160SOL     OW 6503   0.614   1.984   5.703
 2160SOL    HW1 6504   0.712   1.962   5.710
 2160SOL    HW2 6505   0.583   1.967   5.610
 2161SOL     OW 6506   0.781   2.126   7.335
 2161SOL    HW1 6507   0.848   2.065   7.378
 2161SOL    HW2 6508   0.708   2.145   7.400
 2162SOL     OW 6509   0.888   3.376   6.781
 2162SOL    HW1 6510   0.865   3.351   6.687
 2162SOL    HW2 6511   0.949   3.307   6.820
 2163SOL     OW 6512   1.351   2.452   7.019
 2163SOL    HW1 6513   1.379   2.409   7.104
 2163SOL    HW2 6514   1.376   2.548   7.020
 2164SOL     OW 6515   0.803   3.264   6.510
 2164SOL    HW1 6516   0.893   3.278   6.468
 2164SOL    HW2 6517   0.732   3.266   6.439
 2165SOL     OW 6518   0.922   2.365   6.485
 2165SOL    HW1 6519   0.897   2.356   6.389
 2165SOL    HW2 6520   0.970   2.283   6.516
 2166SOL     OW 6521   0.539   1.926   6.098
 2166SOL    HW1 6522   0.458   1.927   6.156
 2166SOL    HW2 6523   0.542   2.009   6.043
 2167SOL     OW 6524   1.434   3.050   5.627
 2167SOL    HW1 6525   1.466   2.974   5.684
 2167SOL    HW2 6526   1.342   3.077   5.657
 2168SOL     OW 6527   0.297   1.897   5.757
 2168SOL    HW1 6528   0.346   1.981   5.736
 2168SOL    HW2 6529   0.359   1.832   5.802
 2169SOL     OW 6530   0.935   2.098   6.066
 2169SOL    HW1 6531   0.887   2.139   5.988
 2169SOL    HW2 6532   1.034   2.096   6.047
 2170SOL     OW 6533   1.076   2.545   7.050
 2170SOL    HW1 6534   0.996   2.484   7.053
 2170SOL    HW2 6535   1.157   2.492   7.026
 2171SOL     OW 6536   1.227   3.432   6.379
 2171SOL    HW1 6537   1.248   3.506   6.314
 2171SOL    HW2 6538   1.295   3.432   6.452
 2172SOL     OW 6539   0.459   3.014   6.327
 2172SOL    HW1 6540   0.388   2.987   6.392
 2172SOL    HW2 6541   0.433   2.986   6.234
 2173SOL     OW 6542   1.271   3.659   6.177
 2173SOL    HW1 6543   1.315   3.723   6.113
 2173SOL    HW2 6544   1.221   3.711   6.247
 2174SOL     OW 6545   1.032   2.411   5.602
 2174SOL    HW1 6546   0.991   2.493   5.563
 2174SOL    HW2 6547   1.096   2.437   5.675
 2175SOL     OW 6548   0.078   2.418   6.972
 2175SOL    HW1 6549   0.170   2.417   6.931
 2175SOL    HW2 6550   0.072   2.492   7.039
 2176SOL     OW 6551   0.561   2.084   6.733
 2176SOL    HW1 6552   0.599   2.000   6.770
 2176SOL    HW2 6553   0.473   2.103   6.777
 2177SOL     OW 6554   0.866   2.316   6.228
 2177SOL    HW1 6555   0.834   2.388   6.166
 2177SOL    HW2 6556   0.890   2.235   6.175
 2178SOL     OW 6557   1.017   1.901   6.339
 2178SOL    HW1 6558   0.945   1.906   6.270
 2178SOL    HW2 6559   0.993   1.832   6.408
 2179SOL     OW 6560   1.429   3.035   6.453
 2179SOL    HW1 6561   1.374   2.951   6.446
 2179SOL    HW2 6562   1.455   3.064   6.361
 2180SOL     OW 6563   1.466   2.452   6.578
 2180SOL    HW1 6564   1.436   2.357   6.585
 2180SOL    HW2 6565   1.539   2.468   6.644
 2181SOL     OW 6566   1.857   2.695   5.963
 2181SOL    HW1 6567   1.899   2.631   6.027
 2181SOL    HW2 6568   1.819   2.644   5.885
 2182SOL     OW 6569   0.488   3.247   5.760
 2182SOL    HW1 6570   0.401   3.232   5.807
 2182SOL    HW2 6571   0.471   3.273   5.665
 2183SOL     OW 6572   1.664   3.142   6.243
 2183SOL    HW1 6573   1.763   3.150   6.257
 2183SOL    HW2 6574   1.619   3.226   6.274
 2184SOL     OW 6575   1.390   2.437   5.664
 2184SOL    HW1 6576   1.336   2.416   5.745
 2184SOL    HW2 6577   1.481   2.396   5.673
 2185SOL     OW 6578   0.527   2.118   5.914
 2185SOL    HW1 6579   0.554   2.059   5.839
 2185SOL    HW2 6580   0.527   2.213   5.883
 2186SOL     OW 6581   1.754   3.085   7.174
 2186SOL    HW1 6582   1.845   3.046   7.161
 2186SOL    HW2 6583   1.762   3.181   7.198
 2187SOL     OW 6584   1.064   3.209   6.926
 2187SOL    HW1 6585   0.984   3.186   6.981
 2187SOL    HW2 6586   1.147   3.183   6.975
 2188SOL     OW 6587   1.592   3.491   7.211
 2188SOL    HW1 6588   1.619   3.525   7.121
 2188SOL    HW2 6589   1.671   3.453   7.257
 2189SOL     OW 6590   1.111   3.057   6.686
 2189SOL    HW1 6591   1.071   3.101   6.767
 2189SOL    HW2 6592   1.070   3.094   6.603
 2190SOL     OW 6593   1.638   2.961   6.665
 2190SOL    HW1 6594   1.643   3.042   6.724
 2190SOL    HW2 6595   1.552   2.963   6.614
 2191SOL     OW 6596   0.915   1.951   6.988
 2191SOL    HW1 6597   0.940   1.931   6.893
 2191SOL    HW2 6598   0.987   2.007   7.030
 2192SOL     OW 6599   0.980   2.978   7.305
 2192SOL    HW1 6600   0.881   2.984   7.315
 2192SOL    HW2 6601   1.003   2.898   7.249
 2193SOL     OW 6602   0.705   2.912   5.954
 2193SOL    HW1 6603   0.691   2.919   6.053
 2193SOL    HW2 6604   0.789   2.861   5.936
 2194SOL     OW 6605   0.410   2.675   6.837
 2194SOL    HW1 6606   0.496   2.687   6.887
 2194SOL    HW2 6607   0.368   2.588   6.864
 2195SOL     OW 6608   1.274   2.248   6.848
 2195SOL    HW1 6609   1.295   2.322   6.912
 2195SOL    HW2 6610   1.185   2.265   6.805
 2196SOL     OW 6611   0.064   3.426   6.917
 2196SOL    HW1 6612   0.018   3.508   6.883
 2196SOL    HW2 6613   0.162   3.445   6.926
 2197SOL     OW 6614   0.367   2.962   6.087
 2197SOL    HW1 6615   0.360   3.045   6.031
 2197SOL    HW2 6616   0.371   2.882   6.027
 2198SOL     OW 6617   0.566   2.399   6.451
 2198SOL    HW1 6618   0.578   2.465   6.377
 2198SOL    HW2 6619   0.612   2.433   6.534
 2199SOL     OW 6620   1.252   3.210   5.974
 2199SOL    HW1 6621   1.302   3.287   6.014
 2199SOL    HW2 6622   1.157   3.212   6.006
 2200SOL     OW 6623   1.272   3.307   6.728
 2200SOL    HW1 6624   1.319   3.320   6.815
 2200SOL    HW2 6625   1.206   3.233   6.737
 2201SOL     OW 6626   1.582   2.501   6.058
 2201SOL    HW1 6627   1.551   2.562   6.131
 2201SOL    HW2 6628   1.632   2.553   5.989
 2202SOL     OW 6629   0.354   3.372   6.915
 2202SOL    HW1 6630   0.333   3.328   6.828
 2202SOL    HW2 6631   0.451   3.398   6.918
 2203SOL     OW 6632   0.402   2.613   7.184
 2203SOL    HW1 6633   0.470   2.668   7.137
 2203SOL    HW2 6634   0.442   2.525   7.211
 2204SOL     OW 6635   1.587   2.641   7.256
 2204SOL    HW1 6636   1.495   2.679   7.251
 2204SOL    HW2 6637   1.647   2.688   7.191
 2205SOL     OW 6638   1.013   1.967   7.356
 2205SOL    HW1 6639   1.019   2.052   7.304
 2205SOL    HW2 6640   1.045   1.891   7.299
 2206SOL     OW 6641   0.504   1.912   7.326
 2206SOL    HW1 6642   0.462   1.855   7.256
 2206SOL    HW2 6643   0.438   1.981   7.358
 2207SOL     OW 6644   0.573   2.732   6.615
 2207SOL    HW1 6645   0.617   2.821   6.606
 2207SOL    HW2 6646   0.510   2.732   6.692
 2208SOL     OW 6647   1.360   2.724   6.631
 2208SOL    HW1 6648   1.285   2.724   6.565
 2208SOL    HW2 6649   1.397   2.632   6.640
 2209SOL     OW 6650   1.209   2.387   5.861
 2209SOL    HW1 6651   1.222   2.303   5.915
 2209SOL    HW2 6652   1.180   2.461   5.921
 2210SOL     OW 6653   0.307   2.075   6.817
 2210SOL    HW1 6654   0.284   2.112   6.907
 2210SOL    HW2 6655   0.277   1.980   6.811
 2211SOL     OW 6656   0.037   3.172   6.868
 2211SOL    HW1 6657   0.090   3.123   6.936
 2211SOL    HW2 6658   0.059   3.270   6.873
 2212SOL     OW 6659   0.732   2.496   6.650
 2212SOL    HW1 6660   0.791   2.470   6.574
 2212SOL    HW2 6661   0.704   2.592   6.639
 2213SOL     OW 6662   1.728   2.797   7.440
 2213SOL    HW1 6663   1.682   2.790   7.351
 2213SOL    HW2 6664   1.666   2.841   7.506
 2214SOL     OW 6665   0.307   1.925   6.204
 2214SOL    HW1 6666   0.296   2.019   6.237
 2214SOL    HW2 6667   0.302   1.862   6.281
 2215SOL     OW 6668   1.622   2.229   5.960
 2215SOL    HW1 6669   1.624   2.153   6.024
 2215SOL    HW2 6670   1.574   2.306   6.000
 2216SOL     OW 6671   1.023   2.628   6.552
 2216SOL    HW1 6672   1.038   2.649   6.648
 2216SOL    HW2 6673   0.993   2.533   6.543
 2217SOL     OW 6674   0.980   3.435   7.286
 2217SOL    HW1 6675   0.960   3.479   7.198
 2217SOL    HW2 6676   1.019   3.344   7.270
 2218SOL     OW 6677   1.859   3.380   7.191
 2218SOL    HW1 6678   1.873   3.407   7.096
 2218SOL    HW2 6679   1.942   3.402   7.244
 2219SOL     OW 6680   0.350   2.760   7.390
 2219SOL    HW1 6681   0.426   2.804   7.438
 2219SOL    HW2 6682   0.385   2.713   7.308
 2220SOL     OW 6683   1.540   2.136   5.711
 2220SOL    HW1 6684   1.479   2.061   5.734
 2220SOL    HW2 6685   1.562   2.188   5.794
 2221SOL     OW 6686   1.303   2.700   5.628
 2221SOL    HW1 6687   1.337   2.607   5.643
 2221SOL    HW2 6688   1.321   2.727   5.533
 2222SOL     OW 6689   1.068   3.195   6.435
 2222SOL    HW1 6690   1.075   3.111   6.380
 2222SOL    HW2 6691   1.130   3.264   6.399
 2223SOL     OW 6692   0.319   2.672   6.535
 2223SOL    HW1 6693   0.412   2.708   6.540
 2223SOL    HW2 6694   0.313   2.587   6.587
 2224SOL     OW 6695   0.339   2.371   6.592
 2224SOL    HW1 6696   0.287   2.288   6.575
 2224SOL    HW2 6697   0.416   2.376   6.528
 2225SOL     OW 6698   1.138   2.242   7.264
 2225SOL    HW1 6699   1.093   2.305   7.328
 2225SOL    HW2 6700   1.231   2.273   7.247
 2226SOL     OW 6701   1.160   2.069   7.063
 2226SOL    HW1 6702   1.160   2.133   7.140
 2226SOL    HW2 6703   1.188   2.117   6.980
 2227SOL     OW 6704   0.008   3.188   5.786
 2227SOL    HW1 6705  -0.085   3.209   5.755
 2227SOL    HW2 6706   0.018   3.089   5.799
 2228SOL     OW 6707   0.088   3.663   6.513
 2228SOL    HW1 6708   0.046   3.577   6.486
 2228SOL    HW2 6709   0.182   3.666   6.479
 2229SOL     OW 6710   0.504   3.430   6.496
 2229SOL    HW1 6711   0.570   3.504   6.505
 2229SOL    HW2 6712   0.548   3.351   6.454
 2230SOL     OW 6713   1.002   2.658   6.824
 2230SOL    HW1 6714   1.043   2.626   6.910
 2230SOL    HW2 6715   0.906   2.631   6.821
 2231SOL     OW 6716   0.040   2.406   6.700
 2231SOL    HW1 6717   0.125   2.373   6.659
 2231SOL    HW2 6718   0.053   2.421   6.798
 2232SOL     OW 6719   0.189   2.382   7.308
 2232SOL    HW1 6720   0.248   2.342   7.238
 2232SOL    HW2 6721   0.131   2.453   7.267
 2233SOL     OW 6722   1.369   2.812   7.246
 2233SOL    HW1 6723   1.408   2.901   7.266
 2233SOL    HW2 6724   1.379   2.792   7.149
 2234SOL     OW 6725   0.815   2.434   5.911
 2234SOL    HW1 6726   0.822   2.345   5.865
 2234SOL    HW2 6727   0.721   2.468   5.903
 2235SOL     OW 6728   1.657   2.466   6.792
 2235SOL    HW1 6729   1.619   2.397   6.854
 2235SOL    HW2 6730   1.739   2.430   6.748
 2236SOL     OW 6731   0.252   3.426   7.330
 2236SOL    HW1 6732   0.222   3.483   7.406
 2236SOL    HW2 6733   0.245   3.329   7.356
 2237SOL     OW 6734   0.671   2.326   6.855
 2237SOL    HW1 6735   0.637   2.237   6.825
 2237SOL    HW2 6736   0.697   2.380   6.775
 2238SOL     OW 6737   0.930   3.540   7.051
 2238SOL    HW1 6738   0.906   3.522   6.956
 2238SOL    HW2 6739   0.960   3.634   7.061
 2239SOL     OW 6740   0.473   2.362   5.777
 2239SOL    HW1 6741   0.534   2.442   5.781
 2239SOL    HW2 6742   0.378   2.393   5.784
 2240SOL     OW 6743   0.159   2.999   7.052
 2240SOL    HW1 6744   0.181   2.938   7.128
 2240SOL    HW2 6745   0.169   2.950   6.966
 2241SOL     OW 6746   1.347   2.921   6.820
 2241SOL    HW1 6747   1.371   2.858   6.746
 2241SOL    HW2 6748   1.257   2.961   6.802
 2242SOL     OW 6749   1.302   2.717   5.895
 2242SOL    HW1 6750   1.216   2.686   5.937
 2242SOL    HW2 6751   1.298   2.703   5.796
 2243SOL     OW 6752   1.759   3.609   6.740
 2243SOL    HW1 6753   1.820   3.639   6.667
 2243SOL    HW2 6754   1.721   3.520   6.718
 2244SOL     OW 6755   1.252   3.593   6.714
 2244SOL    HW1 6756   1.336   3.598   6.660
 2244SOL    HW2 6757   1.229   3.497   6.732
 2245SOL     OW 6758   0.083   3.120   6.608
 2245SOL    HW1 6759   0.078   3.119   6.708
 2245SOL    HW2 6760   0.000   3.079   6.570
 2246SOL     OW 6761   0.688   3.524   7.302
 2246SOL    HW1 6762   0.632   3.605   7.311
 2246SOL    HW2 6763   0.740   3.528   7.216
 2247SOL     OW 6764   1.726   1.997   6.109
 2247SOL    HW1 6765   1.799   1.980   6.042
 2247SOL    HW2 6766   1.695   1.910   6.147
 2248SOL     OW 6767   1.388   3.435   6.063
 2248SOL    HW1 6768   1.455   3.447   5.989
 2248SOL    HW2 6769   1.348   3.524   6.086
 2249SOL     OW 6770   0.130   3.656   7.437
 2249SOL    HW1 6771   0.089   3.582   7.490
 2249SOL    HW2 6772   0.194   3.707   7.495
 2250SOL     OW 6773   1.280   2.789   6.258
 2250SOL    HW1 6774   1.340   2.708   6.260
 2250SOL    HW2 6775   1.320   2.858   6.198
 2251SOL     OW 6776   0.830   3.135   7.008
 2251SOL    HW1 6777   0.825   3.168   7.103
 2251SOL    HW2 6778   0.744   3.154   6.962
 2252SOL     OW 6779   0.672   3.478   5.740
 2252SOL    HW1 6780   0.681   3.488   5.641
 2252SOL    HW2 6781   0.632   3.389   5.761
 2253SOL     OW 6782   1.650   3.582   6.980
 2253SOL    HW1 6783   1.703   3.592   6.896
 2253SOL    HW2 6784   1.623   3.672   7.014
 2254SOL     OW 6785   1.841   2.037   6.549
 2254SOL    HW1 6786   1.880   1.952   6.513
 2254SOL    HW2 6787   1.743   2.039   6.530
 2255SOL     OW 6788   0.263   2.188   6.306
 2255SOL    HW1 6789   0.184   2.239   6.272
 2255SOL    HW2 6790   0.254   2.173   6.404
 2256SOL     OW 6791   1.194   3.474   5.617
 2256SOL    HW1 6792   1.200   3.381   5.654
 2256SOL    HW2 6793   1.135   3.474   5.537
 2257SOL     OW 6794   0.822   2.864   6.958
 2257SOL    HW1 6795   0.862   2.863   6.866
 2257SOL    HW2 6796   0.832   2.956   6.998
 2258SOL     OW 6797   0.916   2.772   5.877
 2258SOL    HW1 6798   0.979   2.810   5.809
 2258SOL    HW2 6799   0.956   2.689   5.916
 2259SOL     OW 6800   1.504   3.469   5.630
 2259SOL    HW1 6801   1.412   3.506   5.637
 2259SOL    HW2 6802   1.542   3.489   5.540
 2260SOL     OW 6803   0.372   3.150   7.076
 2260SOL    HW1 6804   0.359   3.243   7.042
 2260SOL    HW2 6805   0.288   3.098   7.063
 2261SOL     OW 6806   1.614   3.154   6.875
 2261SOL    HW1 6807   1.674   3.157   6.955
 2261SOL    HW2 6808   1.539   3.218   6.888
 2262SOL     OW 6809   1.039   2.960   6.282
 2262SOL    HW1 6810   0.969   2.913   6.336
 2262SOL    HW2 6811   1.098   2.892   6.239
 2263SOL     OW 6812   1.014   2.098   6.557
 2263SOL    HW1 6813   1.006   2.062   6.464
 2263SOL    HW2 6814   1.012   2.022   6.622
 2264SOL     OW 6815   0.590   3.349   6.077
 2264SOL    HW1 6816   0.632   3.291   6.007
 2264SOL    HW2 6817   0.546   3.428   6.033
 2265SOL     OW 6818   1.709   2.247   6.967
 2265SOL    HW1 6819   1.782   2.316   6.971
 2265SOL    HW2 6820   1.737   2.172   6.908
 2266SOL     OW 6821   0.255   3.210   5.876
 2266SOL    HW1 6822   0.159   3.211   5.849
 2266SOL    HW2 6823   0.267   3.263   5.960
 2267SOL     OW 6824   0.105   2.875   7.312
 2267SOL    HW1 6825   0.028   2.842   7.366
 2267SOL    HW2 6826   0.190   2.845   7.354
 2268SOL     OW 6827   0.672   2.065   7.075
 2268SOL    HW1 6828   0.762   2.049   7.035
 2268SOL    HW2 6829   0.680   2.070   7.174
 2269SOL     OW 6830   0.075   2.207   5.619
 2269SOL    HW1 6831  -0.017   2.179   5.590
 2269SOL    HW2 6832   0.106   2.284   5.563
 2270SOL     OW 6833   1.440   2.718   6.984
 2270SOL    HW1 6834   1.383   2.770   6.921
 2270SOL    HW2 6835   1.536   2.730   6.960
 2271SOL     OW 6836   0.072   2.028   5.904
 2271SOL    HW1 6837   0.055   2.111   5.850
 2271SOL    HW2 6838   0.162   1.991   5.882
 2272SOL     OW 6839   1.183   3.197   5.705
 2272SOL    HW1 6840   1.084   3.186   5.707
 2272SOL    HW2 6841   1.217   3.212   5.798
 2273SOL     OW 6842   0.613   2.704   7.017
 2273SOL    HW1 6843   0.669   2.785   7.000
 2273SOL    HW2 6844   0.672   2.624   7.020
 2274SOL     OW 6845   1.493   3.629   6.545
 2274SOL    HW1 6846   1.526   3.693   6.476
 2274SOL    HW2 6847   1.559   3.623   6.620
 2275SOL     OW 6848   0.716   2.427   7.294
 2275SOL    HW1 6849   0.735   2.492   7.368
 2275SOL    HW2 6850   0.776   2.347   7.303
 2276SOL     OW 6851   1.450   3.082   7.219
 2276SOL    HW1 6852   1.441   3.072   7.318
 2276SOL    HW2 6853   1.546   3.075   7.193
 2277SOL     OW 6854   0.390   3.603   7.146
 2277SOL    HW1 6855   0.299   3.644   7.144
 2277SOL    HW2 6856   0.383   3.509   7.178
 2278SOL     OW 6857   1.674   2.745   6.840
 2278SOL    HW1 6858   1.647   2.656   6.803
 2278SOL    HW2 6859   1.675   2.813   6.767
 2279SOL     OW 6860   1.225   2.187   6.035
 2279SOL    HW1 6861   1.290   2.113   6.024
 2279SOL    HW2 6862   1.245   2.237   6.119
 2280SOL     OW 6863   0.594   2.607   6.238
 2280SOL    HW1 6864   0.644   2.692   6.219
 2280SOL    HW2 6865   0.506   2.609   6.190
 2281SOL     OW 6866   1.777   2.204   7.228
 2281SOL    HW1 6867   1.760   2.235   7.134
 2281SOL    HW2 6868   1.693   2.167   7.266
 2282SOL     OW 6869   1.730   2.796   7.103
 2282SOL    HW1 6870   1.768   2.887   7.118
 2282SOL    HW2 6871   1.722   2.779   7.004
 2283SOL     OW 6872   0.859   3.236   5.602
 2283SOL    HW1 6873   0.813   3.251   5.690
 2283SOL    HW2 6874   0.903   3.321   5.572
 2284SOL     OW 6875   0.661   3.652   6.539
 2284SOL    HW1 6876   0.615   3.740   6.526
 2284SOL    HW2 6877   0.760   3.664   6.532
 2285SOL     OW 6878   0.859   2.818   6.447
 2285SOL    HW1 6879   0.913   2.749   6.495
 2285SOL    HW2 6880   0.827   2.887   6.513
 2286SOL     OW 6881   1.083   2.846   5.673
 2286SOL    HW1 6882   1.060   2.899   5.591
 2286SOL    HW2 6883   1.164   2.790   5.654
 2287SOL     OW 6884   1.861   3.431   6.437
 2287SOL    HW1 6885   1.790   3.419   6.367
 2287SOL    HW2 6886   1.862   3.352   6.497
 2288SOL     OW 6887   0.221   3.176   7.430
 2288SOL    HW1 6888   0.156   3.103   7.409
 2288SOL    HW2 6889   0.225   3.190   7.528
 2289SOL     OW 6890   0.079   3.102   6.239
 2289SOL    HW1 6891   0.078   3.055   6.327
 2289SOL    HW2 6892   0.161   3.074   6.188
 2290SOL     OW 6893   0.672   3.253   7.210
 2290SOL    HW1 6894   0.594   3.203   7.248
 2290SOL    HW2 6895   0.669   3.348   7.241
 2291SOL     OW 6896   1.824   2.054   6.813
 2291SOL    HW1 6897   1.820   1.964   6.857
 2291SOL    HW2 6898   1.827   2.043   6.714
 2292SOL     OW 6899   0.428   2.286   6.106
 2292SOL    HW1 6900   0.458   2.214   6.044
 2292SOL    HW2 6901   0.389   2.246   6.189
 2293SOL     OW 6902   1.705   3.349   6.690
 2293SOL    HW1 6903   1.612   3.324   6.663
 2293SOL    HW2 6904   1.731   3.299   6.772
 2294SOL     OW 6905   0.317   2.409   6.866
 2294SOL    HW1 6906   0.355   2.350   6.938
 2294SOL    HW2 6907   0.357   2.383   6.778
 2295SOL     OW 6908   0.812   3.448   6.273
 2295SOL    HW1 6909   0.844   3.458   6.179
 2295SOL    HW2 6910   0.733   3.386   6.275
 2296SOL     OW 6911   1.424   2.076   6.698
 2296SOL    HW1 6912   1.476   2.011   6.753
 2296SOL    HW2 6913   1.375   2.139   6.759
 2297SOL     OW 6914   1.001   1.896   6.740
 2297SOL    HW1 6915   0.938   1.824   6.709
 2297SOL    HW2 6916   1.094   1.860   6.740
 2298SOL     OW 6917   0.770   3.192   5.887
 2298SOL    HW1 6918   0.724   3.105   5.904
 2298SOL    HW2 6919   0.861   3.189   5.928
 2299SOL     OW 6920   0.618   3.429   6.870
 2299SOL    HW1 6921   0.613   3.511   6.927
 2299SOL    HW2 6922   0.707   3.426   6.825
 2300SOL     OW 6923   1.352   1.914   5.754
 2300SOL    HW1 6924   1.387   1.873   5.670
 2300SOL    HW2 6925   1.262   1.876   5.774
 2301SOL     OW 6926   1.300   2.315   6.277
 2301SOL    HW1 6927   1.241   2.395   6.281
 2301SOL    HW2 6928   1.315   2.280   6.370
 2302SOL     OW 6929   1.593   2.083   6.468
 2302SOL    HW1 6930   1.509   2.082   6.522
 2302SOL    HW2 6931   1.595   2.166   6.412
 2303SOL     OW 6932   0.039   2.939   5.886
 2303SOL    HW1 6933   0.138   2.928   5.877
 2303SOL    HW2 6934  -0.001   2.853   5.918
 2304SOL     OW 6935   0.875   3.508   5.923
 2304SOL    HW1 6936   0.798   3.473   5.869
 2304SOL    HW2 6937   0.843   3.579   5.985
 2305SOL     OW 6938   0.230   2.490   7.561
 2305SOL    HW1 6939   0.137   2.488   7.598
 2305SOL    HW2 6940   0.231   2.451   7.469
 2306SOL     OW 6941   0.225   2.137   8.444
 2306SOL    HW1 6942   0.260   2.120   8.536
 2306SOL    HW2 6943   0.137   2.092   8.432
 2307SOL     OW 6944   0.019   2.230   8.095
 2307SOL    HW1 6945  -0.063   2.273   8.134
 2307SOL    HW2 6946  -0.009   2.157   8.032
 2308SOL     OW 6947   0.569   3.137   8.613
 2308SOL    HW1 6948   0.476   3.130   8.576
 2308SOL    HW2 6949   0.580   3.226   8.657
 2309SOL     OW 6950   1.555   3.373   8.151
 2309SOL    HW1 6951   1.498   3.357   8.232
 2309SOL    HW2 6952   1.496   3.383   8.071
 2310SOL     OW 6953   1.135   2.565   8.165
 2310SOL    HW1 6954   1.192   2.643   8.140
 2310SOL    HW2 6955   1.075   2.591   8.241
 2311SOL     OW 6956   1.755   2.469   7.679
 2311SOL    HW1 6957   1.743   2.456   7.580
 2311SOL    HW2 6958   1.725   2.388   7.728
 2312SOL     OW 6959   0.768   3.006   8.471
 2312SOL    HW1 6960   0.690   3.023   8.531
 2312SOL    HW2 6961   0.802   3.093   8.435
 2313SOL     OW 6962   0.850   2.660   9.271
 2313SOL    HW1 6963   0.846   2.736   9.336
 2313SOL    HW2 6964   0.872   2.696   9.180
 2314SOL     OW 6965   0.685   2.874   8.113
 2314SOL    HW1 6966   0.754   2.858   8.183
 2314SOL    HW2 6967   0.612   2.931   8.151
 2315SOL     OW 6968   0.686   3.023   9.251
 2315SOL    HW1 6969   0.746   3.102   9.265
 2315SOL    HW2 6970   0.600   3.054   9.210
 2316SOL     OW 6971   0.335   3.297   8.509
 2316SOL    HW1 6972   0.257   3.266   8.456
 2316SOL    HW2 6973   0.393   3.355   8.452
 2317SOL     OW 6974   1.460   3.367   8.787
 2317SOL    HW1 6975   1.484   3.461   8.813
 2317SOL    HW2 6976   1.444   3.313   8.869
 2318SOL     OW 6977   0.438   2.254   8.947
 2318SOL    HW1 6978   0.520   2.198   8.956
 2318SOL    HW2 6979   0.357   2.196   8.951
 2319SOL     OW 6980   1.603   2.309   8.185
 2319SOL    HW1 6981   1.529   2.355   8.135
 2319SOL    HW2 6982   1.654   2.377   8.238
 2320SOL     OW 6983   0.231   3.575   7.931
 2320SOL    HW1 6984   0.265   3.652   7.985
 2320SOL    HW2 6985   0.275   3.575   7.841
 2321SOL     OW 6986   1.127   3.203   9.138
 2321SOL    HW1 6987   1.174   3.203   9.226
 2321SOL    HW2 6988   1.079   3.116   9.127
 2322SOL     OW 6989   0.230   3.296   7.986
 2322SOL    HW1 6990   0.204   3.392   7.986
 2322SOL    HW2 6991   0.159   3.242   8.031
 2323SOL     OW 6992   0.240   2.953   8.334
 2323SOL    HW1 6993   0.254   2.869   8.386
 2323SOL    HW2 6994   0.185   3.017   8.389
 2324SOL     OW 6995   0.620   3.648   8.887
 2324SOL    HW1 6996   0.528   3.631   8.922
 2324SOL    HW2 6997   0.648   3.740   8.913
 2325SOL     OW 6998   0.606   2.826   7.571
 2325SOL    HW1 6999   0.613   2.910   7.517
 2325SOL    HW2 7000   0.652   2.839   7.659
 2326SOL     OW 7001   1.594   1.976   8.928
 2326SOL    HW1 7002   1.576   2.043   8.856
 2326SOL    HW2 7003   1.591   2.022   9.017
 2327SOL     OW 7004   0.122   2.505   8.011
 2327SOL    HW1 7005   0.077   2.417   8.028
 2327SOL    HW2 7006   0.121   2.559   8.095
 2328SOL     OW 7007   1.842   3.629   7.807
 2328SOL    HW1 7008   1.896   3.600   7.887
 2328SOL    HW2 7009   1.872   3.719   7.778
 2329SOL     OW 7010   0.027   3.458   7.565
 2329SOL    HW1 7011   0.008   3.362   7.586
 2329SOL    HW2 7012  -0.006   3.516   7.640
 2330SOL     OW 7013   1.689   2.784   8.060
 2330SOL    HW1 7014   1.784   2.755   8.068
 2330SOL    HW2 7015   1.681   2.849   7.985
 2331SOL     OW 7016   1.641   2.970   7.880
 2331SOL    HW1 7017   1.727   2.972   7.828
 2331SOL    HW2 7018   1.655   3.017   7.968
 2332SOL     OW 7019   0.113   2.599   9.045
 2332SOL    HW1 7020   0.201   2.586   9.090
 2332SOL    HW2 7021   0.100   2.696   9.023
 2333SOL     OW 7022   0.613   3.227   8.174
 2333SOL    HW1 7023   0.564   3.140   8.183
 2333SOL    HW2 7024   0.590   3.270   8.087
 2334SOL     OW 7025   1.293   3.090   8.871
 2334SOL    HW1 7026   1.330   3.017   8.813
 2334SOL    HW2 7027   1.345   3.095   8.956
 2335SOL     OW 7028   0.809   1.866   7.950
 2335SOL    HW1 7029   0.849   1.957   7.941
 2335SOL    HW2 7030   0.709   1.874   7.956
 2336SOL     OW 7031   0.197   2.838   8.712
 2336SOL    HW1 7032   0.286   2.793   8.698
 2336SOL    HW2 7033   0.124   2.773   8.693
 2337SOL     OW 7034   1.525   2.861   7.638
 2337SOL    HW1 7035   1.462   2.785   7.651
 2337SOL    HW2 7036   1.573   2.879   7.724
 2338SOL     OW 7037   1.187   3.654   9.064
 2338SOL    HW1 7038   1.211   3.714   8.988
 2338SOL    HW2 7039   1.194   3.559   9.034
 2339SOL     OW 7040   0.317   2.113   9.249
 2339SOL    HW1 7041   0.388   2.184   9.255
 2339SOL    HW2 7042   0.229   2.152   9.277
 2340SOL     OW 7043   1.466   3.279   8.401
 2340SOL    HW1 7044   1.407   3.285   8.481
 2340SOL    HW2 7045   1.451   3.191   8.355
 2341SOL     OW 7046   1.667   3.576   8.020
 2341SOL    HW1 7047   1.626   3.553   7.932
 2341SOL    HW2 7048   1.649   3.502   8.085
 2342SOL     OW 7049   0.598   2.591   7.718
 2342SOL    HW1 7050   0.622   2.660   7.650
 2342SOL    HW2 7051   0.520   2.624   7.772
 2343SOL     OW 7052   1.281   2.207   8.392
 2343SOL    HW1 7053   1.195   2.157   8.379
 2343SOL    HW2 7054   1.343   2.153   8.448
 2344SOL     OW 7055   1.576   3.524   7.755
 2344SOL    HW1 7056   1.665   3.570   7.758
 2344SOL    HW2 7057   1.555   3.500   7.660
 2345SOL     OW 7058   0.807   2.467   8.913
 2345SOL    HW1 7059   0.760   2.464   9.002
 2345SOL    HW2 7060   0.756   2.412   8.847
 2346SOL     OW 7061   1.394   2.331   9.122
 2346SOL    HW1 7062   1.374   2.374   9.210
 2346SOL    HW2 7063   1.472   2.269   9.131
 2347SOL     OW 7064   0.973   2.752   9.020
 2347SOL    HW1 7065   1.019   2.668   8.991
 2347SOL    HW2 7066   0.917   2.786   8.945
 2348SOL     OW 7067   0.991   2.272   8.690
 2348SOL    HW1 7068   0.914   2.306   8.744
 2348SOL    HW2 7069   0.957   2.221   8.611
 2349SOL     OW 7070   1.041   2.563   7.877
 2349SOL    HW1 7071   1.067   2.559   7.973
 2349SOL    HW2 7072   0.956   2.512   7.863
 2350SOL     OW 7073   0.076   2.673   8.237
 2350SOL    HW1 7074   0.175   2.661   8.246
 2350SOL    HW2 7075   0.052   2.768   8.258
 2351SOL     OW 7076   0.130   3.683   9.019
 2351SOL    HW1 7077   0.120   3.668   9.118
 2351SOL    HW2 7078   0.044   3.719   8.983
 2352SOL     OW 7079   0.865   2.210   7.643
 2352SOL    HW1 7080   0.924   2.273   7.594
 2352SOL    HW2 7081   0.884   2.116   7.614
 2353SOL     OW 7082   1.719   2.447   9.279
 2353SOL    HW1 7083   1.693   2.536   9.243
 2353SOL    HW2 7084   1.717   2.379   9.206
 2354SOL     OW 7085   1.362   3.006   7.993
 2354SOL    HW1 7086   1.445   2.977   7.945
 2354SOL    HW2 7087   1.313   3.073   7.937
 2355SOL     OW 7088   0.550   2.058   8.333
 2355SOL    HW1 7089   0.545   2.053   8.433
 2355SOL    HW2 7090   0.552   2.154   8.304
 2356SOL     OW 7091   1.008   3.318   7.925
 2356SOL    HW1 7092   0.962   3.390   7.873
 2356SOL    HW2 7093   1.004   3.338   8.023
 2357SOL     OW 7094   0.351   3.663   8.301
 2357SOL    HW1 7095   0.401   3.577   8.307
 2357SOL    HW2 7096   0.416   3.740   8.298
 2358SOL     OW 7097   1.795   2.928   8.321
 2358SOL    HW1 7098   1.733   2.913   8.245
 2358SOL    HW2 7099   1.743   2.939   8.406
 2359SOL     OW 7100   1.227   3.412   8.954
 2359SOL    HW1 7101   1.233   3.335   9.018
 2359SOL    HW2 7102   1.175   3.386   8.874
 2360SOL     OW 7103   0.321   2.805   7.690
 2360SOL    HW1 7104   0.403   2.844   7.648
 2360SOL    HW2 7105   0.294   2.723   7.641
 2361SOL     OW 7106   1.458   2.597   8.176
 2361SOL    HW1 7107   1.453   2.532   8.251
 2361SOL    HW2 7108   1.538   2.656   8.189
 2362SOL     OW 7109   0.461   3.128   9.175
 2362SOL    HW1 7110   0.411   3.129   9.089
 2362SOL    HW2 7111   0.398   3.110   9.251
 2363SOL     OW 7112   1.111   3.638   7.685
 2363SOL    HW1 7113   1.051   3.576   7.735
 2363SOL    HW2 7114   1.142   3.594   7.600
 2364SOL     OW 7115   0.202   2.147   8.946
 2364SOL    HW1 7116   0.122   2.207   8.933
 2364SOL    HW2 7117   0.192   2.098   9.032
 2365SOL     OW 7118   1.632   3.239   7.529
 2365SOL    HW1 7119   1.600   3.333   7.519
 2365SOL    HW2 7120   1.556   3.176   7.517
 2366SOL     OW 7121   0.464   3.605   7.771
 2366SOL    HW1 7122   0.497   3.644   7.857
 2366SOL    HW2 7123   0.540   3.598   7.706
 2367SOL     OW 7124   1.400   1.969   7.874
 2367SOL    HW1 7125   1.376   1.932   7.784
 2367SOL    HW2 7126   1.499   1.985   7.878
 2368SOL     OW 7127   0.249   3.647   8.689
 2368SOL    HW1 7128   0.306   3.582   8.739
 2368SOL    HW2 7129   0.233   3.614   8.596
 2369SOL     OW 7130   0.940   3.560   8.352
 2369SOL    HW1 7131   1.020   3.503   8.373
 2369SOL    HW2 7132   0.891   3.520   8.275
 2370SOL     OW 7133   0.382   2.562   7.928
 2370SOL    HW1 7134   0.427   2.472   7.925
 2370SOL    HW2 7135   0.288   2.551   7.961
 2371SOL     OW 7136   1.547   2.084   9.177
 2371SOL    HW1 7137   1.542   2.121   9.269
 2371SOL    HW2 7138   1.475   2.015   9.165
 2372SOL     OW 7139   0.614   1.984   7.565
 2372SOL    HW1 7140   0.712   1.962   7.572
 2372SOL    HW2 7141   0.583   1.967   7.472
 2373SOL     OW 7142   0.781   2.126   9.197
 2373SOL    HW1 7143   0.848   2.065   9.240
 2373SOL    HW2 7144   0.708   2.145   9.262
 2374SOL     OW 7145   0.888   3.376   8.643
 2374SOL    HW1 7146   0.865   3.351   8.549
 2374SOL    HW2 7147   0.949   3.307   8.682
 2375SOL     OW 7148   1.351   2.452   8.881
 2375SOL    HW1 7149   1.379   2.409   8.966
 2375SOL    HW2 7150   1.376   2.548   8.882
 2376SOL     OW 7151   0.803   3.264   8.372
 2376SOL    HW1 7152   0.893   3.278   8.330
 2376SOL    HW2 7153   0.732   3.266   8.301
 2377SOL     OW 7154   0.922   2.365   8.347
 2377SOL    HW1 7155   0.897   2.356   8.251
 2377SOL    HW2 7156   0.970   2.283   8.378
 2378SOL     OW 7157   0.539   1.926   7.960
 2378SOL    HW1 7158   0.458   1.927   8.018
 2378SOL    HW2 7159   0.542   2.009   7.905
 2379SOL     OW 7160   1.434   3.050   7.489
 2379SOL    HW1 7161   1.466   2.974   7.546
 2379SOL    HW2 7162   1.342   3.077   7.519
 2380SOL     OW 7163   0.297   1.897   7.619
 2380SOL    HW1 7164   0.346   1.981   7.598
 2380SOL    HW2 7165   0.359   1.832   7.664
 2381SOL     OW 7166   0.935   2.098   7.928
 2381SOL    HW1 7167   0.887   2.139   7.850
 2381SOL    HW2 7168   1.034   2.096   7.909
 2382SOL     OW 7169   1.076   2.545   8.912
 2382SOL    HW1 7170   0.996   2.484   8.915
 2382SOL    HW2 7171   1.157   2.492   8.888
 2383SOL     OW 7172   1.227   3.432   8.241
 2383SOL    HW1 7173   1.248   3.506   8.176
 2383SOL    HW2 7174   1.295   3.432   8.314
 2384SOL     OW 7175   0.459   3.014   8.189
 2384SOL    HW1 7176   0.388   2.987   8.254
 2384SOL    HW2 7177   0.433   2.986   8.096
 2385SOL     OW 7178   1.271   3.659   8.039
 2385SOL    HW1 7179   1.315   3.723   7.975
 2385SOL    HW2 7180   1.221   3.711   8.109
 2386SOL     OW 7181   1.032   2.411   7.464
 2386SOL    HW1 7182   0.991   2.493   7.425
 2386SOL    HW2 7183   1.096   2.437   7.537
 2387SOL     OW 7184   0.078   2.418   8.834
 2387SOL    HW1 7185   0.170   2.417   8.793
 2387SOL    HW2 7186   0.072   2.492   8.901
 2388SOL     OW 7187   0.561   2.084   8.595
 2388SOL    HW1 7188   0.599   2.000   8.632
 2388SOL    HW2 7189   0.473   2.103   8.639
 2389SOL     OW 7190   0.866   2.316   8.090
 2389SOL    HW1 7191   0.834   2.388   8.028
 2389SOL    HW2 7192   0.890   2.235   8.037
 2390SOL     OW 7193   1.017   1.901   8.201
 2390SOL    HW1 7194   0.945   1.906   8.132
 2390SOL    HW2 7195   0.993   1.832   8.270
 2391SOL     OW 7196   1.429   3.035   8.315
 2391SOL    HW1 7197   1.374   2.951   8.308
 2391SOL    HW2 7198   1.455   3.064   8.223
 2392SOL     OW 7199   1.466   2.452   8.440
 2392SOL    HW1 7200   1.436   2.357   8.447
 2392SOL    HW2 7201   1.539   2.468   8.506
 2393SOL     OW 7202   1.857   2.695   7.825
 2393SOL    HW1 7203   1.899   2.631   7.889
 2393SOL    HW2 7204   1.819   2.644   7.747
 2394SOL     OW 7205   0.488   3.247   7.622
 2394SOL    HW1 7206   0.401   3.232   7.669
 2394SOL    HW2 7207   0.471   3.273   7.527
 2395SOL     OW 7208   1.664   3.142   8.105
 2395SOL    HW1 7209   1.763   3.150   8.119
 2395SOL    HW2 7210   1.619   3.226   8.136
 2396SOL     OW 7211   1.390   2.437   7.526
 2396SOL    HW1 7212   1.336   2.416   7.607
 2396SOL    HW2 7213   1.481   2.396   7.535
 2397SOL     OW 7214   0.527   2.118   7.776
 2397SOL    HW1 7215   0.554   2.059   7.701
 2397SOL    HW2 7216   0.527   2.213   7.745
 2398SOL     OW 7217   1.754   3.085   9.036
 2398SOL    HW1 7218   1.845   3.046   9.023
 2398SOL    HW2 7219   1.762   3.181   9.060
 2399SOL     OW 7220   1.064   3.209   8.788
 2399SOL    HW1 7221   0.984   3.186   8.843
 2399SOL    HW2 7222   1.147   3.183   8.837
 2400SOL     OW 7223   1.592   3.491   9.073
 2400SOL    HW1 7224   1.619   3.525   8.983
 2400SOL    HW2 7225   1.671   3.453   9.119
 2401SOL     OW 7226   1.111   3.057   8.548
 2401SOL    HW1 7227   1.071   3.101   8.629
 2401SOL    HW2 7228   1.070   3.094   8.465
 2402SOL     OW 7229   1.638   2.961   8.527
 2402SOL    HW1 7230   1.643   3.042   8.586
 2402SOL    HW2 7231   1.552   2.963   8.476
 2403SOL     OW 7232   0.915   1.951   8.850
 2403SOL    HW1 7233   0.940   1.931   8.755
 2403SOL    HW2 7234   0.987   2.007   8.892
 2404SOL     OW 7235   0.980   2.978   9.167
 2404SOL    HW1 7236   0.881   2.984   9.177
 2404SOL    HW2 7237   1.003   2.898   9.111
 2405SOL     OW 7238   0.705   2.912   7.816
 2405SOL    HW1 7239   0.691   2.919   7.915
 2405SOL    HW2 7240   0.789   2.861   7.798
 2406SOL     OW 7241   0.410   2.675   8.699
 2406SOL    HW1 7242   0.496   2.687   8.749
 2406SOL    HW2 7243   0.368   2.588   8.726
 2407SOL     OW 7244   1.274   2.248   8.710
 2407SOL    HW1 7245   1.295   2.322   8.774
 2407SOL    HW2 7246   1.185   2.265   8.667
 2408SOL     OW 7247   0.064   3.426   8.779
 2408SOL    HW1 7248   0.018   3.508   8.745
 2408SOL    HW2 7249   0.162   3.445   8.788
 2409SOL     OW 7250   0.367   2.962   7.949
 2409SOL    HW1 7251   0.360   3.045   7.893
 2409SOL    HW2 7252   0.371   2.882   7.889
 2410SOL     OW 7253   0.566   2.399   8.313
 2410SOL    HW1 7254   0.578   2.465   8.239
 2410SOL    HW2 7255   0.612   2.433   8.396
 2411SOL     OW 7256   1.252   3.210   7.836
 2411SOL    HW1 7257   1.302   3.287   7.876
 2411SOL    HW2 7258   1.157   3.212   7.868
 2412SOL     OW 7259   1.272   3.307   8.590
 2412SOL    HW1 7260   1.319   3.320   8.677
 2412SOL    HW2 7261   1.206   3.233   8.599
 2413SOL     OW 7262   1.582   2.501   7.920
 2413SOL    HW1 7263   1.551   2.562   7.993
 2413SOL    HW2 7264   1.632   2.553   7.851
 2414SOL     OW 7265   0.354   3.372   8.777
 2414SOL    HW1 7266   0.333   3.328   8.690
 2414SOL    HW2 7267   0.451   3.398   8.780
 2415SOL     OW 7268   0.402   2.613   9.046
 2415SOL    HW1 7269   0.470   2.668   8.999
 2415SOL    HW2 7270   0.442   2.525   9.073
 2416SOL     OW 7271   1.587   2.641   9.118
 2416SOL    HW1 7272   1.495   2.679   9.113
 2416SOL    HW2 7273   1.647   2.688   9.053
 2417SOL     OW 7274   1.013   1.967   9.218
 2417SOL    HW1 7275   1.019   2.052   9.166
 2417SOL    HW2 7276   1.045   1.891   9.161
 2418SOL     OW 7277   0.504   1.912   9.188
 2418SOL    HW1 7278   0.462   1.855   9.118
 2418SOL    HW2 7279   0.438   1.981   9.220
 2419SOL     OW 7280   0.573   2.732   8.477
 2419SOL    HW1 7281   0.617   2.821   8.468
 2419SOL    HW2 7282   0.510   2.732   8.554
 2420SOL     OW 7283   1.360   2.724   8.493
 2420SOL    HW1 7284   1.285   2.724   8.427
 2420SOL    HW2 7285   1.397   2.632   8.502
 2421SOL     OW 7286   1.209   2.387   7.723
 2421SOL    HW1 7287   1.222   2.303   7.777
 2421SOL    HW2 7288   1.180   2.461   7.783
 2422SOL     OW 7289   0.307   2.075   8.679
 2422SOL    HW1 7290   0.284   2.112   8.769
 2422SOL    HW2 7291   0.277   1.980   8.673
 2423SOL     OW 7292   0.037   3.172   8.730
 2423SOL    HW1 7293   0.090   3.123   8.798
 2423SOL    HW2 7294   0.059   3.270   8.735
 2424SOL     OW 7295   0.732   2.496   8.512
 2424SOL    HW1 7296   0.791   2.470   8.436
 2424SOL    HW2 7297   0.704   2.592   8.501
 2425SOL     OW 7298   1.728   2.797   9.302
 2425SOL    HW1 7299   1.682   2.790   9.213
 2425SOL    HW2 7300   1.666   2.841   9.368
 2426SOL     OW 7301   0.307   1.925   8.066
 2426SOL    HW1 7302   0.296   2.019   8.099
 2426SOL    HW2 7303   0.302   1.862   8.143
 2427SOL     OW 7304   1.622   2.229   7.822
 2427SOL    HW1 7305   1.624   2.153   7.886
 2427SOL    HW2 7306   1.574   2.306   7.862
 2428SOL     OW 7307   1.023   2.628   8.414
 2428SOL    HW1 7308   1.038   2.649   8.510
 2428SOL    HW2 7309   0.993   2.533   8.405
 2429SOL     OW 7310   0.980   3.435   9.148
 2429SOL    HW1 7311   0.960   3.479   9.060
 2429SOL    HW2 7312   1.019   3.344   9.132
 2430SOL     OW 7313   1.859   3.380   9.053
 2430SOL    HW1 7314   1.873   3.407   8.958
 2430SOL    HW2 7315   1.942   3.402   9.106
 2431SOL     OW 7316   0.350   2.760   9.252
 2431SOL    HW1 7317   0.426   2.804   9.300
 2431SOL    HW2 7318   0.385   2.713   9.170
 2432SOL     OW 7319   1.540   2.136   7.573
 2432SOL    HW1 7320   1.479   2.061   7.596
 2432SOL    HW2 7321   1.562   2.188   7.656
 2433SOL     OW 7322   1.303   2.700   7.490
 2433SOL    HW1 7323   1.337   2.607   7.505
 2433SOL    HW2 7324   1.321   2.727   7.395
 2434SOL     OW 7325   1.068   3.195   8.297
 2434SOL    HW1 7326   1.075   3.111   8.242
 2434SOL    HW2 7327   1.130   3.264   8.261
 2435SOL     OW 7328   0.319   2.672   8.397
 2435SOL    HW1 7329   0.412   2.708   8.402
 2435SOL    HW2 7330   0.313   2.587   8.449
 2436SOL     OW 7331   0.339   2.371   8.454
 2436SOL    HW1 7332   0.287   2.288   8.437
 2436SOL    HW2 7333   0.416   2.376   8.390
 2437SOL     OW 7334   1.138   2.242   9.126
 2437SOL    HW1 7335   1.093   2.305   9.190
 2437SOL    HW2 7336   1.231   2.273   9.109
 2438SOL     OW 7337   1.160   2.069   8.925
 2438SOL    HW1 7338   1.160   2.133   9.002
 2438SOL    HW2 7339   1.188   2.117   8.842
 2439SOL     OW 7340   0.008   3.188   7.648
 2439SOL    HW1 7341  -0.085   3.209   7.617
 2439SOL    HW2 7342   0.018   3.089   7.661
 2440SOL     OW 7343   0.088   3.663   8.375
 2440SOL    HW1 7344   0.046   3.577   8.348
 2440SOL    HW2 7345   0.182   3.666   8.341
 2441SOL     OW 7346   0.504   3.430   8.358
 2441SOL    HW1 7347   0.570   3.504   8.367
 2441SOL    HW2 7348   0.548   3.351   8.316
 2442SOL     OW 7349   1.002   2.658   8.686
 2442SOL    HW1 7350   1.043   2.626   8.772
 2442SOL    HW2 7351   0.906   2.631   8.683
 2443SOL     OW 7352   0.040   2.406   8.562
 2443SOL    HW1 7353   0.125   2.373   8.521
 2443SOL    HW2 7354   0.053   2.421   8.660
 2444SOL     OW 7355   0.189   2.382   9.170
 2444SOL    HW1 7356   0.248   2.342   9.100
 2444SOL    HW2 7357   0.131   2.453   9.129
 2445SOL     OW 7358   1.369   2.812   9.108
 2445SOL    HW1 7359   1.408   2.901   9.128
 2445SOL    HW2 7360   1.379   2.792   9.011
 2446SOL     OW 7361   0.815   2.434   7.773
 2446SOL    HW1 7362   0.822   2.345   7.727
 2446SOL    HW2 7363   0.721   2.468   7.765
 2447SOL     OW 7364   1.657   2.466   8.654
 2447SOL    HW1 7365   1.619   2.397   8.716
 2447SOL    HW2 7366   1.739   2.430   8.610
 2448SOL     OW 7367   0.671   2.326   8.717
 2448SOL    HW1 7368   0.637   2.237   8.687
 2448SOL    HW2 7369   0.697   2.380   8.637
 2449SOL     OW 7370   0.930   3.540   8.913
 2449SOL    HW1 7371   0.906   3.522   8.818
 2449SOL    HW2 7372   0.960   3.634   8.923
 2450SOL     OW 7373   0.473   2.362   7.639
 2450SOL    HW1 7374   0.534   2.442   7.643
 2450SOL    HW2 7375   0.378   2.393   7.646
 2451SOL     OW 7376   0.159   2.999   8.914
 2451SOL    HW1 7377   0.181   2.938   8.990
 2451SOL    HW2 7378   0.169   2.950   8.828
 2452SOL     OW 7379   1.347   2.921   8.682
 2452SOL    HW1 7380   1.371   2.858   8.608
 2452SOL    HW2 7381   1.257   2.961   8.664
 2453SOL     OW 7382   1.302   2.717   7.757
 2453SOL    HW1 7383   1.216   2.686   7.799
 2453SOL    HW2 7384   1.298   2.703   7.658
 2454SOL     OW 7385   1.759   3.609   8.602
 2454SOL    HW1 7386   1.820   3.639   8.529
 2454SOL    HW2 7387   1.721   3.520   8.580
 2455SOL     OW 7388   1.252   3.593   8.576
 2455SOL    HW1 7389   1.336   3.598   8.522
 2455SOL    HW2 7390   1.229   3.497   8.594
 2456SOL     OW 7391   0.083   3.120   8.470
 2456SOL    HW1 7392   0.078   3.119   8.570
 2456SOL    HW2 7393   0.000   3.079   8.432
 2457SOL     OW 7394   0.688   3.524   9.164
 2457SOL    HW1 7395   0.632   3.605   9.173
 2457SOL    HW2 7396   0.740   3.528   9.078
 2458SOL     OW 7397   1.726   1.997   7.971
 2458SOL    HW1 7398   1.799   1.980   7.904
 2458SOL    HW2 7399   1.695   1.910   8.009
 2459SOL     OW 7400   1.388   3.435   7.925
 2459SOL    HW1 7401   1.455   3.447   7.851
 2459SOL    HW2 7402   1.348   3.524   7.948
 2460SOL     OW 7403   0.130   3.656   9.299
 2460SOL    HW1 7404   0.089   3.582   9.352
 2460SOL    HW2 7405   0.194   3.707   9.357
 2461SOL     OW 7406   1.280   2.789   8.120
 2461SOL    HW1 7407   1.340   2.708   8.122
 2461SOL    HW2 7408   1.320   2.858   8.060
 2462SOL     OW 7409   0.830   3.135   8.870
 2462SOL    HW1 7410   0.825   3.168   8.965
 2462SOL    HW2 7411   0.744   3.154   8.824
 2463SOL     OW 7412   0.672   3.478   7.602
 2463SOL    HW1 7413   0.681   3.488   7.503
 2463SOL    HW2 7414   0.632   3.389   7.623
 2464SOL     OW 7415   1.650   3.582   8.842
 2464SOL    HW1 7416   1.703   3.592   8.758
 2464SOL    HW2 7417   1.623   3.672   8.876
 2465SOL     OW 7418   1.841   2.037   8.411
 2465SOL    HW1 7419   1.880   1.952   8.375
 2465SOL    HW2 7420   1.743   2.039   8.392
 2466SOL     OW 7421   0.263   2.188   8.168
 2466SOL    HW1 7422   0.184   2.239   8.134
 2466SOL    HW2 7423   0.254   2.173   8.266
 2467SOL     OW 7424   1.194   3.474   7.479
 2467SOL    HW1 7425   1.200   3.381   7.516
 2467SOL    HW2 7426   1.135   3.474   7.399
 2468SOL     OW 7427   0.822   2.864   8.820
 2468SOL    HW1 7428   0.862   2.863   8.728
 2468SOL    HW2 7429   0.832   2.956   8.860
 2469SOL     OW 7430   0.916   2.772   7.739
 2469SOL    HW1 7431   0.979   2.810   7.671
 2469SOL    HW2 7432   0.956   2.689   7.778
 2470SOL     OW 7433   1.504   3.469   7.492
 2470SOL    HW1 7434   1.412   3.506   7.499
 2470SOL    HW2 7435   1.542   3.489   7.402
 2471SOL     OW 7436   0.372   3.150   8.938
 2471SOL    HW1 7437   0.359   3.243   8.904
 2471SOL    HW2 7438   0.288   3.098   8.925
 2472SOL     OW 7439   1.614   3.154   8.737
 2472SOL    HW1 7440   1.674   3.157   8.817
 2472SOL    HW2 7441   1.539   3.218   8.750
 2473SOL     OW 7442   1.039   2.960   8.144
 2473SOL    HW1 7443   0.969   2.913   8.198
 2473SOL    HW2 7444   1.098   2.892   8.101
 2474SOL     OW 7445   1.014   2.098   8.419
 2474SOL    HW1 7446   1.006   2.062   8.326
 2474SOL    HW2 7447   1.012   2.022   8.484
 2475SOL     OW 7448   0.590   3.349   7.939
 2475SOL    HW1 7449   0.632   3.291   7.869
 2475SOL    HW2 7450   0.546   3.428   7.895
 2476SOL     OW 7451   1.709   2.247   8.829
 2476SOL    HW1 7452   1.782   2.316   8.833
 2476SOL    HW2 7453   1.737   2.172   8.770
 2477SOL     OW 7454   0.255   3.210   7.738
 2477SOL    HW1 7455   0.159   3.211   7.711
 2477SOL    HW2 7456   0.267   3.263   7.822
 2478SOL     OW 7457   0.105   2.875   9.174
 2478SOL    HW1 7458   0.028   2.842   9.228
 2478SOL    HW2 7459   0.190   2.845   9.216
 2479SOL     OW 7460   0.672   2.065   8.937
 2479SOL    HW1 7461   0.762   2.049   8.897
 2479SOL    HW2 7462   0.680   2.070   9.036
 2480SOL     OW 7463   0.075   2.207   7.481
 2480SOL    HW1 7464  -0.017   2.179   7.452
 2480SOL    HW2 7465   0.106   2.284   7.425
 2481SOL     OW 7466   1.440   2.718   8.846
 2481SOL    HW1 7467   1.383   2.770   8.783
 2481SOL    HW2 7468   1.536   2.730   8.822
 2482SOL     OW 7469   0.072   2.028   7.766
 2482SOL    HW1 7470   0.055   2.111   7.712
 2482SOL    HW2 7471   0.162   1.991   7.744
 2483SOL     OW 7472   1.183   3.197   7.567
 2483SOL    HW1 7473   1.084   3.186   7.569
 2483SOL    HW2 7474   1.217   3.212   7.660
 2484SOL     OW 7475   0.613   2.704   8.879
 2484SOL    HW1 7476   0.669   2.785   8.862
 2484SOL    HW2 7477   0.672   2.624   8.882
 2485SOL     OW 7478   1.493   3.629   8.407
 2485SOL    HW1 7479   1.526   3.693   8.338
 2485SOL    HW2 7480   1.559   3.623   8.482
 2486SOL     OW 7481   0.716   2.427   9.156
 2486SOL    HW1 7482   0.735   2.492   9.230
 2486SOL    HW2 7483   0.776   2.347   9.165
 2487SOL     OW 7484   1.450   3.082   9.081
 2487SOL    HW1 7485   1.441   3.072   9.180
 2487SOL    HW2 7486   1.546   3.075   9.055
 2488SOL     OW 7487   0.390   3.603   9.008
 2488SOL    HW1 7488   0.299   3.644   9.006
 2488SOL    HW2 7489   0.383   3.509   9.040
 2489SOL     OW 7490   1.674   2.745   8.702
 2489SOL    HW1 7491   1.647   2.656   8.665
 2489SOL    HW2 7492   1.675   2.813   8.629
 2490SOL     OW 7493   1.225   2.187   7.897
 2490SOL    HW1 7494   1.290   2.113   7.886
 2490SOL    HW2 7495   1.245   2.237   7.981
 2491SOL     OW 7496   0.594   2.607   8.100
 2491SOL    HW1 7497   0.644   2.692   8.081
 2491SOL    HW2 7498   0.506   2.609   8.052
 2492SOL     OW 7499   1.777   2.204   9.090
 2492SOL    HW1 7500   1.760   2.235   8.996
 2492SOL    HW2 7501   1.693   2.167   9.128
 2493SOL     OW 7502   1.730   2.796   8.965
 2493SOL    HW1 7503   1.768   2.887   8.980
 2493SOL    HW2 7504   1.722   2.779   8.866
 2494SOL     OW 7505   0.859   3.236   7.464
 2494SOL    HW1 7506   0.813   3.251   7.552
 2494SOL    HW2 7507   0.903   3.321   7.434
 2495SOL     OW 7508   0.661   3.652   8.401
 2495SOL    HW1 7509   0.615   3.740   8.388
 2495SOL    HW2 7510   0.760   3.664   8.394
 2496SOL     OW 7511   0.859   2.818   8.309
 2496SOL    HW1 7512   0.913   2.749   8.357
 2496SOL    HW2 7513   0.827   2.887   8.375
 2497SOL     OW 7514   1.083   2.846   7.535
 2497SOL    HW1 7515   1.060   2.899   7.453
 2497SOL    HW2 7516   1.164   2.790   7.516
 2498SOL     OW 7517   1.861   3.431   8.299
 2498SOL    HW1 7518   1.790   3.419   8.229
 2498SOL    HW2 7519   1.862   3.352   8.359
 2499SOL     OW 7520   0.221   3.176   9.292
 2499SOL    HW1 7521   0.156   3.103   9.271
 2499SOL    HW2 7522   0.225   3.190   9.390
 2500SOL     OW 7523   0.079   3.102   8.101
 2500SOL    HW1 7524   0.078   3.055   8.189
 2500SOL    HW2 7525   0.161   3.074   8.050
 2501SOL     OW 7526   0.672   3.253   9.072
 2501SOL    HW1 7527   0.594   3.203   9.110
 2501SOL    HW2 7528   0.669   3.348   9.103
 2502SOL     OW 7529   1.824   2.054   8.675
 2502SOL    HW1 7530   1.820   1.964   8.719
 2502SOL    HW2 7531   1.827   2.043   8.576
 2503SOL     OW 7532   0.428   2.286   7.968
 2503SOL    HW1 7533   0.458   2.214   7.906
 2503SOL    HW2 7534   0.389   2.246   8.051
 2504SOL     OW 7535   1.705   3.349   8.552
 2504SOL    HW1 7536   1.612   3.324   8.525
 2504SOL    HW2 7537   1.731   3.299   8.634
 2505SOL     OW 7538   0.317   2.409   8.728
 2505SOL    HW1 7539   0.355   2.350   8.800
 2505SOL    HW2 7540   0.357   2.383   8.640
 2506SOL     OW 7541   0.812   3.448   8.135
 2506SOL    HW1 7542   0.844   3.458   8.041
 2506SOL    HW2 7543   0.733   3.386   8.137
 2507SOL     OW 7544   1.424   2.076   8.560
 2507SOL    HW1 7545   1.476   2.011   8.615
 2507SOL    HW2 7546   1.375   2.139   8.621
 2508SOL     OW 7547   1.001   1.896   8.602
 2508SOL    HW1 7548   0.938   1.824   8.571
 2508SOL    HW2 7549   1.094   1.860   8.602
 2509SOL     OW 7550   0.770   3.192   7.749
 2509SOL    HW1 7551   0.724   3.105   7.766
 2509SOL    HW2 7552   0.861   3.189   7.790
 2510SOL     OW 7553   0.618   3.429   8.732
 2510SOL    HW1 7554   0.613   3.511   8.789
 2510SOL    HW2 7555   0.707   3.426   8.687
 2511SOL     OW 7556   1.352   1.914   7.616
 2511SOL    HW1 7557   1.387   1.873   7.532
 2511SOL    HW2 7558   1.262   1.876   7.636
 2512SOL     OW 7559   1.300   2.315   8.139
 2512SOL    HW1 7560   1.241   2.395   8.143
 2512SOL    HW2 7561   1.315   2.280   8.232
 2513SOL     OW 7562   1.593   2.083   8.330
 2513SOL    HW1 7563   1.509   2.082   8.384
 2513SOL    HW2 7564   1.595   2.166   8.274
 2514SOL     OW 7565   0.039   2.939   7.748
 2514SOL    HW1 7566   0.138   2.928   7.739
 2514SOL    HW2 7567  -0.001   2.853   7.780
 2515SOL     OW 7568   0.875   3.508   7.785
 2515SOL    HW1 7569   0.798   3.473   7.731
 2515SOL    HW2 7570   0.843   3.579   7.847
 2516SOL     OW 7571   0.230   2.490   9.423
 2516SOL    HW1 7572   0.137   2.488   9.460
 2516SOL    HW2 7573   0.231   2.451   9.331
 2517SOL     OW 7574   0.225   2.137  10.306
 2517SOL    HW1 7575   0.260   2.120  10.398
 2517SOL    HW2 7576   0.137   2.092  10.294
 2518SOL     OW 7577   0.019   2.230   9.957
 2518SOL    HW1 7578  -0.063   2.273   9.996
 2518SOL    HW2 7579  -0.009   2.157   9.894
 2519SOL     OW 7580   0.569   3.137  10.475
 2519SOL    HW1 7581   0.476   3.130  10.438
 2519SOL    HW2 7582   0.580   3.226  10.519
 2520SOL     OW 7583   1.555   3.373  10.013
 2520SOL    HW1 7584   1.498   3.357  10.094
 2520SOL    HW2 7585   1.496   3.383   9.933
 2521SOL     OW 7586   1.135   2.565  10.027
 2521SOL    HW1 7587   1.192   2.643  10.002
 2521SOL    HW2 7588   1.075   2.591  10.103
 2522SOL     OW 7589   1.755   2.469   9.541
 2522SOL    HW1 7590   1.743   2.456   9.442
 2522SOL    HW2 7591   1.725   2.388   9.590
 2523SOL     OW 7592   0.768   3.006  10.333
 2523SOL    HW1 7593   0.690   3.023  10.393
 2523SOL    HW2 7594   0.802   3.093  10.297
 2524SOL     OW 7595   0.850   2.660  11.133
 2524SOL    HW1 7596   0.846   2.736  11.198
 2524SOL    HW2 7597   0.872   2.696  11.042
 2525SOL     OW 7598   0.685   2.874   9.975
 2525SOL    HW1 7599   0.754   2.858  10.045
 2525SOL    HW2 7600   0.612   2.931  10.013
 2526SOL     OW 7601   0.686   3.023  11.113
 2526SOL    HW1 7602   0.746   3.102  11.127
 2526SOL    HW2 7603   0.600   3.054  11.072
 2527SOL     OW 7604   0.335   3.297  10.371
 2527SOL    HW1 7605   0.257   3.266  10.318
 2527SOL    HW2 7606   0.393   3.355  10.314
 2528SOL     OW 7607   1.460   3.367  10.649
 2528SOL    HW1 7608   1.484   3.461  10.675
 2528SOL    HW2 7609   1.444   3.313  10.731
 2529SOL     OW 7610   0.438   2.254  10.809
 2529SOL    HW1 7611   0.520   2.198  10.818
 2529SOL    HW2 7612   0.357   2.196  10.813
 2530SOL     OW 7613   1.603   2.309  10.047
 2530SOL    HW1 7614   1.529   2.355   9.997
 2530SOL    HW2 7615   1.654   2.377  10.100
 2531SOL     OW 7616   0.231   3.575   9.793
 2531SOL    HW1 7617   0.265   3.652   9.847
 2531SOL    HW2 7618   0.275   3.575   9.703
 2532SOL     OW 7619   1.127   3.203  11.000
 2532SOL    HW1 7620   1.174   3.203  11.088
 2532SOL    HW2 7621   1.079   3.116  10.989
 2533SOL     OW 7622   0.230   3.296   9.848
 2533SOL    HW1 7623   0.204   3.392   9.848
 2533SOL    HW2 7624   0.159   3.242   9.893
 2534SOL     OW 7625   0.240   2.953  10.196
 2534SOL    HW1 7626   0.254   2.869  10.248
 2534SOL    HW2 7627   0.185   3.017  10.251
 2535SOL     OW 7628   0.620   3.648  10.749
 2535SOL    HW1 7629   0.528   3.631  10.784
 2535SOL    HW2 7630   0.648   3.740  10.775
 2536SOL     OW 7631   0.606   2.826   9.433
 2536SOL    HW1 7632   0.613   2.910   9.379
 2536SOL    HW2 7633   0.652   2.839   9.521
 2537SOL     OW 7634   1.594   1.976  10.790
 2537SOL    HW1 7635   1.576   2.043  10.718
 2537SOL    HW2 7636   1.591   2.022  10.879
 2538SOL     OW 7637   0.122   2.505   9.873
 2538SOL    HW1 7638   0.077   2.417   9.890
 2538SOL    HW2 7639   0.121   2.559   9.957
 2539SOL     OW 7640   1.842   3.629   9.669
 2539SOL    HW1 7641   1.896   3.600   9.749
 2539SOL    HW2 7642   1.872   3.719   9.640
 2540SOL     OW 7643   0.027   3.458   9.427
 2540SOL    HW1 7644   0.008   3.362   9.448
 2540SOL    HW2 7645  -0.006   3.516   9.502
 2541SOL     OW 7646   1.689   2.784   9.922
 2541SOL    HW1 7647   1.784   2.755   9.930
 2541SOL    HW2 7648   1.681   2.849   9.847
 2542SOL     OW 7649   1.641   2.970   9.742
 2542SOL    HW1 7650   1.727   2.972   9.690
 2542SOL    HW2 7651   1.655   3.017   9.830
 2543SOL     OW 7652   0.113   2.599  10.907
 2543SOL    HW1 7653   0.201   2.586  10.952
 2543SOL    HW2 7654   0.100   2.696  10.885
 2544SOL     OW 7655   0.613   3.227  10.036
 2544SOL    HW1 7656   0.564   3.140  10.045
 2544SOL    HW2 7657   0.590   3.270   9.949
 2545SOL     OW 7658   1.293   3.090  10.733
 2545SOL    HW1 7659   1.330   3.017  10.675
 2545SOL    HW2 7660   1.345   3.095  10.818
 2546SOL     OW 7661   0.809   1.866   9.812
 2546SOL    HW1 7662   0.849   1.957   9.803
 2546SOL    HW2 7663   0.709   1.874   9.818
 2547SOL     OW 7664   0.197   2.838  10.574
 2547SOL    HW1 7665   0.286   2.793  10.560
 2547SOL    HW2 7666   0.124   2.773  10.555
 2548SOL     OW 7667   1.525   2.861   9.500
 2548SOL    HW1 7668   1.462   2.785   9.513
 2548SOL    HW2 7669   1.573   2.879   9.586
 2549SOL     OW 7670   1.187   3.654  10.926
 2549SOL    HW1 7671   1.211   3.714  10.850
 2549SOL    HW2 7672   1.194   3.559  10.896
 2550SOL     OW 7673   0.317   2.113  11.111
 2550SOL    HW1 7674   0.388   2.184  11.117
 2550SOL    HW2 7675   0.229   2.152  11.139
 2551SOL     OW 7676   1.466   3.279  10.263
 2551SOL    HW1 7677   1.407   3.285  10.343
 2551SOL    HW2 7678   1.451   3.191  10.217
 2552SOL     OW 7679   1.667   3.576   9.882
 2552SOL    HW1 7680   1.626   3.553   9.794
 2552SOL    HW2 7681   1.649   3.502   9.947
 2553SOL     OW 7682   0.598   2.591   9.580
 2553SOL    HW1 7683   0.622   2.660   9.512
 2553SOL    HW2 7684   0.520   2.624   9.634
 2554SOL     OW 7685   1.281   2.207  10.254
 2554SOL    HW1 7686   1.195   2.157  10.241
 2554SOL    HW2 7687   1.343   2.153  10.310
 2555SOL     OW 7688   1.576   3.524   9.617
 2555SOL    HW1 7689   1.665   3.570   9.620
 2555SOL    HW2 7690   1.555   3.500   9.522
 2556SOL     OW 7691   0.807   2.467  10.775
 2556SOL    HW1 7692   0.760   2.464  10.864
 2556SOL    HW2 7693   0.756   2.412  10.709
 2557SOL     OW 7694   1.394   2.331  10.984
 2557SOL    HW1 7695   1.374   2.374  11.072
 2557SOL    HW2 7696   1.472   2.269  10.993
 2558SOL     OW 7697   0.973   2.752  10.882
 2558SOL    HW1 7698   1.019   2.668  10.853
 2558SOL    HW2 7699   0.917   2.786  10.807
 2559SOL     OW 7700   0.991   2.272  10.552
 2559SOL    HW1 7701   0.914   2.306  10.606
 2559SOL    HW2 7702   0.957   2.221  10.473
 2560SOL     OW 7703   1.041   2.563   9.739
 2560SOL    HW1 7704   1.067   2.559   9.835
 2560SOL    HW2 7705   0.956   2.512   9.725
 2561SOL     OW 7706   0.076   2.673  10.099
 2561SOL    HW1 7707   0.175   2.661  10.108
 2561SOL    HW2 7708   0.052   2.768  10.120
 2562SOL     OW 7709   0.130   3.683  10.881
 2562SOL    HW1 7710   0.120   3.668  10.980
 2562SOL    HW2 7711   0.044   3.719  10.845
 2563SOL     OW 7712   0.865   2.210   9.505
 2563SOL    HW1 7713   0.924   2.273   9.456
 2563SOL    HW2 7714   0.884   2.116   9.476
 2564SOL     OW 7715   1.719   2.447  11.141
 2564SOL    HW1 7716   1.693   2.536  11.105
 2564SOL    HW2 7717   1.717   2.379  11.068
 2565SOL     OW 7718   1.362   3.006   9.855
 2565SOL    HW1 7719   1.445   2.977   9.807
 2565SOL    HW2 7720   1.313   3.073   9.799
 2566SOL     OW 7721   0.550   2.058  10.195
 2566SOL    HW1 7722   0.545   2.053  10.295
 2566SOL    HW2 7723   0.552   2.154  10.166
 2567SOL     OW 7724   1.008   3.318   9.787
 2567SOL    HW1 7725   0.962   3.390   9.735
 2567SOL    HW2 7726   1.004   3.338   9.885
 2568SOL     OW 7727   0.351   3.663  10.163
 2568SOL    HW1 7728   0.401   3.577  10.169
 2568SOL    HW2 7729   0.416   3.740  10.160
 2569SOL     OW 7730   1.795   2.928  10.183
 2569SOL    HW1 7731   1.733   2.913  10.107
 2569SOL    HW2 7732   1.743   2.939  10.268
 2570SOL     OW 7733   1.227   3.412  10.816
 2570SOL    HW1 7734   1.233   3.335  10.880
 2570SOL    HW2 7735   1.175   3.386  10.736
 2571SOL     OW 7736   0.321   2.805   9.552
 2571SOL    HW1 7737   0.403   2.844   9.510
 2571SOL    HW2 7738   0.294   2.723   9.503
 2572SOL     OW 7739   1.458   2.597  10.038
 2572SOL    HW1 7740   1.453   2.532  10.113
 2572SOL    HW2 7741   1.538   2.656  10.051
 2573SOL     OW 7742   0.461   3.128  11.037
 2573SOL    HW1 7743   0.411   3.129  10.951
 2573SOL    HW2 7744   0.398   3.110  11.113
 2574SOL     OW 7745   1.111   3.638   9.547
 2574SOL    HW1 7746   1.051   3.576   9.597
 2574SOL    HW2 7747   1.142   3.594   9.462
 2575SOL     OW 7748   0.202   2.147  10.808
 2575SOL    HW1 7749   0.122   2.207  10.795
 2575SOL    HW2 7750   0.192   2.098  10.894
 2576SOL     OW 7751   1.632   3.239   9.391
 2576SOL    HW1 7752   1.600   3.333   9.381
 2576SOL    HW2 7753   1.556   3.176   9.379
 2577SOL     OW 7754   0.464   3.605   9.633
 2577SOL    HW1 7755   0.497   3.644   9.719
 2577SOL    HW2 7756   0.540   3.598   9.568
 2578SOL     OW 7757   1.400   1.969   9.736
 2578SOL    HW1 7758   1.376   1.932   9.646
 2578SOL    HW2 7759   1.499   1.985   9.740
 2579SOL     OW 7760   0.249   3.647  10.551
 2579SOL    HW1 7761   0.306   3.582  10.601
 2579SOL    HW2 7762   0.233   3.614  10.458
 2580SOL     OW 7763   0.940   3.560  10.214
 2580SOL    HW1 7764   1.020   3.503  10.235
 2580SOL    HW2 7765   0.891   3.520  10.137
 2581SOL     OW 7766   0.382   2.562   9.790
 2581SOL    HW1 7767   0.427   2.472   9.787
 2581SOL    HW2 7768   0.288   2.551   9.823
 2582SOL     OW 7769   1.547   2.084  11.039
 2582SOL    HW1 7770   1.542   2.121  11.131
 2582SOL    HW2 7771   1.475   2.015  11.027
 2583SOL     OW 7772   0.614   1.984   9.427
 2583SOL    HW1 7773   0.712   1.962   9.434
 2583SOL    HW2 7774   0.583   1.967   9.334
 2584SOL     OW 7775   0.781   2.126  11.059
 2584SOL    HW1 7776   0.848   2.065  11.102
 2584SOL    HW2 7777   0.708   2.145  11.124
 2585SOL     OW 7778   0.888   3.376  10.505
 2585SOL    HW1 7779   0.865   3.351  10.411
 2585SOL    HW2 7780   0.949   3.307  10.544
 2586SOL     OW 7781   1.351   2.452  10.743
 2586SOL    HW1 7782   1.379   2.409  10.828
 2586SOL    HW2 7783   1.376   2.548  10.744
 2587SOL     OW 7784   0.803   3.264  10.234
 2587SOL    HW1 7785   0.893   3.278  10.192
 2587SOL    HW2 7786   0.732   3.266  10.163
 2588SOL     OW 7787   0.922   2.365  10.209
 2588SOL    HW1 7788   0.897   2.356  10.113
 2588SOL    HW2 7789   0.970   2.283  10.240
 2589SOL     OW 7790   0.539   1.926   9.822
 2589SOL    HW1 7791   0.458   1.927   9.880
 2589SOL    HW2 7792   0.542   2.009   9.767
 2590SOL     OW 7793   1.434   3.050   9.351
 2590SOL    HW1 7794   1.466   2.974   9.408
 2590SOL    HW2 7795   1.342   3.077   9.381
 2591SOL     OW 7796   0.297   1.897   9.481
 2591SOL    HW1 7797   0.346   1.981   9.460
 2591SOL    HW2 7798   0.359   1.832   9.526
 2592SOL     OW 7799   0.935   2.098   9.790
 2592SOL    HW1 7800   0.887   2.139   9.712
 2592SOL    HW2 7801   1.034   2.096   9.771
 2593SOL     OW 7802   1.076   2.545  10.774
 2593SOL    HW1 7803   0.996   2.484  10.777
 2593SOL    HW2 7804   1.157   2.492  10.750
 2594SOL     OW 7805   1.227   3.432  10.103
 2594SOL    HW1 7806   1.248   3.506  10.038
 2594SOL    HW2 7807   1.295   3.432  10.176
 2595SOL     OW 7808   0.459   3.014  10.051
 2595SOL    HW1 7809   0.388   2.987  10.116
 2595SOL    HW2 7810   0.433   2.986   9.958
 2596SOL     OW 7811   1.271   3.659   9.901
 2596SOL    HW1 7812   1.315   3.723   9.837
 2596SOL    HW2 7813   1.221   3.711   9.971
 2597SOL     OW 7814   1.032   2.411   9.326
 2597SOL    HW1 7815   0.991   2.493   9.287
 2597SOL    HW2 7816   1.096   2.437   9.399
 2598SOL     OW 7817   0.078   2.418  10.696
 2598SOL    HW1 7818   0.170   2.417  10.655
 2598SOL    HW2 7819   0.072   2.492  10.763
 2599SOL     OW 7820   0.561   2.084  10.457
 2599SOL    HW1 7821   0.599   2.000  10.494
 2599SOL    HW2 7822   0.473   2.103  10.501
 2600SOL     OW 7823   0.866   2.316   9.952
 2600SOL    HW1 7824   0.834   2.388   9.890
 2600SOL    HW2 7825   0.890   2.235   9.899
 2601SOL     OW 7826   1.017   1.901  10.063
 2601SOL    HW1 7827   0.945   1.906   9.994
 2601SOL    HW2 7828   0.993   1.832  10.132
 2602SOL     OW 7829   1.429   3.035  10.177
 2602SOL    HW1 7830   1.374   2.951  10.170
 2602SOL    HW2 7831   1.455   3.064  10.085
 2603SOL     OW 7832   1.466   2.452  10.302
 2603SOL    HW1 7833   1.436   2.357  10.309
 2603SOL    HW2 7834   1.539   2.468  10.368
 2604SOL     OW 7835   1.857   2.695   9.687
 2604SOL    HW1 7836   1.899   2.631   9.751
 2604SOL    HW2 7837   1.819   2.644   9.609
 2605SOL     OW 7838   0.488   3.247   9.484
 2605SOL    HW1 7839   0.401   3.232   9.531
 2605SOL    HW2 7840   0.471   3.273   9.389
 2606SOL     OW 7841   1.664   3.142   9.967
 2606SOL    HW1 7842   1.763   3.150   9.981
 2606SOL    HW2 7843   1.619   3.226   9.998
 2607SOL     OW 7844   1.390   2.437   9.388
 2607SOL    HW1 7845   1.336   2.416   9.469
 2607SOL    HW2 7846   1.481   2.396   9.397
 2608SOL     OW 7847   0.527   2.118   9.638
 2608SOL    HW1 7848   0.554   2.059   9.563
 2608SOL    HW2 7849   0.527   2.213   9.607
 2609SOL     OW 7850   1.754   3.085  10.898
 2609SOL    HW1 7851   1.845   3.046  10.885
 2609SOL    HW2 7852   1.762   3.181  10.922
 2610SOL     OW 7853   1.064   3.209  10.650
 2610SOL    HW1 7854   0.984   3.186  10.705
 2610SOL    HW2 7855   1.147   3.183  10.699
 2611SOL     OW 7856   1.592   3.491  10.935
 2611SOL    HW1 7857   1.619   3.525  10.845
 2611SOL    HW2 7858   1.671   3.453  10.981
 2612SOL     OW 7859   1.111   3.057  10.410
 2612SOL    HW1 7860   1.071   3.101  10.491
 2612SOL    HW2 7861   1.070   3.094  10.327
 2613SOL     OW 7862   1.638   2.961  10.389
 2613SOL    HW1 7863   1.643   3.042  10.448
 2613SOL    HW2 7864   1.552   2.963  10.338
 2614SOL     OW 7865   0.915   1.951  10.712
 2614SOL    HW1 7866   0.940   1.931  10.617
 2614SOL    HW2 7867   0.987   2.007  10.754
 2615SOL     OW 7868   0.980   2.978  11.029
 2615SOL    HW1 7869   0.881   2.984  11.039
 2615SOL    HW2 7870   1.003   2.898  10.973
 2616SOL     OW 7871   0.705   2.912   9.678
 2616SOL    HW1 7872   0.691   2.919   9.777
 2616SOL    HW2 7873   0.789   2.861   9.660
 2617SOL     OW 7874   0.410   2.675  10.561
 2617SOL    HW1 7875   0.496   2.687  10.611
 2617SOL    HW2 7876   0.368   2.588  10.588
 2618SOL     OW 7877   1.274   2.248  10.572
 2618SOL    HW1 7878   1.295   2.322  10.636
 2618SOL    HW2 7879   1.185   2.265  10.529
 2619SOL     OW 7880   0.064   3.426  10.641
 2619SOL    HW1 7881   0.018   3.508  10.607
 2619SOL    HW2 7882   0.162   3.445  10.650
 2620SOL     OW 7883   0.367   2.962   9.811
 2620SOL    HW1 7884   0.360   3.045   9.755
 2620SOL    HW2 7885   0.371   2.882   9.751
 2621SOL     OW 7886   0.566   2.399  10.175
 2621SOL    HW1 7887   0.578   2.465  10.101
 2621SOL    HW2 7888   0.612   2.433  10.258
 2622SOL     OW 7889   1.252   3.210   9.698
 2622SOL    HW1 7890   1.302   3.287   9.738
 2622SOL    HW2 7891   1.157   3.212   9.730
 2623SOL     OW 7892   1.272   3.307  10.452
 2623SOL    HW1 7893   1.319   3.320  10.539
 2623SOL    HW2 7894   1.206   3.233  10.461
 2624SOL     OW 7895   1.582   2.501   9.782
 2624SOL    HW1 7896   1.551   2.562   9.855
 2624SOL    HW2 7897   1.632   2.553   9.713
 2625SOL     OW 7898   0.354   3.372  10.639
 2625SOL    HW1 7899   0.333   3.328  10.552
 2625SOL    HW2 7900   0.451   3.398  10.642
 2626SOL     OW 7901   0.402   2.613  10.908
 2626SOL    HW1 7902   0.470   2.668  10.861
 2626SOL    HW2 7903   0.442   2.525  10.935
 2627SOL     OW 7904   1.587   2.641  10.980
 2627SOL    HW1 7905   1.495   2.679  10.975
 2627SOL    HW2 7906   1.647   2.688  10.915
 2628SOL     OW 7907   1.013   1.967  11.080
 2628SOL    HW1 7908   1.019   2.052  11.028
 2628SOL    HW2 7909   1.045   1.891  11.023
 2629SOL     OW 7910   0.504   1.912  11.050
 2629SOL    HW1 7911   0.462   1.855  10.980
 2629SOL    HW2 7912   0.438   1.981  11.082
 2630SOL     OW 7913   0.573   2.732  10.339
 2630SOL    HW1 7914   0.617   2.821  10.330
 2630SOL    HW2 7915   0.510   2.732  10.416
 2631SOL     OW 7916   1.360   2.724  10.355
 2631SOL    HW1 7917   1.285   2.724  10.289
 2631SOL    HW2 7918   1.397   2.632  10.364
 2632SOL     OW 7919   1.209   2.387   9.585
 2632SOL    HW1 7920   1.222   2.303   9.639
 2632SOL    HW2 7921   1.180   2.461   9.645
 2633SOL     OW 7922   0.307   2.075  10.541
 2633SOL    HW1 7923   0.284   2.112  10.631
 2633SOL    HW2 7924   0.277   1.980  10.535
 2634SOL     OW 7925   0.037   3.172  10.592
 2634SOL    HW1 7926   0.090   3.123  10.660
 2634SOL    HW2 7927   0.059   3.270  10.597
 2635SOL     OW 7928   0.732   2.496  10.374
 2635SOL    HW1 7929   0.791   2.470  10.298
 2635SOL    HW2 7930   0.704   2.592  10.363
 2636SOL     OW 7931   1.728   2.797  11.164
 2636SOL    HW1 7932   1.682   2.790  11.075
 2636SOL    HW2 7933   1.666   2.841  11.230
 2637SOL     OW 7934   0.307   1.925   9.928
 2637SOL    HW1 7935   0.296   2.019   9.961
 2637SOL    HW2 7936   0.302   1.862  10.005
 2638SOL     OW 7937   1.622   2.229   9.684
 2638SOL    HW1 7938   1.624   2.153   9.748
 2638SOL    HW2 7939   1.574   2.306   9.724
 2639SOL     OW 7940   1.023   2.628  10.276
 2639SOL    HW1 7941   1.038   2.649  10.372
 2639SOL    HW2 7942   0.993   2.533  10.267
 2640SOL     OW 7943   0.980   3.435  11.010
 2640SOL    HW1 7944   0.960   3.479  10.922
 2640SOL    HW2 7945   1.019   3.344  10.994
 2641SOL     OW 7946   1.859   3.380  10.915
 2641SOL    HW1 7947   1.873   3.407  10.820
 2641SOL    HW2 7948   1.942   3.402  10.968
 2642SOL     OW 7949   0.350   2.760  11.114
 2642SOL    HW1 7950   0.426   2.804  11.162
 2642SOL    HW2 7951   0.385   2.713  11.032
 2643SOL     OW 7952   1.540   2.136   9.435
 2643SOL    HW1 7953   1.479   2.061   9.458
 2643SOL    HW2 7954   1.562   2.188   9.518
 2644SOL     OW 7955   1.303   2.700   9.352
 2644SOL    HW1 7956   1.337   2.607   9.367
 2644SOL    HW2 7957   1.321   2.727   9.257
 2645SOL     OW 7958   1.068   3.195  10.159
 2645SOL    HW1 7959   1.075   3.111  10.104
 2645SOL    HW2 7960   1.130   3.264  10.123
 2646SOL     OW 7961   0.319   2.672  10.259
 2646SOL    HW1 7962   0.412   2.708  10.264
 2646SOL    HW2 7963   0.313   2.587  10.311
 2647SOL     OW 7964   0.339   2.371  10.316
 2647SOL    HW1 7965   0.287   2.288  10.299
 2647SOL    HW2 7966   0.416   2.376  10.252
 2648SOL     OW 7967   1.138   2.242  10.988
 2648SOL    HW1 7968   1.093   2.305  11.052
 2648SOL    HW2 7969   1.231   2.273  10.971
 2649SOL     OW 7970   1.160   2.069  10.787
 2649SOL    HW1 7971   1.160   2.133  10.864
 2649SOL    HW2 7972   1.188   2.117  10.704
 2650SOL     OW 7973   0.008   3.188   9.510
 2650SOL    HW1 7974  -0.085   3.209   9.479
 2650SOL    HW2 7975   0.018   3.089   9.523
 2651SOL     OW 7976   0.088   3.663  10.237
 2651SOL    HW1 7977   0.046   3.577  10.210
 2651SOL    HW2 7978   0.182   3.666  10.203
 2652SOL     OW 7979   0.504   3.430  10.220
 2652SOL    HW1 7980   0.570   3.504  10.229
 2652SOL    HW2 7981   0.548   3.351  10.178
 2653SOL     OW 7982   1.002   2.658  10.548
 2653SOL    HW1 7983   1.043   2.626  10.634
 2653SOL    HW2 7984   0.906   2.631  10.545
 2654SOL     OW 7985   0.040   2.406  10.424
 2654SOL    HW1 7986   0.125   2.373  10.383
 2654SOL    HW2 7987   0.053   2.421  10.522
 2655SOL     OW 7988   0.189   2.382  11.032
 2655SOL    HW1 7989   0.248   2.342  10.962
 2655SOL    HW2 7990   0.131   2.453  10.991
 2656SOL     OW 7991   1.369   2.812  10.970
 2656SOL    HW1 7992   1.408   2.901  10.990
 2656SOL    HW2 7993   1.379   2.792  10.873
 2657SOL     OW 7994   0.815   2.434   9.635
 2657SOL    HW1 7995   0.822   2.345   9.589
 2657SOL    HW2 7996   0.721   2.468   9.627
 2658SOL     OW 7997   1.657   2.466  10.516
 2658SOL    HW1 7998   1.619   2.397  10.578
 2658SOL    HW2 7999   1.739   2.430  10.472
 2659SOL     OW 8000   0.252   3.426  11.054
 2659SOL    HW1 8001   0.222   3.483  11.130
 2659SOL    HW2 8002   0.245   3.329  11.080
 2660SOL     OW 8003   0.671   2.326  10.579
 2660SOL    HW1 8004   0.637   2.237  10.549
 2660SOL    HW2 8005   0.697   2.380  10.499
 2661SOL     OW 8006   0.930   3.540  10.775
 2661SOL    HW1 8007   0.906   3.522  10.680
 2661SOL    HW2 8008   0.960   3.634  10.785
 2662SOL     OW 8009   0.473   2.362   9.501
 2662SOL    HW1 8010   0.534   2.442   9.505
 2662SOL    HW2 8011   0.378   2.393   9.508
 2663SOL     OW 8012   0.159   2.999  10.776
 2663SOL    HW1 8013   0.181   2.938  10.852
 2663SOL    HW2 8014   0.169   2.950  10.690
 2664SOL     OW 8015   1.347   2.921  10.544
 2664SOL    HW1 8016   1.371   2.858  10.470
 2664SOL    HW2 8017   1.257   2.961  10.526
 2665SOL     OW 8018   1.302   2.717   9.619
 2665SOL    HW1 8019   1.216   2.686   9.661
 2665SOL    HW2 8020   1.298   2.703   9.520
 2666SOL     OW 8021   1.759   3.609  10.464
 2666SOL    HW1 8022   1.820   3.639  10.391
 2666SOL    HW2 8023   1.721   3.520  10.442
 2667SOL     OW 8024   1.252   3.593  10.438
 2667SOL    HW1 8025   1.336   3.598  10.384
 2667SOL    HW2 8026   1.229   3.497  10.456
 2668SOL     OW 8027   0.083   3.120  10.332
 2668SOL    HW1 8028   0.078   3.119  10.432
 2668SOL    HW2 8029   0.000   3.079  10.294
 2669SOL     OW 8030   0.688   3.524  11.026
 2669SOL    HW1 8031   0.632   3.605  11.035
 2669SOL    HW2 8032   0.740   3.528  10.940
 2670SOL     OW 8033   1.726   1.997   9.833
 2670SOL    HW1 8034   1.799   1.980   9.766
 2670SOL    HW2 8035   1.695   1.910   9.871
 2671SOL     OW 8036   1.388   3.435   9.787
 2671SOL    HW1 8037   1.455   3.447   9.713
 2671SOL    HW2 8038   1.348   3.524   9.810
 2672SOL     OW 8039   0.130   3.656  11.161
 2672SOL    HW1 8040   0.089   3.582  11.214
 2672SOL    HW2 8041   0.194   3.707  11.219
 2673SOL     OW 8042   1.280   2.789   9.982
 2673SOL    HW1 8043   1.340   2.708   9.984
 2673SOL    HW2 8044   1.320   2.858   9.922
 2674SOL     OW 8045   0.830   3.135  10.732
 2674SOL    HW1 8046   0.825   3.168  10.827
 2674SOL    HW2 8047   0.744   3.154  10.686
 2675SOL     OW 8048   0.672   3.478   9.464
 2675SOL    HW1 8049   0.681   3.488   9.365
 2675SOL    HW2 8050   0.632   3.389   9.485
 2676SOL     OW 8051   1.650   3.582  10.704
 2676SOL    HW1 8052   1.703   3.592  10.620
 2676SOL    HW2 8053   1.623   3.672  10.738
 2677SOL     OW 8054   1.841   2.037  10.273
 2677SOL    HW1 8055   1.880   1.952  10.237
 2677SOL    HW2 8056   1.743   2.039  10.254
 2678SOL     OW 8057   0.263   2.188  10.030
 2678SOL    HW1 8058   0.184   2.239   9.996
 2678SOL    HW2 8059   0.254   2.173  10.128
 2679SOL     OW 8060   1.194   3.474   9.341
 2679SOL    HW1 8061   1.200   3.381   9.378
 2679SOL    HW2 8062   1.135   3.474   9.261
 2680SOL     OW 8063   0.822   2.864  10.682
 2680SOL    HW1 8064   0.862   2.863  10.590
 2680SOL    HW2 8065   0.832   2.956  10.722
 2681SOL     OW 8066   0.916   2.772   9.601
 2681SOL    HW1 8067   0.979   2.810   9.533
 2681SOL    HW2 8068   0.956   2.689   9.640
 2682SOL     OW 8069   1.504   3.469   9.354
 2682SOL    HW1 8070   1.412   3.506   9.361
 2682SOL    HW2 8071   1.542   3.489   9.264
 2683SOL     OW 8072   0.372   3.150  10.800
 2683SOL    HW1 8073   0.359   3.243  10.766
 2683SOL    HW2 8074   0.288   3.098  10.787
 2684SOL     OW 8075   1.614   3.154  10.599
 2684SOL    HW1 8076   1.674   3.157  10.679
 2684SOL    HW2 8077   1.539   3.218  10.612
 2685SOL     OW 8078   1.039   2.960  10.006
 2685SOL    HW1 8079   0.969   2.913  10.060
 2685SOL    HW2 8080   1.098   2.892   9.963
 2686SOL     OW 8081   1.014   2.098  10.281
 2686SOL    HW1 8082   1.006   2.062  10.188
 2686SOL    HW2 8083   1.012   2.022  10.346
 2687SOL     OW 8084   0.590   3.349   9.801
 2687SOL    HW1 8085   0.632   3.291   9.731
 2687SOL    HW2 8086   0.546   3.428   9.757
 2688SOL     OW 8087   1.709   2.247  10.691
 2688SOL    HW1 8088   1.782   2.316  10.695
 2688SOL    HW2 8089   1.737   2.172  10.632
 2689SOL     OW 8090   0.255   3.210   9.600
 2689SOL    HW1 8091   0.159   3.211   9.573
 2689SOL    HW2 8092   0.267   3.263   9.684
 2690SOL     OW 8093   0.105   2.875  11.036
 2690SOL    HW1 8094   0.028   2.842  11.090
 2690SOL    HW2 8095   0.190   2.845  11.078
 2691SOL     OW 8096   0.672   2.065  10.799
 2691SOL    HW1 8097   0.762   2.049  10.759
 2691SOL    HW2 8098   0.680   2.070  10.898
 2692SOL     OW 8099   0.075   2.207   9.343
 2692SOL    HW1 8100  -0.017   2.179   9.314
 2692SOL    HW2 8101   0.106   2.284   9.287
 2693SOL     OW 8102   1.440   2.718  10.708
 2693SOL    HW1 8103   1.383   2.770  10.645
 2693SOL    HW2 8104   1.536   2.730  10.684
 2694SOL     OW 8105   0.072   2.028   9.628
 2694SOL    HW1 8106   0.055   2.111   9.574
 2694SOL    HW2 8107   0.162   1.991   9.606
 2695SOL     OW 8108   1.183   3.197   9.429
 2695SOL    HW1 8109   1.084   3.186   9.431
 2695SOL    HW2 8110   1.217   3.212   9.522
 2696SOL     OW 8111   0.613   2.704  10.741
 2696SOL    HW1 8112   0.669   2.785  10.724
 2696SOL    HW2 8113   0.672   2.624  10.744
 2697SOL     OW 8114   1.493   3.629  10.269
 2697SOL    HW1 8115   1.526   3.693  10.200
 2697SOL    HW2 8116   1.559   3.623  10.344
 2698SOL     OW 8117   0.716   2.427  11.018
 2698SOL    HW1 8118   0.735   2.492  11.092
 2698SOL    HW2 8119   0.776   2.347  11.027
 2699SOL     OW 8120   1.450   3.082  10.943
 2699SOL    HW1 8121   1.441   3.072  11.042
 2699SOL    HW2 8122   1.546   3.075  10.917
 2700SOL     OW 8123   0.390   3.603  10.870
 2700SOL    HW1 8124   0.299   3.644  10.868
 2700SOL    HW2 8125   0.383   3.509  10.902
 2701SOL     OW 8126   1.674   2.745  10.564
 2701SOL    HW1 8127   1.647   2.656  10.527
 2701SOL    HW2 8128   1.675   2.813  10.491
 2702SOL     OW 8129   1.225   2.187   9.759
 2702SOL    HW1 8130   1.290   2.113   9.748
 2702SOL    HW2 8131   1.245   2.237   9.843
 2703SOL     OW 8132   0.594   2.607   9.962
 2703SOL    HW1 8133   0.644   2.692   9.943
 2703SOL    HW2 8134   0.506   2.609   9.914
 2704SOL     OW 8135   1.777   2.204  10.952
 2704SOL    HW1 8136   1.760   2.235  10.858
 2704SOL    HW2 8137   1.693   2.167  10.990
 2705SOL     OW 8138   1.730   2.796  10.827
 2705SOL    HW1 8139   1.768   2.887  10.842
 2705SOL    HW2 8140   1.722   2.779  10.728
 2706SOL     OW 8141   0.859   3.236   9.326
 2706SOL    HW1 8142   0.813   3.251   9.414
 2706SOL    HW2 8143   0.903   3.321   9.296
 2707SOL     OW 8144   0.661   3.652  10.263
 2707SOL    HW1 8145   0.615   3.740  10.250
 2707SOL    HW2 8146   0.760   3.664  10.256
 2708SOL     OW 8147   0.859   2.818  10.171
 2708SOL    HW1 8148   0.913   2.749  10.219
 2708SOL    HW2 8149   0.827   2.887  10.237
 2709SOL     OW 8150   1.083   2.846   9.397
 2709SOL    HW1 8151   1.060   2.899   9.315
 2709SOL    HW2 8152   1.164   2.790   9.378
 2710SOL     OW 8153   1.861   3.431  10.161
 2710SOL    HW1 8154   1.790   3.419  10.091
 2710SOL    HW2 8155   1.862   3.352  10.221
 2711SOL     OW 8156   0.221   3.176  11.154
 2711SOL    HW1 8157   0.156   3.103  11.133
 2711SOL    HW2 8158   0.225   3.190  11.252
 2712SOL     OW 8159   0.079   3.102   9.963
 2712SOL    HW1 8160   0.078   3.055  10.051
 2712SOL    HW2 8161   0.161   3.074   9.912
 2713SOL     OW 8162   0.672   3.253  10.934
 2713SOL    HW1 8163   0.594   3.203  10.972
 2713SOL    HW2 8164   0.669   3.348  10.965
 2714SOL     OW 8165   1.824   2.054  10.537
 2714SOL    HW1 8166   1.820   1.964  10.581
 2714SOL    HW2 8167   1.827   2.043  10.438
 2715SOL     OW 8168   0.428   2.286   9.830
 2715SOL    HW1 8169   0.458   2.214   9.768
 2715SOL    HW2 8170   0.389   2.246   9.913
 2716SOL     OW 8171   1.705   3.349  10.414
 2716SOL    HW1 8172   1.612   3.324  10.387
 2716SOL    HW2 8173   1.731   3.299  10.496
 2717SOL     OW 8174   0.317   2.409  10.590
 2717SOL    HW1 8175   0.355   2.350  10.662
 2717SOL    HW2 8176   0.357   2.383  10.502
 2718SOL     OW 8177   0.812   3.448   9.997
 2718SOL    HW1 8178   0.844   3.458   9.903
 2718SOL    HW2 8179   0.733   3.386   9.999
 2719SOL     OW 8180   1.424   2.076  10.422
 2719SOL    HW1 8181   1.476   2.011  10.477
 2719SOL    HW2 8182   1.375   2.139  10.483
 2720SOL     OW 8183   1.001   1.896  10.464
 2720SOL    HW1 8184   0.938   1.824  10.433
 2720SOL    HW2 8185   1.094   1.860  10.464
 2721SOL     OW 8186   0.770   3.192   9.611
 2721SOL    HW1 8187   0.724   3.105   9.628
 2721SOL    HW2 8188   0.861   3.189   9.652
 2722SOL     OW 8189   0.618   3.429  10.594
 2722SOL    HW1 8190   0.613   3.511  10.651
 2722SOL    HW2 8191   0.707   3.426  10.549
 2723SOL     OW 8192   1.352   1.914   9.478
 2723SOL    HW1 8193   1.387   1.873   9.394
 2723SOL    HW2 8194   1.262   1.876   9.498
 2724SOL     OW 8195   1.300   2.315  10.001
 2724SOL    HW1 8196   1.241   2.395  10.005
 2724SOL    HW2 8197   1.315   2.280  10.094
 2725SOL     OW 8198   1.593   2.083  10.192
 2725SOL    HW1 8199   1.509   2.082  10.246
 2725SOL    HW2 8200   1.595   2.166  10.136
 2726SOL     OW 8201   0.039   2.939   9.610
 2726SOL    HW1 8202   0.138   2.928   9.601
 2726SOL    HW2 8203  -0.001   2.853   9.642
 2727SOL     OW 8204   0.875   3.508   9.647
 2727SOL    HW1 8205   0.798   3.473   9.593
 2727SOL    HW2 8206   0.843   3.579   9.709
 2728SOL     OW 8207   0.230   2.490  11.285
 2728SOL    HW1 8208   0.137   2.488  11.322
 2728SOL    HW2 8209   0.231   2.451  11.193
 2729SOL     OW 8210   0.225   2.137  12.168
 2729SOL    HW1 8211   0.260   2.120  12.260
 2729SOL    HW2 8212   0.137   2.092  12.156
 2730SOL     OW 8213   0.019   2.230  11.819
 2730SOL    HW1 8214  -0.063   2.273  11.858
 2730SOL    HW2 8215  -0.009   2.157  11.756
 2731SOL     OW 8216   0.569   3.137  12.337
 2731SOL    HW1 8217   0.476   3.130  12.300
 2731SOL    HW2 8218   0.580   3.226  12.381
 2732SOL     OW 8219   1.555   3.373  11.875
 2732SOL    HW1 8220   1.498   3.357  11.956
 2732SOL    HW2 8221   1.496   3.383  11.795
 2733SOL     OW 8222   1.135   2.565  11.889
 2733SOL    HW1 8223   1.192   2.643  11.864
 2733SOL    HW2 8224   1.075   2.591  11.965
 2734SOL     OW 8225   1.755   2.469  11.403
 2734SOL    HW1 8226   1.743   2.456  11.304
 2734SOL    HW2 8227   1.725   2.388  11.452
 2735SOL     OW 8228   0.768   3.006  12.195
 2735SOL    HW1 8229   0.690   3.023  12.255
 2735SOL    HW2 8230   0.802   3.093  12.159
 2736SOL     OW 8231   0.685   2.874  11.837
 2736SOL    HW1 8232   0.754   2.858  11.907
 2736SOL    HW2 8233   0.612   2.931  11.875
 2737SOL     OW 8234   0.335   3.297  12.233
 2737SOL    HW1 8235   0.257   3.266  12.180
 2737SOL    HW2 8236   0.393   3.355  12.176
 2738SOL     OW 8237   1.460   3.367  12.511
 2738SOL    HW1 8238   1.484   3.461  12.537
 2738SOL    HW2 8239   1.444   3.313  12.593
 2739SOL     OW 8240   0.438   2.254  12.671
 2739SOL    HW1 8241   0.520   2.198  12.680
 2739SOL    HW2 8242   0.357   2.196  12.675
 2740SOL     OW 8243   1.603   2.309  11.909
 2740SOL    HW1 8244   1.529   2.355  11.859
 2740SOL    HW2 8245   1.654   2.377  11.962
 2741SOL     OW 8246   0.231   3.575  11.655
 2741SOL    HW1 8247   0.265   3.652  11.709
 2741SOL    HW2 8248   0.275   3.575  11.565
 2742SOL     OW 8249   0.230   3.296  11.710
 2742SOL    HW1 8250   0.204   3.392  11.710
 2742SOL    HW2 8251   0.159   3.242  11.755
 2743SOL     OW 8252   0.240   2.953  12.058
 2743SOL    HW1 8253   0.254   2.869  12.110
 2743SOL    HW2 8254   0.185   3.017  12.113
 2744SOL     OW 8255   0.620   3.648  12.611
 2744SOL    HW1 8256   0.528   3.631  12.646
 2744SOL    HW2 8257   0.648   3.740  12.637
 2745SOL     OW 8258   0.606   2.826  11.295
 2745SOL    HW1 8259   0.613   2.910  11.241
 2745SOL    HW2 8260   0.652   2.839  11.383
 2746SOL     OW 8261   1.594   1.976  12.652
 2746SOL    HW1 8262   1.576   2.043  12.580
 2746SOL    HW2 8263   1.591   2.022  12.741
 2747SOL     OW 8264   0.122   2.505  11.735
 2747SOL    HW1 8265   0.077   2.417  11.752
 2747SOL    HW2 8266   0.121   2.559  11.819
 2748SOL     OW 8267   1.842   3.629  11.531
 2748SOL    HW1 8268   1.896   3.600  11.611
 2748SOL    HW2 8269   1.872   3.719  11.502
 2749SOL     OW 8270   0.027   3.458  11.289
 2749SOL    HW1 8271   0.008   3.362  11.310
 2749SOL    HW2 8272  -0.006   3.516  11.364
 2750SOL     OW 8273   1.689   2.784  11.784
 2750SOL    HW1 8274   1.784   2.755  11.792
 2750SOL    HW2 8275   1.681   2.849  11.709
 2751SOL     OW 8276   1.641   2.970  11.604
 2751SOL    HW1 8277   1.727   2.972  11.552
 2751SOL    HW2 8278   1.655   3.017  11.692
 2752SOL     OW 8279   0.113   2.599  12.769
 2752SOL    HW1 8280   0.201   2.586  12.814
 2752SOL    HW2 8281   0.100   2.696  12.747
 2753SOL     OW 8282   0.613   3.227  11.898
 2753SOL    HW1 8283   0.564   3.140  11.907
 2753SOL    HW2 8284   0.590   3.270  11.811
 2754SOL     OW 8285   1.293   3.090  12.595
 2754SOL    HW1 8286   1.330   3.017  12.537
 2754SOL    HW2 8287   1.345   3.095  12.680
 2755SOL     OW 8288   0.809   1.866  11.674
 2755SOL    HW1 8289   0.849   1.957  11.665
 2755SOL    HW2 8290   0.709   1.874  11.680
 2756SOL     OW 8291   0.197   2.838  12.436
 2756SOL    HW1 8292   0.286   2.793  12.422
 2756SOL    HW2 8293   0.124   2.773  12.417
 2757SOL     OW 8294   1.525   2.861  11.362
 2757SOL    HW1 8295   1.462   2.785  11.375
 2757SOL    HW2 8296   1.573   2.879  11.448
 2758SOL     OW 8297   1.466   3.279  12.125
 2758SOL    HW1 8298   1.407   3.285  12.205
 2758SOL    HW2 8299   1.451   3.191  12.079
 2759SOL     OW 8300   1.667   3.576  11.744
 2759SOL    HW1 8301   1.626   3.553  11.656
 2759SOL    HW2 8302   1.649   3.502  11.809
 2760SOL     OW 8303   0.598   2.591  11.442
 2760SOL    HW1 8304   0.622   2.660  11.374
 2760SOL    HW2 8305   0.520   2.624  11.496
 2761SOL     OW 8306   1.281   2.207  12.116
 2761SOL    HW1 8307   1.195   2.157  12.103
 2761SOL    HW2 8308   1.343   2.153  12.172
 2762SOL     OW 8309   1.576   3.524  11.479
 2762SOL    HW1 8310   1.665   3.570  11.482
 2762SOL    HW2 8311   1.555   3.500  11.384
 2763SOL     OW 8312   0.807   2.467  12.637
 2763SOL    HW1 8313   0.760   2.464  12.726
 2763SOL    HW2 8314   0.756   2.412  12.571
 2764SOL     OW 8315   0.973   2.752  12.744
 2764SOL    HW1 8316   1.019   2.668  12.715
 2764SOL    HW2 8317   0.917   2.786  12.669
 2765SOL     OW 8318   0.991   2.272  12.414
 2765SOL    HW1 8319   0.914   2.306  12.468
 2765SOL    HW2 8320   0.957   2.221  12.335
 2766SOL     OW 8321   1.041   2.563  11.601
 2766SOL    HW1 8322   1.067   2.559  11.697
 2766SOL    HW2 8323   0.956   2.512  11.587
 2767SOL     OW 8324   0.076   2.673  11.961
 2767SOL    HW1 8325   0.175   2.661  11.970
 2767SOL    HW2 8326   0.052   2.768  11.982
 2768SOL     OW 8327   0.130   3.683  12.743
 2768SOL    HW1 8328   0.120   3.668  12.842
 2768SOL    HW2 8329   0.044   3.719  12.707
 2769SOL     OW 8330   0.865   2.210  11.367
 2769SOL    HW1 8331   0.924   2.273  11.318
 2769SOL    HW2 8332   0.884   2.116  11.338
 2770SOL     OW 8333   1.362   3.006  11.717
 2770SOL    HW1 8334   1.445   2.977  11.669
 2770SOL    HW2 8335   1.313   3.073  11.661
 2771SOL     OW 8336   0.550   2.058  12.057
 2771SOL    HW1 8337   0.545   2.053  12.157
 2771SOL    HW2 8338   0.552   2.154  12.028
 2772SOL     OW 8339   1.008   3.318  11.649
 2772SOL    HW1 8340   0.962   3.390  11.597
 2772SOL    HW2 8341   1.004   3.338  11.747
 2773SOL     OW 8342   0.351   3.663  12.025
 2773SOL    HW1 8343   0.401   3.577  12.031
 2773SOL    HW2 8344   0.416   3.740  12.022
 2774SOL     OW 8345   1.795   2.928  12.045
 2774SOL    HW1 8346   1.733   2.913  11.969
 2774SOL    HW2 8347   1.743   2.939  12.130
 2775SOL     OW 8348   1.227   3.412  12.678
 2775SOL    HW1 8349   1.233   3.335  12.742
 2775SOL    HW2 8350   1.175   3.386  12.598
 2776SOL     OW 8351   0.321   2.805  11.414
 2776SOL    HW1 8352   0.403   2.844  11.372
 2776SOL    HW2 8353   0.294   2.723  11.365
 2777SOL     OW 8354   1.458   2.597  11.900
 2777SOL    HW1 8355   1.453   2.532  11.975
 2777SOL    HW2 8356   1.538   2.656  11.913
 2778SOL     OW 8357   1.111   3.638  11.409
 2778SOL    HW1 8358   1.051   3.576  11.459
 2778SOL    HW2 8359   1.142   3.594  11.324
 2779SOL     OW 8360   0.202   2.147  12.670
 2779SOL    HW1 8361   0.122   2.207  12.657
 2779SOL    HW2 8362   0.192   2.098  12.756
 2780SOL     OW 8363   1.632   3.239  11.253
 2780SOL    HW1 8364   1.600   3.333  11.243
 2780SOL    HW2 8365   1.556   3.176  11.241
 2781SOL     OW 8366   0.464   3.605  11.495
 2781SOL    HW1 8367   0.497   3.644  11.581
 2781SOL    HW2 8368   0.540   3.598  11.430
 2782SOL     OW 8369   1.400   1.969  11.598
 2782SOL    HW1 8370   1.376   1.932  11.508
 2782SOL    HW2 8371   1.499   1.985  11.602
 2783SOL     OW 8372   0.249   3.647  12.413
 2783SOL    HW1 8373   0.306   3.582  12.463
 2783SOL    HW2 8374   0.233   3.614  12.320
 2784SOL     OW 8375   0.940   3.560  12.076
 2784SOL    HW1 8376   1.020   3.503  12.097
 2784SOL    HW2 8377   0.891   3.520  11.999
 2785SOL     OW 8378   0.382   2.562  11.652
 2785SOL    HW1 8379   0.427   2.472  11.649
 2785SOL    HW2 8380   0.288   2.551  11.685
 2786SOL     OW 8381   0.614   1.984  11.289
 2786SOL    HW1 8382   0.712   1.962  11.296
 2786SOL    HW2 8383   0.583   1.967  11.196
 2787SOL     OW 8384   0.888   3.376  12.367
 2787SOL    HW1 8385   0.865   3.351  12.273
 2787SOL    HW2 8386   0.949   3.307  12.406
 2788SOL     OW 8387   1.351   2.452  12.605
 2788SOL    HW1 8388   1.379   2.409  12.690
 2788SOL    HW2 8389   1.376   2.548  12.606
 2789SOL     OW 8390   0.803   3.264  12.096
 2789SOL    HW1 8391   0.893   3.278  12.054
 2789SOL    HW2 8392   0.732   3.266  12.025
 2790SOL     OW 8393   0.922   2.365  12.071
 2790SOL    HW1 8394   0.897   2.356  11.975
 2790SOL    HW2 8395   0.970   2.283  12.102
 2791SOL     OW 8396   0.539   1.926  11.684
 2791SOL    HW1 8397   0.458   1.927  11.742
 2791SOL    HW2 8398   0.542   2.009  11.629
 2792SOL     OW 8399   1.434   3.050  11.213
 2792SOL    HW1 8400   1.466   2.974  11.270
 2792SOL    HW2 8401   1.342   3.077  11.243
 2793SOL     OW 8402   0.297   1.897  11.343
 2793SOL    HW1 8403   0.346   1.981  11.322
 2793SOL    HW2 8404   0.359   1.832  11.388
 2794SOL     OW 8405   0.935   2.098  11.652
 2794SOL    HW1 8406   0.887   2.139  11.574
 2794SOL    HW2 8407   1.034   2.096  11.633
 2795SOL     OW 8408   1.076   2.545  12.636
 2795SOL    HW1 8409   0.996   2.484  12.639
 2795SOL    HW2 8410   1.157   2.492  12.612
 2796SOL     OW 8411   1.227   3.432  11.965
 2796SOL    HW1 8412   1.248   3.506  11.900
 2796SOL    HW2 8413   1.295   3.432  12.038
 2797SOL     OW 8414   0.459   3.014  11.913
 2797SOL    HW1 8415   0.388   2.987  11.978
 2797SOL    HW2 8416   0.433   2.986  11.820
 2798SOL     OW 8417   1.271   3.659  11.763
 2798SOL    HW1 8418   1.315   3.723  11.699
 2798SOL    HW2 8419   1.221   3.711  11.833
 2799SOL     OW 8420   1.032   2.411  11.188
 2799SOL    HW1 8421   0.991   2.493  11.149
 2799SOL    HW2 8422   1.096   2.437  11.261
 2800SOL     OW 8423   0.078   2.418  12.558
 2800SOL    HW1 8424   0.170   2.417  12.517
 2800SOL    HW2 8425   0.072   2.492  12.625
 2801SOL     OW 8426   0.561   2.084  12.319
 2801SOL    HW1 8427   0.599   2.000  12.356
 2801SOL    HW2 8428   0.473   2.103  12.363
 2802SOL     OW 8429   0.866   2.316  11.814
 2802SOL    HW1 8430   0.834   2.388  11.752
 2802SOL    HW2 8431   0.890   2.235  11.761
 2803SOL     OW 8432   1.017   1.901  11.925
 2803SOL    HW1 8433   0.945   1.906  11.856
 2803SOL    HW2 8434   0.993   1.832  11.994
 2804SOL     OW 8435   1.429   3.035  12.039
 2804SOL    HW1 8436   1.374   2.951  12.032
 2804SOL    HW2 8437   1.455   3.064  11.947
 2805SOL     OW 8438   1.466   2.452  12.164
 2805SOL    HW1 8439   1.436   2.357  12.171
 2805SOL    HW2 8440   1.539   2.468  12.230
 2806SOL     OW 8441   1.857   2.695  11.549
 2806SOL    HW1 8442   1.899   2.631  11.613
 2806SOL    HW2 8443   1.819   2.644  11.471
 2807SOL     OW 8444   0.488   3.247  11.346
 2807SOL    HW1 8445   0.401   3.232  11.393
 2807SOL    HW2 8446   0.471   3.273  11.251
 2808SOL     OW 8447   1.664   3.142  11.829
 2808SOL    HW1 8448   1.763   3.150  11.843
 2808SOL    HW2 8449   1.619   3.226  11.860
 2809SOL     OW 8450   1.390   2.437  11.250
 2809SOL    HW1 8451   1.336   2.416  11.331
 2809SOL    HW2 8452   1.481   2.396  11.259
 2810SOL     OW 8453   0.527   2.118  11.500
 2810SOL    HW1 8454   0.554   2.059  11.425
 2810SOL    HW2 8455   0.527   2.213  11.469
 2811SOL     OW 8456   1.754   3.085  12.760
 2811SOL    HW1 8457   1.845   3.046  12.747
 2811SOL    HW2 8458   1.762   3.181  12.784
 2812SOL     OW 8459   1.064   3.209  12.512
 2812SOL    HW1 8460   0.984   3.186  12.567
 2812SOL    HW2 8461   1.147   3.183  12.561
 2813SOL     OW 8462   1.111   3.057  12.272
 2813SOL    HW1 8463   1.071   3.101  12.353
 2813SOL    HW2 8464   1.070   3.094  12.189
 2814SOL     OW 8465   1.638   2.961  12.251
 2814SOL    HW1 8466   1.643   3.042  12.310
 2814SOL    HW2 8467   1.552   2.963  12.200
 2815SOL     OW 8468   0.915   1.951  12.574
 2815SOL    HW1 8469   0.940   1.931  12.479
 2815SOL    HW2 8470   0.987   2.007  12.616
 2816SOL     OW 8471   0.705   2.912  11.540
 2816SOL    HW1 8472   0.691   2.919  11.639
 2816SOL    HW2 8473   0.789   2.861  11.522
 2817SOL     OW 8474   0.410   2.675  12.423
 2817SOL    HW1 8475   0.496   2.687  12.473
 2817SOL    HW2 8476   0.368   2.588  12.450
 2818SOL     OW 8477   1.274   2.248  12.434
 2818SOL    HW1 8478   1.295   2.322  12.498
 2818SOL    HW2 8479   1.185   2.265  12.391
 2819SOL     OW 8480   0.064   3.426  12.503
 2819SOL    HW1 8481   0.018   3.508  12.469
 2819SOL    HW2 8482   0.162   3.445  12.512
 2820SOL     OW 8483   0.367   2.962  11.673
 2820SOL    HW1 8484   0.360   3.045  11.617
 2820SOL    HW2 8485   0.371   2.882  11.613
 2821SOL     OW 8486   0.566   2.399  12.037
 2821SOL    HW1 8487   0.578   2.465  11.963
 2821SOL    HW2 8488   0.612   2.433  12.120
 2822SOL     OW 8489   1.252   3.210  11.560
 2822SOL    HW1 8490   1.302   3.287  11.600
 2822SOL    HW2 8491   1.157   3.212  11.592
 2823SOL     OW 8492   1.272   3.307  12.314
 2823SOL    HW1 8493   1.319   3.320  12.401
 2823SOL    HW2 8494   1.206   3.233  12.323
 2824SOL     OW 8495   1.582   2.501  11.644
 2824SOL    HW1 8496   1.551   2.562  11.717
 2824SOL    HW2 8497   1.632   2.553  11.575
 2825SOL     OW 8498   0.354   3.372  12.501
 2825SOL    HW1 8499   0.333   3.328  12.414
 2825SOL    HW2 8500   0.451   3.398  12.504
 2826SOL     OW 8501   0.402   2.613  12.770
 2826SOL    HW1 8502   0.470   2.668  12.723
 2826SOL    HW2 8503   0.442   2.525  12.797
 2827SOL     OW 8504   1.587   2.641  12.842
 2827SOL    HW1 8505   1.495   2.679  12.837
 2827SOL    HW2 8506   1.647   2.688  12.777
 2828SOL     OW 8507   0.573   2.732  12.201
 2828SOL    HW1 8508   0.617   2.821  12.192
 2828SOL    HW2 8509   0.510   2.732  12.278
 2829SOL     OW 8510   1.360   2.724  12.217
 2829SOL    HW1 8511   1.285   2.724  12.151
 2829SOL    HW2 8512   1.397   2.632  12.226
 2830SOL     OW 8513   1.209   2.387  11.447
 2830SOL    HW1 8514   1.222   2.303  11.501
 2830SOL    HW2 8515   1.180   2.461  11.507
 2831SOL     OW 8516   0.307   2.075  12.403
 2831SOL    HW1 8517   0.284   2.112  12.493
 2831SOL    HW2 8518   0.277   1.980  12.397
 2832SOL     OW 8519   0.037   3.172  12.454
 2832SOL    HW1 8520   0.090   3.123  12.522
 2832SOL    HW2 8521   0.059   3.270  12.459
 2833SOL     OW 8522   0.732   2.496  12.236
 2833SOL    HW1 8523   0.791   2.470  12.160
 2833SOL    HW2 8524   0.704   2.592  12.225
 2834SOL     OW 8525   0.307   1.925  11.790
 2834SOL    HW1 8526   0.296   2.019  11.823
 2834SOL    HW2 8527   0.302   1.862  11.867
 2835SOL     OW 8528   1.622   2.229  11.546
 2835SOL    HW1 8529   1.624   2.153  11.610
 2835SOL    HW2 8530   1.574   2.306  11.586
 2836SOL     OW 8531   1.023   2.628  12.138
 2836SOL    HW1 8532   1.038   2.649  12.234
 2836SOL    HW2 8533   0.993   2.533  12.129
 2837SOL     OW 8534   1.540   2.136  11.297
 2837SOL    HW1 8535   1.479   2.061  11.320
 2837SOL    HW2 8536   1.562   2.188  11.380
 2838SOL     OW 8537   1.303   2.700  11.214
 2838SOL    HW1 8538   1.337   2.607  11.229
 2838SOL    HW2 8539   1.321   2.727  11.119
 2839SOL     OW 8540   1.068   3.195  12.021
 2839SOL    HW1 8541   1.075   3.111  11.966
 2839SOL    HW2 8542   1.130   3.264  11.985
 2840SOL     OW 8543   0.319   2.672  12.121
 2840SOL    HW1 8544   0.412   2.708  12.126
 2840SOL    HW2 8545   0.313   2.587  12.173
 2841SOL     OW 8546   0.339   2.371  12.178
 2841SOL    HW1 8547   0.287   2.288  12.161
 2841SOL    HW2 8548   0.416   2.376  12.114
 2842SOL     OW 8549   1.160   2.069  12.649
 2842SOL    HW1 8550   1.160   2.133  12.726
 2842SOL    HW2 8551   1.188   2.117  12.566
 2843SOL     OW 8552   0.008   3.188  11.372
 2843SOL    HW1 8553  -0.085   3.209  11.341
 2843SOL    HW2 8554   0.018   3.089  11.385
 2844SOL     OW 8555   0.088   3.663  12.099
 2844SOL    HW1 8556   0.046   3.577  12.072
 2844SOL    HW2 8557   0.182   3.666  12.065
 2845SOL     OW 8558   0.504   3.430  12.082
 2845SOL    HW1 8559   0.570   3.504  12.091
 2845SOL    HW2 8560   0.548   3.351  12.040
 2846SOL     OW 8561   1.002   2.658  12.410
 2846SOL    HW1 8562   1.043   2.626  12.496
 2846SOL    HW2 8563   0.906   2.631  12.407
 2847SOL     OW 8564   0.040   2.406  12.286
 2847SOL    HW1 8565   0.125   2.373  12.245
 2847SOL    HW2 8566   0.053   2.421  12.384
 2848SOL     OW 8567   0.815   2.434  11.497
 2848SOL    HW1 8568   0.822   2.345  11.451
 2848SOL    HW2 8569   0.721   2.468  11.489
 2849SOL     OW 8570   1.657   2.466  12.378
 2849SOL    HW1 8571   1.619   2.397  12.440
 2849SOL    HW2 8572   1.739   2.430  12.334
 2850SOL     OW 8573   0.252   3.426  12.916
 2850SOL    HW1 8574   0.222   3.483  12.992
 2850SOL    HW2 8575   0.245   3.329  12.942
 2851SOL     OW 8576   0.671   2.326  12.441
 2851SOL    HW1 8577   0.637   2.237  12.411
 2851SOL    HW2 8578   0.697   2.380  12.361
 2852SOL     OW 8579   0.930   3.540  12.637
 2852SOL    HW1 8580   0.906   3.522  12.542
 2852SOL    HW2 8581   0.960   3.634  12.647
 2853SOL     OW 8582   0.473   2.362  11.363
 2853SOL    HW1 8583   0.534   2.442  11.367
 2853SOL    HW2 8584   0.378   2.393  11.370
 2854SOL     OW 8585   0.159   2.999  12.638
 2854SOL    HW1 8586   0.181   2.938  12.714
 2854SOL    HW2 8587   0.169   2.950  12.552
 2855SOL     OW 8588   1.347   2.921  12.406
 2855SOL    HW1 8589   1.371   2.858  12.332
 2855SOL    HW2 8590   1.257   2.961  12.388
 2856SOL     OW 8591   1.302   2.717  11.481
 2856SOL    HW1 8592   1.216   2.686  11.523
 2856SOL    HW2 8593   1.298   2.703  11.382
 2857SOL     OW 8594   1.759   3.609  12.326
 2857SOL    HW1 8595   1.820   3.639  12.253
 2857SOL    HW2 8596   1.721   3.520  12.304
 2858SOL     OW 8597   1.252   3.593  12.300
 2858SOL    HW1 8598   1.336   3.598  12.246
 2858SOL    HW2 8599   1.229   3.497  12.318
 2859SOL     OW 8600   0.083   3.120  12.194
 2859SOL    HW1 8601   0.078   3.119  12.294
 2859SOL    HW2 8602   0.000   3.079  12.156
 2860SOL     OW 8603   1.726   1.997  11.695
 2860SOL    HW1 8604   1.799   1.980  11.628
 2860SOL    HW2 8605   1.695   1.910  11.733
 2861SOL     OW 8606   1.388   3.435  11.649
 2861SOL    HW1 8607   1.455   3.447  11.575
 2861SOL    HW2 8608   1.348   3.524  11.672
 2862SOL     OW 8609   1.280   2.789  11.844
 2862SOL    HW1 8610   1.340   2.708  11.846
 2862SOL    HW2 8611   1.320   2.858  11.784
 2863SOL     OW 8612   0.830   3.135  12.594
 2863SOL    HW1 8613   0.825   3.168  12.689
 2863SOL    HW2 8614   0.744   3.154  12.548
 2864SOL     OW 8615   0.672   3.478  11.326
 2864SOL    HW1 8616   0.681   3.488  11.227
 2864SOL    HW2 8617   0.632   3.389  11.347
 2865SOL     OW 8618   1.650   3.582  12.566
 2865SOL    HW1 8619   1.703   3.592  12.482
 2865SOL    HW2 8620   1.623   3.672  12.600
 2866SOL     OW 8621   1.841   2.037  12.135
 2866SOL    HW1 8622   1.880   1.952  12.099
 2866SOL    HW2 8623   1.743   2.039  12.116
 2867SOL     OW 8624   0.263   2.188  11.892
 2867SOL    HW1 8625   0.184   2.239  11.858
 2867SOL    HW2 8626   0.254   2.173  11.990
 2868SOL     OW 8627   1.194   3.474  11.203
 2868SOL    HW1 8628   1.200   3.381  11.240
 2868SOL    HW2 8629   1.135   3.474  11.123
 2869SOL     OW 8630   0.822   2.864  12.544
 2869SOL    HW1 8631   0.862   2.863  12.452
 2869SOL    HW2 8632   0.832   2.956  12.584
 2870SOL     OW 8633   0.916   2.772  11.463
 2870SOL    HW1 8634   0.979   2.810  11.395
 2870SOL    HW2 8635   0.956   2.689  11.502
 2871SOL     OW 8636   1.504   3.469  11.216
 2871SOL    HW1 8637   1.412   3.506  11.223
 2871SOL    HW2 8638   1.542   3.489  11.126
 2872SOL     OW 8639   0.372   3.150  12.662
 2872SOL    HW1 8640   0.359   3.243  12.628
 2872SOL    HW2 8641   0.288   3.098  12.649
 2873SOL     OW 8642   1.614   3.154  12.461
 2873SOL    HW1 8643   1.674   3.157  12.541
 2873SOL    HW2 8644   1.539   3.218  12.474
 2874SOL     OW 8645   1.039   2.960  11.868
 2874SOL    HW1 8646   0.969   2.913  11.922
 2874SOL    HW2 8647   1.098   2.892  11.825
 2875SOL     OW 8648   1.014   2.098  12.143
 2875SOL    HW1 8649   1.006   2.062  12.050
 2875SOL    HW2 8650   1.012   2.022  12.208
 2876SOL     OW 8651   0.590   3.349  11.663
 2876SOL    HW1 8652   0.632   3.291  11.593
 2876SOL    HW2 8653   0.546   3.428  11.619
 2877SOL     OW 8654   1.709   2.247  12.553
 2877SOL    HW1 8655   1.782   2.316  12.557
 2877SOL    HW2 8656   1.737   2.172  12.494
 2878SOL     OW 8657   0.255   3.210  11.462
 2878SOL    HW1 8658   0.159   3.211  11.435
 2878SOL    HW2 8659   0.267   3.263  11.546
 2879SOL     OW 8660   0.105   2.875  12.898
 2879SOL    HW1 8661   0.028   2.842  12.952
 2879SOL    HW2 8662   0.190   2.845  12.940
 2880SOL     OW 8663   0.672   2.065  12.661
 2880SOL    HW1 8664   0.762   2.049  12.621
 2880SOL    HW2 8665   0.680   2.070  12.760
 2881SOL     OW 8666   0.075   2.207  11.205
 2881SOL    HW1 8667  -0.017   2.179  11.176
 2881SOL    HW2 8668   0.106   2.284  11.149
 2882SOL     OW 8669   1.440   2.718  12.570
 2882SOL    HW1 8670   1.383   2.770  12.507
 2882SOL    HW2 8671   1.536   2.730  12.546
 2883SOL     OW 8672   0.072   2.028  11.490
 2883SOL    HW1 8673   0.055   2.111  11.436
 2883SOL    HW2 8674   0.162   1.991  11.468
 2884SOL     OW 8675   1.183   3.197  11.291
 2884SOL    HW1 8676   1.084   3.186  11.293
 2884SOL    HW2 8677   1.217   3.212  11.384
 2885SOL     OW 8678   0.613   2.704  12.603
 2885SOL    HW1 8679   0.669   2.785  12.586
 2885SOL    HW2 8680   0.672   2.624  12.606
 2886SOL     OW 8681   1.493   3.629  12.131
 2886SOL    HW1 8682   1.526   3.693  12.062
 2886SOL    HW2 8683   1.559   3.623  12.206
 2887SOL     OW 8684   0.716   2.427  12.880
 2887SOL    HW1 8685   0.735   2.492  12.954
 2887SOL    HW2 8686   0.776   2.347  12.889
 2888SOL     OW 8687   0.390   3.603  12.732
 2888SOL    HW1 8688   0.299   3.644  12.730
 2888SOL    HW2 8689   0.383   3.509  12.764
 2889SOL     OW 8690   1.674   2.745  12.426
 2889SOL    HW1 8691   1.647   2.656  12.389
 2889SOL    HW2 8692   1.675   2.813  12.353
 2890SOL     OW 8693   1.225   2.187  11.621
 2890SOL    HW1 8694   1.290   2.113  11.610
 2890SOL    HW2 8695   1.245   2.237  11.705
 2891SOL     OW 8696   0.594   2.607  11.824
 2891SOL    HW1 8697   0.644   2.692  11.805
 2891SOL    HW2 8698   0.506   2.609  11.776
 2892SOL     OW 8699   1.777   2.204  12.814
 2892SOL    HW1 8700   1.760   2.235  12.720
 2892SOL    HW2 8701   1.693   2.167  12.852
 2893SOL     OW 8702   1.730   2.796  12.689
 2893SOL    HW1 8703   1.768   2.887  12.704
 2893SOL    HW2 8704   1.722   2.779  12.590
 2894SOL     OW 8705   0.859   3.236  11.188
 2894SOL    HW1 8706   0.813   3.251  11.276
 2894SOL    HW2 8707   0.903   3.321  11.158
 2895SOL     OW 8708   0.661   3.652  12.125
 2895SOL    HW1 8709   0.615   3.740  12.112
 2895SOL    HW2 8710   0.760   3.664  12.118
 2896SOL     OW 8711   0.859   2.818  12.033
 2896SOL    HW1 8712   0.913   2.749  12.081
 2896SOL    HW2 8713   0.827   2.887  12.099
 2897SOL     OW 8714   1.083   2.846  11.259
 2897SOL    HW1 8715   1.060   2.899  11.177
 2897SOL    HW2 8716   1.164   2.790  11.240
 2898SOL     OW 8717   1.861   3.431  12.023
 2898SOL    HW1 8718   1.790   3.419  11.953
 2898SOL    HW2 8719   1.862   3.352  12.083
 2899SOL     OW 8720   0.079   3.102  11.825
 2899SOL    HW1 8721   0.078   3.055  11.913
 2899SOL    HW2 8722   0.161   3.074  11.774
 2900SOL     OW 8723   0.672   3.253  12.796
 2900SOL    HW1 8724   0.594   3.203  12.834
 2900SOL    HW2 8725   0.669   3.348  12.827
 2901SOL     OW 8726   1.824   2.054  12.399
 2901SOL    HW1 8727   1.820   1.964  12.443
 2901SOL    HW2 8728   1.827   2.043  12.300
 2902SOL     OW 8729   0.428   2.286  11.692
 2902SOL    HW1 8730   0.458   2.214  11.630
 2902SOL    HW2 8731   0.389   2.246  11.775
 2903SOL     OW 8732   1.705   3.349  12.276
 2903SOL    HW1 8733   1.612   3.324  12.249
 2903SOL    HW2 8734   1.731   3.299  12.358
 2904SOL     OW 8735   0.317   2.409  12.452
 2904SOL    HW1 8736   0.355   2.350  12.524
 2904SOL    HW2 8737   0.357   2.383  12.364
 2905SOL     OW 8738   0.812   3.448  11.859
 2905SOL    HW1 8739   0.844   3.458  11.765
 2905SOL    HW2 8740   0.733   3.386  11.861
 2906SOL     OW 8741   1.424   2.076  12.284
 2906SOL    HW1 8742   1.476   2.011  12.339
 2906SOL    HW2 8743   1.375   2.139  12.345
 2907SOL     OW 8744   1.001   1.896  12.326
 2907SOL    HW1 8745   0.938   1.824  12.295
 2907SOL    HW2 8746   1.094   1.860  12.326
 2908SOL     OW 8747   0.770   3.192  11.473
 2908SOL    HW1 8748   0.724   3.105  11.490
 2908SOL    HW2 8749   0.861   3.189  11.514
 2909SOL     OW 8750   0.618   3.429  12.456
 2909SOL    HW1 8751   0.613   3.511  12.513
 2909SOL    HW2 8752   0.707   3.426  12.411
 2910SOL     OW 8753   1.352   1.914  11.340
 2910SOL    HW1 8754   1.387   1.873  11.256
 2910SOL    HW2 8755   1.262   1.876  11.360
 2911SOL     OW 8756   1.300   2.315  11.863
 2911SOL    HW1 8757   1.241   2.395  11.867
 2911SOL    HW2 8758   1.315   2.280  11.956
 2912SOL     OW 8759   1.593   2.083  12.054
 2912SOL    HW1 8760   1.509   2.082  12.108
 2912SOL    HW2 8761   1.595   2.166  11.998
 2913SOL     OW 8762   0.039   2.939  11.472
 2913SOL    HW1 8763   0.138   2.928  11.463
 2913SOL    HW2 8764  -0.001   2.853  11.504
 2914SOL     OW 8765   0.875   3.508  11.509
 2914SOL    HW1 8766   0.798   3.473  11.455
 2914SOL    HW2 8767   0.843   3.579  11.571
 2915SOL     OW 8768   0.230   4.352   0.113
 2915SOL    HW1 8769   0.137   4.350   0.150
 2915SOL    HW2 8770   0.231   4.313   0.021
 2916SOL     OW 8771   0.225   3.999   0.996
 2916SOL    HW1 8772   0.260   3.982   1.088
 2916SOL    HW2 8773   0.137   3.954   0.984
 2917SOL     OW 8774   0.019   4.092   0.647
 2917SOL    HW1 8775  -0.063   4.135   0.686
 2917SOL    HW2 8776  -0.009   4.019   0.584
 2918SOL     OW 8777   0.569   4.999   1.165
 2918SOL    HW1 8778   0.476   4.992   1.128
 2918SOL    HW2 8779   0.580   5.088   1.209
 2919SOL     OW 8780   1.555   5.235   0.703
 2919SOL    HW1 8781   1.498   5.219   0.784
 2919SOL    HW2 8782   1.496   5.245   0.623
 2920SOL     OW 8783   1.135   4.427   0.717
 2920SOL    HW1 8784   1.192   4.505   0.692
 2920SOL    HW2 8785   1.075   4.453   0.793
 2921SOL     OW 8786   1.755   4.331   0.231
 2921SOL    HW1 8787   1.743   4.318   0.132
 2921SOL    HW2 8788   1.725   4.250   0.280
 2922SOL     OW 8789   0.768   4.868   1.023
 2922SOL    HW1 8790   0.690   4.885   1.083
 2922SOL    HW2 8791   0.802   4.955   0.987
 2923SOL     OW 8792   0.850   4.522   1.823
 2923SOL    HW1 8793   0.846   4.598   1.888
 2923SOL    HW2 8794   0.872   4.558   1.732
 2924SOL     OW 8795   0.685   4.736   0.665
 2924SOL    HW1 8796   0.754   4.720   0.735
 2924SOL    HW2 8797   0.612   4.793   0.703
 2925SOL     OW 8798   0.686   4.885   1.803
 2925SOL    HW1 8799   0.746   4.964   1.817
 2925SOL    HW2 8800   0.600   4.916   1.762
 2926SOL     OW 8801   0.335   5.159   1.061
 2926SOL    HW1 8802   0.257   5.128   1.008
 2926SOL    HW2 8803   0.393   5.217   1.004
 2927SOL     OW 8804   1.460   5.229   1.339
 2927SOL    HW1 8805   1.484   5.323   1.365
 2927SOL    HW2 8806   1.444   5.175   1.421
 2928SOL     OW 8807   0.438   4.116   1.499
 2928SOL    HW1 8808   0.520   4.060   1.508
 2928SOL    HW2 8809   0.357   4.058   1.503
 2929SOL     OW 8810   1.603   4.171   0.737
 2929SOL    HW1 8811   1.529   4.217   0.687
 2929SOL    HW2 8812   1.654   4.239   0.790
 2930SOL     OW 8813   0.231   5.437   0.483
 2930SOL    HW1 8814   0.265   5.514   0.537
 2930SOL    HW2 8815   0.275   5.437   0.393
 2931SOL     OW 8816   1.127   5.065   1.690
 2931SOL    HW1 8817   1.174   5.065   1.778
 2931SOL    HW2 8818   1.079   4.978   1.679
 2932SOL     OW 8819   0.230   5.158   0.538
 2932SOL    HW1 8820   0.204   5.254   0.538
 2932SOL    HW2 8821   0.159   5.104   0.583
 2933SOL     OW 8822   0.240   4.815   0.886
 2933SOL    HW1 8823   0.254   4.731   0.938
 2933SOL    HW2 8824   0.185   4.879   0.941
 2934SOL     OW 8825   0.620   5.510   1.439
 2934SOL    HW1 8826   0.528   5.493   1.474
 2934SOL    HW2 8827   0.648   5.602   1.465
 2935SOL     OW 8828   0.606   4.688   0.123
 2935SOL    HW1 8829   0.613   4.772   0.069
 2935SOL    HW2 8830   0.652   4.701   0.211
 2936SOL     OW 8831   1.594   3.838   1.480
 2936SOL    HW1 8832   1.576   3.905   1.408
 2936SOL    HW2 8833   1.591   3.884   1.569
 2937SOL     OW 8834   0.122   4.367   0.563
 2937SOL    HW1 8835   0.077   4.279   0.580
 2937SOL    HW2 8836   0.121   4.421   0.647
 2938SOL     OW 8837   1.842   5.491   0.359
 2938SOL    HW1 8838   1.896   5.462   0.439
 2938SOL    HW2 8839   1.872   5.581   0.330
 2939SOL     OW 8840   0.027   5.320   0.117
 2939SOL    HW1 8841   0.008   5.224   0.138
 2939SOL    HW2 8842  -0.006   5.378   0.192
 2940SOL     OW 8843   1.689   4.646   0.612
 2940SOL    HW1 8844   1.784   4.617   0.620
 2940SOL    HW2 8845   1.681   4.711   0.537
 2941SOL     OW 8846   1.641   4.832   0.432
 2941SOL    HW1 8847   1.727   4.834   0.380
 2941SOL    HW2 8848   1.655   4.879   0.520
 2942SOL     OW 8849   0.113   4.461   1.597
 2942SOL    HW1 8850   0.201   4.448   1.642
 2942SOL    HW2 8851   0.100   4.558   1.575
 2943SOL     OW 8852   0.613   5.089   0.726
 2943SOL    HW1 8853   0.564   5.002   0.735
 2943SOL    HW2 8854   0.590   5.132   0.639
 2944SOL     OW 8855   1.293   4.952   1.423
 2944SOL    HW1 8856   1.330   4.879   1.365
 2944SOL    HW2 8857   1.345   4.957   1.508
 2945SOL     OW 8858   0.809   3.728   0.502
 2945SOL    HW1 8859   0.849   3.819   0.493
 2945SOL    HW2 8860   0.709   3.736   0.508
 2946SOL     OW 8861   0.197   4.700   1.264
 2946SOL    HW1 8862   0.286   4.655   1.250
 2946SOL    HW2 8863   0.124   4.635   1.245
 2947SOL     OW 8864   1.525   4.723   0.190
 2947SOL    HW1 8865   1.462   4.647   0.203
 2947SOL    HW2 8866   1.573   4.741   0.276
 2948SOL     OW 8867   1.187   5.516   1.616
 2948SOL    HW1 8868   1.211   5.576   1.540
 2948SOL    HW2 8869   1.194   5.421   1.586
 2949SOL     OW 8870   0.317   3.975   1.801
 2949SOL    HW1 8871   0.388   4.046   1.807
 2949SOL    HW2 8872   0.229   4.014   1.829
 2950SOL     OW 8873   1.466   5.141   0.953
 2950SOL    HW1 8874   1.407   5.147   1.033
 2950SOL    HW2 8875   1.451   5.053   0.907
 2951SOL     OW 8876   1.667   5.438   0.572
 2951SOL    HW1 8877   1.626   5.415   0.484
 2951SOL    HW2 8878   1.649   5.364   0.637
 2952SOL     OW 8879   0.598   4.453   0.270
 2952SOL    HW1 8880   0.622   4.522   0.202
 2952SOL    HW2 8881   0.520   4.486   0.324
 2953SOL     OW 8882   1.281   4.069   0.944
 2953SOL    HW1 8883   1.195   4.019   0.931
 2953SOL    HW2 8884   1.343   4.015   1.000
 2954SOL     OW 8885   1.576   5.386   0.307
 2954SOL    HW1 8886   1.665   5.432   0.310
 2954SOL    HW2 8887   1.555   5.362   0.212
 2955SOL     OW 8888   0.807   4.329   1.465
 2955SOL    HW1 8889   0.760   4.326   1.554
 2955SOL    HW2 8890   0.756   4.274   1.399
 2956SOL     OW 8891   1.394   4.193   1.674
 2956SOL    HW1 8892   1.374   4.236   1.762
 2956SOL    HW2 8893   1.472   4.131   1.683
 2957SOL     OW 8894   0.973   4.614   1.572
 2957SOL    HW1 8895   1.019   4.530   1.543
 2957SOL    HW2 8896   0.917   4.648   1.497
 2958SOL     OW 8897   0.991   4.134   1.242
 2958SOL    HW1 8898   0.914   4.168   1.296
 2958SOL    HW2 8899   0.957   4.083   1.163
 2959SOL     OW 8900   1.041   4.425   0.429
 2959SOL    HW1 8901   1.067   4.421   0.525
 2959SOL    HW2 8902   0.956   4.374   0.415
 2960SOL     OW 8903   0.076   4.535   0.789
 2960SOL    HW1 8904   0.175   4.523   0.798
 2960SOL    HW2 8905   0.052   4.630   0.810
 2961SOL     OW 8906   0.130   5.545   1.571
 2961SOL    HW1 8907   0.120   5.530   1.670
 2961SOL    HW2 8908   0.044   5.581   1.535
 2962SOL     OW 8909   0.865   4.072   0.195
 2962SOL    HW1 8910   0.924   4.135   0.146
 2962SOL    HW2 8911   0.884   3.978   0.166
 2963SOL     OW 8912   1.719   4.309   1.831
 2963SOL    HW1 8913   1.693   4.398   1.795
 2963SOL    HW2 8914   1.717   4.241   1.758
 2964SOL     OW 8915   1.362   4.868   0.545
 2964SOL    HW1 8916   1.445   4.839   0.497
 2964SOL    HW2 8917   1.313   4.935   0.489
 2965SOL     OW 8918   0.550   3.920   0.885
 2965SOL    HW1 8919   0.545   3.915   0.985
 2965SOL    HW2 8920   0.552   4.016   0.856
 2966SOL     OW 8921   1.008   5.180   0.477
 2966SOL    HW1 8922   0.962   5.252   0.425
 2966SOL    HW2 8923   1.004   5.200   0.575
 2967SOL     OW 8924   0.351   5.525   0.853
 2967SOL    HW1 8925   0.401   5.439   0.859
 2967SOL    HW2 8926   0.416   5.602   0.850
 2968SOL     OW 8927   1.795   4.790   0.873
 2968SOL    HW1 8928   1.733   4.775   0.797
 2968SOL    HW2 8929   1.743   4.801   0.958
 2969SOL     OW 8930   1.227   5.274   1.506
 2969SOL    HW1 8931   1.233   5.197   1.570
 2969SOL    HW2 8932   1.175   5.248   1.426
 2970SOL     OW 8933   0.321   4.667   0.242
 2970SOL    HW1 8934   0.403   4.706   0.200
 2970SOL    HW2 8935   0.294   4.585   0.193
 2971SOL     OW 8936   1.458   4.459   0.728
 2971SOL    HW1 8937   1.453   4.394   0.803
 2971SOL    HW2 8938   1.538   4.518   0.741
 2972SOL     OW 8939   0.461   4.990   1.727
 2972SOL    HW1 8940   0.411   4.991   1.641
 2972SOL    HW2 8941   0.398   4.972   1.803
 2973SOL     OW 8942   1.111   5.500   0.237
 2973SOL    HW1 8943   1.051   5.438   0.287
 2973SOL    HW2 8944   1.142   5.456   0.152
 2974SOL     OW 8945   0.202   4.009   1.498
 2974SOL    HW1 8946   0.122   4.069   1.485
 2974SOL    HW2 8947   0.192   3.960   1.584
 2975SOL     OW 8948   1.632   5.101   0.081
 2975SOL    HW1 8949   1.600   5.195   0.071
 2975SOL    HW2 8950   1.556   5.038   0.069
 2976SOL     OW 8951   0.464   5.467   0.323
 2976SOL    HW1 8952   0.497   5.506   0.409
 2976SOL    HW2 8953   0.540   5.460   0.258
 2977SOL     OW 8954   1.400   3.831   0.426
 2977SOL    HW1 8955   1.376   3.794   0.336
 2977SOL    HW2 8956   1.499   3.847   0.430
 2978SOL     OW 8957   0.249   5.509   1.241
 2978SOL    HW1 8958   0.306   5.444   1.291
 2978SOL    HW2 8959   0.233   5.476   1.148
 2979SOL     OW 8960   0.940   5.422   0.904
 2979SOL    HW1 8961   1.020   5.365   0.925
 2979SOL    HW2 8962   0.891   5.382   0.827
 2980SOL     OW 8963   0.382   4.424   0.480
 2980SOL    HW1 8964   0.427   4.334   0.477
 2980SOL    HW2 8965   0.288   4.413   0.513
 2981SOL     OW 8966   1.547   3.946   1.729
 2981SOL    HW1 8967   1.542   3.983   1.821
 2981SOL    HW2 8968   1.475   3.877   1.717
 2982SOL     OW 8969   0.614   3.846   0.117
 2982SOL    HW1 8970   0.712   3.824   0.124
 2982SOL    HW2 8971   0.583   3.829   0.024
 2983SOL     OW 8972   0.781   3.988   1.749
 2983SOL    HW1 8973   0.848   3.927   1.792
 2983SOL    HW2 8974   0.708   4.007   1.814
 2984SOL     OW 8975   0.888   5.238   1.195
 2984SOL    HW1 8976   0.865   5.213   1.101
 2984SOL    HW2 8977   0.949   5.169   1.234
 2985SOL     OW 8978   1.351   4.314   1.433
 2985SOL    HW1 8979   1.379   4.271   1.518
 2985SOL    HW2 8980   1.376   4.410   1.434
 2986SOL     OW 8981   0.803   5.126   0.924
 2986SOL    HW1 8982   0.893   5.140   0.882
 2986SOL    HW2 8983   0.732   5.128   0.853
 2987SOL     OW 8984   0.922   4.227   0.899
 2987SOL    HW1 8985   0.897   4.218   0.803
 2987SOL    HW2 8986   0.970   4.145   0.930
 2988SOL     OW 8987   0.539   3.788   0.512
 2988SOL    HW1 8988   0.458   3.789   0.570
 2988SOL    HW2 8989   0.542   3.871   0.457
 2989SOL     OW 8990   1.434   4.912   0.041
 2989SOL    HW1 8991   1.466   4.836   0.098
 2989SOL    HW2 8992   1.342   4.939   0.071
 2990SOL     OW 8993   0.297   3.759   0.171
 2990SOL    HW1 8994   0.346   3.843   0.150
 2990SOL    HW2 8995   0.359   3.694   0.216
 2991SOL     OW 8996   0.935   3.960   0.480
 2991SOL    HW1 8997   0.887   4.001   0.402
 2991SOL    HW2 8998   1.034   3.958   0.461
 2992SOL     OW 8999   1.076   4.407   1.464
 2992SOL    HW1 9000   0.996   4.346   1.467
 2992SOL    HW2 9001   1.157   4.354   1.440
 2993SOL     OW 9002   1.227   5.294   0.793
 2993SOL    HW1 9003   1.248   5.368   0.728
 2993SOL    HW2 9004   1.295   5.294   0.866
 2994SOL     OW 9005   0.459   4.876   0.741
 2994SOL    HW1 9006   0.388   4.849   0.806
 2994SOL    HW2 9007   0.433   4.848   0.648
 2995SOL     OW 9008   1.271   5.521   0.591
 2995SOL    HW1 9009   1.315   5.585   0.527
 2995SOL    HW2 9010   1.221   5.573   0.661
 2996SOL     OW 9011   1.032   4.273   0.016
 2996SOL    HW1 9012   0.991   4.355  -0.023
 2996SOL    HW2 9013   1.096   4.299   0.089
 2997SOL     OW 9014   0.078   4.280   1.386
 2997SOL    HW1 9015   0.170   4.279   1.345
 2997SOL    HW2 9016   0.072   4.354   1.453
 2998SOL     OW 9017   0.561   3.946   1.147
 2998SOL    HW1 9018   0.599   3.862   1.184
 2998SOL    HW2 9019   0.473   3.965   1.191
 2999SOL     OW 9020   0.866   4.178   0.642
 2999SOL    HW1 9021   0.834   4.250   0.580
 2999SOL    HW2 9022   0.890   4.097   0.589
 3000SOL     OW 9023   1.017   3.763   0.753
 3000SOL    HW1 9024   0.945   3.768   0.684
 3000SOL    HW2 9025   0.993   3.694   0.822
 3001SOL     OW 9026   1.429   4.897   0.867
 3001SOL    HW1 9027   1.374   4.813   0.860
 3001SOL    HW2 9028   1.455   4.926   0.775
 3002SOL     OW 9029   1.466   4.314   0.992
 3002SOL    HW1 9030   1.436   4.219   0.999
 3002SOL    HW2 9031   1.539   4.330   1.058
 3003SOL     OW 9032   1.857   4.557   0.377
 3003SOL    HW1 9033   1.899   4.493   0.441
 3003SOL    HW2 9034   1.819   4.506   0.299
 3004SOL     OW 9035   0.488   5.109   0.174
 3004SOL    HW1 9036   0.401   5.094   0.221
 3004SOL    HW2 9037   0.471   5.135   0.079
 3005SOL     OW 9038   1.664   5.004   0.657
 3005SOL    HW1 9039   1.763   5.012   0.671
 3005SOL    HW2 9040   1.619   5.088   0.688
 3006SOL     OW 9041   1.390   4.299   0.078
 3006SOL    HW1 9042   1.336   4.278   0.159
 3006SOL    HW2 9043   1.481   4.258   0.087
 3007SOL     OW 9044   0.527   3.980   0.328
 3007SOL    HW1 9045   0.554   3.921   0.253
 3007SOL    HW2 9046   0.527   4.075   0.297
 3008SOL     OW 9047   1.754   4.947   1.588
 3008SOL    HW1 9048   1.845   4.908   1.575
 3008SOL    HW2 9049   1.762   5.043   1.612
 3009SOL     OW 9050   1.064   5.071   1.340
 3009SOL    HW1 9051   0.984   5.048   1.395
 3009SOL    HW2 9052   1.147   5.045   1.389
 3010SOL     OW 9053   1.592   5.353   1.625
 3010SOL    HW1 9054   1.619   5.387   1.535
 3010SOL    HW2 9055   1.671   5.315   1.671
 3011SOL     OW 9056   1.111   4.919   1.100
 3011SOL    HW1 9057   1.071   4.963   1.181
 3011SOL    HW2 9058   1.070   4.956   1.017
 3012SOL     OW 9059   1.638   4.823   1.079
 3012SOL    HW1 9060   1.643   4.904   1.138
 3012SOL    HW2 9061   1.552   4.825   1.028
 3013SOL     OW 9062   0.915   3.813   1.402
 3013SOL    HW1 9063   0.940   3.793   1.307
 3013SOL    HW2 9064   0.987   3.869   1.444
 3014SOL     OW 9065   0.980   4.840   1.719
 3014SOL    HW1 9066   0.881   4.846   1.729
 3014SOL    HW2 9067   1.003   4.760   1.663
 3015SOL     OW 9068   0.705   4.774   0.368
 3015SOL    HW1 9069   0.691   4.781   0.467
 3015SOL    HW2 9070   0.789   4.723   0.350
 3016SOL     OW 9071   0.410   4.537   1.251
 3016SOL    HW1 9072   0.496   4.549   1.301
 3016SOL    HW2 9073   0.368   4.450   1.278
 3017SOL     OW 9074   1.274   4.110   1.262
 3017SOL    HW1 9075   1.295   4.184   1.326
 3017SOL    HW2 9076   1.185   4.127   1.219
 3018SOL     OW 9077   0.064   5.288   1.331
 3018SOL    HW1 9078   0.018   5.370   1.297
 3018SOL    HW2 9079   0.162   5.307   1.340
 3019SOL     OW 9080   0.367   4.824   0.501
 3019SOL    HW1 9081   0.360   4.907   0.445
 3019SOL    HW2 9082   0.371   4.744   0.441
 3020SOL     OW 9083   0.566   4.261   0.865
 3020SOL    HW1 9084   0.578   4.327   0.791
 3020SOL    HW2 9085   0.612   4.295   0.948
 3021SOL     OW 9086   1.252   5.072   0.388
 3021SOL    HW1 9087   1.302   5.149   0.428
 3021SOL    HW2 9088   1.157   5.074   0.420
 3022SOL     OW 9089   1.272   5.169   1.142
 3022SOL    HW1 9090   1.319   5.182   1.229
 3022SOL    HW2 9091   1.206   5.095   1.151
 3023SOL     OW 9092   1.582   4.363   0.472
 3023SOL    HW1 9093   1.551   4.424   0.545
 3023SOL    HW2 9094   1.632   4.415   0.403
 3024SOL     OW 9095   0.354   5.234   1.329
 3024SOL    HW1 9096   0.333   5.190   1.242
 3024SOL    HW2 9097   0.451   5.260   1.332
 3025SOL     OW 9098   0.402   4.475   1.598
 3025SOL    HW1 9099   0.470   4.530   1.551
 3025SOL    HW2 9100   0.442   4.387   1.625
 3026SOL     OW 9101   1.587   4.503   1.670
 3026SOL    HW1 9102   1.495   4.541   1.665
 3026SOL    HW2 9103   1.647   4.550   1.605
 3027SOL     OW 9104   1.013   3.829   1.770
 3027SOL    HW1 9105   1.019   3.914   1.718
 3027SOL    HW2 9106   1.045   3.753   1.713
 3028SOL     OW 9107   0.504   3.774   1.740
 3028SOL    HW1 9108   0.462   3.717   1.670
 3028SOL    HW2 9109   0.438   3.843   1.772
 3029SOL     OW 9110   0.573   4.594   1.029
 3029SOL    HW1 9111   0.617   4.683   1.020
 3029SOL    HW2 9112   0.510   4.594   1.106
 3030SOL     OW 9113   1.360   4.586   1.045
 3030SOL    HW1 9114   1.285   4.586   0.979
 3030SOL    HW2 9115   1.397   4.494   1.054
 3031SOL     OW 9116   1.209   4.249   0.275
 3031SOL    HW1 9117   1.222   4.165   0.329
 3031SOL    HW2 9118   1.180   4.323   0.335
 3032SOL     OW 9119   0.307   3.937   1.231
 3032SOL    HW1 9120   0.284   3.974   1.321
 3032SOL    HW2 9121   0.277   3.842   1.225
 3033SOL     OW 9122   0.037   5.034   1.282
 3033SOL    HW1 9123   0.090   4.985   1.350
 3033SOL    HW2 9124   0.059   5.132   1.287
 3034SOL     OW 9125   0.732   4.358   1.064
 3034SOL    HW1 9126   0.791   4.332   0.988
 3034SOL    HW2 9127   0.704   4.454   1.053
 3035SOL     OW 9128   1.728   4.659   1.854
 3035SOL    HW1 9129   1.682   4.652   1.765
 3035SOL    HW2 9130   1.666   4.703   1.920
 3036SOL     OW 9131   0.307   3.787   0.618
 3036SOL    HW1 9132   0.296   3.881   0.651
 3036SOL    HW2 9133   0.302   3.724   0.695
 3037SOL     OW 9134   1.622   4.091   0.374
 3037SOL    HW1 9135   1.624   4.015   0.438
 3037SOL    HW2 9136   1.574   4.168   0.414
 3038SOL     OW 9137   1.023   4.490   0.966
 3038SOL    HW1 9138   1.038   4.511   1.062
 3038SOL    HW2 9139   0.993   4.395   0.957
 3039SOL     OW 9140   0.980   5.297   1.700
 3039SOL    HW1 9141   0.960   5.341   1.612
 3039SOL    HW2 9142   1.019   5.206   1.684
 3040SOL     OW 9143   1.859   5.242   1.605
 3040SOL    HW1 9144   1.873   5.269   1.510
 3040SOL    HW2 9145   1.942   5.264   1.658
 3041SOL     OW 9146   0.350   4.622   1.804
 3041SOL    HW1 9147   0.426   4.666   1.852
 3041SOL    HW2 9148   0.385   4.575   1.722
 3042SOL     OW 9149   1.540   3.998   0.125
 3042SOL    HW1 9150   1.479   3.923   0.148
 3042SOL    HW2 9151   1.562   4.050   0.208
 3043SOL     OW 9152   1.303   4.562   0.042
 3043SOL    HW1 9153   1.337   4.469   0.057
 3043SOL    HW2 9154   1.321   4.589  -0.053
 3044SOL     OW 9155   1.068   5.057   0.849
 3044SOL    HW1 9156   1.075   4.973   0.794
 3044SOL    HW2 9157   1.130   5.126   0.813
 3045SOL     OW 9158   0.319   4.534   0.949
 3045SOL    HW1 9159   0.412   4.570   0.954
 3045SOL    HW2 9160   0.313   4.449   1.001
 3046SOL     OW 9161   0.339   4.233   1.006
 3046SOL    HW1 9162   0.287   4.150   0.989
 3046SOL    HW2 9163   0.416   4.238   0.942
 3047SOL     OW 9164   1.138   4.104   1.678
 3047SOL    HW1 9165   1.093   4.167   1.742
 3047SOL    HW2 9166   1.231   4.135   1.661
 3048SOL     OW 9167   1.160   3.931   1.477
 3048SOL    HW1 9168   1.160   3.995   1.554
 3048SOL    HW2 9169   1.188   3.979   1.394
 3049SOL     OW 9170   0.008   5.050   0.200
 3049SOL    HW1 9171  -0.085   5.071   0.169
 3049SOL    HW2 9172   0.018   4.951   0.213
 3050SOL     OW 9173   0.088   5.525   0.927
 3050SOL    HW1 9174   0.046   5.439   0.900
 3050SOL    HW2 9175   0.182   5.528   0.893
 3051SOL     OW 9176   0.504   5.292   0.910
 3051SOL    HW1 9177   0.570   5.366   0.919
 3051SOL    HW2 9178   0.548   5.213   0.868
 3052SOL     OW 9179   1.002   4.520   1.238
 3052SOL    HW1 9180   1.043   4.488   1.324
 3052SOL    HW2 9181   0.906   4.493   1.235
 3053SOL     OW 9182   0.040   4.268   1.114
 3053SOL    HW1 9183   0.125   4.235   1.073
 3053SOL    HW2 9184   0.053   4.283   1.212
 3054SOL     OW 9185   0.189   4.244   1.722
 3054SOL    HW1 9186   0.248   4.204   1.652
 3054SOL    HW2 9187   0.131   4.315   1.681
 3055SOL     OW 9188   1.369   4.674   1.660
 3055SOL    HW1 9189   1.408   4.763   1.680
 3055SOL    HW2 9190   1.379   4.654   1.563
 3056SOL     OW 9191   0.815   4.296   0.325
 3056SOL    HW1 9192   0.822   4.207   0.279
 3056SOL    HW2 9193   0.721   4.330   0.317
 3057SOL     OW 9194   1.657   4.328   1.206
 3057SOL    HW1 9195   1.619   4.259   1.268
 3057SOL    HW2 9196   1.739   4.292   1.162
 3058SOL     OW 9197   0.252   5.288   1.744
 3058SOL    HW1 9198   0.222   5.345   1.820
 3058SOL    HW2 9199   0.245   5.191   1.770
 3059SOL     OW 9200   0.671   4.188   1.269
 3059SOL    HW1 9201   0.637   4.099   1.239
 3059SOL    HW2 9202   0.697   4.242   1.189
 3060SOL     OW 9203   0.930   5.402   1.465
 3060SOL    HW1 9204   0.906   5.384   1.370
 3060SOL    HW2 9205   0.960   5.496   1.475
 3061SOL     OW 9206   0.473   4.224   0.191
 3061SOL    HW1 9207   0.534   4.304   0.195
 3061SOL    HW2 9208   0.378   4.255   0.198
 3062SOL     OW 9209   0.159   4.861   1.466
 3062SOL    HW1 9210   0.181   4.800   1.542
 3062SOL    HW2 9211   0.169   4.812   1.380
 3063SOL     OW 9212   1.347   4.783   1.234
 3063SOL    HW1 9213   1.371   4.720   1.160
 3063SOL    HW2 9214   1.257   4.823   1.216
 3064SOL     OW 9215   1.302   4.579   0.309
 3064SOL    HW1 9216   1.216   4.548   0.351
 3064SOL    HW2 9217   1.298   4.565   0.210
 3065SOL     OW 9218   1.759   5.471   1.154
 3065SOL    HW1 9219   1.820   5.501   1.081
 3065SOL    HW2 9220   1.721   5.382   1.132
 3066SOL     OW 9221   1.252   5.455   1.128
 3066SOL    HW1 9222   1.336   5.460   1.074
 3066SOL    HW2 9223   1.229   5.359   1.146
 3067SOL     OW 9224   0.083   4.982   1.022
 3067SOL    HW1 9225   0.078   4.981   1.122
 3067SOL    HW2 9226   0.000   4.941   0.984
 3068SOL     OW 9227   0.688   5.386   1.716
 3068SOL    HW1 9228   0.632   5.467   1.725
 3068SOL    HW2 9229   0.740   5.390   1.630
 3069SOL     OW 9230   0.903   3.810   0.133
 3069SOL    HW1 9231   0.954   3.811   0.047
 3069SOL    HW2 9232   0.959   3.768   0.204
 3070SOL     OW 9233   1.726   3.859   0.523
 3070SOL    HW1 9234   1.799   3.842   0.456
 3070SOL    HW2 9235   1.695   3.772   0.561
 3071SOL     OW 9236   1.388   5.297   0.477
 3071SOL    HW1 9237   1.455   5.309   0.403
 3071SOL    HW2 9238   1.348   5.386   0.500
 3072SOL     OW 9239   0.130   5.518   1.851
 3072SOL    HW1 9240   0.089   5.444   1.904
 3072SOL    HW2 9241   0.194   5.569   1.909
 3073SOL     OW 9242   1.280   4.651   0.672
 3073SOL    HW1 9243   1.340   4.570   0.674
 3073SOL    HW2 9244   1.320   4.720   0.612
 3074SOL     OW 9245   0.830   4.997   1.422
 3074SOL    HW1 9246   0.825   5.030   1.517
 3074SOL    HW2 9247   0.744   5.016   1.376
 3075SOL     OW 9248   0.672   5.340   0.154
 3075SOL    HW1 9249   0.681   5.350   0.055
 3075SOL    HW2 9250   0.632   5.251   0.175
 3076SOL     OW 9251   1.650   5.444   1.394
 3076SOL    HW1 9252   1.703   5.454   1.310
 3076SOL    HW2 9253   1.623   5.534   1.428
 3077SOL     OW 9254   1.841   3.899   0.963
 3077SOL    HW1 9255   1.880   3.814   0.927
 3077SOL    HW2 9256   1.743   3.901   0.944
 3078SOL     OW 9257   0.263   4.050   0.720
 3078SOL    HW1 9258   0.184   4.101   0.686
 3078SOL    HW2 9259   0.254   4.035   0.818
 3079SOL     OW 9260   1.194   5.336   0.031
 3079SOL    HW1 9261   1.200   5.243   0.068
 3079SOL    HW2 9262   1.135   5.336  -0.049
 3080SOL     OW 9263   0.822   4.726   1.372
 3080SOL    HW1 9264   0.862   4.725   1.280
 3080SOL    HW2 9265   0.832   4.818   1.412
 3081SOL     OW 9266   0.916   4.634   0.291
 3081SOL    HW1 9267   0.979   4.672   0.223
 3081SOL    HW2 9268   0.956   4.551   0.330
 3082SOL     OW 9269   1.504   5.331   0.044
 3082SOL    HW1 9270   1.412   5.368   0.051
 3082SOL    HW2 9271   1.542   5.351  -0.046
 3083SOL     OW 9272   0.372   5.012   1.490
 3083SOL    HW1 9273   0.359   5.105   1.456
 3083SOL    HW2 9274   0.288   4.960   1.477
 3084SOL     OW 9275   1.614   5.016   1.289
 3084SOL    HW1 9276   1.674   5.019   1.369
 3084SOL    HW2 9277   1.539   5.080   1.302
 3085SOL     OW 9278   1.039   4.822   0.696
 3085SOL    HW1 9279   0.969   4.775   0.750
 3085SOL    HW2 9280   1.098   4.754   0.653
 3086SOL     OW 9281   1.014   3.960   0.971
 3086SOL    HW1 9282   1.006   3.924   0.878
 3086SOL    HW2 9283   1.012   3.884   1.036
 3087SOL     OW 9284   0.590   5.211   0.491
 3087SOL    HW1 9285   0.632   5.153   0.421
 3087SOL    HW2 9286   0.546   5.290   0.447
 3088SOL     OW 9287   1.709   4.109   1.381
 3088SOL    HW1 9288   1.782   4.178   1.385
 3088SOL    HW2 9289   1.737   4.034   1.322
 3089SOL     OW 9290   0.255   5.072   0.290
 3089SOL    HW1 9291   0.159   5.073   0.263
 3089SOL    HW2 9292   0.267   5.125   0.374
 3090SOL     OW 9293   0.105   4.737   1.726
 3090SOL    HW1 9294   0.028   4.704   1.780
 3090SOL    HW2 9295   0.190   4.707   1.768
 3091SOL     OW 9296   0.672   3.927   1.489
 3091SOL    HW1 9297   0.762   3.911   1.449
 3091SOL    HW2 9298   0.680   3.932   1.588
 3092SOL     OW 9299   0.075   4.069   0.033
 3092SOL    HW1 9300  -0.017   4.041   0.004
 3092SOL    HW2 9301   0.106   4.146  -0.023
 3093SOL     OW 9302   1.440   4.580   1.398
 3093SOL    HW1 9303   1.383   4.632   1.335
 3093SOL    HW2 9304   1.536   4.592   1.374
 3094SOL     OW 9305   0.072   3.890   0.318
 3094SOL    HW1 9306   0.055   3.973   0.264
 3094SOL    HW2 9307   0.162   3.853   0.296
 3095SOL     OW 9308   1.183   5.059   0.119
 3095SOL    HW1 9309   1.084   5.048   0.121
 3095SOL    HW2 9310   1.217   5.074   0.212
 3096SOL     OW 9311   0.613   4.566   1.431
 3096SOL    HW1 9312   0.669   4.647   1.414
 3096SOL    HW2 9313   0.672   4.486   1.434
 3097SOL     OW 9314   1.493   5.491   0.959
 3097SOL    HW1 9315   1.526   5.555   0.890
 3097SOL    HW2 9316   1.559   5.485   1.034
 3098SOL     OW 9317   0.716   4.289   1.708
 3098SOL    HW1 9318   0.735   4.354   1.782
 3098SOL    HW2 9319   0.776   4.209   1.717
 3099SOL     OW 9320   1.450   4.944   1.633
 3099SOL    HW1 9321   1.441   4.934   1.732
 3099SOL    HW2 9322   1.546   4.937   1.607
 3100SOL     OW 9323   0.390   5.465   1.560
 3100SOL    HW1 9324   0.299   5.506   1.558
 3100SOL    HW2 9325   0.383   5.371   1.592
 3101SOL     OW 9326   1.674   4.607   1.254
 3101SOL    HW1 9327   1.647   4.518   1.217
 3101SOL    HW2 9328   1.675   4.675   1.181
 3102SOL     OW 9329   1.225   4.049   0.449
 3102SOL    HW1 9330   1.290   3.975   0.438
 3102SOL    HW2 9331   1.245   4.099   0.533
 3103SOL     OW 9332   0.594   4.469   0.652
 3103SOL    HW1 9333   0.644   4.554   0.633
 3103SOL    HW2 9334   0.506   4.471   0.604
 3104SOL     OW 9335   1.777   4.066   1.642
 3104SOL    HW1 9336   1.760   4.097   1.548
 3104SOL    HW2 9337   1.693   4.029   1.680
 3105SOL     OW 9338   1.730   4.658   1.517
 3105SOL    HW1 9339   1.768   4.749   1.532
 3105SOL    HW2 9340   1.722   4.641   1.418
 3106SOL     OW 9341   0.859   5.098   0.016
 3106SOL    HW1 9342   0.813   5.113   0.104
 3106SOL    HW2 9343   0.903   5.183  -0.014
 3107SOL     OW 9344   0.661   5.514   0.953
 3107SOL    HW1 9345   0.615   5.602   0.940
 3107SOL    HW2 9346   0.760   5.526   0.946
 3108SOL     OW 9347   0.859   4.680   0.861
 3108SOL    HW1 9348   0.913   4.611   0.909
 3108SOL    HW2 9349   0.827   4.749   0.927
 3109SOL     OW 9350   1.083   4.708   0.087
 3109SOL    HW1 9351   1.060   4.761   0.005
 3109SOL    HW2 9352   1.164   4.652   0.068
 3110SOL     OW 9353   1.861   5.293   0.851
 3110SOL    HW1 9354   1.790   5.281   0.781
 3110SOL    HW2 9355   1.862   5.214   0.911
 3111SOL     OW 9356   0.221   5.038   1.844
 3111SOL    HW1 9357   0.156   4.965   1.823
 3111SOL    HW2 9358   0.225   5.052   1.942
 3112SOL     OW 9359   0.079   4.964   0.653
 3112SOL    HW1 9360   0.078   4.917   0.741
 3112SOL    HW2 9361   0.161   4.936   0.602
 3113SOL     OW 9362   0.672   5.115   1.624
 3113SOL    HW1 9363   0.594   5.065   1.662
 3113SOL    HW2 9364   0.669   5.210   1.655
 3114SOL     OW 9365   1.824   3.916   1.227
 3114SOL    HW1 9366   1.820   3.826   1.271
 3114SOL    HW2 9367   1.827   3.905   1.128
 3115SOL     OW 9368   0.428   4.148   0.520
 3115SOL    HW1 9369   0.458   4.076   0.458
 3115SOL    HW2 9370   0.389   4.108   0.603
 3116SOL     OW 9371   1.705   5.211   1.104
 3116SOL    HW1 9372   1.612   5.186   1.077
 3116SOL    HW2 9373   1.731   5.161   1.186
 3117SOL     OW 9374   0.317   4.271   1.280
 3117SOL    HW1 9375   0.355   4.212   1.352
 3117SOL    HW2 9376   0.357   4.245   1.192
 3118SOL     OW 9377   0.812   5.310   0.687
 3118SOL    HW1 9378   0.844   5.320   0.593
 3118SOL    HW2 9379   0.733   5.248   0.689
 3119SOL     OW 9380   1.424   3.938   1.112
 3119SOL    HW1 9381   1.476   3.873   1.167
 3119SOL    HW2 9382   1.375   4.001   1.173
 3120SOL     OW 9383   1.001   3.758   1.154
 3120SOL    HW1 9384   0.938   3.686   1.123
 3120SOL    HW2 9385   1.094   3.722   1.154
 3121SOL     OW 9386   0.770   5.054   0.301
 3121SOL    HW1 9387   0.724   4.967   0.318
 3121SOL    HW2 9388   0.861   5.051   0.342
 3122SOL     OW 9389   0.618   5.291   1.284
 3122SOL    HW1 9390   0.613   5.373   1.341
 3122SOL    HW2 9391   0.707   5.288   1.239
 3123SOL     OW 9392   1.352   3.776   0.168
 3123SOL    HW1 9393   1.387   3.735   0.084
 3123SOL    HW2 9394   1.262   3.738   0.188
 3124SOL     OW 9395   1.300   4.177   0.691
 3124SOL    HW1 9396   1.241   4.257   0.695
 3124SOL    HW2 9397   1.315   4.142   0.784
 3125SOL     OW 9398   1.593   3.945   0.882
 3125SOL    HW1 9399   1.509   3.944   0.936
 3125SOL    HW2 9400   1.595   4.028   0.826
 3126SOL     OW 9401   0.039   4.801   0.300
 3126SOL    HW1 9402   0.138   4.790   0.291
 3126SOL    HW2 9403  -0.001   4.715   0.332
 3127SOL     OW 9404   0.875   5.370   0.337
 3127SOL    HW1 9405   0.798   5.335   0.283
 3127SOL    HW2 9406   0.843   5.441   0.399
 3128SOL     OW 9407   0.230   4.352   1.975
 3128SOL    HW1 9408   0.137   4.350   2.012
 3128SOL    HW2 9409   0.231   4.313   1.883
 3129SOL     OW 9410   0.225   3.999   2.858
 3129SOL    HW1 9411   0.260   3.982   2.950
 3129SOL    HW2 9412   0.137   3.954   2.846
 3130SOL     OW 9413   0.019   4.092   2.509
 3130SOL    HW1 9414  -0.063   4.135   2.548
 3130SOL    HW2 9415  -0.009   4.019   2.446
 3131SOL     OW 9416   0.569   4.999   3.027
 3131SOL    HW1 9417   0.476   4.992   2.990
 3131SOL    HW2 9418   0.580   5.088   3.071
 3132SOL     OW 9419   1.555   5.235   2.565
 3132SOL    HW1 9420   1.498   5.219   2.646
 3132SOL    HW2 9421   1.496   5.245   2.485
 3133SOL     OW 9422   1.135   4.427   2.579
 3133SOL    HW1 9423   1.192   4.505   2.554
 3133SOL    HW2 9424   1.075   4.453   2.655
 3134SOL     OW 9425   1.755   4.331   2.093
 3134SOL    HW1 9426   1.743   4.318   1.994
 3134SOL    HW2 9427   1.725   4.250   2.142
 3135SOL     OW 9428   0.768   4.868   2.885
 3135SOL    HW1 9429   0.690   4.885   2.945
 3135SOL    HW2 9430   0.802   4.955   2.849
 3136SOL     OW 9431   0.850   4.522   3.685
 3136SOL    HW1 9432   0.846   4.598   3.750
 3136SOL    HW2 9433   0.872   4.558   3.594
 3137SOL     OW 9434   0.685   4.736   2.527
 3137SOL    HW1 9435   0.754   4.720   2.597
 3137SOL    HW2 9436   0.612   4.793   2.565
 3138SOL     OW 9437   0.686   4.885   3.665
 3138SOL    HW1 9438   0.746   4.964   3.679
 3138SOL    HW2 9439   0.600   4.916   3.624
 3139SOL     OW 9440   0.335   5.159   2.923
 3139SOL    HW1 9441   0.257   5.128   2.870
 3139SOL    HW2 9442   0.393   5.217   2.866
 3140SOL     OW 9443   1.460   5.229   3.201
 3140SOL    HW1 9444   1.484   5.323   3.227
 3140SOL    HW2 9445   1.444   5.175   3.283
 3141SOL     OW 9446   0.438   4.116   3.361
 3141SOL    HW1 9447   0.520   4.060   3.370
 3141SOL    HW2 9448   0.357   4.058   3.365
 3142SOL     OW 9449   1.603   4.171   2.599
 3142SOL    HW1 9450   1.529   4.217   2.549
 3142SOL    HW2 9451   1.654   4.239   2.652
 3143SOL     OW 9452   0.231   5.437   2.345
 3143SOL    HW1 9453   0.265   5.514   2.399
 3143SOL    HW2 9454   0.275   5.437   2.255
 3144SOL     OW 9455   1.127   5.065   3.552
 3144SOL    HW1 9456   1.174   5.065   3.640
 3144SOL    HW2 9457   1.079   4.978   3.541
 3145SOL     OW 9458   0.230   5.158   2.400
 3145SOL    HW1 9459   0.204   5.254   2.400
 3145SOL    HW2 9460   0.159   5.104   2.445
 3146SOL     OW 9461   0.240   4.815   2.748
 3146SOL    HW1 9462   0.254   4.731   2.800
 3146SOL    HW2 9463   0.185   4.879   2.803
 3147SOL     OW 9464   0.620   5.510   3.301
 3147SOL    HW1 9465   0.528   5.493   3.336
 3147SOL    HW2 9466   0.648   5.602   3.327
 3148SOL     OW 9467   0.606   4.688   1.985
 3148SOL    HW1 9468   0.613   4.772   1.931
 3148SOL    HW2 9469   0.652   4.701   2.073
 3149SOL     OW 9470   1.594   3.838   3.342
 3149SOL    HW1 9471   1.576   3.905   3.270
 3149SOL    HW2 9472   1.591   3.884   3.431
 3150SOL     OW 9473   0.122   4.367   2.425
 3150SOL    HW1 9474   0.077   4.279   2.442
 3150SOL    HW2 9475   0.121   4.421   2.509
 3151SOL     OW 9476   1.842   5.491   2.221
 3151SOL    HW1 9477   1.896   5.462   2.301
 3151SOL    HW2 9478   1.872   5.581   2.192
 3152SOL     OW 9479   0.027   5.320   1.979
 3152SOL    HW1 9480   0.008   5.224   2.000
 3152SOL    HW2 9481  -0.006   5.378   2.054
 3153SOL     OW 9482   1.689   4.646   2.474
 3153SOL    HW1 9483   1.784   4.617   2.482
 3153SOL    HW2 9484   1.681   4.711   2.399
 3154SOL     OW 9485   1.641   4.832   2.294
 3154SOL    HW1 9486   1.727   4.834   2.242
 3154SOL    HW2 9487   1.655   4.879   2.382
 3155SOL     OW 9488   0.113   4.461   3.459
 3155SOL    HW1 9489   0.201   4.448   3.504
 3155SOL    HW2 9490   0.100   4.558   3.437
 3156SOL     OW 9491   0.613   5.089   2.588
 3156SOL    HW1 9492   0.564   5.002   2.597
 3156SOL    HW2 9493   0.590   5.132   2.501
 3157SOL     OW 9494   1.293   4.952   3.285
 3157SOL    HW1 9495   1.330   4.879   3.227
 3157SOL    HW2 9496   1.345   4.957   3.370
 3158SOL     OW 9497   0.809   3.728   2.364
 3158SOL    HW1 9498   0.849   3.819   2.355
 3158SOL    HW2 9499   0.709   3.736   2.370
 3159SOL     OW 9500   0.197   4.700   3.126
 3159SOL    HW1 9501   0.286   4.655   3.112
 3159SOL    HW2 9502   0.124   4.635   3.107
 3160SOL     OW 9503   1.525   4.723   2.052
 3160SOL    HW1 9504   1.462   4.647   2.065
 3160SOL    HW2 9505   1.573   4.741   2.138
 3161SOL     OW 9506   1.187   5.516   3.478
 3161SOL    HW1 9507   1.211   5.576   3.402
 3161SOL    HW2 9508   1.194   5.421   3.448
 3162SOL     OW 9509   0.317   3.975   3.663
 3162SOL    HW1 9510   0.388   4.046   3.669
 3162SOL    HW2 9511   0.229   4.014   3.691
 3163SOL     OW 9512   1.466   5.141   2.815
 3163SOL    HW1 9513   1.407   5.147   2.895
 3163SOL    HW2 9514   1.451   5.053   2.769
 3164SOL     OW 9515   1.667   5.438   2.434
 3164SOL    HW1 9516   1.626   5.415   2.346
 3164SOL    HW2 9517   1.649   5.364   2.499
 3165SOL     OW 9518   0.598   4.453   2.132
 3165SOL    HW1 9519   0.622   4.522   2.064
 3165SOL    HW2 9520   0.520   4.486   2.186
 3166SOL     OW 9521   1.281   4.069   2.806
 3166SOL    HW1 9522   1.195   4.019   2.793
 3166SOL    HW2 9523   1.343   4.015   2.862
 3167SOL     OW 9524   1.576   5.386   2.169
 3167SOL    HW1 9525   1.665   5.432   2.172
 3167SOL    HW2 9526   1.555   5.362   2.074
 3168SOL     OW 9527   0.807   4.329   3.327
 3168SOL    HW1 9528   0.760   4.326   3.416
 3168SOL    HW2 9529   0.756   4.274   3.261
 3169SOL     OW 9530   1.394   4.193   3.536
 3169SOL    HW1 9531   1.374   4.236   3.624
 3169SOL    HW2 9532   1.472   4.131   3.545
 3170SOL     OW 9533   0.973   4.614   3.434
 3170SOL    HW1 9534   1.019   4.530   3.405
 3170SOL    HW2 9535   0.917   4.648   3.359
 3171SOL     OW 9536   0.991   4.134   3.104
 3171SOL    HW1 9537   0.914   4.168   3.158
 3171SOL    HW2 9538   0.957   4.083   3.025
 3172SOL     OW 9539   1.041   4.425   2.291
 3172SOL    HW1 9540   1.067   4.421   2.387
 3172SOL    HW2 9541   0.956   4.374   2.277
 3173SOL     OW 9542   0.076   4.535   2.651
 3173SOL    HW1 9543   0.175   4.523   2.660
 3173SOL    HW2 9544   0.052   4.630   2.672
 3174SOL     OW 9545   0.130   5.545   3.433
 3174SOL    HW1 9546   0.120   5.530   3.532
 3174SOL    HW2 9547   0.044   5.581   3.397
 3175SOL     OW 9548   0.865   4.072   2.057
 3175SOL    HW1 9549   0.924   4.135   2.008
 3175SOL    HW2 9550   0.884   3.978   2.028
 3176SOL     OW 9551   1.719   4.309   3.693
 3176SOL    HW1 9552   1.693   4.398   3.657
 3176SOL    HW2 9553   1.717   4.241   3.620
 3177SOL     OW 9554   1.362   4.868   2.407
 3177SOL    HW1 9555   1.445   4.839   2.359
 3177SOL    HW2 9556   1.313   4.935   2.351
 3178SOL     OW 9557   0.550   3.920   2.747
 3178SOL    HW1 9558   0.545   3.915   2.847
 3178SOL    HW2 9559   0.552   4.016   2.718
 3179SOL     OW 9560   1.008   5.180   2.339
 3179SOL    HW1 9561   0.962   5.252   2.287
 3179SOL    HW2 9562   1.004   5.200   2.437
 3180SOL     OW 9563   0.351   5.525   2.715
 3180SOL    HW1 9564   0.401   5.439   2.721
 3180SOL    HW2 9565   0.416   5.602   2.712
 3181SOL     OW 9566   1.795   4.790   2.735
 3181SOL    HW1 9567   1.733   4.775   2.659
 3181SOL    HW2 9568   1.743   4.801   2.820
 3182SOL     OW 9569   1.227   5.274   3.368
 3182SOL    HW1 9570   1.233   5.197   3.432
 3182SOL    HW2 9571   1.175   5.248   3.288
 3183SOL     OW 9572   0.321   4.667   2.104
 3183SOL    HW1 9573   0.403   4.706   2.062
 3183SOL    HW2 9574   0.294   4.585   2.055
 3184SOL     OW 9575   1.458   4.459   2.590
 3184SOL    HW1 9576   1.453   4.394   2.665
 3184SOL    HW2 9577   1.538   4.518   2.603
 3185SOL     OW 9578   0.461   4.990   3.589
 3185SOL    HW1 9579   0.411   4.991   3.503
 3185SOL    HW2 9580   0.398   4.972   3.665
 3186SOL     OW 9581   1.111   5.500   2.099
 3186SOL    HW1 9582   1.051   5.438   2.149
 3186SOL    HW2 9583   1.142   5.456   2.014
 3187SOL     OW 9584   0.202   4.009   3.360
 3187SOL    HW1 9585   0.122   4.069   3.347
 3187SOL    HW2 9586   0.192   3.960   3.446
 3188SOL     OW 9587   1.632   5.101   1.943
 3188SOL    HW1 9588   1.600   5.195   1.933
 3188SOL    HW2 9589   1.556   5.038   1.931
 3189SOL     OW 9590   0.464   5.467   2.185
 3189SOL    HW1 9591   0.497   5.506   2.271
 3189SOL    HW2 9592   0.540   5.460   2.120
 3190SOL     OW 9593   1.400   3.831   2.288
 3190SOL    HW1 9594   1.376   3.794   2.198
 3190SOL    HW2 9595   1.499   3.847   2.292
 3191SOL     OW 9596   0.249   5.509   3.103
 3191SOL    HW1 9597   0.306   5.444   3.153
 3191SOL    HW2 9598   0.233   5.476   3.010
 3192SOL     OW 9599   0.940   5.422   2.766
 3192SOL    HW1 9600   1.020   5.365   2.787
 3192SOL    HW2 9601   0.891   5.382   2.689
 3193SOL     OW 9602   0.382   4.424   2.342
 3193SOL    HW1 9603   0.427   4.334   2.339
 3193SOL    HW2 9604   0.288   4.413   2.375
 3194SOL     OW 9605   1.547   3.946   3.591
 3194SOL    HW1 9606   1.542   3.983   3.683
 3194SOL    HW2 9607   1.475   3.877   3.579
 3195SOL     OW 9608   0.614   3.846   1.979
 3195SOL    HW1 9609   0.712   3.824   1.986
 3195SOL    HW2 9610   0.583   3.829   1.886
 3196SOL     OW 9611   0.781   3.988   3.611
 3196SOL    HW1 9612   0.848   3.927   3.654
 3196SOL    HW2 9613   0.708   4.007   3.676
 3197SOL     OW 9614   0.888   5.238   3.057
 3197SOL    HW1 9615   0.865   5.213   2.963
 3197SOL    HW2 9616   0.949   5.169   3.096
 3198SOL     OW 9617   1.351   4.314   3.295
 3198SOL    HW1 9618   1.379   4.271   3.380
 3198SOL    HW2 9619   1.376   4.410   3.296
 3199SOL     OW 9620   0.803   5.126   2.786
 3199SOL    HW1 9621   0.893   5.140   2.744
 3199SOL    HW2 9622   0.732   5.128   2.715
 3200SOL     OW 9623   0.922   4.227   2.761
 3200SOL    HW1 9624   0.897   4.218   2.665
 3200SOL    HW2 9625   0.970   4.145   2.792
 3201SOL     OW 9626   0.539   3.788   2.374
 3201SOL    HW1 9627   0.458   3.789   2.432
 3201SOL    HW2 9628   0.542   3.871   2.319
 3202SOL     OW 9629   1.434   4.912   1.903
 3202SOL    HW1 9630   1.466   4.836   1.960
 3202SOL    HW2 9631   1.342   4.939   1.933
 3203SOL     OW 9632   0.297   3.759   2.033
 3203SOL    HW1 9633   0.346   3.843   2.012
 3203SOL    HW2 9634   0.359   3.694   2.078
 3204SOL     OW 9635   0.935   3.960   2.342
 3204SOL    HW1 9636   0.887   4.001   2.264
 3204SOL    HW2 9637   1.034   3.958   2.323
 3205SOL     OW 9638   1.076   4.407   3.326
 3205SOL    HW1 9639   0.996   4.346   3.329
 3205SOL    HW2 9640   1.157   4.354   3.302
 3206SOL     OW 9641   1.227   5.294   2.655
 3206SOL    HW1 9642   1.248   5.368   2.590
 3206SOL    HW2 9643   1.295   5.294   2.728
 3207SOL     OW 9644   0.459   4.876   2.603
 3207SOL    HW1 9645   0.388   4.849   2.668
 3207SOL    HW2 9646   0.433   4.848   2.510
 3208SOL     OW 9647   1.271   5.521   2.453
 3208SOL    HW1 9648   1.315   5.585   2.389
 3208SOL    HW2 9649   1.221   5.573   2.523
 3209SOL     OW 9650   1.032   4.273   1.878
 3209SOL    HW1 9651   0.991   4.355   1.839
 3209SOL    HW2 9652   1.096   4.299   1.951
 3210SOL     OW 9653   0.078   4.280   3.248
 3210SOL    HW1 9654   0.170   4.279   3.207
 3210SOL    HW2 9655   0.072   4.354   3.315
 3211SOL     OW 9656   0.561   3.946   3.009
 3211SOL    HW1 9657   0.599   3.862   3.046
 3211SOL    HW2 9658   0.473   3.965   3.053
 3212SOL     OW 9659   0.866   4.178   2.504
 3212SOL    HW1 9660   0.834   4.250   2.442
 3212SOL    HW2 9661   0.890   4.097   2.451
 3213SOL     OW 9662   1.017   3.763   2.615
 3213SOL    HW1 9663   0.945   3.768   2.546
 3213SOL    HW2 9664   0.993   3.694   2.684
 3214SOL     OW 9665   1.429   4.897   2.729
 3214SOL    HW1 9666   1.374   4.813   2.722
 3214SOL    HW2 9667   1.455   4.926   2.637
 3215SOL     OW 9668   1.466   4.314   2.854
 3215SOL    HW1 9669   1.436   4.219   2.861
 3215SOL    HW2 9670   1.539   4.330   2.920
 3216SOL     OW 9671   1.857   4.557   2.239
 3216SOL    HW1 9672   1.899   4.493   2.303
 3216SOL    HW2 9673   1.819   4.506   2.161
 3217SOL     OW 9674   0.488   5.109   2.036
 3217SOL    HW1 9675   0.401   5.094   2.083
 3217SOL    HW2 9676   0.471   5.135   1.941
 3218SOL     OW 9677   1.664   5.004   2.519
 3218SOL    HW1 9678   1.763   5.012   2.533
 3218SOL    HW2 9679   1.619   5.088   2.550
 3219SOL     OW 9680   1.390   4.299   1.940
 3219SOL    HW1 9681   1.336   4.278   2.021
 3219SOL    HW2 9682   1.481   4.258   1.949
 3220SOL     OW 9683   0.527   3.980   2.190
 3220SOL    HW1 9684   0.554   3.921   2.115
 3220SOL    HW2 9685   0.527   4.075   2.159
 3221SOL     OW 9686   1.754   4.947   3.450
 3221SOL    HW1 9687   1.845   4.908   3.437
 3221SOL    HW2 9688   1.762   5.043   3.474
 3222SOL     OW 9689   1.064   5.071   3.202
 3222SOL    HW1 9690   0.984   5.048   3.257
 3222SOL    HW2 9691   1.147   5.045   3.251
 3223SOL     OW 9692   1.592   5.353   3.487
 3223SOL    HW1 9693   1.619   5.387   3.397
 3223SOL    HW2 9694   1.671   5.315   3.533
 3224SOL     OW 9695   1.111   4.919   2.962
 3224SOL    HW1 9696   1.071   4.963   3.043
 3224SOL    HW2 9697   1.070   4.956   2.879
 3225SOL     OW 9698   1.638   4.823   2.941
 3225SOL    HW1 9699   1.643   4.904   3.000
 3225SOL    HW2 9700   1.552   4.825   2.890
 3226SOL     OW 9701   0.915   3.813   3.264
 3226SOL    HW1 9702   0.940   3.793   3.169
 3226SOL    HW2 9703   0.987   3.869   3.306
 3227SOL     OW 9704   0.980   4.840   3.581
 3227SOL    HW1 9705   0.881   4.846   3.591
 3227SOL    HW2 9706   1.003   4.760   3.525
 3228SOL     OW 9707   0.705   4.774   2.230
 3228SOL    HW1 9708   0.691   4.781   2.329
 3228SOL    HW2 9709   0.789   4.723   2.212
 3229SOL     OW 9710   0.410   4.537   3.113
 3229SOL    HW1 9711   0.496   4.549   3.163
 3229SOL    HW2 9712   0.368   4.450   3.140
 3230SOL     OW 9713   1.274   4.110   3.124
 3230SOL    HW1 9714   1.295   4.184   3.188
 3230SOL    HW2 9715   1.185   4.127   3.081
 3231SOL     OW 9716   0.064   5.288   3.193
 3231SOL    HW1 9717   0.018   5.370   3.159
 3231SOL    HW2 9718   0.162   5.307   3.202
 3232SOL     OW 9719   0.367   4.824   2.363
 3232SOL    HW1 9720   0.360   4.907   2.307
 3232SOL    HW2 9721   0.371   4.744   2.303
 3233SOL     OW 9722   0.566   4.261   2.727
 3233SOL    HW1 9723   0.578   4.327   2.653
 3233SOL    HW2 9724   0.612   4.295   2.810
 3234SOL     OW 9725   1.252   5.072   2.250
 3234SOL    HW1 9726   1.302   5.149   2.290
 3234SOL    HW2 9727   1.157   5.074   2.282
 3235SOL     OW 9728   1.272   5.169   3.004
 3235SOL    HW1 9729   1.319   5.182   3.091
 3235SOL    HW2 9730   1.206   5.095   3.013
 3236SOL     OW 9731   1.582   4.363   2.334
 3236SOL    HW1 9732   1.551   4.424   2.407
 3236SOL    HW2 9733   1.632   4.415   2.265
 3237SOL     OW 9734   0.354   5.234   3.191
 3237SOL    HW1 9735   0.333   5.190   3.104
 3237SOL    HW2 9736   0.451   5.260   3.194
 3238SOL     OW 9737   0.402   4.475   3.460
 3238SOL    HW1 9738   0.470   4.530   3.413
 3238SOL    HW2 9739   0.442   4.387   3.487
 3239SOL     OW 9740   1.587   4.503   3.532
 3239SOL    HW1 9741   1.495   4.541   3.527
 3239SOL    HW2 9742   1.647   4.550   3.467
 3240SOL     OW 9743   1.013   3.829   3.632
 3240SOL    HW1 9744   1.019   3.914   3.580
 3240SOL    HW2 9745   1.045   3.753   3.575
 3241SOL     OW 9746   0.504   3.774   3.602
 3241SOL    HW1 9747   0.462   3.717   3.532
 3241SOL    HW2 9748   0.438   3.843   3.634
 3242SOL     OW 9749   0.573   4.594   2.891
 3242SOL    HW1 9750   0.617   4.683   2.882
 3242SOL    HW2 9751   0.510   4.594   2.968
 3243SOL     OW 9752   1.360   4.586   2.907
 3243SOL    HW1 9753   1.285   4.586   2.841
 3243SOL    HW2 9754   1.397   4.494   2.916
 3244SOL     OW 9755   1.209   4.249   2.137
 3244SOL    HW1 9756   1.222   4.165   2.191
 3244SOL    HW2 9757   1.180   4.323   2.197
 3245SOL     OW 9758   0.307   3.937   3.093
 3245SOL    HW1 9759   0.284   3.974   3.183
 3245SOL    HW2 9760   0.277   3.842   3.087
 3246SOL     OW 9761   0.037   5.034   3.144
 3246SOL    HW1 9762   0.090   4.985   3.212
 3246SOL    HW2 9763   0.059   5.132   3.149
 3247SOL     OW 9764   0.732   4.358   2.926
 3247SOL    HW1 9765   0.791   4.332   2.850
 3247SOL    HW2 9766   0.704   4.454   2.915
 3248SOL     OW 9767   1.728   4.659   3.716
 3248SOL    HW1 9768   1.682   4.652   3.627
 3248SOL    HW2 9769   1.666   4.703   3.782
 3249SOL     OW 9770   0.307   3.787   2.480
 3249SOL    HW1 9771   0.296   3.881   2.513
 3249SOL    HW2 9772   0.302   3.724   2.557
 3250SOL     OW 9773   1.622   4.091   2.236
 3250SOL    HW1 9774   1.624   4.015   2.300
 3250SOL    HW2 9775   1.574   4.168   2.276
 3251SOL     OW 9776   1.023   4.490   2.828
 3251SOL    HW1 9777   1.038   4.511   2.924
 3251SOL    HW2 9778   0.993   4.395   2.819
 3252SOL     OW 9779   0.980   5.297   3.562
 3252SOL    HW1 9780   0.960   5.341   3.474
 3252SOL    HW2 9781   1.019   5.206   3.546
 3253SOL     OW 9782   1.859   5.242   3.467
 3253SOL    HW1 9783   1.873   5.269   3.372
 3253SOL    HW2 9784   1.942   5.264   3.520
 3254SOL     OW 9785   0.350   4.622   3.666
 3254SOL    HW1 9786   0.426   4.666   3.714
 3254SOL    HW2 9787   0.385   4.575   3.584
 3255SOL     OW 9788   1.540   3.998   1.987
 3255SOL    HW1 9789   1.479   3.923   2.010
 3255SOL    HW2 9790   1.562   4.050   2.070
 3256SOL     OW 9791   1.303   4.562   1.904
 3256SOL    HW1 9792   1.337   4.469   1.919
 3256SOL    HW2 9793   1.321   4.589   1.809
 3257SOL     OW 9794   1.068   5.057   2.711
 3257SOL    HW1 9795   1.075   4.973   2.656
 3257SOL    HW2 9796   1.130   5.126   2.675
 3258SOL     OW 9797   0.319   4.534   2.811
 3258SOL    HW1 9798   0.412   4.570   2.816
 3258SOL    HW2 9799   0.313   4.449   2.863
 3259SOL     OW 9800   0.339   4.233   2.868
 3259SOL    HW1 9801   0.287   4.150   2.851
 3259SOL    HW2 9802   0.416   4.238   2.804
 3260SOL     OW 9803   1.138   4.104   3.540
 3260SOL    HW1 9804   1.093   4.167   3.604
 3260SOL    HW2 9805   1.231   4.135   3.523
 3261SOL     OW 9806   1.160   3.931   3.339
 3261SOL    HW1 9807   1.160   3.995   3.416
 3261SOL    HW2 9808   1.188   3.979   3.256
 3262SOL     OW 9809   0.008   5.050   2.062
 3262SOL    HW1 9810  -0.085   5.071   2.031
 3262SOL    HW2 9811   0.018   4.951   2.075
 3263SOL     OW 9812   0.088   5.525   2.789
 3263SOL    HW1 9813   0.046   5.439   2.762
 3263SOL    HW2 9814   0.182   5.528   2.755
 3264SOL     OW 9815   0.504   5.292   2.772
 3264SOL    HW1 9816   0.570   5.366   2.781
 3264SOL    HW2 9817   0.548   5.213   2.730
 3265SOL     OW 9818   1.002   4.520   3.100
 3265SOL    HW1 9819   1.043   4.488   3.186
 3265SOL    HW2 9820   0.906   4.493   3.097
 3266SOL     OW 9821   0.040   4.268   2.976
 3266SOL    HW1 9822   0.125   4.235   2.935
 3266SOL    HW2 9823   0.053   4.283   3.074
 3267SOL     OW 9824   0.189   4.244   3.584
 3267SOL    HW1 9825   0.248   4.204   3.514
 3267SOL    HW2 9826   0.131   4.315   3.543
 3268SOL     OW 9827   1.369   4.674   3.522
 3268SOL    HW1 9828   1.408   4.763   3.542
 3268SOL    HW2 9829   1.379   4.654   3.425
 3269SOL     OW 9830   0.815   4.296   2.187
 3269SOL    HW1 9831   0.822   4.207   2.141
 3269SOL    HW2 9832   0.721   4.330   2.179
 3270SOL     OW 9833   1.657   4.328   3.068
 3270SOL    HW1 9834   1.619   4.259   3.130
 3270SOL    HW2 9835   1.739   4.292   3.024
 3271SOL     OW 9836   0.252   5.288   3.606
 3271SOL    HW1 9837   0.222   5.345   3.682
 3271SOL    HW2 9838   0.245   5.191   3.632
 3272SOL     OW 9839   0.671   4.188   3.131
 3272SOL    HW1 9840   0.637   4.099   3.101
 3272SOL    HW2 9841   0.697   4.242   3.051
 3273SOL     OW 9842   0.930   5.402   3.327
 3273SOL    HW1 9843   0.906   5.384   3.232
 3273SOL    HW2 9844   0.960   5.496   3.337
 3274SOL     OW 9845   0.473   4.224   2.053
 3274SOL    HW1 9846   0.534   4.304   2.057
 3274SOL    HW2 9847   0.378   4.255   2.060
 3275SOL     OW 9848   0.159   4.861   3.328
 3275SOL    HW1 9849   0.181   4.800   3.404
 3275SOL    HW2 9850   0.169   4.812   3.242
 3276SOL     OW 9851   1.347   4.783   3.096
 3276SOL    HW1 9852   1.371   4.720   3.022
 3276SOL    HW2 9853   1.257   4.823   3.078
 3277SOL     OW 9854   1.302   4.579   2.171
 3277SOL    HW1 9855   1.216   4.548   2.213
 3277SOL    HW2 9856   1.298   4.565   2.072
 3278SOL     OW 9857   1.759   5.471   3.016
 3278SOL    HW1 9858   1.820   5.501   2.943
 3278SOL    HW2 9859   1.721   5.382   2.994
 3279SOL     OW 9860   1.252   5.455   2.990
 3279SOL    HW1 9861   1.336   5.460   2.936
 3279SOL    HW2 9862   1.229   5.359   3.008
 3280SOL     OW 9863   0.083   4.982   2.884
 3280SOL    HW1 9864   0.078   4.981   2.984
 3280SOL    HW2 9865   0.000   4.941   2.846
 3281SOL     OW 9866   0.688   5.386   3.578
 3281SOL    HW1 9867   0.632   5.467   3.587
 3281SOL    HW2 9868   0.740   5.390   3.492
 3282SOL     OW 9869   1.726   3.859   2.385
 3282SOL    HW1 9870   1.799   3.842   2.318
 3282SOL    HW2 9871   1.695   3.772   2.423
 3283SOL     OW 9872   1.388   5.297   2.339
 3283SOL    HW1 9873   1.455   5.309   2.265
 3283SOL    HW2 9874   1.348   5.386   2.362
 3284SOL     OW 9875   0.130   5.518   3.713
 3284SOL    HW1 9876   0.089   5.444   3.766
 3284SOL    HW2 9877   0.194   5.569   3.771
 3285SOL     OW 9878   1.280   4.651   2.534
 3285SOL    HW1 9879   1.340   4.570   2.536
 3285SOL    HW2 9880   1.320   4.720   2.474
 3286SOL     OW 9881   0.830   4.997   3.284
 3286SOL    HW1 9882   0.825   5.030   3.379
 3286SOL    HW2 9883   0.744   5.016   3.238
 3287SOL     OW 9884   0.672   5.340   2.016
 3287SOL    HW1 9885   0.681   5.350   1.917
 3287SOL    HW2 9886   0.632   5.251   2.037
 3288SOL     OW 9887   1.650   5.444   3.256
 3288SOL    HW1 9888   1.703   5.454   3.172
 3288SOL    HW2 9889   1.623   5.534   3.290
 3289SOL     OW 9890   1.841   3.899   2.825
 3289SOL    HW1 9891   1.880   3.814   2.789
 3289SOL    HW2 9892   1.743   3.901   2.806
 3290SOL     OW 9893   0.263   4.050   2.582
 3290SOL    HW1 9894   0.184   4.101   2.548
 3290SOL    HW2 9895   0.254   4.035   2.680
 3291SOL     OW 9896   1.194   5.336   1.893
 3291SOL    HW1 9897   1.200   5.243   1.930
 3291SOL    HW2 9898   1.135   5.336   1.813
 3292SOL     OW 9899   0.822   4.726   3.234
 3292SOL    HW1 9900   0.862   4.725   3.142
 3292SOL    HW2 9901   0.832   4.818   3.274
 3293SOL     OW 9902   0.916   4.634   2.153
 3293SOL    HW1 9903   0.979   4.672   2.085
 3293SOL    HW2 9904   0.956   4.551   2.192
 3294SOL     OW 9905   1.504   5.331   1.906
 3294SOL    HW1 9906   1.412   5.368   1.913
 3294SOL    HW2 9907   1.542   5.351   1.816
 3295SOL     OW 9908   0.372   5.012   3.352
 3295SOL    HW1 9909   0.359   5.105   3.318
 3295SOL    HW2 9910   0.288   4.960   3.339
 3296SOL     OW 9911   1.614   5.016   3.151
 3296SOL    HW1 9912   1.674   5.019   3.231
 3296SOL    HW2 9913   1.539   5.080   3.164
 3297SOL     OW 9914   1.039   4.822   2.558
 3297SOL    HW1 9915   0.969   4.775   2.612
 3297SOL    HW2 9916   1.098   4.754   2.515
 3298SOL     OW 9917   1.014   3.960   2.833
 3298SOL    HW1 9918   1.006   3.924   2.740
 3298SOL    HW2 9919   1.012   3.884   2.898
 3299SOL     OW 9920   0.590   5.211   2.353
 3299SOL    HW1 9921   0.632   5.153   2.283
 3299SOL    HW2 9922   0.546   5.290   2.309
 3300SOL     OW 9923   1.709   4.109   3.243
 3300SOL    HW1 9924   1.782   4.178   3.247
 3300SOL    HW2 9925   1.737   4.034   3.184
 3301SOL     OW 9926   0.255   5.072   2.152
 3301SOL    HW1 9927   0.159   5.073   2.125
 3301SOL    HW2 9928   0.267   5.125   2.236
 3302SOL     OW 9929   0.105   4.737   3.588
 3302SOL    HW1 9930   0.028   4.704   3.642
 3302SOL    HW2 9931   0.190   4.707   3.630
 3303SOL     OW 9932   0.672   3.927   3.351
 3303SOL    HW1 9933   0.762   3.911   3.311
 3303SOL    HW2 9934   0.680   3.932   3.450
 3304SOL     OW 9935   0.075   4.069   1.895
 3304SOL    HW1 9936  -0.017   4.041   1.866
 3304SOL    HW2 9937   0.106   4.146   1.839
 3305SOL     OW 9938   1.440   4.580   3.260
 3305SOL    HW1 9939   1.383   4.632   3.197
 3305SOL    HW2 9940   1.536   4.592   3.236
 3306SOL     OW 9941   0.072   3.890   2.180
 3306SOL    HW1 9942   0.055   3.973   2.126
 3306SOL    HW2 9943   0.162   3.853   2.158
 3307SOL     OW 9944   1.183   5.059   1.981
 3307SOL    HW1 9945   1.084   5.048   1.983
 3307SOL    HW2 9946   1.217   5.074   2.074
 3308SOL     OW 9947   0.613   4.566   3.293
 3308SOL    HW1 9948   0.669   4.647   3.276
 3308SOL    HW2 9949   0.672   4.486   3.296
 3309SOL     OW 9950   1.493   5.491   2.821
 3309SOL    HW1 9951   1.526   5.555   2.752
 3309SOL    HW2 9952   1.559   5.485   2.896
 3310SOL     OW 9953   0.716   4.289   3.570
 3310SOL    HW1 9954   0.735   4.354   3.644
 3310SOL    HW2 9955   0.776   4.209   3.579
 3311SOL     OW 9956   1.450   4.944   3.495
 3311SOL    HW1 9957   1.441   4.934   3.594
 3311SOL    HW2 9958   1.546   4.937   3.469
 3312SOL     OW 9959   0.390   5.465   3.422
 3312SOL    HW1 9960   0.299   5.506   3.420
 3312SOL    HW2 9961   0.383   5.371   3.454
 3313SOL     OW 9962   1.674   4.607   3.116
 3313SOL    HW1 9963   1.647   4.518   3.079
 3313SOL    HW2 9964   1.675   4.675   3.043
 3314SOL     OW 9965   1.225   4.049   2.311
 3314SOL    HW1 9966   1.290   3.975   2.300
 3314SOL    HW2 9967   1.245   4.099   2.395
 3315SOL     OW 9968   0.594   4.469   2.514
 3315SOL    HW1 9969   0.644   4.554   2.495
 3315SOL    HW2 9970   0.506   4.471   2.466
 3316SOL     OW 9971   1.777   4.066   3.504
 3316SOL    HW1 9972   1.760   4.097   3.410
 3316SOL    HW2 9973   1.693   4.029   3.542
 3317SOL     OW 9974   1.730   4.658   3.379
 3317SOL    HW1 9975   1.768   4.749   3.394
 3317SOL    HW2 9976   1.722   4.641   3.280
 3318SOL     OW 9977   0.859   5.098   1.878
 3318SOL    HW1 9978   0.813   5.113   1.966
 3318SOL    HW2 9979   0.903   5.183   1.848
 3319SOL     OW 9980   0.661   5.514   2.815
 3319SOL    HW1 9981   0.615   5.602   2.802
 3319SOL    HW2 9982   0.760   5.526   2.808
 3320SOL     OW 9983   0.859   4.680   2.723
 3320SOL    HW1 9984   0.913   4.611   2.771
 3320SOL    HW2 9985   0.827   4.749   2.789
 3321SOL     OW 9986   1.083   4.708   1.949
 3321SOL    HW1 9987   1.060   4.761   1.867
 3321SOL    HW2 9988   1.164   4.652   1.930
 3322SOL     OW 9989   1.861   5.293   2.713
 3322SOL    HW1 9990   1.790   5.281   2.643
 3322SOL    HW2 9991   1.862   5.214   2.773
 3323SOL     OW 9992   0.221   5.038   3.706
 3323SOL    HW1 9993   0.156   4.965   3.685
 3323SOL    HW2 9994   0.225   5.052   3.804
 3324SOL     OW 9995   0.079   4.964   2.515
 3324SOL    HW1 9996   0.078   4.917   2.603
 3324SOL    HW2 9997   0.161   4.936   2.464
 3325SOL     OW 9998   0.672   5.115   3.486
 3325SOL    HW1 9999   0.594   5.065   3.524
 3325SOL    HW210000   0.669   5.210   3.517
 3326SOL     OW10001   1.824   3.916   3.089
 3326SOL    HW110002   1.820   3.826   3.133
 3326SOL    HW210003   1.827   3.905   2.990
 3327SOL     OW10004   0.428   4.148   2.382
 3327SOL    HW110005   0.458   4.076   2.320
 3327SOL    HW210006   0.389   4.108   2.465
 3328SOL     OW10007   1.705   5.211   2.966
 3328SOL    HW110008   1.612   5.186   2.939
 3328SOL    HW210009   1.731   5.161   3.048
 3329SOL     OW10010   0.317   4.271   3.142
 3329SOL    HW110011   0.355   4.212   3.214
 3329SOL    HW210012   0.357   4.245   3.054
 3330SOL     OW10013   0.812   5.310   2.549
 3330SOL    HW110014   0.844   5.320   2.455
 3330SOL    HW210015   0.733   5.248   2.551
 3331SOL     OW10016   1.424   3.938   2.974
 3331SOL    HW110017   1.476   3.873   3.029
 3331SOL    HW210018   1.375   4.001   3.035
 3332SOL     OW10019   1.001   3.758   3.016
 3332SOL    HW110020   0.938   3.686   2.985
 3332SOL    HW210021   1.094   3.722   3.016
 3333SOL     OW10022   0.770   5.054   2.163
 3333SOL    HW110023   0.724   4.967   2.180
 3333SOL    HW210024   0.861   5.051   2.204
 3334SOL     OW10025   0.618   5.291   3.146
 3334SOL    HW110026   0.613   5.373   3.203
 3334SOL    HW210027   0.707   5.288   3.101
 3335SOL     OW10028   1.352   3.776   2.030
 3335SOL    HW110029   1.387   3.735   1.946
 3335SOL    HW210030   1.262   3.738   2.050
 3336SOL     OW10031   1.300   4.177   2.553
 3336SOL    HW110032   1.241   4.257   2.557
 3336SOL    HW210033   1.315   4.142   2.646
 3337SOL     OW10034   1.593   3.945   2.744
 3337SOL    HW110035   1.509   3.944   2.798
 3337SOL    HW210036   1.595   4.028   2.688
 3338SOL     OW10037   0.039   4.801   2.162
 3338SOL    HW110038   0.138   4.790   2.153
 3338SOL    HW210039  -0.001   4.715   2.194
 3339SOL     OW10040   0.875   5.370   2.199
 3339SOL    HW110041   0.798   5.335   2.145
 3339SOL    HW210042   0.843   5.441   2.261
 3340SOL     OW10043   0.230   4.352   3.837
 3340SOL    HW110044   0.137   4.350   3.874
 3340SOL    HW210045   0.231   4.313   3.745
 3341SOL     OW10046   0.225   3.999   4.720
 3341SOL    HW110047   0.260   3.982   4.812
 3341SOL    HW210048   0.137   3.954   4.708
 3342SOL     OW10049   0.019   4.092   4.371
 3342SOL    HW110050  -0.063   4.135   4.410
 3342SOL    HW210051  -0.009   4.019   4.308
 3343SOL     OW10052   0.569   4.999   4.889
 3343SOL    HW110053   0.476   4.992   4.852
 3343SOL    HW210054   0.580   5.088   4.933
 3344SOL     OW10055   1.555   5.235   4.427
 3344SOL    HW110056   1.498   5.219   4.508
 3344SOL    HW210057   1.496   5.245   4.347
 3345SOL     OW10058   1.135   4.427   4.441
 3345SOL    HW110059   1.192   4.505   4.416
 3345SOL    HW210060   1.075   4.453   4.517
 3346SOL     OW10061   1.755   4.331   3.955
 3346SOL    HW110062   1.743   4.318   3.856
 3346SOL    HW210063   1.725   4.250   4.004
 3347SOL     OW10064   0.768   4.868   4.747
 3347SOL    HW110065   0.690   4.885   4.807
 3347SOL    HW210066   0.802   4.955   4.711
 3348SOL     OW10067   0.850   4.522   5.547
 3348SOL    HW110068   0.846   4.598   5.612
 3348SOL    HW210069   0.872   4.558   5.456
 3349SOL     OW10070   0.685   4.736   4.389
 3349SOL    HW110071   0.754   4.720   4.459
 3349SOL    HW210072   0.612   4.793   4.427
 3350SOL     OW10073   0.686   4.885   5.527
 3350SOL    HW110074   0.746   4.964   5.541
 3350SOL    HW210075   0.600   4.916   5.486
 3351SOL     OW10076   0.335   5.159   4.785
 3351SOL    HW110077   0.257   5.128   4.732
 3351SOL    HW210078   0.393   5.217   4.728
 3352SOL     OW10079   1.460   5.229   5.063
 3352SOL    HW110080   1.484   5.323   5.089
 3352SOL    HW210081   1.444   5.175   5.145
 3353SOL     OW10082   0.438   4.116   5.223
 3353SOL    HW110083   0.520   4.060   5.232
 3353SOL    HW210084   0.357   4.058   5.227
 3354SOL     OW10085   1.603   4.171   4.461
 3354SOL    HW110086   1.529   4.217   4.411
 3354SOL    HW210087   1.654   4.239   4.514
 3355SOL     OW10088   0.231   5.437   4.207
 3355SOL    HW110089   0.265   5.514   4.261
 3355SOL    HW210090   0.275   5.437   4.117
 3356SOL     OW10091   1.127   5.065   5.414
 3356SOL    HW110092   1.174   5.065   5.502
 3356SOL    HW210093   1.079   4.978   5.403
 3357SOL     OW10094   0.230   5.158   4.262
 3357SOL    HW110095   0.204   5.254   4.262
 3357SOL    HW210096   0.159   5.104   4.307
 3358SOL     OW10097   0.240   4.815   4.610
 3358SOL    HW110098   0.254   4.731   4.662
 3358SOL    HW210099   0.185   4.879   4.665
 3359SOL     OW10100   0.620   5.510   5.163
 3359SOL    HW110101   0.528   5.493   5.198
 3359SOL    HW210102   0.648   5.602   5.189
 3360SOL     OW10103   0.606   4.688   3.847
 3360SOL    HW110104   0.613   4.772   3.793
 3360SOL    HW210105   0.652   4.701   3.935
 3361SOL     OW10106   1.594   3.838   5.204
 3361SOL    HW110107   1.576   3.905   5.132
 3361SOL    HW210108   1.591   3.884   5.293
 3362SOL     OW10109   0.122   4.367   4.287
 3362SOL    HW110110   0.077   4.279   4.304
 3362SOL    HW210111   0.121   4.421   4.371
 3363SOL     OW10112   1.842   5.491   4.083
 3363SOL    HW110113   1.896   5.462   4.163
 3363SOL    HW210114   1.872   5.581   4.054
 3364SOL     OW10115   0.027   5.320   3.841
 3364SOL    HW110116   0.008   5.224   3.862
 3364SOL    HW210117  -0.006   5.378   3.916
 3365SOL     OW10118   1.689   4.646   4.336
 3365SOL    HW110119   1.784   4.617   4.344
 3365SOL    HW210120   1.681   4.711   4.261
 3366SOL     OW10121   1.641   4.832   4.156
 3366SOL    HW110122   1.727   4.834   4.104
 3366SOL    HW210123   1.655   4.879   4.244
 3367SOL     OW10124   0.113   4.461   5.321
 3367SOL    HW110125   0.201   4.448   5.366
 3367SOL    HW210126   0.100   4.558   5.299
 3368SOL     OW10127   0.613   5.089   4.450
 3368SOL    HW110128   0.564   5.002   4.459
 3368SOL    HW210129   0.590   5.132   4.363
 3369SOL     OW10130   1.293   4.952   5.147
 3369SOL    HW110131   1.330   4.879   5.089
 3369SOL    HW210132   1.345   4.957   5.232
 3370SOL     OW10133   0.809   3.728   4.226
 3370SOL    HW110134   0.849   3.819   4.217
 3370SOL    HW210135   0.709   3.736   4.232
 3371SOL     OW10136   0.197   4.700   4.988
 3371SOL    HW110137   0.286   4.655   4.974
 3371SOL    HW210138   0.124   4.635   4.969
 3372SOL     OW10139   1.525   4.723   3.914
 3372SOL    HW110140   1.462   4.647   3.927
 3372SOL    HW210141   1.573   4.741   4.000
 3373SOL     OW10142   1.187   5.516   5.340
 3373SOL    HW110143   1.211   5.576   5.264
 3373SOL    HW210144   1.194   5.421   5.310
 3374SOL     OW10145   0.317   3.975   5.525
 3374SOL    HW110146   0.388   4.046   5.531
 3374SOL    HW210147   0.229   4.014   5.553
 3375SOL     OW10148   1.466   5.141   4.677
 3375SOL    HW110149   1.407   5.147   4.757
 3375SOL    HW210150   1.451   5.053   4.631
 3376SOL     OW10151   1.667   5.438   4.296
 3376SOL    HW110152   1.626   5.415   4.208
 3376SOL    HW210153   1.649   5.364   4.361
 3377SOL     OW10154   0.598   4.453   3.994
 3377SOL    HW110155   0.622   4.522   3.926
 3377SOL    HW210156   0.520   4.486   4.048
 3378SOL     OW10157   1.281   4.069   4.668
 3378SOL    HW110158   1.195   4.019   4.655
 3378SOL    HW210159   1.343   4.015   4.724
 3379SOL     OW10160   1.576   5.386   4.031
 3379SOL    HW110161   1.665   5.432   4.034
 3379SOL    HW210162   1.555   5.362   3.936
 3380SOL     OW10163   0.807   4.329   5.189
 3380SOL    HW110164   0.760   4.326   5.278
 3380SOL    HW210165   0.756   4.274   5.123
 3381SOL     OW10166   1.394   4.193   5.398
 3381SOL    HW110167   1.374   4.236   5.486
 3381SOL    HW210168   1.472   4.131   5.407
 3382SOL     OW10169   0.973   4.614   5.296
 3382SOL    HW110170   1.019   4.530   5.267
 3382SOL    HW210171   0.917   4.648   5.221
 3383SOL     OW10172   0.991   4.134   4.966
 3383SOL    HW110173   0.914   4.168   5.020
 3383SOL    HW210174   0.957   4.083   4.887
 3384SOL     OW10175   1.041   4.425   4.153
 3384SOL    HW110176   1.067   4.421   4.249
 3384SOL    HW210177   0.956   4.374   4.139
 3385SOL     OW10178   0.076   4.535   4.513
 3385SOL    HW110179   0.175   4.523   4.522
 3385SOL    HW210180   0.052   4.630   4.534
 3386SOL     OW10181   0.130   5.545   5.295
 3386SOL    HW110182   0.120   5.530   5.394
 3386SOL    HW210183   0.044   5.581   5.259
 3387SOL     OW10184   0.865   4.072   3.919
 3387SOL    HW110185   0.924   4.135   3.870
 3387SOL    HW210186   0.884   3.978   3.890
 3388SOL     OW10187   1.719   4.309   5.555
 3388SOL    HW110188   1.693   4.398   5.519
 3388SOL    HW210189   1.717   4.241   5.482
 3389SOL     OW10190   1.362   4.868   4.269
 3389SOL    HW110191   1.445   4.839   4.221
 3389SOL    HW210192   1.313   4.935   4.213
 3390SOL     OW10193   0.550   3.920   4.609
 3390SOL    HW110194   0.545   3.915   4.709
 3390SOL    HW210195   0.552   4.016   4.580
 3391SOL     OW10196   1.008   5.180   4.201
 3391SOL    HW110197   0.962   5.252   4.149
 3391SOL    HW210198   1.004   5.200   4.299
 3392SOL     OW10199   0.351   5.525   4.577
 3392SOL    HW110200   0.401   5.439   4.583
 3392SOL    HW210201   0.416   5.602   4.574
 3393SOL     OW10202   1.795   4.790   4.597
 3393SOL    HW110203   1.733   4.775   4.521
 3393SOL    HW210204   1.743   4.801   4.682
 3394SOL     OW10205   1.227   5.274   5.230
 3394SOL    HW110206   1.233   5.197   5.294
 3394SOL    HW210207   1.175   5.248   5.150
 3395SOL     OW10208   0.321   4.667   3.966
 3395SOL    HW110209   0.403   4.706   3.924
 3395SOL    HW210210   0.294   4.585   3.917
 3396SOL     OW10211   1.458   4.459   4.452
 3396SOL    HW110212   1.453   4.394   4.527
 3396SOL    HW210213   1.538   4.518   4.465
 3397SOL     OW10214   0.461   4.990   5.451
 3397SOL    HW110215   0.411   4.991   5.365
 3397SOL    HW210216   0.398   4.972   5.527
 3398SOL     OW10217   1.111   5.500   3.961
 3398SOL    HW110218   1.051   5.438   4.011
 3398SOL    HW210219   1.142   5.456   3.876
 3399SOL     OW10220   0.202   4.009   5.222
 3399SOL    HW110221   0.122   4.069   5.209
 3399SOL    HW210222   0.192   3.960   5.308
 3400SOL     OW10223   1.632   5.101   3.805
 3400SOL    HW110224   1.600   5.195   3.795
 3400SOL    HW210225   1.556   5.038   3.793
 3401SOL     OW10226   0.464   5.467   4.047
 3401SOL    HW110227   0.497   5.506   4.133
 3401SOL    HW210228   0.540   5.460   3.982
 3402SOL     OW10229   1.400   3.831   4.150
 3402SOL    HW110230   1.376   3.794   4.060
 3402SOL    HW210231   1.499   3.847   4.154
 3403SOL     OW10232   0.249   5.509   4.965
 3403SOL    HW110233   0.306   5.444   5.015
 3403SOL    HW210234   0.233   5.476   4.872
 3404SOL     OW10235   0.940   5.422   4.628
 3404SOL    HW110236   1.020   5.365   4.649
 3404SOL    HW210237   0.891   5.382   4.551
 3405SOL     OW10238   0.382   4.424   4.204
 3405SOL    HW110239   0.427   4.334   4.201
 3405SOL    HW210240   0.288   4.413   4.237
 3406SOL     OW10241   1.547   3.946   5.453
 3406SOL    HW110242   1.542   3.983   5.545
 3406SOL    HW210243   1.475   3.877   5.441
 3407SOL     OW10244   0.614   3.846   3.841
 3407SOL    HW110245   0.712   3.824   3.848
 3407SOL    HW210246   0.583   3.829   3.748
 3408SOL     OW10247   0.781   3.988   5.473
 3408SOL    HW110248   0.848   3.927   5.516
 3408SOL    HW210249   0.708   4.007   5.538
 3409SOL     OW10250   0.888   5.238   4.919
 3409SOL    HW110251   0.865   5.213   4.825
 3409SOL    HW210252   0.949   5.169   4.958
 3410SOL     OW10253   1.351   4.314   5.157
 3410SOL    HW110254   1.379   4.271   5.242
 3410SOL    HW210255   1.376   4.410   5.158
 3411SOL     OW10256   0.803   5.126   4.648
 3411SOL    HW110257   0.893   5.140   4.606
 3411SOL    HW210258   0.732   5.128   4.577
 3412SOL     OW10259   0.922   4.227   4.623
 3412SOL    HW110260   0.897   4.218   4.527
 3412SOL    HW210261   0.970   4.145   4.654
 3413SOL     OW10262   0.539   3.788   4.236
 3413SOL    HW110263   0.458   3.789   4.294
 3413SOL    HW210264   0.542   3.871   4.181
 3414SOL     OW10265   1.434   4.912   3.765
 3414SOL    HW110266   1.466   4.836   3.822
 3414SOL    HW210267   1.342   4.939   3.795
 3415SOL     OW10268   0.297   3.759   3.895
 3415SOL    HW110269   0.346   3.843   3.874
 3415SOL    HW210270   0.359   3.694   3.940
 3416SOL     OW10271   0.935   3.960   4.204
 3416SOL    HW110272   0.887   4.001   4.126
 3416SOL    HW210273   1.034   3.958   4.185
 3417SOL     OW10274   1.076   4.407   5.188
 3417SOL    HW110275   0.996   4.346   5.191
 3417SOL    HW210276   1.157   4.354   5.164
 3418SOL     OW10277   1.227   5.294   4.517
 3418SOL    HW110278   1.248   5.368   4.452
 3418SOL    HW210279   1.295   5.294   4.590
 3419SOL     OW10280   0.459   4.876   4.465
 3419SOL    HW110281   0.388   4.849   4.530
 3419SOL    HW210282   0.433   4.848   4.372
 3420SOL     OW10283   1.271   5.521   4.315
 3420SOL    HW110284   1.315   5.585   4.251
 3420SOL    HW210285   1.221   5.573   4.385
 3421SOL     OW10286   1.032   4.273   3.740
 3421SOL    HW110287   0.991   4.355   3.701
 3421SOL    HW210288   1.096   4.299   3.813
 3422SOL     OW10289   0.078   4.280   5.110
 3422SOL    HW110290   0.170   4.279   5.069
 3422SOL    HW210291   0.072   4.354   5.177
 3423SOL     OW10292   0.561   3.946   4.871
 3423SOL    HW110293   0.599   3.862   4.908
 3423SOL    HW210294   0.473   3.965   4.915
 3424SOL     OW10295   0.866   4.178   4.366
 3424SOL    HW110296   0.834   4.250   4.304
 3424SOL    HW210297   0.890   4.097   4.313
 3425SOL     OW10298   1.017   3.763   4.477
 3425SOL    HW110299   0.945   3.768   4.408
 3425SOL    HW210300   0.993   3.694   4.546
 3426SOL     OW10301   1.429   4.897   4.591
 3426SOL    HW110302   1.374   4.813   4.584
 3426SOL    HW210303   1.455   4.926   4.499
 3427SOL     OW10304   1.466   4.314   4.716
 3427SOL    HW110305   1.436   4.219   4.723
 3427SOL    HW210306   1.539   4.330   4.782
 3428SOL     OW10307   1.857   4.557   4.101
 3428SOL    HW110308   1.899   4.493   4.165
 3428SOL    HW210309   1.819   4.506   4.023
 3429SOL     OW10310   0.488   5.109   3.898
 3429SOL    HW110311   0.401   5.094   3.945
 3429SOL    HW210312   0.471   5.135   3.803
 3430SOL     OW10313   1.664   5.004   4.381
 3430SOL    HW110314   1.763   5.012   4.395
 3430SOL    HW210315   1.619   5.088   4.412
 3431SOL     OW10316   1.390   4.299   3.802
 3431SOL    HW110317   1.336   4.278   3.883
 3431SOL    HW210318   1.481   4.258   3.811
 3432SOL     OW10319   0.527   3.980   4.052
 3432SOL    HW110320   0.554   3.921   3.977
 3432SOL    HW210321   0.527   4.075   4.021
 3433SOL     OW10322   1.754   4.947   5.312
 3433SOL    HW110323   1.845   4.908   5.299
 3433SOL    HW210324   1.762   5.043   5.336
 3434SOL     OW10325   1.064   5.071   5.064
 3434SOL    HW110326   0.984   5.048   5.119
 3434SOL    HW210327   1.147   5.045   5.113
 3435SOL     OW10328   1.592   5.353   5.349
 3435SOL    HW110329   1.619   5.387   5.259
 3435SOL    HW210330   1.671   5.315   5.395
 3436SOL     OW10331   1.111   4.919   4.824
 3436SOL    HW110332   1.071   4.963   4.905
 3436SOL    HW210333   1.070   4.956   4.741
 3437SOL     OW10334   1.638   4.823   4.803
 3437SOL    HW110335   1.643   4.904   4.862
 3437SOL    HW210336   1.552   4.825   4.752
 3438SOL     OW10337   0.915   3.813   5.126
 3438SOL    HW110338   0.940   3.793   5.031
 3438SOL    HW210339   0.987   3.869   5.168
 3439SOL     OW10340   0.980   4.840   5.443
 3439SOL    HW110341   0.881   4.846   5.453
 3439SOL    HW210342   1.003   4.760   5.387
 3440SOL     OW10343   0.705   4.774   4.092
 3440SOL    HW110344   0.691   4.781   4.191
 3440SOL    HW210345   0.789   4.723   4.074
 3441SOL     OW10346   0.410   4.537   4.975
 3441SOL    HW110347   0.496   4.549   5.025
 3441SOL    HW210348   0.368   4.450   5.002
 3442SOL     OW10349   1.274   4.110   4.986
 3442SOL    HW110350   1.295   4.184   5.050
 3442SOL    HW210351   1.185   4.127   4.943
 3443SOL     OW10352   0.064   5.288   5.055
 3443SOL    HW110353   0.018   5.370   5.021
 3443SOL    HW210354   0.162   5.307   5.064
 3444SOL     OW10355   0.367   4.824   4.225
 3444SOL    HW110356   0.360   4.907   4.169
 3444SOL    HW210357   0.371   4.744   4.165
 3445SOL     OW10358   0.566   4.261   4.589
 3445SOL    HW110359   0.578   4.327   4.515
 3445SOL    HW210360   0.612   4.295   4.672
 3446SOL     OW10361   1.252   5.072   4.112
 3446SOL    HW110362   1.302   5.149   4.152
 3446SOL    HW210363   1.157   5.074   4.144
 3447SOL     OW10364   1.272   5.169   4.866
 3447SOL    HW110365   1.319   5.182   4.953
 3447SOL    HW210366   1.206   5.095   4.875
 3448SOL     OW10367   1.582   4.363   4.196
 3448SOL    HW110368   1.551   4.424   4.269
 3448SOL    HW210369   1.632   4.415   4.127
 3449SOL     OW10370   0.354   5.234   5.053
 3449SOL    HW110371   0.333   5.190   4.966
 3449SOL    HW210372   0.451   5.260   5.056
 3450SOL     OW10373   0.402   4.475   5.322
 3450SOL    HW110374   0.470   4.530   5.275
 3450SOL    HW210375   0.442   4.387   5.349
 3451SOL     OW10376   1.587   4.503   5.394
 3451SOL    HW110377   1.495   4.541   5.389
 3451SOL    HW210378   1.647   4.550   5.329
 3452SOL     OW10379   1.013   3.829   5.494
 3452SOL    HW110380   1.019   3.914   5.442
 3452SOL    HW210381   1.045   3.753   5.437
 3453SOL     OW10382   0.504   3.774   5.464
 3453SOL    HW110383   0.462   3.717   5.394
 3453SOL    HW210384   0.438   3.843   5.496
 3454SOL     OW10385   0.573   4.594   4.753
 3454SOL    HW110386   0.617   4.683   4.744
 3454SOL    HW210387   0.510   4.594   4.830
 3455SOL     OW10388   1.360   4.586   4.769
 3455SOL    HW110389   1.285   4.586   4.703
 3455SOL    HW210390   1.397   4.494   4.778
 3456SOL     OW10391   1.209   4.249   3.999
 3456SOL    HW110392   1.222   4.165   4.053
 3456SOL    HW210393   1.180   4.323   4.059
 3457SOL     OW10394   0.307   3.937   4.955
 3457SOL    HW110395   0.284   3.974   5.045
 3457SOL    HW210396   0.277   3.842   4.949
 3458SOL     OW10397   0.037   5.034   5.006
 3458SOL    HW110398   0.090   4.985   5.074
 3458SOL    HW210399   0.059   5.132   5.011
 3459SOL     OW10400   0.732   4.358   4.788
 3459SOL    HW110401   0.791   4.332   4.712
 3459SOL    HW210402   0.704   4.454   4.777
 3460SOL     OW10403   1.728   4.659   5.578
 3460SOL    HW110404   1.682   4.652   5.489
 3460SOL    HW210405   1.666   4.703   5.644
 3461SOL     OW10406   0.307   3.787   4.342
 3461SOL    HW110407   0.296   3.881   4.375
 3461SOL    HW210408   0.302   3.724   4.419
 3462SOL     OW10409   1.622   4.091   4.098
 3462SOL    HW110410   1.624   4.015   4.162
 3462SOL    HW210411   1.574   4.168   4.138
 3463SOL     OW10412   1.023   4.490   4.690
 3463SOL    HW110413   1.038   4.511   4.786
 3463SOL    HW210414   0.993   4.395   4.681
 3464SOL     OW10415   0.980   5.297   5.424
 3464SOL    HW110416   0.960   5.341   5.336
 3464SOL    HW210417   1.019   5.206   5.408
 3465SOL     OW10418   1.859   5.242   5.329
 3465SOL    HW110419   1.873   5.269   5.234
 3465SOL    HW210420   1.942   5.264   5.382
 3466SOL     OW10421   0.350   4.622   5.528
 3466SOL    HW110422   0.426   4.666   5.576
 3466SOL    HW210423   0.385   4.575   5.446
 3467SOL     OW10424   1.540   3.998   3.849
 3467SOL    HW110425   1.479   3.923   3.872
 3467SOL    HW210426   1.562   4.050   3.932
 3468SOL     OW10427   1.303   4.562   3.766
 3468SOL    HW110428   1.337   4.469   3.781
 3468SOL    HW210429   1.321   4.589   3.671
 3469SOL     OW10430   1.068   5.057   4.573
 3469SOL    HW110431   1.075   4.973   4.518
 3469SOL    HW210432   1.130   5.126   4.537
 3470SOL     OW10433   0.319   4.534   4.673
 3470SOL    HW110434   0.412   4.570   4.678
 3470SOL    HW210435   0.313   4.449   4.725
 3471SOL     OW10436   0.339   4.233   4.730
 3471SOL    HW110437   0.287   4.150   4.713
 3471SOL    HW210438   0.416   4.238   4.666
 3472SOL     OW10439   1.138   4.104   5.402
 3472SOL    HW110440   1.093   4.167   5.466
 3472SOL    HW210441   1.231   4.135   5.385
 3473SOL     OW10442   1.160   3.931   5.201
 3473SOL    HW110443   1.160   3.995   5.278
 3473SOL    HW210444   1.188   3.979   5.118
 3474SOL     OW10445   0.008   5.050   3.924
 3474SOL    HW110446  -0.085   5.071   3.893
 3474SOL    HW210447   0.018   4.951   3.937
 3475SOL     OW10448   0.088   5.525   4.651
 3475SOL    HW110449   0.046   5.439   4.624
 3475SOL    HW210450   0.182   5.528   4.617
 3476SOL     OW10451   0.504   5.292   4.634
 3476SOL    HW110452   0.570   5.366   4.643
 3476SOL    HW210453   0.548   5.213   4.592
 3477SOL     OW10454   1.002   4.520   4.962
 3477SOL    HW110455   1.043   4.488   5.048
 3477SOL    HW210456   0.906   4.493   4.959
 3478SOL     OW10457   0.040   4.268   4.838
 3478SOL    HW110458   0.125   4.235   4.797
 3478SOL    HW210459   0.053   4.283   4.936
 3479SOL     OW10460   0.189   4.244   5.446
 3479SOL    HW110461   0.248   4.204   5.376
 3479SOL    HW210462   0.131   4.315   5.405
 3480SOL     OW10463   1.369   4.674   5.384
 3480SOL    HW110464   1.408   4.763   5.404
 3480SOL    HW210465   1.379   4.654   5.287
 3481SOL     OW10466   0.815   4.296   4.049
 3481SOL    HW110467   0.822   4.207   4.003
 3481SOL    HW210468   0.721   4.330   4.041
 3482SOL     OW10469   1.657   4.328   4.930
 3482SOL    HW110470   1.619   4.259   4.992
 3482SOL    HW210471   1.739   4.292   4.886
 3483SOL     OW10472   0.252   5.288   5.468
 3483SOL    HW110473   0.222   5.345   5.544
 3483SOL    HW210474   0.245   5.191   5.494
 3484SOL     OW10475   0.671   4.188   4.993
 3484SOL    HW110476   0.637   4.099   4.963
 3484SOL    HW210477   0.697   4.242   4.913
 3485SOL     OW10478   0.930   5.402   5.189
 3485SOL    HW110479   0.906   5.384   5.094
 3485SOL    HW210480   0.960   5.496   5.199
 3486SOL     OW10481   0.473   4.224   3.915
 3486SOL    HW110482   0.534   4.304   3.919
 3486SOL    HW210483   0.378   4.255   3.922
 3487SOL     OW10484   0.159   4.861   5.190
 3487SOL    HW110485   0.181   4.800   5.266
 3487SOL    HW210486   0.169   4.812   5.104
 3488SOL     OW10487   1.347   4.783   4.958
 3488SOL    HW110488   1.371   4.720   4.884
 3488SOL    HW210489   1.257   4.823   4.940
 3489SOL     OW10490   1.302   4.579   4.033
 3489SOL    HW110491   1.216   4.548   4.075
 3489SOL    HW210492   1.298   4.565   3.934
 3490SOL     OW10493   1.759   5.471   4.878
 3490SOL    HW110494   1.820   5.501   4.805
 3490SOL    HW210495   1.721   5.382   4.856
 3491SOL     OW10496   1.252   5.455   4.852
 3491SOL    HW110497   1.336   5.460   4.798
 3491SOL    HW210498   1.229   5.359   4.870
 3492SOL     OW10499   0.083   4.982   4.746
 3492SOL    HW110500   0.078   4.981   4.846
 3492SOL    HW210501   0.000   4.941   4.708
 3493SOL     OW10502   0.688   5.386   5.440
 3493SOL    HW110503   0.632   5.467   5.449
 3493SOL    HW210504   0.740   5.390   5.354
 3494SOL     OW10505   1.726   3.859   4.247
 3494SOL    HW110506   1.799   3.842   4.180
 3494SOL    HW210507   1.695   3.772   4.285
 3495SOL     OW10508   1.388   5.297   4.201
 3495SOL    HW110509   1.455   5.309   4.127
 3495SOL    HW210510   1.348   5.386   4.224
 3496SOL     OW10511   0.130   5.518   5.575
 3496SOL    HW110512   0.089   5.444   5.628
 3496SOL    HW210513   0.194   5.569   5.633
 3497SOL     OW10514   1.280   4.651   4.396
 3497SOL    HW110515   1.340   4.570   4.398
 3497SOL    HW210516   1.320   4.720   4.336
 3498SOL     OW10517   0.830   4.997   5.146
 3498SOL    HW110518   0.825   5.030   5.241
 3498SOL    HW210519   0.744   5.016   5.100
 3499SOL     OW10520   0.672   5.340   3.878
 3499SOL    HW110521   0.681   5.350   3.779
 3499SOL    HW210522   0.632   5.251   3.899
 3500SOL     OW10523   1.650   5.444   5.118
 3500SOL    HW110524   1.703   5.454   5.034
 3500SOL    HW210525   1.623   5.534   5.152
 3501SOL     OW10526   1.841   3.899   4.687
 3501SOL    HW110527   1.880   3.814   4.651
 3501SOL    HW210528   1.743   3.901   4.668
 3502SOL     OW10529   0.263   4.050   4.444
 3502SOL    HW110530   0.184   4.101   4.410
 3502SOL    HW210531   0.254   4.035   4.542
 3503SOL     OW10532   1.194   5.336   3.755
 3503SOL    HW110533   1.200   5.243   3.792
 3503SOL    HW210534   1.135   5.336   3.675
 3504SOL     OW10535   0.822   4.726   5.096
 3504SOL    HW110536   0.862   4.725   5.004
 3504SOL    HW210537   0.832   4.818   5.136
 3505SOL     OW10538   0.916   4.634   4.015
 3505SOL    HW110539   0.979   4.672   3.947
 3505SOL    HW210540   0.956   4.551   4.054
 3506SOL     OW10541   1.504   5.331   3.768
 3506SOL    HW110542   1.412   5.368   3.775
 3506SOL    HW210543   1.542   5.351   3.678
 3507SOL     OW10544   0.372   5.012   5.214
 3507SOL    HW110545   0.359   5.105   5.180
 3507SOL    HW210546   0.288   4.960   5.201
 3508SOL     OW10547   1.614   5.016   5.013
 3508SOL    HW110548   1.674   5.019   5.093
 3508SOL    HW210549   1.539   5.080   5.026
 3509SOL     OW10550   1.039   4.822   4.420
 3509SOL    HW110551   0.969   4.775   4.474
 3509SOL    HW210552   1.098   4.754   4.377
 3510SOL     OW10553   1.014   3.960   4.695
 3510SOL    HW110554   1.006   3.924   4.602
 3510SOL    HW210555   1.012   3.884   4.760
 3511SOL     OW10556   0.590   5.211   4.215
 3511SOL    HW110557   0.632   5.153   4.145
 3511SOL    HW210558   0.546   5.290   4.171
 3512SOL     OW10559   1.709   4.109   5.105
 3512SOL    HW110560   1.782   4.178   5.109
 3512SOL    HW210561   1.737   4.034   5.046
 3513SOL     OW10562   0.255   5.072   4.014
 3513SOL    HW110563   0.159   5.073   3.987
 3513SOL    HW210564   0.267   5.125   4.098
 3514SOL     OW10565   0.105   4.737   5.450
 3514SOL    HW110566   0.028   4.704   5.504
 3514SOL    HW210567   0.190   4.707   5.492
 3515SOL     OW10568   0.672   3.927   5.213
 3515SOL    HW110569   0.762   3.911   5.173
 3515SOL    HW210570   0.680   3.932   5.312
 3516SOL     OW10571   0.075   4.069   3.757
 3516SOL    HW110572  -0.017   4.041   3.728
 3516SOL    HW210573   0.106   4.146   3.701
 3517SOL     OW10574   1.440   4.580   5.122
 3517SOL    HW110575   1.383   4.632   5.059
 3517SOL    HW210576   1.536   4.592   5.098
 3518SOL     OW10577   0.072   3.890   4.042
 3518SOL    HW110578   0.055   3.973   3.988
 3518SOL    HW210579   0.162   3.853   4.020
 3519SOL     OW10580   1.183   5.059   3.843
 3519SOL    HW110581   1.084   5.048   3.845
 3519SOL    HW210582   1.217   5.074   3.936
 3520SOL     OW10583   0.613   4.566   5.155
 3520SOL    HW110584   0.669   4.647   5.138
 3520SOL    HW210585   0.672   4.486   5.158
 3521SOL     OW10586   1.493   5.491   4.683
 3521SOL    HW110587   1.526   5.555   4.614
 3521SOL    HW210588   1.559   5.485   4.758
 3522SOL     OW10589   0.716   4.289   5.432
 3522SOL    HW110590   0.735   4.354   5.506
 3522SOL    HW210591   0.776   4.209   5.441
 3523SOL     OW10592   1.450   4.944   5.357
 3523SOL    HW110593   1.441   4.934   5.456
 3523SOL    HW210594   1.546   4.937   5.331
 3524SOL     OW10595   0.390   5.465   5.284
 3524SOL    HW110596   0.299   5.506   5.282
 3524SOL    HW210597   0.383   5.371   5.316
 3525SOL     OW10598   1.674   4.607   4.978
 3525SOL    HW110599   1.647   4.518   4.941
 3525SOL    HW210600   1.675   4.675   4.905
 3526SOL     OW10601   1.225   4.049   4.173
 3526SOL    HW110602   1.290   3.975   4.162
 3526SOL    HW210603   1.245   4.099   4.257
 3527SOL     OW10604   0.594   4.469   4.376
 3527SOL    HW110605   0.644   4.554   4.357
 3527SOL    HW210606   0.506   4.471   4.328
 3528SOL     OW10607   1.777   4.066   5.366
 3528SOL    HW110608   1.760   4.097   5.272
 3528SOL    HW210609   1.693   4.029   5.404
 3529SOL     OW10610   1.730   4.658   5.241
 3529SOL    HW110611   1.768   4.749   5.256
 3529SOL    HW210612   1.722   4.641   5.142
 3530SOL     OW10613   0.859   5.098   3.740
 3530SOL    HW110614   0.813   5.113   3.828
 3530SOL    HW210615   0.903   5.183   3.710
 3531SOL     OW10616   0.661   5.514   4.677
 3531SOL    HW110617   0.615   5.602   4.664
 3531SOL    HW210618   0.760   5.526   4.670
 3532SOL     OW10619   0.859   4.680   4.585
 3532SOL    HW110620   0.913   4.611   4.633
 3532SOL    HW210621   0.827   4.749   4.651
 3533SOL     OW10622   1.083   4.708   3.811
 3533SOL    HW110623   1.060   4.761   3.729
 3533SOL    HW210624   1.164   4.652   3.792
 3534SOL     OW10625   1.861   5.293   4.575
 3534SOL    HW110626   1.790   5.281   4.505
 3534SOL    HW210627   1.862   5.214   4.635
 3535SOL     OW10628   0.221   5.038   5.568
 3535SOL    HW110629   0.156   4.965   5.547
 3535SOL    HW210630   0.225   5.052   5.666
 3536SOL     OW10631   0.079   4.964   4.377
 3536SOL    HW110632   0.078   4.917   4.465
 3536SOL    HW210633   0.161   4.936   4.326
 3537SOL     OW10634   0.672   5.115   5.348
 3537SOL    HW110635   0.594   5.065   5.386
 3537SOL    HW210636   0.669   5.210   5.379
 3538SOL     OW10637   1.824   3.916   4.951
 3538SOL    HW110638   1.820   3.826   4.995
 3538SOL    HW210639   1.827   3.905   4.852
 3539SOL     OW10640   0.428   4.148   4.244
 3539SOL    HW110641   0.458   4.076   4.182
 3539SOL    HW210642   0.389   4.108   4.327
 3540SOL     OW10643   1.705   5.211   4.828
 3540SOL    HW110644   1.612   5.186   4.801
 3540SOL    HW210645   1.731   5.161   4.910
 3541SOL     OW10646   0.317   4.271   5.004
 3541SOL    HW110647   0.355   4.212   5.076
 3541SOL    HW210648   0.357   4.245   4.916
 3542SOL     OW10649   0.812   5.310   4.411
 3542SOL    HW110650   0.844   5.320   4.317
 3542SOL    HW210651   0.733   5.248   4.413
 3543SOL     OW10652   1.424   3.938   4.836
 3543SOL    HW110653   1.476   3.873   4.891
 3543SOL    HW210654   1.375   4.001   4.897
 3544SOL     OW10655   1.001   3.758   4.878
 3544SOL    HW110656   0.938   3.686   4.847
 3544SOL    HW210657   1.094   3.722   4.878
 3545SOL     OW10658   0.618   5.291   5.008
 3545SOL    HW110659   0.613   5.373   5.065
 3545SOL    HW210660   0.707   5.288   4.963
 3546SOL     OW10661   1.352   3.776   3.892
 3546SOL    HW110662   1.387   3.735   3.808
 3546SOL    HW210663   1.262   3.738   3.912
 3547SOL     OW10664   1.300   4.177   4.415
 3547SOL    HW110665   1.241   4.257   4.419
 3547SOL    HW210666   1.315   4.142   4.508
 3548SOL     OW10667   1.593   3.945   4.606
 3548SOL    HW110668   1.509   3.944   4.660
 3548SOL    HW210669   1.595   4.028   4.550
 3549SOL     OW10670   0.039   4.801   4.024
 3549SOL    HW110671   0.138   4.790   4.015
 3549SOL    HW210672  -0.001   4.715   4.056
 3550SOL     OW10673   0.875   5.370   4.061
 3550SOL    HW110674   0.798   5.335   4.007
 3550SOL    HW210675   0.843   5.441   4.123
 3551SOL     OW10676   0.230   4.352   5.699
 3551SOL    HW110677   0.137   4.350   5.736
 3551SOL    HW210678   0.231   4.313   5.607
 3552SOL     OW10679   0.225   3.999   6.582
 3552SOL    HW110680   0.260   3.982   6.674
 3552SOL    HW210681   0.137   3.954   6.570
 3553SOL     OW10682   0.019   4.092   6.233
 3553SOL    HW110683  -0.063   4.135   6.272
 3553SOL    HW210684  -0.009   4.019   6.170
 3554SOL     OW10685   0.569   4.999   6.751
 3554SOL    HW110686   0.476   4.992   6.714
 3554SOL    HW210687   0.580   5.088   6.795
 3555SOL     OW10688   1.555   5.235   6.289
 3555SOL    HW110689   1.498   5.219   6.370
 3555SOL    HW210690   1.496   5.245   6.209
 3556SOL     OW10691   1.135   4.427   6.303
 3556SOL    HW110692   1.192   4.505   6.278
 3556SOL    HW210693   1.075   4.453   6.379
 3557SOL     OW10694   1.755   4.331   5.817
 3557SOL    HW110695   1.743   4.318   5.718
 3557SOL    HW210696   1.725   4.250   5.866
 3558SOL     OW10697   0.768   4.868   6.609
 3558SOL    HW110698   0.690   4.885   6.669
 3558SOL    HW210699   0.802   4.955   6.573
 3559SOL     OW10700   0.850   4.522   7.409
 3559SOL    HW110701   0.846   4.598   7.474
 3559SOL    HW210702   0.872   4.558   7.318
 3560SOL     OW10703   0.685   4.736   6.251
 3560SOL    HW110704   0.754   4.720   6.321
 3560SOL    HW210705   0.612   4.793   6.289
 3561SOL     OW10706   0.335   5.159   6.647
 3561SOL    HW110707   0.257   5.128   6.594
 3561SOL    HW210708   0.393   5.217   6.590
 3562SOL     OW10709   1.460   5.229   6.925
 3562SOL    HW110710   1.484   5.323   6.951
 3562SOL    HW210711   1.444   5.175   7.007
 3563SOL     OW10712   0.438   4.116   7.085
 3563SOL    HW110713   0.520   4.060   7.094
 3563SOL    HW210714   0.357   4.058   7.089
 3564SOL     OW10715   1.603   4.171   6.323
 3564SOL    HW110716   1.529   4.217   6.273
 3564SOL    HW210717   1.654   4.239   6.376
 3565SOL     OW10718   0.231   5.437   6.069
 3565SOL    HW110719   0.265   5.514   6.123
 3565SOL    HW210720   0.275   5.437   5.979
 3566SOL     OW10721   1.127   5.065   7.276
 3566SOL    HW110722   1.174   5.065   7.364
 3566SOL    HW210723   1.079   4.978   7.265
 3567SOL     OW10724   0.230   5.158   6.124
 3567SOL    HW110725   0.204   5.254   6.124
 3567SOL    HW210726   0.159   5.104   6.169
 3568SOL     OW10727   0.240   4.815   6.472
 3568SOL    HW110728   0.254   4.731   6.524
 3568SOL    HW210729   0.185   4.879   6.527
 3569SOL     OW10730   0.620   5.510   7.025
 3569SOL    HW110731   0.528   5.493   7.060
 3569SOL    HW210732   0.648   5.602   7.051
 3570SOL     OW10733   0.606   4.688   5.709
 3570SOL    HW110734   0.613   4.772   5.655
 3570SOL    HW210735   0.652   4.701   5.797
 3571SOL     OW10736   1.594   3.838   7.066
 3571SOL    HW110737   1.576   3.905   6.994
 3571SOL    HW210738   1.591   3.884   7.155
 3572SOL     OW10739   0.122   4.367   6.149
 3572SOL    HW110740   0.077   4.279   6.166
 3572SOL    HW210741   0.121   4.421   6.233
 3573SOL     OW10742   1.842   5.491   5.945
 3573SOL    HW110743   1.896   5.462   6.025
 3573SOL    HW210744   1.872   5.581   5.916
 3574SOL     OW10745   0.027   5.320   5.703
 3574SOL    HW110746   0.008   5.224   5.724
 3574SOL    HW210747  -0.006   5.378   5.778
 3575SOL     OW10748   1.689   4.646   6.198
 3575SOL    HW110749   1.784   4.617   6.206
 3575SOL    HW210750   1.681   4.711   6.123
 3576SOL     OW10751   1.641   4.832   6.018
 3576SOL    HW110752   1.727   4.834   5.966
 3576SOL    HW210753   1.655   4.879   6.106
 3577SOL     OW10754   0.113   4.461   7.183
 3577SOL    HW110755   0.201   4.448   7.228
 3577SOL    HW210756   0.100   4.558   7.161
 3578SOL     OW10757   0.613   5.089   6.312
 3578SOL    HW110758   0.564   5.002   6.321
 3578SOL    HW210759   0.590   5.132   6.225
 3579SOL     OW10760   1.293   4.952   7.009
 3579SOL    HW110761   1.330   4.879   6.951
 3579SOL    HW210762   1.345   4.957   7.094
 3580SOL     OW10763   0.809   3.728   6.088
 3580SOL    HW110764   0.849   3.819   6.079
 3580SOL    HW210765   0.709   3.736   6.094
 3581SOL     OW10766   0.197   4.700   6.850
 3581SOL    HW110767   0.286   4.655   6.836
 3581SOL    HW210768   0.124   4.635   6.831
 3582SOL     OW10769   1.525   4.723   5.776
 3582SOL    HW110770   1.462   4.647   5.789
 3582SOL    HW210771   1.573   4.741   5.862
 3583SOL     OW10772   1.187   5.516   7.202
 3583SOL    HW110773   1.211   5.576   7.126
 3583SOL    HW210774   1.194   5.421   7.172
 3584SOL     OW10775   0.317   3.975   7.387
 3584SOL    HW110776   0.388   4.046   7.393
 3584SOL    HW210777   0.229   4.014   7.415
 3585SOL     OW10778   1.466   5.141   6.539
 3585SOL    HW110779   1.407   5.147   6.619
 3585SOL    HW210780   1.451   5.053   6.493
 3586SOL     OW10781   1.667   5.438   6.158
 3586SOL    HW110782   1.626   5.415   6.070
 3586SOL    HW210783   1.649   5.364   6.223
 3587SOL     OW10784   0.598   4.453   5.856
 3587SOL    HW110785   0.622   4.522   5.788
 3587SOL    HW210786   0.520   4.486   5.910
 3588SOL     OW10787   1.281   4.069   6.530
 3588SOL    HW110788   1.195   4.019   6.517
 3588SOL    HW210789   1.343   4.015   6.586
 3589SOL     OW10790   1.576   5.386   5.893
 3589SOL    HW110791   1.665   5.432   5.896
 3589SOL    HW210792   1.555   5.362   5.798
 3590SOL     OW10793   0.807   4.329   7.051
 3590SOL    HW110794   0.760   4.326   7.140
 3590SOL    HW210795   0.756   4.274   6.985
 3591SOL     OW10796   1.394   4.193   7.260
 3591SOL    HW110797   1.374   4.236   7.348
 3591SOL    HW210798   1.472   4.131   7.269
 3592SOL     OW10799   0.973   4.614   7.158
 3592SOL    HW110800   1.019   4.530   7.129
 3592SOL    HW210801   0.917   4.648   7.083
 3593SOL     OW10802   0.991   4.134   6.828
 3593SOL    HW110803   0.914   4.168   6.882
 3593SOL    HW210804   0.957   4.083   6.749
 3594SOL     OW10805   1.041   4.425   6.015
 3594SOL    HW110806   1.067   4.421   6.111
 3594SOL    HW210807   0.956   4.374   6.001
 3595SOL     OW10808   0.076   4.535   6.375
 3595SOL    HW110809   0.175   4.523   6.384
 3595SOL    HW210810   0.052   4.630   6.396
 3596SOL     OW10811   0.130   5.545   7.157
 3596SOL    HW110812   0.120   5.530   7.256
 3596SOL    HW210813   0.044   5.581   7.121
 3597SOL     OW10814   0.865   4.072   5.781
 3597SOL    HW110815   0.924   4.135   5.732
 3597SOL    HW210816   0.884   3.978   5.752
 3598SOL     OW10817   1.719   4.309   7.417
 3598SOL    HW110818   1.693   4.398   7.381
 3598SOL    HW210819   1.717   4.241   7.344
 3599SOL     OW10820   1.362   4.868   6.131
 3599SOL    HW110821   1.445   4.839   6.083
 3599SOL    HW210822   1.313   4.935   6.075
 3600SOL     OW10823   0.550   3.920   6.471
 3600SOL    HW110824   0.545   3.915   6.571
 3600SOL    HW210825   0.552   4.016   6.442
 3601SOL     OW10826   1.008   5.180   6.063
 3601SOL    HW110827   0.962   5.252   6.011
 3601SOL    HW210828   1.004   5.200   6.161
 3602SOL     OW10829   0.351   5.525   6.439
 3602SOL    HW110830   0.401   5.439   6.445
 3602SOL    HW210831   0.416   5.602   6.436
 3603SOL     OW10832   1.795   4.790   6.459
 3603SOL    HW110833   1.733   4.775   6.383
 3603SOL    HW210834   1.743   4.801   6.544
 3604SOL     OW10835   1.227   5.274   7.092
 3604SOL    HW110836   1.233   5.197   7.156
 3604SOL    HW210837   1.175   5.248   7.012
 3605SOL     OW10838   0.321   4.667   5.828
 3605SOL    HW110839   0.403   4.706   5.786
 3605SOL    HW210840   0.294   4.585   5.779
 3606SOL     OW10841   1.458   4.459   6.314
 3606SOL    HW110842   1.453   4.394   6.389
 3606SOL    HW210843   1.538   4.518   6.327
 3607SOL     OW10844   0.461   4.990   7.313
 3607SOL    HW110845   0.411   4.991   7.227
 3607SOL    HW210846   0.398   4.972   7.389
 3608SOL     OW10847   0.202   4.009   7.084
 3608SOL    HW110848   0.122   4.069   7.071
 3608SOL    HW210849   0.192   3.960   7.170
 3609SOL     OW10850   1.632   5.101   5.667
 3609SOL    HW110851   1.600   5.195   5.657
 3609SOL    HW210852   1.556   5.038   5.655
 3610SOL     OW10853   0.464   5.467   5.909
 3610SOL    HW110854   0.497   5.506   5.995
 3610SOL    HW210855   0.540   5.460   5.844
 3611SOL     OW10856   1.400   3.831   6.012
 3611SOL    HW110857   1.376   3.794   5.922
 3611SOL    HW210858   1.499   3.847   6.016
 3612SOL     OW10859   0.249   5.509   6.827
 3612SOL    HW110860   0.306   5.444   6.877
 3612SOL    HW210861   0.233   5.476   6.734
 3613SOL     OW10862   0.940   5.422   6.490
 3613SOL    HW110863   1.020   5.365   6.511
 3613SOL    HW210864   0.891   5.382   6.413
 3614SOL     OW10865   0.382   4.424   6.066
 3614SOL    HW110866   0.427   4.334   6.063
 3614SOL    HW210867   0.288   4.413   6.099
 3615SOL     OW10868   1.547   3.946   7.315
 3615SOL    HW110869   1.542   3.983   7.407
 3615SOL    HW210870   1.475   3.877   7.303
 3616SOL     OW10871   0.614   3.846   5.703
 3616SOL    HW110872   0.712   3.824   5.710
 3616SOL    HW210873   0.583   3.829   5.610
 3617SOL     OW10874   0.781   3.988   7.335
 3617SOL    HW110875   0.848   3.927   7.378
 3617SOL    HW210876   0.708   4.007   7.400
 3618SOL     OW10877   0.888   5.238   6.781
 3618SOL    HW110878   0.865   5.213   6.687
 3618SOL    HW210879   0.949   5.169   6.820
 3619SOL     OW10880   1.351   4.314   7.019
 3619SOL    HW110881   1.379   4.271   7.104
 3619SOL    HW210882   1.376   4.410   7.020
 3620SOL     OW10883   0.803   5.126   6.510
 3620SOL    HW110884   0.893   5.140   6.468
 3620SOL    HW210885   0.732   5.128   6.439
 3621SOL     OW10886   0.922   4.227   6.485
 3621SOL    HW110887   0.897   4.218   6.389
 3621SOL    HW210888   0.970   4.145   6.516
 3622SOL     OW10889   0.539   3.788   6.098
 3622SOL    HW110890   0.458   3.789   6.156
 3622SOL    HW210891   0.542   3.871   6.043
 3623SOL     OW10892   1.434   4.912   5.627
 3623SOL    HW110893   1.466   4.836   5.684
 3623SOL    HW210894   1.342   4.939   5.657
 3624SOL     OW10895   0.297   3.759   5.757
 3624SOL    HW110896   0.346   3.843   5.736
 3624SOL    HW210897   0.359   3.694   5.802
 3625SOL     OW10898   0.935   3.960   6.066
 3625SOL    HW110899   0.887   4.001   5.988
 3625SOL    HW210900   1.034   3.958   6.047
 3626SOL     OW10901   1.076   4.407   7.050
 3626SOL    HW110902   0.996   4.346   7.053
 3626SOL    HW210903   1.157   4.354   7.026
 3627SOL     OW10904   1.227   5.294   6.379
 3627SOL    HW110905   1.248   5.368   6.314
 3627SOL    HW210906   1.295   5.294   6.452
 3628SOL     OW10907   0.459   4.876   6.327
 3628SOL    HW110908   0.388   4.849   6.392
 3628SOL    HW210909   0.433   4.848   6.234
 3629SOL     OW10910   1.271   5.521   6.177
 3629SOL    HW110911   1.315   5.585   6.113
 3629SOL    HW210912   1.221   5.573   6.247
 3630SOL     OW10913   1.032   4.273   5.602
 3630SOL    HW110914   0.991   4.355   5.563
 3630SOL    HW210915   1.096   4.299   5.675
 3631SOL     OW10916   0.078   4.280   6.972
 3631SOL    HW110917   0.170   4.279   6.931
 3631SOL    HW210918   0.072   4.354   7.039
 3632SOL     OW10919   0.561   3.946   6.733
 3632SOL    HW110920   0.599   3.862   6.770
 3632SOL    HW210921   0.473   3.965   6.777
 3633SOL     OW10922   0.866   4.178   6.228
 3633SOL    HW110923   0.834   4.250   6.166
 3633SOL    HW210924   0.890   4.097   6.175
 3634SOL     OW10925   1.017   3.763   6.339
 3634SOL    HW110926   0.945   3.768   6.270
 3634SOL    HW210927   0.993   3.694   6.408
 3635SOL     OW10928   1.429   4.897   6.453
 3635SOL    HW110929   1.374   4.813   6.446
 3635SOL    HW210930   1.455   4.926   6.361
 3636SOL     OW10931   1.466   4.314   6.578
 3636SOL    HW110932   1.436   4.219   6.585
 3636SOL    HW210933   1.539   4.330   6.644
 3637SOL     OW10934   1.857   4.557   5.963
 3637SOL    HW110935   1.899   4.493   6.027
 3637SOL    HW210936   1.819   4.506   5.885
 3638SOL     OW10937   0.488   5.109   5.760
 3638SOL    HW110938   0.401   5.094   5.807
 3638SOL    HW210939   0.471   5.135   5.665
 3639SOL     OW10940   1.664   5.004   6.243
 3639SOL    HW110941   1.763   5.012   6.257
 3639SOL    HW210942   1.619   5.088   6.274
 3640SOL     OW10943   1.390   4.299   5.664
 3640SOL    HW110944   1.336   4.278   5.745
 3640SOL    HW210945   1.481   4.258   5.673
 3641SOL     OW10946   0.527   3.980   5.914
 3641SOL    HW110947   0.554   3.921   5.839
 3641SOL    HW210948   0.527   4.075   5.883
 3642SOL     OW10949   1.754   4.947   7.174
 3642SOL    HW110950   1.845   4.908   7.161
 3642SOL    HW210951   1.762   5.043   7.198
 3643SOL     OW10952   1.064   5.071   6.926
 3643SOL    HW110953   0.984   5.048   6.981
 3643SOL    HW210954   1.147   5.045   6.975
 3644SOL     OW10955   1.592   5.353   7.211
 3644SOL    HW110956   1.619   5.387   7.121
 3644SOL    HW210957   1.671   5.315   7.257
 3645SOL     OW10958   1.111   4.919   6.686
 3645SOL    HW110959   1.071   4.963   6.767
 3645SOL    HW210960   1.070   4.956   6.603
 3646SOL     OW10961   1.638   4.823   6.665
 3646SOL    HW110962   1.643   4.904   6.724
 3646SOL    HW210963   1.552   4.825   6.614
 3647SOL     OW10964   0.915   3.813   6.988
 3647SOL    HW110965   0.940   3.793   6.893
 3647SOL    HW210966   0.987   3.869   7.030
 3648SOL     OW10967   0.980   4.840   7.305
 3648SOL    HW110968   0.881   4.846   7.315
 3648SOL    HW210969   1.003   4.760   7.249
 3649SOL     OW10970   0.705   4.774   5.954
 3649SOL    HW110971   0.691   4.781   6.053
 3649SOL    HW210972   0.789   4.723   5.936
 3650SOL     OW10973   0.410   4.537   6.837
 3650SOL    HW110974   0.496   4.549   6.887
 3650SOL    HW210975   0.368   4.450   6.864
 3651SOL     OW10976   1.274   4.110   6.848
 3651SOL    HW110977   1.295   4.184   6.912
 3651SOL    HW210978   1.185   4.127   6.805
 3652SOL     OW10979   0.064   5.288   6.917
 3652SOL    HW110980   0.018   5.370   6.883
 3652SOL    HW210981   0.162   5.307   6.926
 3653SOL     OW10982   0.367   4.824   6.087
 3653SOL    HW110983   0.360   4.907   6.031
 3653SOL    HW210984   0.371   4.744   6.027
 3654SOL     OW10985   0.566   4.261   6.451
 3654SOL    HW110986   0.578   4.327   6.377
 3654SOL    HW210987   0.612   4.295   6.534
 3655SOL     OW10988   1.252   5.072   5.974
 3655SOL    HW110989   1.302   5.149   6.014
 3655SOL    HW210990   1.157   5.074   6.006
 3656SOL     OW10991   1.272   5.169   6.728
 3656SOL    HW110992   1.319   5.182   6.815
 3656SOL    HW210993   1.206   5.095   6.737
 3657SOL     OW10994   1.582   4.363   6.058
 3657SOL    HW110995   1.551   4.424   6.131
 3657SOL    HW210996   1.632   4.415   5.989
 3658SOL     OW10997   0.354   5.234   6.915
 3658SOL    HW110998   0.333   5.190   6.828
 3658SOL    HW210999   0.451   5.260   6.918
 3659SOL     OW11000   0.402   4.475   7.184
 3659SOL    HW111001   0.470   4.530   7.137
 3659SOL    HW211002   0.442   4.387   7.211
 3660SOL     OW11003   1.587   4.503   7.256
 3660SOL    HW111004   1.495   4.541   7.251
 3660SOL    HW211005   1.647   4.550   7.191
 3661SOL     OW11006   1.013   3.829   7.356
 3661SOL    HW111007   1.019   3.914   7.304
 3661SOL    HW211008   1.045   3.753   7.299
 3662SOL     OW11009   0.504   3.774   7.326
 3662SOL    HW111010   0.462   3.717   7.256
 3662SOL    HW211011   0.438   3.843   7.358
 3663SOL     OW11012   0.573   4.594   6.615
 3663SOL    HW111013   0.617   4.683   6.606
 3663SOL    HW211014   0.510   4.594   6.692
 3664SOL     OW11015   1.360   4.586   6.631
 3664SOL    HW111016   1.285   4.586   6.565
 3664SOL    HW211017   1.397   4.494   6.640
 3665SOL     OW11018   1.209   4.249   5.861
 3665SOL    HW111019   1.222   4.165   5.915
 3665SOL    HW211020   1.180   4.323   5.921
 3666SOL     OW11021   0.307   3.937   6.817
 3666SOL    HW111022   0.284   3.974   6.907
 3666SOL    HW211023   0.277   3.842   6.811
 3667SOL     OW11024   0.037   5.034   6.868
 3667SOL    HW111025   0.090   4.985   6.936
 3667SOL    HW211026   0.059   5.132   6.873
 3668SOL     OW11027   0.732   4.358   6.650
 3668SOL    HW111028   0.791   4.332   6.574
 3668SOL    HW211029   0.704   4.454   6.639
 3669SOL     OW11030   1.728   4.659   7.440
 3669SOL    HW111031   1.682   4.652   7.351
 3669SOL    HW211032   1.666   4.703   7.506
 3670SOL     OW11033   0.307   3.787   6.204
 3670SOL    HW111034   0.296   3.881   6.237
 3670SOL    HW211035   0.302   3.724   6.281
 3671SOL     OW11036   1.622   4.091   5.960
 3671SOL    HW111037   1.624   4.015   6.024
 3671SOL    HW211038   1.574   4.168   6.000
 3672SOL     OW11039   1.023   4.490   6.552
 3672SOL    HW111040   1.038   4.511   6.648
 3672SOL    HW211041   0.993   4.395   6.543
 3673SOL     OW11042   0.980   5.297   7.286
 3673SOL    HW111043   0.960   5.341   7.198
 3673SOL    HW211044   1.019   5.206   7.270
 3674SOL     OW11045   1.859   5.242   7.191
 3674SOL    HW111046   1.873   5.269   7.096
 3674SOL    HW211047   1.942   5.264   7.244
 3675SOL     OW11048   0.350   4.622   7.390
 3675SOL    HW111049   0.426   4.666   7.438
 3675SOL    HW211050   0.385   4.575   7.308
 3676SOL     OW11051   1.540   3.998   5.711
 3676SOL    HW111052   1.479   3.923   5.734
 3676SOL    HW211053   1.562   4.050   5.794
 3677SOL     OW11054   1.303   4.562   5.628
 3677SOL    HW111055   1.337   4.469   5.643
 3677SOL    HW211056   1.321   4.589   5.533
 3678SOL     OW11057   1.068   5.057   6.435
 3678SOL    HW111058   1.075   4.973   6.380
 3678SOL    HW211059   1.130   5.126   6.399
 3679SOL     OW11060   0.319   4.534   6.535
 3679SOL    HW111061   0.412   4.570   6.540
 3679SOL    HW211062   0.313   4.449   6.587
 3680SOL     OW11063   0.339   4.233   6.592
 3680SOL    HW111064   0.287   4.150   6.575
 3680SOL    HW211065   0.416   4.238   6.528
 3681SOL     OW11066   1.138   4.104   7.264
 3681SOL    HW111067   1.093   4.167   7.328
 3681SOL    HW211068   1.231   4.135   7.247
 3682SOL     OW11069   1.160   3.931   7.063
 3682SOL    HW111070   1.160   3.995   7.140
 3682SOL    HW211071   1.188   3.979   6.980
 3683SOL     OW11072   0.008   5.050   5.786
 3683SOL    HW111073  -0.085   5.071   5.755
 3683SOL    HW211074   0.018   4.951   5.799
 3684SOL     OW11075   0.088   5.525   6.513
 3684SOL    HW111076   0.046   5.439   6.486
 3684SOL    HW211077   0.182   5.528   6.479
 3685SOL     OW11078   0.504   5.292   6.496
 3685SOL    HW111079   0.570   5.366   6.505
 3685SOL    HW211080   0.548   5.213   6.454
 3686SOL     OW11081   1.002   4.520   6.824
 3686SOL    HW111082   1.043   4.488   6.910
 3686SOL    HW211083   0.906   4.493   6.821
 3687SOL     OW11084   0.040   4.268   6.700
 3687SOL    HW111085   0.125   4.235   6.659
 3687SOL    HW211086   0.053   4.283   6.798
 3688SOL     OW11087   0.189   4.244   7.308
 3688SOL    HW111088   0.248   4.204   7.238
 3688SOL    HW211089   0.131   4.315   7.267
 3689SOL     OW11090   1.369   4.674   7.246
 3689SOL    HW111091   1.408   4.763   7.266
 3689SOL    HW211092   1.379   4.654   7.149
 3690SOL     OW11093   0.815   4.296   5.911
 3690SOL    HW111094   0.822   4.207   5.865
 3690SOL    HW211095   0.721   4.330   5.903
 3691SOL     OW11096   1.657   4.328   6.792
 3691SOL    HW111097   1.619   4.259   6.854
 3691SOL    HW211098   1.739   4.292   6.748
 3692SOL     OW11099   0.252   5.288   7.330
 3692SOL    HW111100   0.222   5.345   7.406
 3692SOL    HW211101   0.245   5.191   7.356
 3693SOL     OW11102   0.671   4.188   6.855
 3693SOL    HW111103   0.637   4.099   6.825
 3693SOL    HW211104   0.697   4.242   6.775
 3694SOL     OW11105   0.930   5.402   7.051
 3694SOL    HW111106   0.906   5.384   6.956
 3694SOL    HW211107   0.960   5.496   7.061
 3695SOL     OW11108   0.473   4.224   5.777
 3695SOL    HW111109   0.534   4.304   5.781
 3695SOL    HW211110   0.378   4.255   5.784
 3696SOL     OW11111   0.159   4.861   7.052
 3696SOL    HW111112   0.181   4.800   7.128
 3696SOL    HW211113   0.169   4.812   6.966
 3697SOL     OW11114   1.347   4.783   6.820
 3697SOL    HW111115   1.371   4.720   6.746
 3697SOL    HW211116   1.257   4.823   6.802
 3698SOL     OW11117   1.302   4.579   5.895
 3698SOL    HW111118   1.216   4.548   5.937
 3698SOL    HW211119   1.298   4.565   5.796
 3699SOL     OW11120   1.759   5.471   6.740
 3699SOL    HW111121   1.820   5.501   6.667
 3699SOL    HW211122   1.721   5.382   6.718
 3700SOL     OW11123   1.252   5.455   6.714
 3700SOL    HW111124   1.336   5.460   6.660
 3700SOL    HW211125   1.229   5.359   6.732
 3701SOL     OW11126   0.083   4.982   6.608
 3701SOL    HW111127   0.078   4.981   6.708
 3701SOL    HW211128   0.000   4.941   6.570
 3702SOL     OW11129   0.688   5.386   7.302
 3702SOL    HW111130   0.632   5.467   7.311
 3702SOL    HW211131   0.740   5.390   7.216
 3703SOL     OW11132   1.726   3.859   6.109
 3703SOL    HW111133   1.799   3.842   6.042
 3703SOL    HW211134   1.695   3.772   6.147
 3704SOL     OW11135   1.388   5.297   6.063
 3704SOL    HW111136   1.455   5.309   5.989
 3704SOL    HW211137   1.348   5.386   6.086
 3705SOL     OW11138   0.130   5.518   7.437
 3705SOL    HW111139   0.089   5.444   7.490
 3705SOL    HW211140   0.194   5.569   7.495
 3706SOL     OW11141   1.280   4.651   6.258
 3706SOL    HW111142   1.340   4.570   6.260
 3706SOL    HW211143   1.320   4.720   6.198
 3707SOL     OW11144   0.830   4.997   7.008
 3707SOL    HW111145   0.825   5.030   7.103
 3707SOL    HW211146   0.744   5.016   6.962
 3708SOL     OW11147   0.672   5.340   5.740
 3708SOL    HW111148   0.681   5.350   5.641
 3708SOL    HW211149   0.632   5.251   5.761
 3709SOL     OW11150   1.650   5.444   6.980
 3709SOL    HW111151   1.703   5.454   6.896
 3709SOL    HW211152   1.623   5.534   7.014
 3710SOL     OW11153   1.841   3.899   6.549
 3710SOL    HW111154   1.880   3.814   6.513
 3710SOL    HW211155   1.743   3.901   6.530
 3711SOL     OW11156   0.263   4.050   6.306
 3711SOL    HW111157   0.184   4.101   6.272
 3711SOL    HW211158   0.254   4.035   6.404
 3712SOL     OW11159   1.194   5.336   5.617
 3712SOL    HW111160   1.200   5.243   5.654
 3712SOL    HW211161   1.135   5.336   5.537
 3713SOL     OW11162   0.822   4.726   6.958
 3713SOL    HW111163   0.862   4.725   6.866
 3713SOL    HW211164   0.832   4.818   6.998
 3714SOL     OW11165   0.916   4.634   5.877
 3714SOL    HW111166   0.979   4.672   5.809
 3714SOL    HW211167   0.956   4.551   5.916
 3715SOL     OW11168   1.504   5.331   5.630
 3715SOL    HW111169   1.412   5.368   5.637
 3715SOL    HW211170   1.542   5.351   5.540
 3716SOL     OW11171   0.372   5.012   7.076
 3716SOL    HW111172   0.359   5.105   7.042
 3716SOL    HW211173   0.288   4.960   7.063
 3717SOL     OW11174   1.614   5.016   6.875
 3717SOL    HW111175   1.674   5.019   6.955
 3717SOL    HW211176   1.539   5.080   6.888
 3718SOL     OW11177   1.039   4.822   6.282
 3718SOL    HW111178   0.969   4.775   6.336
 3718SOL    HW211179   1.098   4.754   6.239
 3719SOL     OW11180   1.014   3.960   6.557
 3719SOL    HW111181   1.006   3.924   6.464
 3719SOL    HW211182   1.012   3.884   6.622
 3720SOL     OW11183   0.590   5.211   6.077
 3720SOL    HW111184   0.632   5.153   6.007
 3720SOL    HW211185   0.546   5.290   6.033
 3721SOL     OW11186   1.709   4.109   6.967
 3721SOL    HW111187   1.782   4.178   6.971
 3721SOL    HW211188   1.737   4.034   6.908
 3722SOL     OW11189   0.255   5.072   5.876
 3722SOL    HW111190   0.159   5.073   5.849
 3722SOL    HW211191   0.267   5.125   5.960
 3723SOL     OW11192   0.105   4.737   7.312
 3723SOL    HW111193   0.028   4.704   7.366
 3723SOL    HW211194   0.190   4.707   7.354
 3724SOL     OW11195   0.672   3.927   7.075
 3724SOL    HW111196   0.762   3.911   7.035
 3724SOL    HW211197   0.680   3.932   7.174
 3725SOL     OW11198   0.075   4.069   5.619
 3725SOL    HW111199  -0.017   4.041   5.590
 3725SOL    HW211200   0.106   4.146   5.563
 3726SOL     OW11201   1.440   4.580   6.984
 3726SOL    HW111202   1.383   4.632   6.921
 3726SOL    HW211203   1.536   4.592   6.960
 3727SOL     OW11204   0.072   3.890   5.904
 3727SOL    HW111205   0.055   3.973   5.850
 3727SOL    HW211206   0.162   3.853   5.882
 3728SOL     OW11207   1.183   5.059   5.705
 3728SOL    HW111208   1.084   5.048   5.707
 3728SOL    HW211209   1.217   5.074   5.798
 3729SOL     OW11210   0.613   4.566   7.017
 3729SOL    HW111211   0.669   4.647   7.000
 3729SOL    HW211212   0.672   4.486   7.020
 3730SOL     OW11213   1.493   5.491   6.545
 3730SOL    HW111214   1.526   5.555   6.476
 3730SOL    HW211215   1.559   5.485   6.620
 3731SOL     OW11216   0.716   4.289   7.294
 3731SOL    HW111217   0.735   4.354   7.368
 3731SOL    HW211218   0.776   4.209   7.303
 3732SOL     OW11219   1.450   4.944   7.219
 3732SOL    HW111220   1.441   4.934   7.318
 3732SOL    HW211221   1.546   4.937   7.193
 3733SOL     OW11222   0.390   5.465   7.146
 3733SOL    HW111223   0.299   5.506   7.144
 3733SOL    HW211224   0.383   5.371   7.178
 3734SOL     OW11225   1.674   4.607   6.840
 3734SOL    HW111226   1.647   4.518   6.803
 3734SOL    HW211227   1.675   4.675   6.767
 3735SOL     OW11228   1.225   4.049   6.035
 3735SOL    HW111229   1.290   3.975   6.024
 3735SOL    HW211230   1.245   4.099   6.119
 3736SOL     OW11231   0.594   4.469   6.238
 3736SOL    HW111232   0.644   4.554   6.219
 3736SOL    HW211233   0.506   4.471   6.190
 3737SOL     OW11234   1.777   4.066   7.228
 3737SOL    HW111235   1.760   4.097   7.134
 3737SOL    HW211236   1.693   4.029   7.266
 3738SOL     OW11237   1.730   4.658   7.103
 3738SOL    HW111238   1.768   4.749   7.118
 3738SOL    HW211239   1.722   4.641   7.004
 3739SOL     OW11240   0.859   5.098   5.602
 3739SOL    HW111241   0.813   5.113   5.690
 3739SOL    HW211242   0.903   5.183   5.572
 3740SOL     OW11243   0.661   5.514   6.539
 3740SOL    HW111244   0.615   5.602   6.526
 3740SOL    HW211245   0.760   5.526   6.532
 3741SOL     OW11246   0.859   4.680   6.447
 3741SOL    HW111247   0.913   4.611   6.495
 3741SOL    HW211248   0.827   4.749   6.513
 3742SOL     OW11249   1.083   4.708   5.673
 3742SOL    HW111250   1.060   4.761   5.591
 3742SOL    HW211251   1.164   4.652   5.654
 3743SOL     OW11252   1.861   5.293   6.437
 3743SOL    HW111253   1.790   5.281   6.367
 3743SOL    HW211254   1.862   5.214   6.497
 3744SOL     OW11255   0.221   5.038   7.430
 3744SOL    HW111256   0.156   4.965   7.409
 3744SOL    HW211257   0.225   5.052   7.528
 3745SOL     OW11258   0.079   4.964   6.239
 3745SOL    HW111259   0.078   4.917   6.327
 3745SOL    HW211260   0.161   4.936   6.188
 3746SOL     OW11261   0.672   5.115   7.210
 3746SOL    HW111262   0.594   5.065   7.248
 3746SOL    HW211263   0.669   5.210   7.241
 3747SOL     OW11264   1.824   3.916   6.813
 3747SOL    HW111265   1.820   3.826   6.857
 3747SOL    HW211266   1.827   3.905   6.714
 3748SOL     OW11267   0.428   4.148   6.106
 3748SOL    HW111268   0.458   4.076   6.044
 3748SOL    HW211269   0.389   4.108   6.189
 3749SOL     OW11270   1.705   5.211   6.690
 3749SOL    HW111271   1.612   5.186   6.663
 3749SOL    HW211272   1.731   5.161   6.772
 3750SOL     OW11273   0.317   4.271   6.866
 3750SOL    HW111274   0.355   4.212   6.938
 3750SOL    HW211275   0.357   4.245   6.778
 3751SOL     OW11276   0.812   5.310   6.273
 3751SOL    HW111277   0.844   5.320   6.179
 3751SOL    HW211278   0.733   5.248   6.275
 3752SOL     OW11279   1.424   3.938   6.698
 3752SOL    HW111280   1.476   3.873   6.753
 3752SOL    HW211281   1.375   4.001   6.759
 3753SOL     OW11282   1.001   3.758   6.740
 3753SOL    HW111283   0.938   3.686   6.709
 3753SOL    HW211284   1.094   3.722   6.740
 3754SOL     OW11285   0.770   5.054   5.887
 3754SOL    HW111286   0.724   4.967   5.904
 3754SOL    HW211287   0.861   5.051   5.928
 3755SOL     OW11288   0.618   5.291   6.870
 3755SOL    HW111289   0.613   5.373   6.927
 3755SOL    HW211290   0.707   5.288   6.825
 3756SOL     OW11291   1.352   3.776   5.754
 3756SOL    HW111292   1.387   3.735   5.670
 3756SOL    HW211293   1.262   3.738   5.774
 3757SOL     OW11294   1.300   4.177   6.277
 3757SOL    HW111295   1.241   4.257   6.281
 3757SOL    HW211296   1.315   4.142   6.370
 3758SOL     OW11297   1.593   3.945   6.468
 3758SOL    HW111298   1.509   3.944   6.522
 3758SOL    HW211299   1.595   4.028   6.412
 3759SOL     OW11300   0.039   4.801   5.886
 3759SOL    HW111301   0.138   4.790   5.877
 3759SOL    HW211302  -0.001   4.715   5.918
 3760SOL     OW11303   0.875   5.370   5.923
 3760SOL    HW111304   0.798   5.335   5.869
 3760SOL    HW211305   0.843   5.441   5.985
 3761SOL     OW11306   0.230   4.352   7.561
 3761SOL    HW111307   0.137   4.350   7.598
 3761SOL    HW211308   0.231   4.313   7.469
 3762SOL     OW11309   0.225   3.999   8.444
 3762SOL    HW111310   0.260   3.982   8.536
 3762SOL    HW211311   0.137   3.954   8.432
 3763SOL     OW11312   0.019   4.092   8.095
 3763SOL    HW111313  -0.063   4.135   8.134
 3763SOL    HW211314  -0.009   4.019   8.032
 3764SOL     OW11315   0.569   4.999   8.613
 3764SOL    HW111316   0.476   4.992   8.576
 3764SOL    HW211317   0.580   5.088   8.657
 3765SOL     OW11318   1.555   5.235   8.151
 3765SOL    HW111319   1.498   5.219   8.232
 3765SOL    HW211320   1.496   5.245   8.071
 3766SOL     OW11321   1.135   4.427   8.165
 3766SOL    HW111322   1.192   4.505   8.140
 3766SOL    HW211323   1.075   4.453   8.241
 3767SOL     OW11324   1.755   4.331   7.679
 3767SOL    HW111325   1.743   4.318   7.580
 3767SOL    HW211326   1.725   4.250   7.728
 3768SOL     OW11327   0.768   4.868   8.471
 3768SOL    HW111328   0.690   4.885   8.531
 3768SOL    HW211329   0.802   4.955   8.435
 3769SOL     OW11330   0.850   4.522   9.271
 3769SOL    HW111331   0.846   4.598   9.336
 3769SOL    HW211332   0.872   4.558   9.180
 3770SOL     OW11333   0.685   4.736   8.113
 3770SOL    HW111334   0.754   4.720   8.183
 3770SOL    HW211335   0.612   4.793   8.151
 3771SOL     OW11336   0.686   4.885   9.251
 3771SOL    HW111337   0.746   4.964   9.265
 3771SOL    HW211338   0.600   4.916   9.210
 3772SOL     OW11339   0.335   5.159   8.509
 3772SOL    HW111340   0.257   5.128   8.456
 3772SOL    HW211341   0.393   5.217   8.452
 3773SOL     OW11342   1.460   5.229   8.787
 3773SOL    HW111343   1.484   5.323   8.813
 3773SOL    HW211344   1.444   5.175   8.869
 3774SOL     OW11345   0.438   4.116   8.947
 3774SOL    HW111346   0.520   4.060   8.956
 3774SOL    HW211347   0.357   4.058   8.951
 3775SOL     OW11348   1.603   4.171   8.185
 3775SOL    HW111349   1.529   4.217   8.135
 3775SOL    HW211350   1.654   4.239   8.238
 3776SOL     OW11351   0.231   5.437   7.931
 3776SOL    HW111352   0.265   5.514   7.985
 3776SOL    HW211353   0.275   5.437   7.841
 3777SOL     OW11354   1.127   5.065   9.138
 3777SOL    HW111355   1.174   5.065   9.226
 3777SOL    HW211356   1.079   4.978   9.127
 3778SOL     OW11357   0.230   5.158   7.986
 3778SOL    HW111358   0.204   5.254   7.986
 3778SOL    HW211359   0.159   5.104   8.031
 3779SOL     OW11360   0.240   4.815   8.334
 3779SOL    HW111361   0.254   4.731   8.386
 3779SOL    HW211362   0.185   4.879   8.389
 3780SOL     OW11363   0.620   5.510   8.887
 3780SOL    HW111364   0.528   5.493   8.922
 3780SOL    HW211365   0.648   5.602   8.913
 3781SOL     OW11366   0.606   4.688   7.571
 3781SOL    HW111367   0.613   4.772   7.517
 3781SOL    HW211368   0.652   4.701   7.659
 3782SOL     OW11369   1.594   3.838   8.928
 3782SOL    HW111370   1.576   3.905   8.856
 3782SOL    HW211371   1.591   3.884   9.017
 3783SOL     OW11372   0.122   4.367   8.011
 3783SOL    HW111373   0.077   4.279   8.028
 3783SOL    HW211374   0.121   4.421   8.095
 3784SOL     OW11375   1.842   5.491   7.807
 3784SOL    HW111376   1.896   5.462   7.887
 3784SOL    HW211377   1.872   5.581   7.778
 3785SOL     OW11378   0.027   5.320   7.565
 3785SOL    HW111379   0.008   5.224   7.586
 3785SOL    HW211380  -0.006   5.378   7.640
 3786SOL     OW11381   1.689   4.646   8.060
 3786SOL    HW111382   1.784   4.617   8.068
 3786SOL    HW211383   1.681   4.711   7.985
 3787SOL     OW11384   1.641   4.832   7.880
 3787SOL    HW111385   1.727   4.834   7.828
 3787SOL    HW211386   1.655   4.879   7.968
 3788SOL     OW11387   0.113   4.461   9.045
 3788SOL    HW111388   0.201   4.448   9.090
 3788SOL    HW211389   0.100   4.558   9.023
 3789SOL     OW11390   0.613   5.089   8.174
 3789SOL    HW111391   0.564   5.002   8.183
 3789SOL    HW211392   0.590   5.132   8.087
 3790SOL     OW11393   1.293   4.952   8.871
 3790SOL    HW111394   1.330   4.879   8.813
 3790SOL    HW211395   1.345   4.957   8.956
 3791SOL     OW11396   0.809   3.728   7.950
 3791SOL    HW111397   0.849   3.819   7.941
 3791SOL    HW211398   0.709   3.736   7.956
 3792SOL     OW11399   0.197   4.700   8.712
 3792SOL    HW111400   0.286   4.655   8.698
 3792SOL    HW211401   0.124   4.635   8.693
 3793SOL     OW11402   1.525   4.723   7.638
 3793SOL    HW111403   1.462   4.647   7.651
 3793SOL    HW211404   1.573   4.741   7.724
 3794SOL     OW11405   1.187   5.516   9.064
 3794SOL    HW111406   1.211   5.576   8.988
 3794SOL    HW211407   1.194   5.421   9.034
 3795SOL     OW11408   0.317   3.975   9.249
 3795SOL    HW111409   0.388   4.046   9.255
 3795SOL    HW211410   0.229   4.014   9.277
 3796SOL     OW11411   1.466   5.141   8.401
 3796SOL    HW111412   1.407   5.147   8.481
 3796SOL    HW211413   1.451   5.053   8.355
 3797SOL     OW11414   1.667   5.438   8.020
 3797SOL    HW111415   1.626   5.415   7.932
 3797SOL    HW211416   1.649   5.364   8.085
 3798SOL     OW11417   0.598   4.453   7.718
 3798SOL    HW111418   0.622   4.522   7.650
 3798SOL    HW211419   0.520   4.486   7.772
 3799SOL     OW11420   1.281   4.069   8.392
 3799SOL    HW111421   1.195   4.019   8.379
 3799SOL    HW211422   1.343   4.015   8.448
 3800SOL     OW11423   1.576   5.386   7.755
 3800SOL    HW111424   1.665   5.432   7.758
 3800SOL    HW211425   1.555   5.362   7.660
 3801SOL     OW11426   0.807   4.329   8.913
 3801SOL    HW111427   0.760   4.326   9.002
 3801SOL    HW211428   0.756   4.274   8.847
 3802SOL     OW11429   1.394   4.193   9.122
 3802SOL    HW111430   1.374   4.236   9.210
 3802SOL    HW211431   1.472   4.131   9.131
 3803SOL     OW11432   0.973   4.614   9.020
 3803SOL    HW111433   1.019   4.530   8.991
 3803SOL    HW211434   0.917   4.648   8.945
 3804SOL     OW11435   0.991   4.134   8.690
 3804SOL    HW111436   0.914   4.168   8.744
 3804SOL    HW211437   0.957   4.083   8.611
 3805SOL     OW11438   1.041   4.425   7.877
 3805SOL    HW111439   1.067   4.421   7.973
 3805SOL    HW211440   0.956   4.374   7.863
 3806SOL     OW11441   0.076   4.535   8.237
 3806SOL    HW111442   0.175   4.523   8.246
 3806SOL    HW211443   0.052   4.630   8.258
 3807SOL     OW11444   0.130   5.545   9.019
 3807SOL    HW111445   0.120   5.530   9.118
 3807SOL    HW211446   0.044   5.581   8.983
 3808SOL     OW11447   0.865   4.072   7.643
 3808SOL    HW111448   0.924   4.135   7.594
 3808SOL    HW211449   0.884   3.978   7.614
 3809SOL     OW11450   1.719   4.309   9.279
 3809SOL    HW111451   1.693   4.398   9.243
 3809SOL    HW211452   1.717   4.241   9.206
 3810SOL     OW11453   1.362   4.868   7.993
 3810SOL    HW111454   1.445   4.839   7.945
 3810SOL    HW211455   1.313   4.935   7.937
 3811SOL     OW11456   0.550   3.920   8.333
 3811SOL    HW111457   0.545   3.915   8.433
 3811SOL    HW211458   0.552   4.016   8.304
 3812SOL     OW11459   1.008   5.180   7.925
 3812SOL    HW111460   0.962   5.252   7.873
 3812SOL    HW211461   1.004   5.200   8.023
 3813SOL     OW11462   0.351   5.525   8.301
 3813SOL    HW111463   0.401   5.439   8.307
 3813SOL    HW211464   0.416   5.602   8.298
 3814SOL     OW11465   1.795   4.790   8.321
 3814SOL    HW111466   1.733   4.775   8.245
 3814SOL    HW211467   1.743   4.801   8.406
 3815SOL     OW11468   1.227   5.274   8.954
 3815SOL    HW111469   1.233   5.197   9.018
 3815SOL    HW211470   1.175   5.248   8.874
 3816SOL     OW11471   0.321   4.667   7.690
 3816SOL    HW111472   0.403   4.706   7.648
 3816SOL    HW211473   0.294   4.585   7.641
 3817SOL     OW11474   1.458   4.459   8.176
 3817SOL    HW111475   1.453   4.394   8.251
 3817SOL    HW211476   1.538   4.518   8.189
 3818SOL     OW11477   0.461   4.990   9.175
 3818SOL    HW111478   0.411   4.991   9.089
 3818SOL    HW211479   0.398   4.972   9.251
 3819SOL     OW11480   1.111   5.500   7.685
 3819SOL    HW111481   1.051   5.438   7.735
 3819SOL    HW211482   1.142   5.456   7.600
 3820SOL     OW11483   0.202   4.009   8.946
 3820SOL    HW111484   0.122   4.069   8.933
 3820SOL    HW211485   0.192   3.960   9.032
 3821SOL     OW11486   1.632   5.101   7.529
 3821SOL    HW111487   1.600   5.195   7.519
 3821SOL    HW211488   1.556   5.038   7.517
 3822SOL     OW11489   0.464   5.467   7.771
 3822SOL    HW111490   0.497   5.506   7.857
 3822SOL    HW211491   0.540   5.460   7.706
 3823SOL     OW11492   1.400   3.831   7.874
 3823SOL    HW111493   1.376   3.794   7.784
 3823SOL    HW211494   1.499   3.847   7.878
 3824SOL     OW11495   0.249   5.509   8.689
 3824SOL    HW111496   0.306   5.444   8.739
 3824SOL    HW211497   0.233   5.476   8.596
 3825SOL     OW11498   0.940   5.422   8.352
 3825SOL    HW111499   1.020   5.365   8.373
 3825SOL    HW211500   0.891   5.382   8.275
 3826SOL     OW11501   0.382   4.424   7.928
 3826SOL    HW111502   0.427   4.334   7.925
 3826SOL    HW211503   0.288   4.413   7.961
 3827SOL     OW11504   1.547   3.946   9.177
 3827SOL    HW111505   1.542   3.983   9.269
 3827SOL    HW211506   1.475   3.877   9.165
 3828SOL     OW11507   0.614   3.846   7.565
 3828SOL    HW111508   0.712   3.824   7.572
 3828SOL    HW211509   0.583   3.829   7.472
 3829SOL     OW11510   0.781   3.988   9.197
 3829SOL    HW111511   0.848   3.927   9.240
 3829SOL    HW211512   0.708   4.007   9.262
 3830SOL     OW11513   0.888   5.238   8.643
 3830SOL    HW111514   0.865   5.213   8.549
 3830SOL    HW211515   0.949   5.169   8.682
 3831SOL     OW11516   1.351   4.314   8.881
 3831SOL    HW111517   1.379   4.271   8.966
 3831SOL    HW211518   1.376   4.410   8.882
 3832SOL     OW11519   0.803   5.126   8.372
 3832SOL    HW111520   0.893   5.140   8.330
 3832SOL    HW211521   0.732   5.128   8.301
 3833SOL     OW11522   0.922   4.227   8.347
 3833SOL    HW111523   0.897   4.218   8.251
 3833SOL    HW211524   0.970   4.145   8.378
 3834SOL     OW11525   0.539   3.788   7.960
 3834SOL    HW111526   0.458   3.789   8.018
 3834SOL    HW211527   0.542   3.871   7.905
 3835SOL     OW11528   1.434   4.912   7.489
 3835SOL    HW111529   1.466   4.836   7.546
 3835SOL    HW211530   1.342   4.939   7.519
 3836SOL     OW11531   0.297   3.759   7.619
 3836SOL    HW111532   0.346   3.843   7.598
 3836SOL    HW211533   0.359   3.694   7.664
 3837SOL     OW11534   0.935   3.960   7.928
 3837SOL    HW111535   0.887   4.001   7.850
 3837SOL    HW211536   1.034   3.958   7.909
 3838SOL     OW11537   1.076   4.407   8.912
 3838SOL    HW111538   0.996   4.346   8.915
 3838SOL    HW211539   1.157   4.354   8.888
 3839SOL     OW11540   1.227   5.294   8.241
 3839SOL    HW111541   1.248   5.368   8.176
 3839SOL    HW211542   1.295   5.294   8.314
 3840SOL     OW11543   0.459   4.876   8.189
 3840SOL    HW111544   0.388   4.849   8.254
 3840SOL    HW211545   0.433   4.848   8.096
 3841SOL     OW11546   1.271   5.521   8.039
 3841SOL    HW111547   1.315   5.585   7.975
 3841SOL    HW211548   1.221   5.573   8.109
 3842SOL     OW11549   1.032   4.273   7.464
 3842SOL    HW111550   0.991   4.355   7.425
 3842SOL    HW211551   1.096   4.299   7.537
 3843SOL     OW11552   0.078   4.280   8.834
 3843SOL    HW111553   0.170   4.279   8.793
 3843SOL    HW211554   0.072   4.354   8.901
 3844SOL     OW11555   0.561   3.946   8.595
 3844SOL    HW111556   0.599   3.862   8.632
 3844SOL    HW211557   0.473   3.965   8.639
 3845SOL     OW11558   0.866   4.178   8.090
 3845SOL    HW111559   0.834   4.250   8.028
 3845SOL    HW211560   0.890   4.097   8.037
 3846SOL     OW11561   1.017   3.763   8.201
 3846SOL    HW111562   0.945   3.768   8.132
 3846SOL    HW211563   0.993   3.694   8.270
 3847SOL     OW11564   1.429   4.897   8.315
 3847SOL    HW111565   1.374   4.813   8.308
 3847SOL    HW211566   1.455   4.926   8.223
 3848SOL     OW11567   1.466   4.314   8.440
 3848SOL    HW111568   1.436   4.219   8.447
 3848SOL    HW211569   1.539   4.330   8.506
 3849SOL     OW11570   1.857   4.557   7.825
 3849SOL    HW111571   1.899   4.493   7.889
 3849SOL    HW211572   1.819   4.506   7.747
 3850SOL     OW11573   0.488   5.109   7.622
 3850SOL    HW111574   0.401   5.094   7.669
 3850SOL    HW211575   0.471   5.135   7.527
 3851SOL     OW11576   1.664   5.004   8.105
 3851SOL    HW111577   1.763   5.012   8.119
 3851SOL    HW211578   1.619   5.088   8.136
 3852SOL     OW11579   1.390   4.299   7.526
 3852SOL    HW111580   1.336   4.278   7.607
 3852SOL    HW211581   1.481   4.258   7.535
 3853SOL     OW11582   0.527   3.980   7.776
 3853SOL    HW111583   0.554   3.921   7.701
 3853SOL    HW211584   0.527   4.075   7.745
 3854SOL     OW11585   1.754   4.947   9.036
 3854SOL    HW111586   1.845   4.908   9.023
 3854SOL    HW211587   1.762   5.043   9.060
 3855SOL     OW11588   1.064   5.071   8.788
 3855SOL    HW111589   0.984   5.048   8.843
 3855SOL    HW211590   1.147   5.045   8.837
 3856SOL     OW11591   1.592   5.353   9.073
 3856SOL    HW111592   1.619   5.387   8.983
 3856SOL    HW211593   1.671   5.315   9.119
 3857SOL     OW11594   1.111   4.919   8.548
 3857SOL    HW111595   1.071   4.963   8.629
 3857SOL    HW211596   1.070   4.956   8.465
 3858SOL     OW11597   1.638   4.823   8.527
 3858SOL    HW111598   1.643   4.904   8.586
 3858SOL    HW211599   1.552   4.825   8.476
 3859SOL     OW11600   0.915   3.813   8.850
 3859SOL    HW111601   0.940   3.793   8.755
 3859SOL    HW211602   0.987   3.869   8.892
 3860SOL     OW11603   0.980   4.840   9.167
 3860SOL    HW111604   0.881   4.846   9.177
 3860SOL    HW211605   1.003   4.760   9.111
 3861SOL     OW11606   0.705   4.774   7.816
 3861SOL    HW111607   0.691   4.781   7.915
 3861SOL    HW211608   0.789   4.723   7.798
 3862SOL     OW11609   0.410   4.537   8.699
 3862SOL    HW111610   0.496   4.549   8.749
 3862SOL    HW211611   0.368   4.450   8.726
 3863SOL     OW11612   1.274   4.110   8.710
 3863SOL    HW111613   1.295   4.184   8.774
 3863SOL    HW211614   1.185   4.127   8.667
 3864SOL     OW11615   0.064   5.288   8.779
 3864SOL    HW111616   0.018   5.370   8.745
 3864SOL    HW211617   0.162   5.307   8.788
 3865SOL     OW11618   0.367   4.824   7.949
 3865SOL    HW111619   0.360   4.907   7.893
 3865SOL    HW211620   0.371   4.744   7.889
 3866SOL     OW11621   0.566   4.261   8.313
 3866SOL    HW111622   0.578   4.327   8.239
 3866SOL    HW211623   0.612   4.295   8.396
 3867SOL     OW11624   1.252   5.072   7.836
 3867SOL    HW111625   1.302   5.149   7.876
 3867SOL    HW211626   1.157   5.074   7.868
 3868SOL     OW11627   1.272   5.169   8.590
 3868SOL    HW111628   1.319   5.182   8.677
 3868SOL    HW211629   1.206   5.095   8.599
 3869SOL     OW11630   1.582   4.363   7.920
 3869SOL    HW111631   1.551   4.424   7.993
 3869SOL    HW211632   1.632   4.415   7.851
 3870SOL     OW11633   0.354   5.234   8.777
 3870SOL    HW111634   0.333   5.190   8.690
 3870SOL    HW211635   0.451   5.260   8.780
 3871SOL     OW11636   0.402   4.475   9.046
 3871SOL    HW111637   0.470   4.530   8.999
 3871SOL    HW211638   0.442   4.387   9.073
 3872SOL     OW11639   1.587   4.503   9.118
 3872SOL    HW111640   1.495   4.541   9.113
 3872SOL    HW211641   1.647   4.550   9.053
 3873SOL     OW11642   1.013   3.829   9.218
 3873SOL    HW111643   1.019   3.914   9.166
 3873SOL    HW211644   1.045   3.753   9.161
 3874SOL     OW11645   0.504   3.774   9.188
 3874SOL    HW111646   0.462   3.717   9.118
 3874SOL    HW211647   0.438   3.843   9.220
 3875SOL     OW11648   0.573   4.594   8.477
 3875SOL    HW111649   0.617   4.683   8.468
 3875SOL    HW211650   0.510   4.594   8.554
 3876SOL     OW11651   1.360   4.586   8.493
 3876SOL    HW111652   1.285   4.586   8.427
 3876SOL    HW211653   1.397   4.494   8.502
 3877SOL     OW11654   1.209   4.249   7.723
 3877SOL    HW111655   1.222   4.165   7.777
 3877SOL    HW211656   1.180   4.323   7.783
 3878SOL     OW11657   0.307   3.937   8.679
 3878SOL    HW111658   0.284   3.974   8.769
 3878SOL    HW211659   0.277   3.842   8.673
 3879SOL     OW11660   0.037   5.034   8.730
 3879SOL    HW111661   0.090   4.985   8.798
 3879SOL    HW211662   0.059   5.132   8.735
 3880SOL     OW11663   0.732   4.358   8.512
 3880SOL    HW111664   0.791   4.332   8.436
 3880SOL    HW211665   0.704   4.454   8.501
 3881SOL     OW11666   1.728   4.659   9.302
 3881SOL    HW111667   1.682   4.652   9.213
 3881SOL    HW211668   1.666   4.703   9.368
 3882SOL     OW11669   0.307   3.787   8.066
 3882SOL    HW111670   0.296   3.881   8.099
 3882SOL    HW211671   0.302   3.724   8.143
 3883SOL     OW11672   1.622   4.091   7.822
 3883SOL    HW111673   1.624   4.015   7.886
 3883SOL    HW211674   1.574   4.168   7.862
 3884SOL     OW11675   1.023   4.490   8.414
 3884SOL    HW111676   1.038   4.511   8.510
 3884SOL    HW211677   0.993   4.395   8.405
 3885SOL     OW11678   0.980   5.297   9.148
 3885SOL    HW111679   0.960   5.341   9.060
 3885SOL    HW211680   1.019   5.206   9.132
 3886SOL     OW11681   1.859   5.242   9.053
 3886SOL    HW111682   1.873   5.269   8.958
 3886SOL    HW211683   1.942   5.264   9.106
 3887SOL     OW11684   0.350   4.622   9.252
 3887SOL    HW111685   0.426   4.666   9.300
 3887SOL    HW211686   0.385   4.575   9.170
 3888SOL     OW11687   1.540   3.998   7.573
 3888SOL    HW111688   1.479   3.923   7.596
 3888SOL    HW211689   1.562   4.050   7.656
 3889SOL     OW11690   1.303   4.562   7.490
 3889SOL    HW111691   1.337   4.469   7.505
 3889SOL    HW211692   1.321   4.589   7.395
 3890SOL     OW11693   1.068   5.057   8.297
 3890SOL    HW111694   1.075   4.973   8.242
 3890SOL    HW211695   1.130   5.126   8.261
 3891SOL     OW11696   0.319   4.534   8.397
 3891SOL    HW111697   0.412   4.570   8.402
 3891SOL    HW211698   0.313   4.449   8.449
 3892SOL     OW11699   0.339   4.233   8.454
 3892SOL    HW111700   0.287   4.150   8.437
 3892SOL    HW211701   0.416   4.238   8.390
 3893SOL     OW11702   1.138   4.104   9.126
 3893SOL    HW111703   1.093   4.167   9.190
 3893SOL    HW211704   1.231   4.135   9.109
 3894SOL     OW11705   1.160   3.931   8.925
 3894SOL    HW111706   1.160   3.995   9.002
 3894SOL    HW211707   1.188   3.979   8.842
 3895SOL     OW11708   0.008   5.050   7.648
 3895SOL    HW111709  -0.085   5.071   7.617
 3895SOL    HW211710   0.018   4.951   7.661
 3896SOL     OW11711   0.088   5.525   8.375
 3896SOL    HW111712   0.046   5.439   8.348
 3896SOL    HW211713   0.182   5.528   8.341
 3897SOL     OW11714   0.504   5.292   8.358
 3897SOL    HW111715   0.570   5.366   8.367
 3897SOL    HW211716   0.548   5.213   8.316
 3898SOL     OW11717   1.002   4.520   8.686
 3898SOL    HW111718   1.043   4.488   8.772
 3898SOL    HW211719   0.906   4.493   8.683
 3899SOL     OW11720   0.040   4.268   8.562
 3899SOL    HW111721   0.125   4.235   8.521
 3899SOL    HW211722   0.053   4.283   8.660
 3900SOL     OW11723   0.189   4.244   9.170
 3900SOL    HW111724   0.248   4.204   9.100
 3900SOL    HW211725   0.131   4.315   9.129
 3901SOL     OW11726   1.369   4.674   9.108
 3901SOL    HW111727   1.408   4.763   9.128
 3901SOL    HW211728   1.379   4.654   9.011
 3902SOL     OW11729   0.815   4.296   7.773
 3902SOL    HW111730   0.822   4.207   7.727
 3902SOL    HW211731   0.721   4.330   7.765
 3903SOL     OW11732   1.657   4.328   8.654
 3903SOL    HW111733   1.619   4.259   8.716
 3903SOL    HW211734   1.739   4.292   8.610
 3904SOL     OW11735   0.252   5.288   9.192
 3904SOL    HW111736   0.222   5.345   9.268
 3904SOL    HW211737   0.245   5.191   9.218
 3905SOL     OW11738   0.671   4.188   8.717
 3905SOL    HW111739   0.637   4.099   8.687
 3905SOL    HW211740   0.697   4.242   8.637
 3906SOL     OW11741   0.930   5.402   8.913
 3906SOL    HW111742   0.906   5.384   8.818
 3906SOL    HW211743   0.960   5.496   8.923
 3907SOL     OW11744   0.473   4.224   7.639
 3907SOL    HW111745   0.534   4.304   7.643
 3907SOL    HW211746   0.378   4.255   7.646
 3908SOL     OW11747   0.159   4.861   8.914
 3908SOL    HW111748   0.181   4.800   8.990
 3908SOL    HW211749   0.169   4.812   8.828
 3909SOL     OW11750   1.347   4.783   8.682
 3909SOL    HW111751   1.371   4.720   8.608
 3909SOL    HW211752   1.257   4.823   8.664
 3910SOL     OW11753   1.302   4.579   7.757
 3910SOL    HW111754   1.216   4.548   7.799
 3910SOL    HW211755   1.298   4.565   7.658
 3911SOL     OW11756   1.759   5.471   8.602
 3911SOL    HW111757   1.820   5.501   8.529
 3911SOL    HW211758   1.721   5.382   8.580
 3912SOL     OW11759   1.252   5.455   8.576
 3912SOL    HW111760   1.336   5.460   8.522
 3912SOL    HW211761   1.229   5.359   8.594
 3913SOL     OW11762   0.083   4.982   8.470
 3913SOL    HW111763   0.078   4.981   8.570
 3913SOL    HW211764   0.000   4.941   8.432
 3914SOL     OW11765   0.688   5.386   9.164
 3914SOL    HW111766   0.632   5.467   9.173
 3914SOL    HW211767   0.740   5.390   9.078
 3915SOL     OW11768   1.726   3.859   7.971
 3915SOL    HW111769   1.799   3.842   7.904
 3915SOL    HW211770   1.695   3.772   8.009
 3916SOL     OW11771   1.388   5.297   7.925
 3916SOL    HW111772   1.455   5.309   7.851
 3916SOL    HW211773   1.348   5.386   7.948
 3917SOL     OW11774   0.130   5.518   9.299
 3917SOL    HW111775   0.089   5.444   9.352
 3917SOL    HW211776   0.194   5.569   9.357
 3918SOL     OW11777   1.280   4.651   8.120
 3918SOL    HW111778   1.340   4.570   8.122
 3918SOL    HW211779   1.320   4.720   8.060
 3919SOL     OW11780   0.830   4.997   8.870
 3919SOL    HW111781   0.825   5.030   8.965
 3919SOL    HW211782   0.744   5.016   8.824
 3920SOL     OW11783   0.672   5.340   7.602
 3920SOL    HW111784   0.681   5.350   7.503
 3920SOL    HW211785   0.632   5.251   7.623
 3921SOL     OW11786   1.650   5.444   8.842
 3921SOL    HW111787   1.703   5.454   8.758
 3921SOL    HW211788   1.623   5.534   8.876
 3922SOL     OW11789   1.841   3.899   8.411
 3922SOL    HW111790   1.880   3.814   8.375
 3922SOL    HW211791   1.743   3.901   8.392
 3923SOL     OW11792   0.263   4.050   8.168
 3923SOL    HW111793   0.184   4.101   8.134
 3923SOL    HW211794   0.254   4.035   8.266
 3924SOL     OW11795   1.194   5.336   7.479
 3924SOL    HW111796   1.200   5.243   7.516
 3924SOL    HW211797   1.135   5.336   7.399
 3925SOL     OW11798   0.822   4.726   8.820
 3925SOL    HW111799   0.862   4.725   8.728
 3925SOL    HW211800   0.832   4.818   8.860
 3926SOL     OW11801   0.916   4.634   7.739
 3926SOL    HW111802   0.979   4.672   7.671
 3926SOL    HW211803   0.956   4.551   7.778
 3927SOL     OW11804   1.504   5.331   7.492
 3927SOL    HW111805   1.412   5.368   7.499
 3927SOL    HW211806   1.542   5.351   7.402
 3928SOL     OW11807   0.372   5.012   8.938
 3928SOL    HW111808   0.359   5.105   8.904
 3928SOL    HW211809   0.288   4.960   8.925
 3929SOL     OW11810   1.614   5.016   8.737
 3929SOL    HW111811   1.674   5.019   8.817
 3929SOL    HW211812   1.539   5.080   8.750
 3930SOL     OW11813   1.039   4.822   8.144
 3930SOL    HW111814   0.969   4.775   8.198
 3930SOL    HW211815   1.098   4.754   8.101
 3931SOL     OW11816   1.014   3.960   8.419
 3931SOL    HW111817   1.006   3.924   8.326
 3931SOL    HW211818   1.012   3.884   8.484
 3932SOL     OW11819   0.590   5.211   7.939
 3932SOL    HW111820   0.632   5.153   7.869
 3932SOL    HW211821   0.546   5.290   7.895
 3933SOL     OW11822   1.709   4.109   8.829
 3933SOL    HW111823   1.782   4.178   8.833
 3933SOL    HW211824   1.737   4.034   8.770
 3934SOL     OW11825   0.255   5.072   7.738
 3934SOL    HW111826   0.159   5.073   7.711
 3934SOL    HW211827   0.267   5.125   7.822
 3935SOL     OW11828   0.105   4.737   9.174
 3935SOL    HW111829   0.028   4.704   9.228
 3935SOL    HW211830   0.190   4.707   9.216
 3936SOL     OW11831   0.672   3.927   8.937
 3936SOL    HW111832   0.762   3.911   8.897
 3936SOL    HW211833   0.680   3.932   9.036
 3937SOL     OW11834   0.075   4.069   7.481
 3937SOL    HW111835  -0.017   4.041   7.452
 3937SOL    HW211836   0.106   4.146   7.425
 3938SOL     OW11837   1.440   4.580   8.846
 3938SOL    HW111838   1.383   4.632   8.783
 3938SOL    HW211839   1.536   4.592   8.822
 3939SOL     OW11840   0.072   3.890   7.766
 3939SOL    HW111841   0.055   3.973   7.712
 3939SOL    HW211842   0.162   3.853   7.744
 3940SOL     OW11843   1.183   5.059   7.567
 3940SOL    HW111844   1.084   5.048   7.569
 3940SOL    HW211845   1.217   5.074   7.660
 3941SOL     OW11846   0.613   4.566   8.879
 3941SOL    HW111847   0.669   4.647   8.862
 3941SOL    HW211848   0.672   4.486   8.882
 3942SOL     OW11849   1.493   5.491   8.407
 3942SOL    HW111850   1.526   5.555   8.338
 3942SOL    HW211851   1.559   5.485   8.482
 3943SOL     OW11852   0.716   4.289   9.156
 3943SOL    HW111853   0.735   4.354   9.230
 3943SOL    HW211854   0.776   4.209   9.165
 3944SOL     OW11855   1.450   4.944   9.081
 3944SOL    HW111856   1.441   4.934   9.180
 3944SOL    HW211857   1.546   4.937   9.055
 3945SOL     OW11858   0.390   5.465   9.008
 3945SOL    HW111859   0.299   5.506   9.006
 3945SOL    HW211860   0.383   5.371   9.040
 3946SOL     OW11861   1.674   4.607   8.702
 3946SOL    HW111862   1.647   4.518   8.665
 3946SOL    HW211863   1.675   4.675   8.629
 3947SOL     OW11864   1.225   4.049   7.897
 3947SOL    HW111865   1.290   3.975   7.886
 3947SOL    HW211866   1.245   4.099   7.981
 3948SOL     OW11867   0.594   4.469   8.100
 3948SOL    HW111868   0.644   4.554   8.081
 3948SOL    HW211869   0.506   4.471   8.052
 3949SOL     OW11870   1.777   4.066   9.090
 3949SOL    HW111871   1.760   4.097   8.996
 3949SOL    HW211872   1.693   4.029   9.128
 3950SOL     OW11873   1.730   4.658   8.965
 3950SOL    HW111874   1.768   4.749   8.980
 3950SOL    HW211875   1.722   4.641   8.866
 3951SOL     OW11876   0.859   5.098   7.464
 3951SOL    HW111877   0.813   5.113   7.552
 3951SOL    HW211878   0.903   5.183   7.434
 3952SOL     OW11879   0.661   5.514   8.401
 3952SOL    HW111880   0.615   5.602   8.388
 3952SOL    HW211881   0.760   5.526   8.394
 3953SOL     OW11882   0.859   4.680   8.309
 3953SOL    HW111883   0.913   4.611   8.357
 3953SOL    HW211884   0.827   4.749   8.375
 3954SOL     OW11885   1.083   4.708   7.535
 3954SOL    HW111886   1.060   4.761   7.453
 3954SOL    HW211887   1.164   4.652   7.516
 3955SOL     OW11888   1.861   5.293   8.299
 3955SOL    HW111889   1.790   5.281   8.229
 3955SOL    HW211890   1.862   5.214   8.359
 3956SOL     OW11891   0.221   5.038   9.292
 3956SOL    HW111892   0.156   4.965   9.271
 3956SOL    HW211893   0.225   5.052   9.390
 3957SOL     OW11894   0.079   4.964   8.101
 3957SOL    HW111895   0.078   4.917   8.189
 3957SOL    HW211896   0.161   4.936   8.050
 3958SOL     OW11897   0.672   5.115   9.072
 3958SOL    HW111898   0.594   5.065   9.110
 3958SOL    HW211899   0.669   5.210   9.103
 3959SOL     OW11900   1.824   3.916   8.675
 3959SOL    HW111901   1.820   3.826   8.719
 3959SOL    HW211902   1.827   3.905   8.576
 3960SOL     OW11903   0.428   4.148   7.968
 3960SOL    HW111904   0.458   4.076   7.906
 3960SOL    HW211905   0.389   4.108   8.051
 3961SOL     OW11906   1.705   5.211   8.552
 3961SOL    HW111907   1.612   5.186   8.525
 3961SOL    HW211908   1.731   5.161   8.634
 3962SOL     OW11909   0.317   4.271   8.728
 3962SOL    HW111910   0.355   4.212   8.800
 3962SOL    HW211911   0.357   4.245   8.640
 3963SOL     OW11912   0.812   5.310   8.135
 3963SOL    HW111913   0.844   5.320   8.041
 3963SOL    HW211914   0.733   5.248   8.137
 3964SOL     OW11915   1.424   3.938   8.560
 3964SOL    HW111916   1.476   3.873   8.615
 3964SOL    HW211917   1.375   4.001   8.621
 3965SOL     OW11918   1.001   3.758   8.602
 3965SOL    HW111919   0.938   3.686   8.571
 3965SOL    HW211920   1.094   3.722   8.602
 3966SOL     OW11921   0.770   5.054   7.749
 3966SOL    HW111922   0.724   4.967   7.766
 3966SOL    HW211923   0.861   5.051   7.790
 3967SOL     OW11924   0.618   5.291   8.732
 3967SOL    HW111925   0.613   5.373   8.789
 3967SOL    HW211926   0.707   5.288   8.687
 3968SOL     OW11927   1.352   3.776   7.616
 3968SOL    HW111928   1.387   3.735   7.532
 3968SOL    HW211929   1.262   3.738   7.636
 3969SOL     OW11930   1.300   4.177   8.139
 3969SOL    HW111931   1.241   4.257   8.143
 3969SOL    HW211932   1.315   4.142   8.232
 3970SOL     OW11933   1.593   3.945   8.330
 3970SOL    HW111934   1.509   3.944   8.384
 3970SOL    HW211935   1.595   4.028   8.274
 3971SOL     OW11936   0.039   4.801   7.748
 3971SOL    HW111937   0.138   4.790   7.739
 3971SOL    HW211938  -0.001   4.715   7.780
 3972SOL     OW11939   0.875   5.370   7.785
 3972SOL    HW111940   0.798   5.335   7.731
 3972SOL    HW211941   0.843   5.441   7.847
 3973SOL     OW11942   0.230   4.352   9.423
 3973SOL    HW111943   0.137   4.350   9.460
 3973SOL    HW211944   0.231   4.313   9.331
 3974SOL     OW11945   0.225   3.999  10.306
 3974SOL    HW111946   0.260   3.982  10.398
 3974SOL    HW211947   0.137   3.954  10.294
 3975SOL     OW11948   0.019   4.092   9.957
 3975SOL    HW111949  -0.063   4.135   9.996
 3975SOL    HW211950  -0.009   4.019   9.894
 3976SOL     OW11951   0.569   4.999  10.475
 3976SOL    HW111952   0.476   4.992  10.438
 3976SOL    HW211953   0.580   5.088  10.519
 3977SOL     OW11954   1.555   5.235  10.013
 3977SOL    HW111955   1.498   5.219  10.094
 3977SOL    HW211956   1.496   5.245   9.933
 3978SOL     OW11957   1.135   4.427  10.027
 3978SOL    HW111958   1.192   4.505  10.002
 3978SOL    HW211959   1.075   4.453  10.103
 3979SOL     OW11960   1.755   4.331   9.541
 3979SOL    HW111961   1.743   4.318   9.442
 3979SOL    HW211962   1.725   4.250   9.590
 3980SOL     OW11963   0.768   4.868  10.333
 3980SOL    HW111964   0.690   4.885  10.393
 3980SOL    HW211965   0.802   4.955  10.297
 3981SOL     OW11966   0.850   4.522  11.133
 3981SOL    HW111967   0.846   4.598  11.198
 3981SOL    HW211968   0.872   4.558  11.042
 3982SOL     OW11969   0.685   4.736   9.975
 3982SOL    HW111970   0.754   4.720  10.045
 3982SOL    HW211971   0.612   4.793  10.013
 3983SOL     OW11972   0.686   4.885  11.113
 3983SOL    HW111973   0.746   4.964  11.127
 3983SOL    HW211974   0.600   4.916  11.072
 3984SOL     OW11975   0.335   5.159  10.371
 3984SOL    HW111976   0.257   5.128  10.318
 3984SOL    HW211977   0.393   5.217  10.314
 3985SOL     OW11978   1.460   5.229  10.649
 3985SOL    HW111979   1.484   5.323  10.675
 3985SOL    HW211980   1.444   5.175  10.731
 3986SOL     OW11981   0.438   4.116  10.809
 3986SOL    HW111982   0.520   4.060  10.818
 3986SOL    HW211983   0.357   4.058  10.813
 3987SOL     OW11984   1.603   4.171  10.047
 3987SOL    HW111985   1.529   4.217   9.997
 3987SOL    HW211986   1.654   4.239  10.100
 3988SOL     OW11987   0.231   5.437   9.793
 3988SOL    HW111988   0.265   5.514   9.847
 3988SOL    HW211989   0.275   5.437   9.703
 3989SOL     OW11990   1.127   5.065  11.000
 3989SOL    HW111991   1.174   5.065  11.088
 3989SOL    HW211992   1.079   4.978  10.989
 3990SOL     OW11993   0.230   5.158   9.848
 3990SOL    HW111994   0.204   5.254   9.848
 3990SOL    HW211995   0.159   5.104   9.893
 3991SOL     OW11996   0.240   4.815  10.196
 3991SOL    HW111997   0.254   4.731  10.248
 3991SOL    HW211998   0.185   4.879  10.251
 3992SOL     OW11999   0.620   5.510  10.749
 3992SOL    HW112000   0.528   5.493  10.784
 3992SOL    HW212001   0.648   5.602  10.775
 3993SOL     OW12002   0.606   4.688   9.433
 3993SOL    HW112003   0.613   4.772   9.379
 3993SOL    HW212004   0.652   4.701   9.521
 3994SOL     OW12005   1.594   3.838  10.790
 3994SOL    HW112006   1.576   3.905  10.718
 3994SOL    HW212007   1.591   3.884  10.879
 3995SOL     OW12008   0.122   4.367   9.873
 3995SOL    HW112009   0.077   4.279   9.890
 3995SOL    HW212010   0.121   4.421   9.957
 3996SOL     OW12011   1.842   5.491   9.669
 3996SOL    HW112012   1.896   5.462   9.749
 3996SOL    HW212013   1.872   5.581   9.640
 3997SOL     OW12014   0.027   5.320   9.427
 3997SOL    HW112015   0.008   5.224   9.448
 3997SOL    HW212016  -0.006   5.378   9.502
 3998SOL     OW12017   1.689   4.646   9.922
 3998SOL    HW112018   1.784   4.617   9.930
 3998SOL    HW212019   1.681   4.711   9.847
 3999SOL     OW12020   1.641   4.832   9.742
 3999SOL    HW112021   1.727   4.834   9.690
 3999SOL    HW212022   1.655   4.879   9.830
 4000SOL     OW12023   0.113   4.461  10.907
 4000SOL    HW112024   0.201   4.448  10.952
 4000SOL    HW212025   0.100   4.558  10.885
 4001SOL     OW12026   0.613   5.089  10.036
 4001SOL    HW112027   0.564   5.002  10.045
 4001SOL    HW212028   0.590   5.132   9.949
 4002SOL     OW12029   1.293   4.952  10.733
 4002SOL    HW112030   1.330   4.879  10.675
 4002SOL    HW212031   1.345   4.957  10.818
 4003SOL     OW12032   0.809   3.728   9.812
 4003SOL    HW112033   0.849   3.819   9.803
 4003SOL    HW212034   0.709   3.736   9.818
 4004SOL     OW12035   0.197   4.700  10.574
 4004SOL    HW112036   0.286   4.655  10.560
 4004SOL    HW212037   0.124   4.635  10.555
 4005SOL     OW12038   1.525   4.723   9.500
 4005SOL    HW112039   1.462   4.647   9.513
 4005SOL    HW212040   1.573   4.741   9.586
 4006SOL     OW12041   1.187   5.516  10.926
 4006SOL    HW112042   1.211   5.576  10.850
 4006SOL    HW212043   1.194   5.421  10.896
 4007SOL     OW12044   0.317   3.975  11.111
 4007SOL    HW112045   0.388   4.046  11.117
 4007SOL    HW212046   0.229   4.014  11.139
 4008SOL     OW12047   1.466   5.141  10.263
 4008SOL    HW112048   1.407   5.147  10.343
 4008SOL    HW212049   1.451   5.053  10.217
 4009SOL     OW12050   1.667   5.438   9.882
 4009SOL    HW112051   1.626   5.415   9.794
 4009SOL    HW212052   1.649   5.364   9.947
 4010SOL     OW12053   0.598   4.453   9.580
 4010SOL    HW112054   0.622   4.522   9.512
 4010SOL    HW212055   0.520   4.486   9.634
 4011SOL     OW12056   1.281   4.069  10.254
 4011SOL    HW112057   1.195   4.019  10.241
 4011SOL    HW212058   1.343   4.015  10.310
 4012SOL     OW12059   1.576   5.386   9.617
 4012SOL    HW112060   1.665   5.432   9.620
 4012SOL    HW212061   1.555   5.362   9.522
 4013SOL     OW12062   0.807   4.329  10.775
 4013SOL    HW112063   0.760   4.326  10.864
 4013SOL    HW212064   0.756   4.274  10.709
 4014SOL     OW12065   1.394   4.193  10.984
 4014SOL    HW112066   1.374   4.236  11.072
 4014SOL    HW212067   1.472   4.131  10.993
 4015SOL     OW12068   0.973   4.614  10.882
 4015SOL    HW112069   1.019   4.530  10.853
 4015SOL    HW212070   0.917   4.648  10.807
 4016SOL     OW12071   0.991   4.134  10.552
 4016SOL    HW112072   0.914   4.168  10.606
 4016SOL    HW212073   0.957   4.083  10.473
 4017SOL     OW12074   1.041   4.425   9.739
 4017SOL    HW112075   1.067   4.421   9.835
 4017SOL    HW212076   0.956   4.374   9.725
 4018SOL     OW12077   0.076   4.535  10.099
 4018SOL    HW112078   0.175   4.523  10.108
 4018SOL    HW212079   0.052   4.630  10.120
 4019SOL     OW12080   0.130   5.545  10.881
 4019SOL    HW112081   0.120   5.530  10.980
 4019SOL    HW212082   0.044   5.581  10.845
 4020SOL     OW12083   0.865   4.072   9.505
 4020SOL    HW112084   0.924   4.135   9.456
 4020SOL    HW212085   0.884   3.978   9.476
 4021SOL     OW12086   1.719   4.309  11.141
 4021SOL    HW112087   1.693   4.398  11.105
 4021SOL    HW212088   1.717   4.241  11.068
 4022SOL     OW12089   1.362   4.868   9.855
 4022SOL    HW112090   1.445   4.839   9.807
 4022SOL    HW212091   1.313   4.935   9.799
 4023SOL     OW12092   0.550   3.920  10.195
 4023SOL    HW112093   0.545   3.915  10.295
 4023SOL    HW212094   0.552   4.016  10.166
 4024SOL     OW12095   1.008   5.180   9.787
 4024SOL    HW112096   0.962   5.252   9.735
 4024SOL    HW212097   1.004   5.200   9.885
 4025SOL     OW12098   0.351   5.525  10.163
 4025SOL    HW112099   0.401   5.439  10.169
 4025SOL    HW212100   0.416   5.602  10.160
 4026SOL     OW12101   1.795   4.790  10.183
 4026SOL    HW112102   1.733   4.775  10.107
 4026SOL    HW212103   1.743   4.801  10.268
 4027SOL     OW12104   1.227   5.274  10.816
 4027SOL    HW112105   1.233   5.197  10.880
 4027SOL    HW212106   1.175   5.248  10.736
 4028SOL     OW12107   0.321   4.667   9.552
 4028SOL    HW112108   0.403   4.706   9.510
 4028SOL    HW212109   0.294   4.585   9.503
 4029SOL     OW12110   1.458   4.459  10.038
 4029SOL    HW112111   1.453   4.394  10.113
 4029SOL    HW212112   1.538   4.518  10.051
 4030SOL     OW12113   0.461   4.990  11.037
 4030SOL    HW112114   0.411   4.991  10.951
 4030SOL    HW212115   0.398   4.972  11.113
 4031SOL     OW12116   1.111   5.500   9.547
 4031SOL    HW112117   1.051   5.438   9.597
 4031SOL    HW212118   1.142   5.456   9.462
 4032SOL     OW12119   0.202   4.009  10.808
 4032SOL    HW112120   0.122   4.069  10.795
 4032SOL    HW212121   0.192   3.960  10.894
 4033SOL     OW12122   1.632   5.101   9.391
 4033SOL    HW112123   1.600   5.195   9.381
 4033SOL    HW212124   1.556   5.038   9.379
 4034SOL     OW12125   0.464   5.467   9.633
 4034SOL    HW112126   0.497   5.506   9.719
 4034SOL    HW212127   0.540   5.460   9.568
 4035SOL     OW12128   1.400   3.831   9.736
 4035SOL    HW112129   1.376   3.794   9.646
 4035SOL    HW212130   1.499   3.847   9.740
 4036SOL     OW12131   0.249   5.509  10.551
 4036SOL    HW112132   0.306   5.444  10.601
 4036SOL    HW212133   0.233   5.476  10.458
 4037SOL     OW12134   0.940   5.422  10.214
 4037SOL    HW112135   1.020   5.365  10.235
 4037SOL    HW212136   0.891   5.382  10.137
 4038SOL     OW12137   0.382   4.424   9.790
 4038SOL    HW112138   0.427   4.334   9.787
 4038SOL    HW212139   0.288   4.413   9.823
 4039SOL     OW12140   1.547   3.946  11.039
 4039SOL    HW112141   1.542   3.983  11.131
 4039SOL    HW212142   1.475   3.877  11.027
 4040SOL     OW12143   0.614   3.846   9.427
 4040SOL    HW112144   0.712   3.824   9.434
 4040SOL    HW212145   0.583   3.829   9.334
 4041SOL     OW12146   0.781   3.988  11.059
 4041SOL    HW112147   0.848   3.927  11.102
 4041SOL    HW212148   0.708   4.007  11.124
 4042SOL     OW12149   0.888   5.238  10.505
 4042SOL    HW112150   0.865   5.213  10.411
 4042SOL    HW212151   0.949   5.169  10.544
 4043SOL     OW12152   1.351   4.314  10.743
 4043SOL    HW112153   1.379   4.271  10.828
 4043SOL    HW212154   1.376   4.410  10.744
 4044SOL     OW12155   0.803   5.126  10.234
 4044SOL    HW112156   0.893   5.140  10.192
 4044SOL    HW212157   0.732   5.128  10.163
 4045SOL     OW12158   0.922   4.227  10.209
 4045SOL    HW112159   0.897   4.218  10.113
 4045SOL    HW212160   0.970   4.145  10.240
 4046SOL     OW12161   0.539   3.788   9.822
 4046SOL    HW112162   0.458   3.789   9.880
 4046SOL    HW212163   0.542   3.871   9.767
 4047SOL     OW12164   1.434   4.912   9.351
 4047SOL    HW112165   1.466   4.836   9.408
 4047SOL    HW212166   1.342   4.939   9.381
 4048SOL     OW12167   0.297   3.759   9.481
 4048SOL    HW112168   0.346   3.843   9.460
 4048SOL    HW212169   0.359   3.694   9.526
 4049SOL     OW12170   0.935   3.960   9.790
 4049SOL    HW112171   0.887   4.001   9.712
 4049SOL    HW212172   1.034   3.958   9.771
 4050SOL     OW12173   1.076   4.407  10.774
 4050SOL    HW112174   0.996   4.346  10.777
 4050SOL    HW212175   1.157   4.354  10.750
 4051SOL     OW12176   1.227   5.294  10.103
 4051SOL    HW112177   1.248   5.368  10.038
 4051SOL    HW212178   1.295   5.294  10.176
 4052SOL     OW12179   0.459   4.876  10.051
 4052SOL    HW112180   0.388   4.849  10.116
 4052SOL    HW212181   0.433   4.848   9.958
 4053SOL     OW12182   1.271   5.521   9.901
 4053SOL    HW112183   1.315   5.585   9.837
 4053SOL    HW212184   1.221   5.573   9.971
 4054SOL     OW12185   1.032   4.273   9.326
 4054SOL    HW112186   0.991   4.355   9.287
 4054SOL    HW212187   1.096   4.299   9.399
 4055SOL     OW12188   0.078   4.280  10.696
 4055SOL    HW112189   0.170   4.279  10.655
 4055SOL    HW212190   0.072   4.354  10.763
 4056SOL     OW12191   0.561   3.946  10.457
 4056SOL    HW112192   0.599   3.862  10.494
 4056SOL    HW212193   0.473   3.965  10.501
 4057SOL     OW12194   0.866   4.178   9.952
 4057SOL    HW112195   0.834   4.250   9.890
 4057SOL    HW212196   0.890   4.097   9.899
 4058SOL     OW12197   1.017   3.763  10.063
 4058SOL    HW112198   0.945   3.768   9.994
 4058SOL    HW212199   0.993   3.694  10.132
 4059SOL     OW12200   1.429   4.897  10.177
 4059SOL    HW112201   1.374   4.813  10.170
 4059SOL    HW212202   1.455   4.926  10.085
 4060SOL     OW12203   1.466   4.314  10.302
 4060SOL    HW112204   1.436   4.219  10.309
 4060SOL    HW212205   1.539   4.330  10.368
 4061SOL     OW12206   1.857   4.557   9.687
 4061SOL    HW112207   1.899   4.493   9.751
 4061SOL    HW212208   1.819   4.506   9.609
 4062SOL     OW12209   0.488   5.109   9.484
 4062SOL    HW112210   0.401   5.094   9.531
 4062SOL    HW212211   0.471   5.135   9.389
 4063SOL     OW12212   1.664   5.004   9.967
 4063SOL    HW112213   1.763   5.012   9.981
 4063SOL    HW212214   1.619   5.088   9.998
 4064SOL     OW12215   1.390   4.299   9.388
 4064SOL    HW112216   1.336   4.278   9.469
 4064SOL    HW212217   1.481   4.258   9.397
 4065SOL     OW12218   0.527   3.980   9.638
 4065SOL    HW112219   0.554   3.921   9.563
 4065SOL    HW212220   0.527   4.075   9.607
 4066SOL     OW12221   1.754   4.947  10.898
 4066SOL    HW112222   1.845   4.908  10.885
 4066SOL    HW212223   1.762   5.043  10.922
 4067SOL     OW12224   1.064   5.071  10.650
 4067SOL    HW112225   0.984   5.048  10.705
 4067SOL    HW212226   1.147   5.045  10.699
 4068SOL     OW12227   1.592   5.353  10.935
 4068SOL    HW112228   1.619   5.387  10.845
 4068SOL    HW212229   1.671   5.315  10.981
 4069SOL     OW12230   1.111   4.919  10.410
 4069SOL    HW112231   1.071   4.963  10.491
 4069SOL    HW212232   1.070   4.956  10.327
 4070SOL     OW12233   1.638   4.823  10.389
 4070SOL    HW112234   1.643   4.904  10.448
 4070SOL    HW212235   1.552   4.825  10.338
 4071SOL     OW12236   0.915   3.813  10.712
 4071SOL    HW112237   0.940   3.793  10.617
 4071SOL    HW212238   0.987   3.869  10.754
 4072SOL     OW12239   0.980   4.840  11.029
 4072SOL    HW112240   0.881   4.846  11.039
 4072SOL    HW212241   1.003   4.760  10.973
 4073SOL     OW12242   0.705   4.774   9.678
 4073SOL    HW112243   0.691   4.781   9.777
 4073SOL    HW212244   0.789   4.723   9.660
 4074SOL     OW12245   0.410   4.537  10.561
 4074SOL    HW112246   0.496   4.549  10.611
 4074SOL    HW212247   0.368   4.450  10.588
 4075SOL     OW12248   1.274   4.110  10.572
 4075SOL    HW112249   1.295   4.184  10.636
 4075SOL    HW212250   1.185   4.127  10.529
 4076SOL     OW12251   0.064   5.288  10.641
 4076SOL    HW112252   0.018   5.370  10.607
 4076SOL    HW212253   0.162   5.307  10.650
 4077SOL     OW12254   0.367   4.824   9.811
 4077SOL    HW112255   0.360   4.907   9.755
 4077SOL    HW212256   0.371   4.744   9.751
 4078SOL     OW12257   0.566   4.261  10.175
 4078SOL    HW112258   0.578   4.327  10.101
 4078SOL    HW212259   0.612   4.295  10.258
 4079SOL     OW12260   1.252   5.072   9.698
 4079SOL    HW112261   1.302   5.149   9.738
 4079SOL    HW212262   1.157   5.074   9.730
 4080SOL     OW12263   1.272   5.169  10.452
 4080SOL    HW112264   1.319   5.182  10.539
 4080SOL    HW212265   1.206   5.095  10.461
 4081SOL     OW12266   1.582   4.363   9.782
 4081SOL    HW112267   1.551   4.424   9.855
 4081SOL    HW212268   1.632   4.415   9.713
 4082SOL     OW12269   0.354   5.234  10.639
 4082SOL    HW112270   0.333   5.190  10.552
 4082SOL    HW212271   0.451   5.260  10.642
 4083SOL     OW12272   0.402   4.475  10.908
 4083SOL    HW112273   0.470   4.530  10.861
 4083SOL    HW212274   0.442   4.387  10.935
 4084SOL     OW12275   1.587   4.503  10.980
 4084SOL    HW112276   1.495   4.541  10.975
 4084SOL    HW212277   1.647   4.550  10.915
 4085SOL     OW12278   1.013   3.829  11.080
 4085SOL    HW112279   1.019   3.914  11.028
 4085SOL    HW212280   1.045   3.753  11.023
 4086SOL     OW12281   0.504   3.774  11.050
 4086SOL    HW112282   0.462   3.717  10.980
 4086SOL    HW212283   0.438   3.843  11.082
 4087SOL     OW12284   0.573   4.594  10.339
 4087SOL    HW112285   0.617   4.683  10.330
 4087SOL    HW212286   0.510   4.594  10.416
 4088SOL     OW12287   1.360   4.586  10.355
 4088SOL    HW112288   1.285   4.586  10.289
 4088SOL    HW212289   1.397   4.494  10.364
 4089SOL     OW12290   1.209   4.249   9.585
 4089SOL    HW112291   1.222   4.165   9.639
 4089SOL    HW212292   1.180   4.323   9.645
 4090SOL     OW12293   0.307   3.937  10.541
 4090SOL    HW112294   0.284   3.974  10.631
 4090SOL    HW212295   0.277   3.842  10.535
 4091SOL     OW12296   0.037   5.034  10.592
 4091SOL    HW112297   0.090   4.985  10.660
 4091SOL    HW212298   0.059   5.132  10.597
 4092SOL     OW12299   0.732   4.358  10.374
 4092SOL    HW112300   0.791   4.332  10.298
 4092SOL    HW212301   0.704   4.454  10.363
 4093SOL     OW12302   1.728   4.659  11.164
 4093SOL    HW112303   1.682   4.652  11.075
 4093SOL    HW212304   1.666   4.703  11.230
 4094SOL     OW12305   0.307   3.787   9.928
 4094SOL    HW112306   0.296   3.881   9.961
 4094SOL    HW212307   0.302   3.724  10.005
 4095SOL     OW12308   1.622   4.091   9.684
 4095SOL    HW112309   1.624   4.015   9.748
 4095SOL    HW212310   1.574   4.168   9.724
 4096SOL     OW12311   1.023   4.490  10.276
 4096SOL    HW112312   1.038   4.511  10.372
 4096SOL    HW212313   0.993   4.395  10.267
 4097SOL     OW12314   0.980   5.297  11.010
 4097SOL    HW112315   0.960   5.341  10.922
 4097SOL    HW212316   1.019   5.206  10.994
 4098SOL     OW12317   1.859   5.242  10.915
 4098SOL    HW112318   1.873   5.269  10.820
 4098SOL    HW212319   1.942   5.264  10.968
 4099SOL     OW12320   0.350   4.622  11.114
 4099SOL    HW112321   0.426   4.666  11.162
 4099SOL    HW212322   0.385   4.575  11.032
 4100SOL     OW12323   1.540   3.998   9.435
 4100SOL    HW112324   1.479   3.923   9.458
 4100SOL    HW212325   1.562   4.050   9.518
 4101SOL     OW12326   1.303   4.562   9.352
 4101SOL    HW112327   1.337   4.469   9.367
 4101SOL    HW212328   1.321   4.589   9.257
 4102SOL     OW12329   1.068   5.057  10.159
 4102SOL    HW112330   1.075   4.973  10.104
 4102SOL    HW212331   1.130   5.126  10.123
 4103SOL     OW12332   0.319   4.534  10.259
 4103SOL    HW112333   0.412   4.570  10.264
 4103SOL    HW212334   0.313   4.449  10.311
 4104SOL     OW12335   0.339   4.233  10.316
 4104SOL    HW112336   0.287   4.150  10.299
 4104SOL    HW212337   0.416   4.238  10.252
 4105SOL     OW12338   1.138   4.104  10.988
 4105SOL    HW112339   1.093   4.167  11.052
 4105SOL    HW212340   1.231   4.135  10.971
 4106SOL     OW12341   1.160   3.931  10.787
 4106SOL    HW112342   1.160   3.995  10.864
 4106SOL    HW212343   1.188   3.979  10.704
 4107SOL     OW12344   0.008   5.050   9.510
 4107SOL    HW112345  -0.085   5.071   9.479
 4107SOL    HW212346   0.018   4.951   9.523
 4108SOL     OW12347   0.088   5.525  10.237
 4108SOL    HW112348   0.046   5.439  10.210
 4108SOL    HW212349   0.182   5.528  10.203
 4109SOL     OW12350   0.504   5.292  10.220
 4109SOL    HW112351   0.570   5.366  10.229
 4109SOL    HW212352   0.548   5.213  10.178
 4110SOL     OW12353   1.002   4.520  10.548
 4110SOL    HW112354   1.043   4.488  10.634
 4110SOL    HW212355   0.906   4.493  10.545
 4111SOL     OW12356   0.040   4.268  10.424
 4111SOL    HW112357   0.125   4.235  10.383
 4111SOL    HW212358   0.053   4.283  10.522
 4112SOL     OW12359   0.189   4.244  11.032
 4112SOL    HW112360   0.248   4.204  10.962
 4112SOL    HW212361   0.131   4.315  10.991
 4113SOL     OW12362   1.369   4.674  10.970
 4113SOL    HW112363   1.408   4.763  10.990
 4113SOL    HW212364   1.379   4.654  10.873
 4114SOL     OW12365   0.815   4.296   9.635
 4114SOL    HW112366   0.822   4.207   9.589
 4114SOL    HW212367   0.721   4.330   9.627
 4115SOL     OW12368   1.657   4.328  10.516
 4115SOL    HW112369   1.619   4.259  10.578
 4115SOL    HW212370   1.739   4.292  10.472
 4116SOL     OW12371   0.252   5.288  11.054
 4116SOL    HW112372   0.222   5.345  11.130
 4116SOL    HW212373   0.245   5.191  11.080
 4117SOL     OW12374   0.671   4.188  10.579
 4117SOL    HW112375   0.637   4.099  10.549
 4117SOL    HW212376   0.697   4.242  10.499
 4118SOL     OW12377   0.930   5.402  10.775
 4118SOL    HW112378   0.906   5.384  10.680
 4118SOL    HW212379   0.960   5.496  10.785
 4119SOL     OW12380   0.473   4.224   9.501
 4119SOL    HW112381   0.534   4.304   9.505
 4119SOL    HW212382   0.378   4.255   9.508
 4120SOL     OW12383   0.159   4.861  10.776
 4120SOL    HW112384   0.181   4.800  10.852
 4120SOL    HW212385   0.169   4.812  10.690
 4121SOL     OW12386   1.347   4.783  10.544
 4121SOL    HW112387   1.371   4.720  10.470
 4121SOL    HW212388   1.257   4.823  10.526
 4122SOL     OW12389   1.302   4.579   9.619
 4122SOL    HW112390   1.216   4.548   9.661
 4122SOL    HW212391   1.298   4.565   9.520
 4123SOL     OW12392   1.759   5.471  10.464
 4123SOL    HW112393   1.820   5.501  10.391
 4123SOL    HW212394   1.721   5.382  10.442
 4124SOL     OW12395   1.252   5.455  10.438
 4124SOL    HW112396   1.336   5.460  10.384
 4124SOL    HW212397   1.229   5.359  10.456
 4125SOL     OW12398   0.083   4.982  10.332
 4125SOL    HW112399   0.078   4.981  10.432
 4125SOL    HW212400   0.000   4.941  10.294
 4126SOL     OW12401   0.688   5.386  11.026
 4126SOL    HW112402   0.632   5.467  11.035
 4126SOL    HW212403   0.740   5.390  10.940
 4127SOL     OW12404   1.726   3.859   9.833
 4127SOL    HW112405   1.799   3.842   9.766
 4127SOL    HW212406   1.695   3.772   9.871
 4128SOL     OW12407   1.388   5.297   9.787
 4128SOL    HW112408   1.455   5.309   9.713
 4128SOL    HW212409   1.348   5.386   9.810
 4129SOL     OW12410   0.130   5.518  11.161
 4129SOL    HW112411   0.089   5.444  11.214
 4129SOL    HW212412   0.194   5.569  11.219
 4130SOL     OW12413   1.280   4.651   9.982
 4130SOL    HW112414   1.340   4.570   9.984
 4130SOL    HW212415   1.320   4.720   9.922
 4131SOL     OW12416   0.830   4.997  10.732
 4131SOL    HW112417   0.825   5.030  10.827
 4131SOL    HW212418   0.744   5.016  10.686
 4132SOL     OW12419   0.672   5.340   9.464
 4132SOL    HW112420   0.681   5.350   9.365
 4132SOL    HW212421   0.632   5.251   9.485
 4133SOL     OW12422   1.650   5.444  10.704
 4133SOL    HW112423   1.703   5.454  10.620
 4133SOL    HW212424   1.623   5.534  10.738
 4134SOL     OW12425   1.841   3.899  10.273
 4134SOL    HW112426   1.880   3.814  10.237
 4134SOL    HW212427   1.743   3.901  10.254
 4135SOL     OW12428   0.263   4.050  10.030
 4135SOL    HW112429   0.184   4.101   9.996
 4135SOL    HW212430   0.254   4.035  10.128
 4136SOL     OW12431   1.194   5.336   9.341
 4136SOL    HW112432   1.200   5.243   9.378
 4136SOL    HW212433   1.135   5.336   9.261
 4137SOL     OW12434   0.822   4.726  10.682
 4137SOL    HW112435   0.862   4.725  10.590
 4137SOL    HW212436   0.832   4.818  10.722
 4138SOL     OW12437   0.916   4.634   9.601
 4138SOL    HW112438   0.979   4.672   9.533
 4138SOL    HW212439   0.956   4.551   9.640
 4139SOL     OW12440   1.504   5.331   9.354
 4139SOL    HW112441   1.412   5.368   9.361
 4139SOL    HW212442   1.542   5.351   9.264
 4140SOL     OW12443   0.372   5.012  10.800
 4140SOL    HW112444   0.359   5.105  10.766
 4140SOL    HW212445   0.288   4.960  10.787
 4141SOL     OW12446   1.614   5.016  10.599
 4141SOL    HW112447   1.674   5.019  10.679
 4141SOL    HW212448   1.539   5.080  10.612
 4142SOL     OW12449   1.039   4.822  10.006
 4142SOL    HW112450   0.969   4.775  10.060
 4142SOL    HW212451   1.098   4.754   9.963
 4143SOL     OW12452   1.014   3.960  10.281
 4143SOL    HW112453   1.006   3.924  10.188
 4143SOL    HW212454   1.012   3.884  10.346
 4144SOL     OW12455   0.590   5.211   9.801
 4144SOL    HW112456   0.632   5.153   9.731
 4144SOL    HW212457   0.546   5.290   9.757
 4145SOL     OW12458   1.709   4.109  10.691
 4145SOL    HW112459   1.782   4.178  10.695
 4145SOL    HW212460   1.737   4.034  10.632
 4146SOL     OW12461   0.255   5.072   9.600
 4146SOL    HW112462   0.159   5.073   9.573
 4146SOL    HW212463   0.267   5.125   9.684
 4147SOL     OW12464   0.105   4.737  11.036
 4147SOL    HW112465   0.028   4.704  11.090
 4147SOL    HW212466   0.190   4.707  11.078
 4148SOL     OW12467   0.672   3.927  10.799
 4148SOL    HW112468   0.762   3.911  10.759
 4148SOL    HW212469   0.680   3.932  10.898
 4149SOL     OW12470   0.075   4.069   9.343
 4149SOL    HW112471  -0.017   4.041   9.314
 4149SOL    HW212472   0.106   4.146   9.287
 4150SOL     OW12473   1.440   4.580  10.708
 4150SOL    HW112474   1.383   4.632  10.645
 4150SOL    HW212475   1.536   4.592  10.684
 4151SOL     OW12476   0.072   3.890   9.628
 4151SOL    HW112477   0.055   3.973   9.574
 4151SOL    HW212478   0.162   3.853   9.606
 4152SOL     OW12479   1.183   5.059   9.429
 4152SOL    HW112480   1.084   5.048   9.431
 4152SOL    HW212481   1.217   5.074   9.522
 4153SOL     OW12482   0.613   4.566  10.741
 4153SOL    HW112483   0.669   4.647  10.724
 4153SOL    HW212484   0.672   4.486  10.744
 4154SOL     OW12485   1.493   5.491  10.269
 4154SOL    HW112486   1.526   5.555  10.200
 4154SOL    HW212487   1.559   5.485  10.344
 4155SOL     OW12488   0.716   4.289  11.018
 4155SOL    HW112489   0.735   4.354  11.092
 4155SOL    HW212490   0.776   4.209  11.027
 4156SOL     OW12491   1.450   4.944  10.943
 4156SOL    HW112492   1.441   4.934  11.042
 4156SOL    HW212493   1.546   4.937  10.917
 4157SOL     OW12494   0.390   5.465  10.870
 4157SOL    HW112495   0.299   5.506  10.868
 4157SOL    HW212496   0.383   5.371  10.902
 4158SOL     OW12497   1.674   4.607  10.564
 4158SOL    HW112498   1.647   4.518  10.527
 4158SOL    HW212499   1.675   4.675  10.491
 4159SOL     OW12500   1.225   4.049   9.759
 4159SOL    HW112501   1.290   3.975   9.748
 4159SOL    HW212502   1.245   4.099   9.843
 4160SOL     OW12503   0.594   4.469   9.962
 4160SOL    HW112504   0.644   4.554   9.943
 4160SOL    HW212505   0.506   4.471   9.914
 4161SOL     OW12506   1.777   4.066  10.952
 4161SOL    HW112507   1.760   4.097  10.858
 4161SOL    HW212508   1.693   4.029  10.990
 4162SOL     OW12509   1.730   4.658  10.827
 4162SOL    HW112510   1.768   4.749  10.842
 4162SOL    HW212511   1.722   4.641  10.728
 4163SOL     OW12512   0.859   5.098   9.326
 4163SOL    HW112513   0.813   5.113   9.414
 4163SOL    HW212514   0.903   5.183   9.296
 4164SOL     OW12515   0.661   5.514  10.263
 4164SOL    HW112516   0.615   5.602  10.250
 4164SOL    HW212517   0.760   5.526  10.256
 4165SOL     OW12518   0.859   4.680  10.171
 4165SOL    HW112519   0.913   4.611  10.219
 4165SOL    HW212520   0.827   4.749  10.237
 4166SOL     OW12521   1.083   4.708   9.397
 4166SOL    HW112522   1.060   4.761   9.315
 4166SOL    HW212523   1.164   4.652   9.378
 4167SOL     OW12524   1.861   5.293  10.161
 4167SOL    HW112525   1.790   5.281  10.091
 4167SOL    HW212526   1.862   5.214  10.221
 4168SOL     OW12527   0.221   5.038  11.154
 4168SOL    HW112528   0.156   4.965  11.133
 4168SOL    HW212529   0.225   5.052  11.252
 4169SOL     OW12530   0.079   4.964   9.963
 4169SOL    HW112531   0.078   4.917  10.051
 4169SOL    HW212532   0.161   4.936   9.912
 4170SOL     OW12533   0.672   5.115  10.934
 4170SOL    HW112534   0.594   5.065  10.972
 4170SOL    HW212535   0.669   5.210  10.965
 4171SOL     OW12536   1.824   3.916  10.537
 4171SOL    HW112537   1.820   3.826  10.581
 4171SOL    HW212538   1.827   3.905  10.438
 4172SOL     OW12539   0.428   4.148   9.830
 4172SOL    HW112540   0.458   4.076   9.768
 4172SOL    HW212541   0.389   4.108   9.913
 4173SOL     OW12542   1.705   5.211  10.414
 4173SOL    HW112543   1.612   5.186  10.387
 4173SOL    HW212544   1.731   5.161  10.496
 4174SOL     OW12545   0.317   4.271  10.590
 4174SOL    HW112546   0.355   4.212  10.662
 4174SOL    HW212547   0.357   4.245  10.502
 4175SOL     OW12548   0.812   5.310   9.997
 4175SOL    HW112549   0.844   5.320   9.903
 4175SOL    HW212550   0.733   5.248   9.999
 4176SOL     OW12551   1.424   3.938  10.422
 4176SOL    HW112552   1.476   3.873  10.477
 4176SOL    HW212553   1.375   4.001  10.483
 4177SOL     OW12554   1.001   3.758  10.464
 4177SOL    HW112555   0.938   3.686  10.433
 4177SOL    HW212556   1.094   3.722  10.464
 4178SOL     OW12557   0.770   5.054   9.611
 4178SOL    HW112558   0.724   4.967   9.628
 4178SOL    HW212559   0.861   5.051   9.652
 4179SOL     OW12560   0.618   5.291  10.594
 4179SOL    HW112561   0.613   5.373  10.651
 4179SOL    HW212562   0.707   5.288  10.549
 4180SOL     OW12563   1.352   3.776   9.478
 4180SOL    HW112564   1.387   3.735   9.394
 4180SOL    HW212565   1.262   3.738   9.498
 4181SOL     OW12566   1.300   4.177  10.001
 4181SOL    HW112567   1.241   4.257  10.005
 4181SOL    HW212568   1.315   4.142  10.094
 4182SOL     OW12569   1.593   3.945  10.192
 4182SOL    HW112570   1.509   3.944  10.246
 4182SOL    HW212571   1.595   4.028  10.136
 4183SOL     OW12572   0.039   4.801   9.610
 4183SOL    HW112573   0.138   4.790   9.601
 4183SOL    HW212574  -0.001   4.715   9.642
 4184SOL     OW12575   0.875   5.370   9.647
 4184SOL    HW112576   0.798   5.335   9.593
 4184SOL    HW212577   0.843   5.441   9.709
 4185SOL     OW12578   0.230   4.352  11.285
 4185SOL    HW112579   0.137   4.350  11.322
 4185SOL    HW212580   0.231   4.313  11.193
 4186SOL     OW12581   0.225   3.999  12.168
 4186SOL    HW112582   0.260   3.982  12.260
 4186SOL    HW212583   0.137   3.954  12.156
 4187SOL     OW12584   0.019   4.092  11.819
 4187SOL    HW112585  -0.063   4.135  11.858
 4187SOL    HW212586  -0.009   4.019  11.756
 4188SOL     OW12587   0.569   4.999  12.337
 4188SOL    HW112588   0.476   4.992  12.300
 4188SOL    HW212589   0.580   5.088  12.381
 4189SOL     OW12590   1.555   5.235  11.875
 4189SOL    HW112591   1.498   5.219  11.956
 4189SOL    HW212592   1.496   5.245  11.795
 4190SOL     OW12593   1.135   4.427  11.889
 4190SOL    HW112594   1.192   4.505  11.864
 4190SOL    HW212595   1.075   4.453  11.965
 4191SOL     OW12596   1.755   4.331  11.403
 4191SOL    HW112597   1.743   4.318  11.304
 4191SOL    HW212598   1.725   4.250  11.452
 4192SOL     OW12599   0.768   4.868  12.195
 4192SOL    HW112600   0.690   4.885  12.255
 4192SOL    HW212601   0.802   4.955  12.159
 4193SOL     OW12602   0.685   4.736  11.837
 4193SOL    HW112603   0.754   4.720  11.907
 4193SOL    HW212604   0.612   4.793  11.875
 4194SOL     OW12605   0.335   5.159  12.233
 4194SOL    HW112606   0.257   5.128  12.180
 4194SOL    HW212607   0.393   5.217  12.176
 4195SOL     OW12608   1.460   5.229  12.511
 4195SOL    HW112609   1.484   5.323  12.537
 4195SOL    HW212610   1.444   5.175  12.593
 4196SOL     OW12611   0.438   4.116  12.671
 4196SOL    HW112612   0.520   4.060  12.680
 4196SOL    HW212613   0.357   4.058  12.675
 4197SOL     OW12614   1.603   4.171  11.909
 4197SOL    HW112615   1.529   4.217  11.859
 4197SOL    HW212616   1.654   4.239  11.962
 4198SOL     OW12617   0.231   5.437  11.655
 4198SOL    HW112618   0.265   5.514  11.709
 4198SOL    HW212619   0.275   5.437  11.565
 4199SOL     OW12620   0.230   5.158  11.710
 4199SOL    HW112621   0.204   5.254  11.710
 4199SOL    HW212622   0.159   5.104  11.755
 4200SOL     OW12623   0.240   4.815  12.058
 4200SOL    HW112624   0.254   4.731  12.110
 4200SOL    HW212625   0.185   4.879  12.113
 4201SOL     OW12626   0.620   5.510  12.611
 4201SOL    HW112627   0.528   5.493  12.646
 4201SOL    HW212628   0.648   5.602  12.637
 4202SOL     OW12629   0.606   4.688  11.295
 4202SOL    HW112630   0.613   4.772  11.241
 4202SOL    HW212631   0.652   4.701  11.383
 4203SOL     OW12632   1.594   3.838  12.652
 4203SOL    HW112633   1.576   3.905  12.580
 4203SOL    HW212634   1.591   3.884  12.741
 4204SOL     OW12635   0.122   4.367  11.735
 4204SOL    HW112636   0.077   4.279  11.752
 4204SOL    HW212637   0.121   4.421  11.819
 4205SOL     OW12638   1.842   5.491  11.531
 4205SOL    HW112639   1.896   5.462  11.611
 4205SOL    HW212640   1.872   5.581  11.502
 4206SOL     OW12641   0.027   5.320  11.289
 4206SOL    HW112642   0.008   5.224  11.310
 4206SOL    HW212643  -0.006   5.378  11.364
 4207SOL     OW12644   1.689   4.646  11.784
 4207SOL    HW112645   1.784   4.617  11.792
 4207SOL    HW212646   1.681   4.711  11.709
 4208SOL     OW12647   1.641   4.832  11.604
 4208SOL    HW112648   1.727   4.834  11.552
 4208SOL    HW212649   1.655   4.879  11.692
 4209SOL     OW12650   0.113   4.461  12.769
 4209SOL    HW112651   0.201   4.448  12.814
 4209SOL    HW212652   0.100   4.558  12.747
 4210SOL     OW12653   0.613   5.089  11.898
 4210SOL    HW112654   0.564   5.002  11.907
 4210SOL    HW212655   0.590   5.132  11.811
 4211SOL     OW12656   1.293   4.952  12.595
 4211SOL    HW112657   1.330   4.879  12.537
 4211SOL    HW212658   1.345   4.957  12.680
 4212SOL     OW12659   0.809   3.728  11.674
 4212SOL    HW112660   0.849   3.819  11.665
 4212SOL    HW212661   0.709   3.736  11.680
 4213SOL     OW12662   0.197   4.700  12.436
 4213SOL    HW112663   0.286   4.655  12.422
 4213SOL    HW212664   0.124   4.635  12.417
 4214SOL     OW12665   1.525   4.723  11.362
 4214SOL    HW112666   1.462   4.647  11.375
 4214SOL    HW212667   1.573   4.741  11.448
 4215SOL     OW12668   1.466   5.141  12.125
 4215SOL    HW112669   1.407   5.147  12.205
 4215SOL    HW212670   1.451   5.053  12.079
 4216SOL     OW12671   1.667   5.438  11.744
 4216SOL    HW112672   1.626   5.415  11.656
 4216SOL    HW212673   1.649   5.364  11.809
 4217SOL     OW12674   0.598   4.453  11.442
 4217SOL    HW112675   0.622   4.522  11.374
 4217SOL    HW212676   0.520   4.486  11.496
 4218SOL     OW12677   1.281   4.069  12.116
 4218SOL    HW112678   1.195   4.019  12.103
 4218SOL    HW212679   1.343   4.015  12.172
 4219SOL     OW12680   1.576   5.386  11.479
 4219SOL    HW112681   1.665   5.432  11.482
 4219SOL    HW212682   1.555   5.362  11.384
 4220SOL     OW12683   0.807   4.329  12.637
 4220SOL    HW112684   0.760   4.326  12.726
 4220SOL    HW212685   0.756   4.274  12.571
 4221SOL     OW12686   0.973   4.614  12.744
 4221SOL    HW112687   1.019   4.530  12.715
 4221SOL    HW212688   0.917   4.648  12.669
 4222SOL     OW12689   0.991   4.134  12.414
 4222SOL    HW112690   0.914   4.168  12.468
 4222SOL    HW212691   0.957   4.083  12.335
 4223SOL     OW12692   1.041   4.425  11.601
 4223SOL    HW112693   1.067   4.421  11.697
 4223SOL    HW212694   0.956   4.374  11.587
 4224SOL     OW12695   0.076   4.535  11.961
 4224SOL    HW112696   0.175   4.523  11.970
 4224SOL    HW212697   0.052   4.630  11.982
 4225SOL     OW12698   0.130   5.545  12.743
 4225SOL    HW112699   0.120   5.530  12.842
 4225SOL    HW212700   0.044   5.581  12.707
 4226SOL     OW12701   0.865   4.072  11.367
 4226SOL    HW112702   0.924   4.135  11.318
 4226SOL    HW212703   0.884   3.978  11.338
 4227SOL     OW12704   1.362   4.868  11.717
 4227SOL    HW112705   1.445   4.839  11.669
 4227SOL    HW212706   1.313   4.935  11.661
 4228SOL     OW12707   0.550   3.920  12.057
 4228SOL    HW112708   0.545   3.915  12.157
 4228SOL    HW212709   0.552   4.016  12.028
 4229SOL     OW12710   1.008   5.180  11.649
 4229SOL    HW112711   0.962   5.252  11.597
 4229SOL    HW212712   1.004   5.200  11.747
 4230SOL     OW12713   0.351   5.525  12.025
 4230SOL    HW112714   0.401   5.439  12.031
 4230SOL    HW212715   0.416   5.602  12.022
 4231SOL     OW12716   1.795   4.790  12.045
 4231SOL    HW112717   1.733   4.775  11.969
 4231SOL    HW212718   1.743   4.801  12.130
 4232SOL     OW12719   1.227   5.274  12.678
 4232SOL    HW112720   1.233   5.197  12.742
 4232SOL    HW212721   1.175   5.248  12.598
 4233SOL     OW12722   0.321   4.667  11.414
 4233SOL    HW112723   0.403   4.706  11.372
 4233SOL    HW212724   0.294   4.585  11.365
 4234SOL     OW12725   1.458   4.459  11.900
 4234SOL    HW112726   1.453   4.394  11.975
 4234SOL    HW212727   1.538   4.518  11.913
 4235SOL     OW12728   1.111   5.500  11.409
 4235SOL    HW112729   1.051   5.438  11.459
 4235SOL    HW212730   1.142   5.456  11.324
 4236SOL     OW12731   0.202   4.009  12.670
 4236SOL    HW112732   0.122   4.069  12.657
 4236SOL    HW212733   0.192   3.960  12.756
 4237SOL     OW12734   1.632   5.101  11.253
 4237SOL    HW112735   1.600   5.195  11.243
 4237SOL    HW212736   1.556   5.038  11.241
 4238SOL     OW12737   0.464   5.467  11.495
 4238SOL    HW112738   0.497   5.506  11.581
 4238SOL    HW212739   0.540   5.460  11.430
 4239SOL     OW12740   1.400   3.831  11.598
 4239SOL    HW112741   1.376   3.794  11.508
 4239SOL    HW212742   1.499   3.847  11.602
 4240SOL     OW12743   0.249   5.509  12.413
 4240SOL    HW112744   0.306   5.444  12.463
 4240SOL    HW212745   0.233   5.476  12.320
 4241SOL     OW12746   0.940   5.422  12.076
 4241SOL    HW112747   1.020   5.365  12.097
 4241SOL    HW212748   0.891   5.382  11.999
 4242SOL     OW12749   0.382   4.424  11.652
 4242SOL    HW112750   0.427   4.334  11.649
 4242SOL    HW212751   0.288   4.413  11.685
 4243SOL     OW12752   0.614   3.846  11.289
 4243SOL    HW112753   0.712   3.824  11.296
 4243SOL    HW212754   0.583   3.829  11.196
 4244SOL     OW12755   0.888   5.238  12.367
 4244SOL    HW112756   0.865   5.213  12.273
 4244SOL    HW212757   0.949   5.169  12.406
 4245SOL     OW12758   1.351   4.314  12.605
 4245SOL    HW112759   1.379   4.271  12.690
 4245SOL    HW212760   1.376   4.410  12.606
 4246SOL     OW12761   0.803   5.126  12.096
 4246SOL    HW112762   0.893   5.140  12.054
 4246SOL    HW212763   0.732   5.128  12.025
 4247SOL     OW12764   0.922   4.227  12.071
 4247SOL    HW112765   0.897   4.218  11.975
 4247SOL    HW212766   0.970   4.145  12.102
 4248SOL     OW12767   0.539   3.788  11.684
 4248SOL    HW112768   0.458   3.789  11.742
 4248SOL    HW212769   0.542   3.871  11.629
 4249SOL     OW12770   1.434   4.912  11.213
 4249SOL    HW112771   1.466   4.836  11.270
 4249SOL    HW212772   1.342   4.939  11.243
 4250SOL     OW12773   0.297   3.759  11.343
 4250SOL    HW112774   0.346   3.843  11.322
 4250SOL    HW212775   0.359   3.694  11.388
 4251SOL     OW12776   0.935   3.960  11.652
 4251SOL    HW112777   0.887   4.001  11.574
 4251SOL    HW212778   1.034   3.958  11.633
 4252SOL     OW12779   1.076   4.407  12.636
 4252SOL    HW112780   0.996   4.346  12.639
 4252SOL    HW212781   1.157   4.354  12.612
 4253SOL     OW12782   1.227   5.294  11.965
 4253SOL    HW112783   1.248   5.368  11.900
 4253SOL    HW212784   1.295   5.294  12.038
 4254SOL     OW12785   0.459   4.876  11.913
 4254SOL    HW112786   0.388   4.849  11.978
 4254SOL    HW212787   0.433   4.848  11.820
 4255SOL     OW12788   1.271   5.521  11.763
 4255SOL    HW112789   1.315   5.585  11.699
 4255SOL    HW212790   1.221   5.573  11.833
 4256SOL     OW12791   1.032   4.273  11.188
 4256SOL    HW112792   0.991   4.355  11.149
 4256SOL    HW212793   1.096   4.299  11.261
 4257SOL     OW12794   0.078   4.280  12.558
 4257SOL    HW112795   0.170   4.279  12.517
 4257SOL    HW212796   0.072   4.354  12.625
 4258SOL     OW12797   0.561   3.946  12.319
 4258SOL    HW112798   0.599   3.862  12.356
 4258SOL    HW212799   0.473   3.965  12.363
 4259SOL     OW12800   0.866   4.178  11.814
 4259SOL    HW112801   0.834   4.250  11.752
 4259SOL    HW212802   0.890   4.097  11.761
 4260SOL     OW12803   1.017   3.763  11.925
 4260SOL    HW112804   0.945   3.768  11.856
 4260SOL    HW212805   0.993   3.694  11.994
 4261SOL     OW12806   1.429   4.897  12.039
 4261SOL    HW112807   1.374   4.813  12.032
 4261SOL    HW212808   1.455   4.926  11.947
 4262SOL     OW12809   1.466   4.314  12.164
 4262SOL    HW112810   1.436   4.219  12.171
 4262SOL    HW212811   1.539   4.330  12.230
 4263SOL     OW12812   1.857   4.557  11.549
 4263SOL    HW112813   1.899   4.493  11.613
 4263SOL    HW212814   1.819   4.506  11.471
 4264SOL     OW12815   0.488   5.109  11.346
 4264SOL    HW112816   0.401   5.094  11.393
 4264SOL    HW212817   0.471   5.135  11.251
 4265SOL     OW12818   1.664   5.004  11.829
 4265SOL    HW112819   1.763   5.012  11.843
 4265SOL    HW212820   1.619   5.088  11.860
 4266SOL     OW12821   1.390   4.299  11.250
 4266SOL    HW112822   1.336   4.278  11.331
 4266SOL    HW212823   1.481   4.258  11.259
 4267SOL     OW12824   0.527   3.980  11.500
 4267SOL    HW112825   0.554   3.921  11.425
 4267SOL    HW212826   0.527   4.075  11.469
 4268SOL     OW12827   1.754   4.947  12.760
 4268SOL    HW112828   1.845   4.908  12.747
 4268SOL    HW212829   1.762   5.043  12.784
 4269SOL     OW12830   1.064   5.071  12.512
 4269SOL    HW112831   0.984   5.048  12.567
 4269SOL    HW212832   1.147   5.045  12.561
 4270SOL     OW12833   1.111   4.919  12.272
 4270SOL    HW112834   1.071   4.963  12.353
 4270SOL    HW212835   1.070   4.956  12.189
 4271SOL     OW12836   1.638   4.823  12.251
 4271SOL    HW112837   1.643   4.904  12.310
 4271SOL    HW212838   1.552   4.825  12.200
 4272SOL     OW12839   0.915   3.813  12.574
 4272SOL    HW112840   0.940   3.793  12.479
 4272SOL    HW212841   0.987   3.869  12.616
 4273SOL     OW12842   0.705   4.774  11.540
 4273SOL    HW112843   0.691   4.781  11.639
 4273SOL    HW212844   0.789   4.723  11.522
 4274SOL     OW12845   0.410   4.537  12.423
 4274SOL    HW112846   0.496   4.549  12.473
 4274SOL    HW212847   0.368   4.450  12.450
 4275SOL     OW12848   1.274   4.110  12.434
 4275SOL    HW112849   1.295   4.184  12.498
 4275SOL    HW212850   1.185   4.127  12.391
 4276SOL     OW12851   0.064   5.288  12.503
 4276SOL    HW112852   0.018   5.370  12.469
 4276SOL    HW212853   0.162   5.307  12.512
 4277SOL     OW12854   0.367   4.824  11.673
 4277SOL    HW112855   0.360   4.907  11.617
 4277SOL    HW212856   0.371   4.744  11.613
 4278SOL     OW12857   0.566   4.261  12.037
 4278SOL    HW112858   0.578   4.327  11.963
 4278SOL    HW212859   0.612   4.295  12.120
 4279SOL     OW12860   1.252   5.072  11.560
 4279SOL    HW112861   1.302   5.149  11.600
 4279SOL    HW212862   1.157   5.074  11.592
 4280SOL     OW12863   1.272   5.169  12.314
 4280SOL    HW112864   1.319   5.182  12.401
 4280SOL    HW212865   1.206   5.095  12.323
 4281SOL     OW12866   1.582   4.363  11.644
 4281SOL    HW112867   1.551   4.424  11.717
 4281SOL    HW212868   1.632   4.415  11.575
 4282SOL     OW12869   0.354   5.234  12.501
 4282SOL    HW112870   0.333   5.190  12.414
 4282SOL    HW212871   0.451   5.260  12.504
 4283SOL     OW12872   0.402   4.475  12.770
 4283SOL    HW112873   0.470   4.530  12.723
 4283SOL    HW212874   0.442   4.387  12.797
 4284SOL     OW12875   1.587   4.503  12.842
 4284SOL    HW112876   1.495   4.541  12.837
 4284SOL    HW212877   1.647   4.550  12.777
 4285SOL     OW12878   0.573   4.594  12.201
 4285SOL    HW112879   0.617   4.683  12.192
 4285SOL    HW212880   0.510   4.594  12.278
 4286SOL     OW12881   1.360   4.586  12.217
 4286SOL    HW112882   1.285   4.586  12.151
 4286SOL    HW212883   1.397   4.494  12.226
 4287SOL     OW12884   1.209   4.249  11.447
 4287SOL    HW112885   1.222   4.165  11.501
 4287SOL    HW212886   1.180   4.323  11.507
 4288SOL     OW12887   0.307   3.937  12.403
 4288SOL    HW112888   0.284   3.974  12.493
 4288SOL    HW212889   0.277   3.842  12.397
 4289SOL     OW12890   0.037   5.034  12.454
 4289SOL    HW112891   0.090   4.985  12.522
 4289SOL    HW212892   0.059   5.132  12.459
 4290SOL     OW12893   0.732   4.358  12.236
 4290SOL    HW112894   0.791   4.332  12.160
 4290SOL    HW212895   0.704   4.454  12.225
 4291SOL     OW12896   0.307   3.787  11.790
 4291SOL    HW112897   0.296   3.881  11.823
 4291SOL    HW212898   0.302   3.724  11.867
 4292SOL     OW12899   1.622   4.091  11.546
 4292SOL    HW112900   1.624   4.015  11.610
 4292SOL    HW212901   1.574   4.168  11.586
 4293SOL     OW12902   1.023   4.490  12.138
 4293SOL    HW112903   1.038   4.511  12.234
 4293SOL    HW212904   0.993   4.395  12.129
 4294SOL     OW12905   1.540   3.998  11.297
 4294SOL    HW112906   1.479   3.923  11.320
 4294SOL    HW212907   1.562   4.050  11.380
 4295SOL     OW12908   1.303   4.562  11.214
 4295SOL    HW112909   1.337   4.469  11.229
 4295SOL    HW212910   1.321   4.589  11.119
 4296SOL     OW12911   1.068   5.057  12.021
 4296SOL    HW112912   1.075   4.973  11.966
 4296SOL    HW212913   1.130   5.126  11.985
 4297SOL     OW12914   0.319   4.534  12.121
 4297SOL    HW112915   0.412   4.570  12.126
 4297SOL    HW212916   0.313   4.449  12.173
 4298SOL     OW12917   0.339   4.233  12.178
 4298SOL    HW112918   0.287   4.150  12.161
 4298SOL    HW212919   0.416   4.238  12.114
 4299SOL     OW12920   1.160   3.931  12.649
 4299SOL    HW112921   1.160   3.995  12.726
 4299SOL    HW212922   1.188   3.979  12.566
 4300SOL     OW12923   0.008   5.050  11.372
 4300SOL    HW112924  -0.085   5.071  11.341
 4300SOL    HW212925   0.018   4.951  11.385
 4301SOL     OW12926   0.088   5.525  12.099
 4301SOL    HW112927   0.046   5.439  12.072
 4301SOL    HW212928   0.182   5.528  12.065
 4302SOL     OW12929   0.504   5.292  12.082
 4302SOL    HW112930   0.570   5.366  12.091
 4302SOL    HW212931   0.548   5.213  12.040
 4303SOL     OW12932   1.002   4.520  12.410
 4303SOL    HW112933   1.043   4.488  12.496
 4303SOL    HW212934   0.906   4.493  12.407
 4304SOL     OW12935   0.040   4.268  12.286
 4304SOL    HW112936   0.125   4.235  12.245
 4304SOL    HW212937   0.053   4.283  12.384
 4305SOL     OW12938   0.815   4.296  11.497
 4305SOL    HW112939   0.822   4.207  11.451
 4305SOL    HW212940   0.721   4.330  11.489
 4306SOL     OW12941   0.252   5.288  12.916
 4306SOL    HW112942   0.222   5.345  12.992
 4306SOL    HW212943   0.245   5.191  12.942
 4307SOL     OW12944   0.671   4.188  12.441
 4307SOL    HW112945   0.637   4.099  12.411
 4307SOL    HW212946   0.697   4.242  12.361
 4308SOL     OW12947   0.930   5.402  12.637
 4308SOL    HW112948   0.906   5.384  12.542
 4308SOL    HW212949   0.960   5.496  12.647
 4309SOL     OW12950   0.473   4.224  11.363
 4309SOL    HW112951   0.534   4.304  11.367
 4309SOL    HW212952   0.378   4.255  11.370
 4310SOL     OW12953   0.159   4.861  12.638
 4310SOL    HW112954   0.181   4.800  12.714
 4310SOL    HW212955   0.169   4.812  12.552
 4311SOL     OW12956   1.347   4.783  12.406
 4311SOL    HW112957   1.371   4.720  12.332
 4311SOL    HW212958   1.257   4.823  12.388
 4312SOL     OW12959   1.302   4.579  11.481
 4312SOL    HW112960   1.216   4.548  11.523
 4312SOL    HW212961   1.298   4.565  11.382
 4313SOL     OW12962   1.759   5.471  12.326
 4313SOL    HW112963   1.820   5.501  12.253
 4313SOL    HW212964   1.721   5.382  12.304
 4314SOL     OW12965   1.252   5.455  12.300
 4314SOL    HW112966   1.336   5.460  12.246
 4314SOL    HW212967   1.229   5.359  12.318
 4315SOL     OW12968   0.083   4.982  12.194
 4315SOL    HW112969   0.078   4.981  12.294
 4315SOL    HW212970   0.000   4.941  12.156
 4316SOL     OW12971   1.726   3.859  11.695
 4316SOL    HW112972   1.799   3.842  11.628
 4316SOL    HW212973   1.695   3.772  11.733
 4317SOL     OW12974   1.388   5.297  11.649
 4317SOL    HW112975   1.455   5.309  11.575
 4317SOL    HW212976   1.348   5.386  11.672
 4318SOL     OW12977   1.280   4.651  11.844
 4318SOL    HW112978   1.340   4.570  11.846
 4318SOL    HW212979   1.320   4.720  11.784
 4319SOL     OW12980   0.830   4.997  12.594
 4319SOL    HW112981   0.825   5.030  12.689
 4319SOL    HW212982   0.744   5.016  12.548
 4320SOL     OW12983   0.672   5.340  11.326
 4320SOL    HW112984   0.681   5.350  11.227
 4320SOL    HW212985   0.632   5.251  11.347
 4321SOL     OW12986   1.650   5.444  12.566
 4321SOL    HW112987   1.703   5.454  12.482
 4321SOL    HW212988   1.623   5.534  12.600
 4322SOL     OW12989   1.841   3.899  12.135
 4322SOL    HW112990   1.880   3.814  12.099
 4322SOL    HW212991   1.743   3.901  12.116
 4323SOL     OW12992   0.263   4.050  11.892
 4323SOL    HW112993   0.184   4.101  11.858
 4323SOL    HW212994   0.254   4.035  11.990
 4324SOL     OW12995   1.194   5.336  11.203
 4324SOL    HW112996   1.200   5.243  11.240
 4324SOL    HW212997   1.135   5.336  11.123
 4325SOL     OW12998   0.822   4.726  12.544
 4325SOL    HW112999   0.862   4.725  12.452
 4325SOL    HW213000   0.832   4.818  12.584
 4326SOL     OW13001   0.916   4.634  11.463
 4326SOL    HW113002   0.979   4.672  11.395
 4326SOL    HW213003   0.956   4.551  11.502
 4327SOL     OW13004   1.504   5.331  11.216
 4327SOL    HW113005   1.412   5.368  11.223
 4327SOL    HW213006   1.542   5.351  11.126
 4328SOL     OW13007   0.372   5.012  12.662
 4328SOL    HW113008   0.359   5.105  12.628
 4328SOL    HW213009   0.288   4.960  12.649
 4329SOL     OW13010   1.614   5.016  12.461
 4329SOL    HW113011   1.674   5.019  12.541
 4329SOL    HW213012   1.539   5.080  12.474
 4330SOL     OW13013   1.039   4.822  11.868
 4330SOL    HW113014   0.969   4.775  11.922
 4330SOL    HW213015   1.098   4.754  11.825
 4331SOL     OW13016   1.014   3.960  12.143
 4331SOL    HW113017   1.006   3.924  12.050
 4331SOL    HW213018   1.012   3.884  12.208
 4332SOL     OW13019   0.590   5.211  11.663
 4332SOL    HW113020   0.632   5.153  11.593
 4332SOL    HW213021   0.546   5.290  11.619
 4333SOL     OW13022   1.709   4.109  12.553
 4333SOL    HW113023   1.782   4.178  12.557
 4333SOL    HW213024   1.737   4.034  12.494
 4334SOL     OW13025   0.255   5.072  11.462
 4334SOL    HW113026   0.159   5.073  11.435
 4334SOL    HW213027   0.267   5.125  11.546
 4335SOL     OW13028   0.105   4.737  12.898
 4335SOL    HW113029   0.028   4.704  12.952
 4335SOL    HW213030   0.190   4.707  12.940
 4336SOL     OW13031   0.672   3.927  12.661
 4336SOL    HW113032   0.762   3.911  12.621
 4336SOL    HW213033   0.680   3.932  12.760
 4337SOL     OW13034   0.075   4.069  11.205
 4337SOL    HW113035  -0.017   4.041  11.176
 4337SOL    HW213036   0.106   4.146  11.149
 4338SOL     OW13037   1.440   4.580  12.570
 4338SOL    HW113038   1.383   4.632  12.507
 4338SOL    HW213039   1.536   4.592  12.546
 4339SOL     OW13040   0.072   3.890  11.490
 4339SOL    HW113041   0.055   3.973  11.436
 4339SOL    HW213042   0.162   3.853  11.468
 4340SOL     OW13043   1.183   5.059  11.291
 4340SOL    HW113044   1.084   5.048  11.293
 4340SOL    HW213045   1.217   5.074  11.384
 4341SOL     OW13046   0.613   4.566  12.603
 4341SOL    HW113047   0.669   4.647  12.586
 4341SOL    HW213048   0.672   4.486  12.606
 4342SOL     OW13049   1.493   5.491  12.131
 4342SOL    HW113050   1.526   5.555  12.062
 4342SOL    HW213051   1.559   5.485  12.206
 4343SOL     OW13052   0.716   4.289  12.880
 4343SOL    HW113053   0.735   4.354  12.954
 4343SOL    HW213054   0.776   4.209  12.889
 4344SOL     OW13055   0.390   5.465  12.732
 4344SOL    HW113056   0.299   5.506  12.730
 4344SOL    HW213057   0.383   5.371  12.764
 4345SOL     OW13058   1.674   4.607  12.426
 4345SOL    HW113059   1.647   4.518  12.389
 4345SOL    HW213060   1.675   4.675  12.353
 4346SOL     OW13061   1.225   4.049  11.621
 4346SOL    HW113062   1.290   3.975  11.610
 4346SOL    HW213063   1.245   4.099  11.705
 4347SOL     OW13064   0.594   4.469  11.824
 4347SOL    HW113065   0.644   4.554  11.805
 4347SOL    HW213066   0.506   4.471  11.776
 4348SOL     OW13067   1.777   4.066  12.814
 4348SOL    HW113068   1.760   4.097  12.720
 4348SOL    HW213069   1.693   4.029  12.852
 4349SOL     OW13070   1.730   4.658  12.689
 4349SOL    HW113071   1.768   4.749  12.704
 4349SOL    HW213072   1.722   4.641  12.590
 4350SOL     OW13073   0.859   5.098  11.188
 4350SOL    HW113074   0.813   5.113  11.276
 4350SOL    HW213075   0.903   5.183  11.158
 4351SOL     OW13076   0.661   5.514  12.125
 4351SOL    HW113077   0.615   5.602  12.112
 4351SOL    HW213078   0.760   5.526  12.118
 4352SOL     OW13079   0.859   4.680  12.033
 4352SOL    HW113080   0.913   4.611  12.081
 4352SOL    HW213081   0.827   4.749  12.099
 4353SOL     OW13082   1.083   4.708  11.259
 4353SOL    HW113083   1.060   4.761  11.177
 4353SOL    HW213084   1.164   4.652  11.240
 4354SOL     OW13085   1.861   5.293  12.023
 4354SOL    HW113086   1.790   5.281  11.953
 4354SOL    HW213087   1.862   5.214  12.083
 4355SOL     OW13088   0.079   4.964  11.825
 4355SOL    HW113089   0.078   4.917  11.913
 4355SOL    HW213090   0.161   4.936  11.774
 4356SOL     OW13091   0.672   5.115  12.796
 4356SOL    HW113092   0.594   5.065  12.834
 4356SOL    HW213093   0.669   5.210  12.827
 4357SOL     OW13094   1.824   3.916  12.399
 4357SOL    HW113095   1.820   3.826  12.443
 4357SOL    HW213096   1.827   3.905  12.300
 4358SOL     OW13097   0.428   4.148  11.692
 4358SOL    HW113098   0.458   4.076  11.630
 4358SOL    HW213099   0.389   4.108  11.775
 4359SOL     OW13100   1.705   5.211  12.276
 4359SOL    HW113101   1.612   5.186  12.249
 4359SOL    HW213102   1.731   5.161  12.358
 4360SOL     OW13103   0.317   4.271  12.452
 4360SOL    HW113104   0.355   4.212  12.524
 4360SOL    HW213105   0.357   4.245  12.364
 4361SOL     OW13106   0.812   5.310  11.859
 4361SOL    HW113107   0.844   5.320  11.765
 4361SOL    HW213108   0.733   5.248  11.861
 4362SOL     OW13109   1.424   3.938  12.284
 4362SOL    HW113110   1.476   3.873  12.339
 4362SOL    HW213111   1.375   4.001  12.345
 4363SOL     OW13112   1.001   3.758  12.326
 4363SOL    HW113113   0.938   3.686  12.295
 4363SOL    HW213114   1.094   3.722  12.326
 4364SOL     OW13115   0.770   5.054  11.473
 4364SOL    HW113116   0.724   4.967  11.490
 4364SOL    HW213117   0.861   5.051  11.514
 4365SOL     OW13118   0.618   5.291  12.456
 4365SOL    HW113119   0.613   5.373  12.513
 4365SOL    HW213120   0.707   5.288  12.411
 4366SOL     OW13121   1.352   3.776  11.340
 4366SOL    HW113122   1.387   3.735  11.256
 4366SOL    HW213123   1.262   3.738  11.360
 4367SOL     OW13124   1.300   4.177  11.863
 4367SOL    HW113125   1.241   4.257  11.867
 4367SOL    HW213126   1.315   4.142  11.956
 4368SOL     OW13127   1.593   3.945  12.054
 4368SOL    HW113128   1.509   3.944  12.108
 4368SOL    HW213129   1.595   4.028  11.998
 4369SOL     OW13130   0.039   4.801  11.472
 4369SOL    HW113131   0.138   4.790  11.463
 4369SOL    HW213132  -0.001   4.715  11.504
 4370SOL     OW13133   0.875   5.370  11.509
 4370SOL    HW113134   0.798   5.335  11.455
 4370SOL    HW213135   0.843   5.441  11.571
 4371SOL     OW13136   0.230   6.214   0.113
 4371SOL    HW113137   0.137   6.212   0.150
 4371SOL    HW213138   0.231   6.175   0.021
 4372SOL     OW13139   0.225   5.861   0.996
 4372SOL    HW113140   0.260   5.844   1.088
 4372SOL    HW213141   0.137   5.816   0.984
 4373SOL     OW13142   0.019   5.954   0.647
 4373SOL    HW113143  -0.063   5.997   0.686
 4373SOL    HW213144  -0.009   5.881   0.584
 4374SOL     OW13145   0.569   6.861   1.165
 4374SOL    HW113146   0.476   6.854   1.128
 4374SOL    HW213147   0.580   6.950   1.209
 4375SOL     OW13148   1.135   6.289   0.717
 4375SOL    HW113149   1.192   6.367   0.692
 4375SOL    HW213150   1.075   6.315   0.793
 4376SOL     OW13151   1.755   6.193   0.231
 4376SOL    HW113152   1.743   6.180   0.132
 4376SOL    HW213153   1.725   6.112   0.280
 4377SOL     OW13154   0.768   6.730   1.023
 4377SOL    HW113155   0.690   6.747   1.083
 4377SOL    HW213156   0.802   6.817   0.987
 4378SOL     OW13157   0.850   6.384   1.823
 4378SOL    HW113158   0.846   6.460   1.888
 4378SOL    HW213159   0.872   6.420   1.732
 4379SOL     OW13160   0.685   6.598   0.665
 4379SOL    HW113161   0.754   6.582   0.735
 4379SOL    HW213162   0.612   6.655   0.703
 4380SOL     OW13163   0.686   6.747   1.803
 4380SOL    HW113164   0.746   6.826   1.817
 4380SOL    HW213165   0.600   6.778   1.762
 4381SOL     OW13166   0.335   7.021   1.061
 4381SOL    HW113167   0.257   6.990   1.008
 4381SOL    HW213168   0.393   7.079   1.004
 4382SOL     OW13169   1.460   7.091   1.339
 4382SOL    HW113170   1.484   7.185   1.365
 4382SOL    HW213171   1.444   7.037   1.421
 4383SOL     OW13172   0.438   5.978   1.499
 4383SOL    HW113173   0.520   5.922   1.508
 4383SOL    HW213174   0.357   5.920   1.503
 4384SOL     OW13175   1.603   6.033   0.737
 4384SOL    HW113176   1.529   6.079   0.687
 4384SOL    HW213177   1.654   6.101   0.790
 4385SOL     OW13178   0.231   7.299   0.483
 4385SOL    HW113179   0.265   7.376   0.537
 4385SOL    HW213180   0.275   7.299   0.393
 4386SOL     OW13181   1.127   6.927   1.690
 4386SOL    HW113182   1.174   6.927   1.778
 4386SOL    HW213183   1.079   6.840   1.679
 4387SOL     OW13184   0.230   7.020   0.538
 4387SOL    HW113185   0.204   7.116   0.538
 4387SOL    HW213186   0.159   6.966   0.583
 4388SOL     OW13187   0.240   6.677   0.886
 4388SOL    HW113188   0.254   6.593   0.938
 4388SOL    HW213189   0.185   6.741   0.941
 4389SOL     OW13190   0.620   7.372   1.439
 4389SOL    HW113191   0.528   7.355   1.474
 4389SOL    HW213192   0.648   7.464   1.465
 4390SOL     OW13193   0.606   6.550   0.123
 4390SOL    HW113194   0.613   6.634   0.069
 4390SOL    HW213195   0.652   6.563   0.211
 4391SOL     OW13196   1.594   5.700   1.480
 4391SOL    HW113197   1.576   5.767   1.408
 4391SOL    HW213198   1.591   5.746   1.569
 4392SOL     OW13199   0.122   6.229   0.563
 4392SOL    HW113200   0.077   6.141   0.580
 4392SOL    HW213201   0.121   6.283   0.647
 4393SOL     OW13202   1.842   7.353   0.359
 4393SOL    HW113203   1.896   7.324   0.439
 4393SOL    HW213204   1.872   7.443   0.330
 4394SOL     OW13205   0.027   7.182   0.117
 4394SOL    HW113206   0.008   7.086   0.138
 4394SOL    HW213207  -0.006   7.240   0.192
 4395SOL     OW13208   1.689   6.508   0.612
 4395SOL    HW113209   1.784   6.479   0.620
 4395SOL    HW213210   1.681   6.573   0.537
 4396SOL     OW13211   1.641   6.694   0.432
 4396SOL    HW113212   1.727   6.696   0.380
 4396SOL    HW213213   1.655   6.741   0.520
 4397SOL     OW13214   0.113   6.323   1.597
 4397SOL    HW113215   0.201   6.310   1.642
 4397SOL    HW213216   0.100   6.420   1.575
 4398SOL     OW13217   0.613   6.951   0.726
 4398SOL    HW113218   0.564   6.864   0.735
 4398SOL    HW213219   0.590   6.994   0.639
 4399SOL     OW13220   1.293   6.814   1.423
 4399SOL    HW113221   1.330   6.741   1.365
 4399SOL    HW213222   1.345   6.819   1.508
 4400SOL     OW13223   0.809   5.590   0.502
 4400SOL    HW113224   0.849   5.681   0.493
 4400SOL    HW213225   0.709   5.598   0.508
 4401SOL     OW13226   0.197   6.562   1.264
 4401SOL    HW113227   0.286   6.517   1.250
 4401SOL    HW213228   0.124   6.497   1.245
 4402SOL     OW13229   1.525   6.585   0.190
 4402SOL    HW113230   1.462   6.509   0.203
 4402SOL    HW213231   1.573   6.603   0.276
 4403SOL     OW13232   1.187   7.378   1.616
 4403SOL    HW113233   1.211   7.438   1.540
 4403SOL    HW213234   1.194   7.283   1.586
 4404SOL     OW13235   0.317   5.837   1.801
 4404SOL    HW113236   0.388   5.908   1.807
 4404SOL    HW213237   0.229   5.876   1.829
 4405SOL     OW13238   1.466   7.003   0.953
 4405SOL    HW113239   1.407   7.009   1.033
 4405SOL    HW213240   1.451   6.915   0.907
 4406SOL     OW13241   1.667   7.300   0.572
 4406SOL    HW113242   1.626   7.277   0.484
 4406SOL    HW213243   1.649   7.226   0.637
 4407SOL     OW13244   0.598   6.315   0.270
 4407SOL    HW113245   0.622   6.384   0.202
 4407SOL    HW213246   0.520   6.348   0.324
 4408SOL     OW13247   1.281   5.931   0.944
 4408SOL    HW113248   1.195   5.881   0.931
 4408SOL    HW213249   1.343   5.877   1.000
 4409SOL     OW13250   1.576   7.248   0.307
 4409SOL    HW113251   1.665   7.294   0.310
 4409SOL    HW213252   1.555   7.224   0.212
 4410SOL     OW13253   0.807   6.191   1.465
 4410SOL    HW113254   0.760   6.188   1.554
 4410SOL    HW213255   0.756   6.136   1.399
 4411SOL     OW13256   1.394   6.055   1.674
 4411SOL    HW113257   1.374   6.098   1.762
 4411SOL    HW213258   1.472   5.993   1.683
 4412SOL     OW13259   0.973   6.476   1.572
 4412SOL    HW113260   1.019   6.392   1.543
 4412SOL    HW213261   0.917   6.510   1.497
 4413SOL     OW13262   0.991   5.996   1.242
 4413SOL    HW113263   0.914   6.030   1.296
 4413SOL    HW213264   0.957   5.945   1.163
 4414SOL     OW13265   1.041   6.287   0.429
 4414SOL    HW113266   1.067   6.283   0.525
 4414SOL    HW213267   0.956   6.236   0.415
 4415SOL     OW13268   0.076   6.397   0.789
 4415SOL    HW113269   0.175   6.385   0.798
 4415SOL    HW213270   0.052   6.492   0.810
 4416SOL     OW13271   0.130   7.407   1.571
 4416SOL    HW113272   0.120   7.392   1.670
 4416SOL    HW213273   0.044   7.443   1.535
 4417SOL     OW13274   0.865   5.934   0.195
 4417SOL    HW113275   0.924   5.997   0.146
 4417SOL    HW213276   0.884   5.840   0.166
 4418SOL     OW13277   1.719   6.171   1.831
 4418SOL    HW113278   1.693   6.260   1.795
 4418SOL    HW213279   1.717   6.103   1.758
 4419SOL     OW13280   1.362   6.730   0.545
 4419SOL    HW113281   1.445   6.701   0.497
 4419SOL    HW213282   1.313   6.797   0.489
 4420SOL     OW13283   0.550   5.782   0.885
 4420SOL    HW113284   0.545   5.777   0.985
 4420SOL    HW213285   0.552   5.878   0.856
 4421SOL     OW13286   1.008   7.042   0.477
 4421SOL    HW113287   0.962   7.114   0.425
 4421SOL    HW213288   1.004   7.062   0.575
 4422SOL     OW13289   0.351   7.387   0.853
 4422SOL    HW113290   0.401   7.301   0.859
 4422SOL    HW213291   0.416   7.464   0.850
 4423SOL     OW13292   1.795   6.652   0.873
 4423SOL    HW113293   1.733   6.637   0.797
 4423SOL    HW213294   1.743   6.663   0.958
 4424SOL     OW13295   1.227   7.136   1.506
 4424SOL    HW113296   1.233   7.059   1.570
 4424SOL    HW213297   1.175   7.110   1.426
 4425SOL     OW13298   0.321   6.529   0.242
 4425SOL    HW113299   0.403   6.568   0.200
 4425SOL    HW213300   0.294   6.447   0.193
 4426SOL     OW13301   1.458   6.321   0.728
 4426SOL    HW113302   1.453   6.256   0.803
 4426SOL    HW213303   1.538   6.380   0.741
 4427SOL     OW13304   0.461   6.852   1.727
 4427SOL    HW113305   0.411   6.853   1.641
 4427SOL    HW213306   0.398   6.834   1.803
 4428SOL     OW13307   1.111   7.362   0.237
 4428SOL    HW113308   1.051   7.300   0.287
 4428SOL    HW213309   1.142   7.318   0.152
 4429SOL     OW13310   0.202   5.871   1.498
 4429SOL    HW113311   0.122   5.931   1.485
 4429SOL    HW213312   0.192   5.822   1.584
 4430SOL     OW13313   1.632   6.963   0.081
 4430SOL    HW113314   1.600   7.057   0.071
 4430SOL    HW213315   1.556   6.900   0.069
 4431SOL     OW13316   0.464   7.329   0.323
 4431SOL    HW113317   0.497   7.368   0.409
 4431SOL    HW213318   0.540   7.322   0.258
 4432SOL     OW13319   1.400   5.693   0.426
 4432SOL    HW113320   1.376   5.656   0.336
 4432SOL    HW213321   1.499   5.709   0.430
 4433SOL     OW13322   0.249   7.371   1.241
 4433SOL    HW113323   0.306   7.306   1.291
 4433SOL    HW213324   0.233   7.338   1.148
 4434SOL     OW13325   0.940   7.284   0.904
 4434SOL    HW113326   1.020   7.227   0.925
 4434SOL    HW213327   0.891   7.244   0.827
 4435SOL     OW13328   0.382   6.286   0.480
 4435SOL    HW113329   0.427   6.196   0.477
 4435SOL    HW213330   0.288   6.275   0.513
 4436SOL     OW13331   1.547   5.808   1.729
 4436SOL    HW113332   1.542   5.845   1.821
 4436SOL    HW213333   1.475   5.739   1.717
 4437SOL     OW13334   0.614   5.708   0.117
 4437SOL    HW113335   0.712   5.686   0.124
 4437SOL    HW213336   0.583   5.691   0.024
 4438SOL     OW13337   0.781   5.850   1.749
 4438SOL    HW113338   0.848   5.789   1.792
 4438SOL    HW213339   0.708   5.869   1.814
 4439SOL     OW13340   0.888   7.100   1.195
 4439SOL    HW113341   0.865   7.075   1.101
 4439SOL    HW213342   0.949   7.031   1.234
 4440SOL     OW13343   1.351   6.176   1.433
 4440SOL    HW113344   1.379   6.133   1.518
 4440SOL    HW213345   1.376   6.272   1.434
 4441SOL     OW13346   0.803   6.988   0.924
 4441SOL    HW113347   0.893   7.002   0.882
 4441SOL    HW213348   0.732   6.990   0.853
 4442SOL     OW13349   0.922   6.089   0.899
 4442SOL    HW113350   0.897   6.080   0.803
 4442SOL    HW213351   0.970   6.007   0.930
 4443SOL     OW13352   0.539   5.650   0.512
 4443SOL    HW113353   0.458   5.651   0.570
 4443SOL    HW213354   0.542   5.733   0.457
 4444SOL     OW13355   1.434   6.774   0.041
 4444SOL    HW113356   1.466   6.698   0.098
 4444SOL    HW213357   1.342   6.801   0.071
 4445SOL     OW13358   0.297   5.621   0.171
 4445SOL    HW113359   0.346   5.705   0.150
 4445SOL    HW213360   0.359   5.556   0.216
 4446SOL     OW13361   0.935   5.822   0.480
 4446SOL    HW113362   0.887   5.863   0.402
 4446SOL    HW213363   1.034   5.820   0.461
 4447SOL     OW13364   1.076   6.269   1.464
 4447SOL    HW113365   0.996   6.208   1.467
 4447SOL    HW213366   1.157   6.216   1.440
 4448SOL     OW13367   1.227   7.156   0.793
 4448SOL    HW113368   1.248   7.230   0.728
 4448SOL    HW213369   1.295   7.156   0.866
 4449SOL     OW13370   0.459   6.738   0.741
 4449SOL    HW113371   0.388   6.711   0.806
 4449SOL    HW213372   0.433   6.710   0.648
 4450SOL     OW13373   1.271   7.383   0.591
 4450SOL    HW113374   1.315   7.447   0.527
 4450SOL    HW213375   1.221   7.435   0.661
 4451SOL     OW13376   1.032   6.135   0.016
 4451SOL    HW113377   0.991   6.217  -0.023
 4451SOL    HW213378   1.096   6.161   0.089
 4452SOL     OW13379   0.078   6.142   1.386
 4452SOL    HW113380   0.170   6.141   1.345
 4452SOL    HW213381   0.072   6.216   1.453
 4453SOL     OW13382   0.561   5.808   1.147
 4453SOL    HW113383   0.599   5.724   1.184
 4453SOL    HW213384   0.473   5.827   1.191
 4454SOL     OW13385   0.866   6.040   0.642
 4454SOL    HW113386   0.834   6.112   0.580
 4454SOL    HW213387   0.890   5.959   0.589
 4455SOL     OW13388   1.017   5.625   0.753
 4455SOL    HW113389   0.945   5.630   0.684
 4455SOL    HW213390   0.993   5.556   0.822
 4456SOL     OW13391   1.429   6.759   0.867
 4456SOL    HW113392   1.374   6.675   0.860
 4456SOL    HW213393   1.455   6.788   0.775
 4457SOL     OW13394   1.466   6.176   0.992
 4457SOL    HW113395   1.436   6.081   0.999
 4457SOL    HW213396   1.539   6.192   1.058
 4458SOL     OW13397   1.857   6.419   0.377
 4458SOL    HW113398   1.899   6.355   0.441
 4458SOL    HW213399   1.819   6.368   0.299
 4459SOL     OW13400   0.488   6.971   0.174
 4459SOL    HW113401   0.401   6.956   0.221
 4459SOL    HW213402   0.471   6.997   0.079
 4460SOL     OW13403   1.664   6.866   0.657
 4460SOL    HW113404   1.763   6.874   0.671
 4460SOL    HW213405   1.619   6.950   0.688
 4461SOL     OW13406   1.390   6.161   0.078
 4461SOL    HW113407   1.336   6.140   0.159
 4461SOL    HW213408   1.481   6.120   0.087
 4462SOL     OW13409   0.527   5.842   0.328
 4462SOL    HW113410   0.554   5.783   0.253
 4462SOL    HW213411   0.527   5.937   0.297
 4463SOL     OW13412   1.754   6.809   1.588
 4463SOL    HW113413   1.845   6.770   1.575
 4463SOL    HW213414   1.762   6.905   1.612
 4464SOL     OW13415   1.064   6.933   1.340
 4464SOL    HW113416   0.984   6.910   1.395
 4464SOL    HW213417   1.147   6.907   1.389
 4465SOL     OW13418   1.592   7.215   1.625
 4465SOL    HW113419   1.619   7.249   1.535
 4465SOL    HW213420   1.671   7.177   1.671
 4466SOL     OW13421   1.111   6.781   1.100
 4466SOL    HW113422   1.071   6.825   1.181
 4466SOL    HW213423   1.070   6.818   1.017
 4467SOL     OW13424   1.638   6.685   1.079
 4467SOL    HW113425   1.643   6.766   1.138
 4467SOL    HW213426   1.552   6.687   1.028
 4468SOL     OW13427   0.915   5.675   1.402
 4468SOL    HW113428   0.940   5.655   1.307
 4468SOL    HW213429   0.987   5.731   1.444
 4469SOL     OW13430   0.980   6.702   1.719
 4469SOL    HW113431   0.881   6.708   1.729
 4469SOL    HW213432   1.003   6.622   1.663
 4470SOL     OW13433   0.705   6.636   0.368
 4470SOL    HW113434   0.691   6.643   0.467
 4470SOL    HW213435   0.789   6.585   0.350
 4471SOL     OW13436   0.410   6.399   1.251
 4471SOL    HW113437   0.496   6.411   1.301
 4471SOL    HW213438   0.368   6.312   1.278
 4472SOL     OW13439   1.274   5.972   1.262
 4472SOL    HW113440   1.295   6.046   1.326
 4472SOL    HW213441   1.185   5.989   1.219
 4473SOL     OW13442   0.064   7.150   1.331
 4473SOL    HW113443   0.018   7.232   1.297
 4473SOL    HW213444   0.162   7.169   1.340
 4474SOL     OW13445   0.367   6.686   0.501
 4474SOL    HW113446   0.360   6.769   0.445
 4474SOL    HW213447   0.371   6.606   0.441
 4475SOL     OW13448   0.566   6.123   0.865
 4475SOL    HW113449   0.578   6.189   0.791
 4475SOL    HW213450   0.612   6.157   0.948
 4476SOL     OW13451   1.252   6.934   0.388
 4476SOL    HW113452   1.302   7.011   0.428
 4476SOL    HW213453   1.157   6.936   0.420
 4477SOL     OW13454   1.272   7.031   1.142
 4477SOL    HW113455   1.319   7.044   1.229
 4477SOL    HW213456   1.206   6.957   1.151
 4478SOL     OW13457   1.582   6.225   0.472
 4478SOL    HW113458   1.551   6.286   0.545
 4478SOL    HW213459   1.632   6.277   0.403
 4479SOL     OW13460   0.354   7.096   1.329
 4479SOL    HW113461   0.333   7.052   1.242
 4479SOL    HW213462   0.451   7.122   1.332
 4480SOL     OW13463   0.402   6.337   1.598
 4480SOL    HW113464   0.470   6.392   1.551
 4480SOL    HW213465   0.442   6.249   1.625
 4481SOL     OW13466   1.587   6.365   1.670
 4481SOL    HW113467   1.495   6.403   1.665
 4481SOL    HW213468   1.647   6.412   1.605
 4482SOL     OW13469   1.013   5.691   1.770
 4482SOL    HW113470   1.019   5.776   1.718
 4482SOL    HW213471   1.045   5.615   1.713
 4483SOL     OW13472   0.504   5.636   1.740
 4483SOL    HW113473   0.462   5.579   1.670
 4483SOL    HW213474   0.438   5.705   1.772
 4484SOL     OW13475   0.573   6.456   1.029
 4484SOL    HW113476   0.617   6.545   1.020
 4484SOL    HW213477   0.510   6.456   1.106
 4485SOL     OW13478   1.360   6.448   1.045
 4485SOL    HW113479   1.285   6.448   0.979
 4485SOL    HW213480   1.397   6.356   1.054
 4486SOL     OW13481   1.209   6.111   0.275
 4486SOL    HW113482   1.222   6.027   0.329
 4486SOL    HW213483   1.180   6.185   0.335
 4487SOL     OW13484   0.307   5.799   1.231
 4487SOL    HW113485   0.284   5.836   1.321
 4487SOL    HW213486   0.277   5.704   1.225
 4488SOL     OW13487   0.037   6.896   1.282
 4488SOL    HW113488   0.090   6.847   1.350
 4488SOL    HW213489   0.059   6.994   1.287
 4489SOL     OW13490   0.732   6.220   1.064
 4489SOL    HW113491   0.791   6.194   0.988
 4489SOL    HW213492   0.704   6.316   1.053
 4490SOL     OW13493   1.728   6.521   1.854
 4490SOL    HW113494   1.682   6.514   1.765
 4490SOL    HW213495   1.666   6.565   1.920
 4491SOL     OW13496   0.307   5.649   0.618
 4491SOL    HW113497   0.296   5.743   0.651
 4491SOL    HW213498   0.302   5.586   0.695
 4492SOL     OW13499   1.622   5.953   0.374
 4492SOL    HW113500   1.624   5.877   0.438
 4492SOL    HW213501   1.574   6.030   0.414
 4493SOL     OW13502   1.023   6.352   0.966
 4493SOL    HW113503   1.038   6.373   1.062
 4493SOL    HW213504   0.993   6.257   0.957
 4494SOL     OW13505   0.980   7.159   1.700
 4494SOL    HW113506   0.960   7.203   1.612
 4494SOL    HW213507   1.019   7.068   1.684
 4495SOL     OW13508   1.859   7.104   1.605
 4495SOL    HW113509   1.873   7.131   1.510
 4495SOL    HW213510   1.942   7.126   1.658
 4496SOL     OW13511   0.350   6.484   1.804
 4496SOL    HW113512   0.426   6.528   1.852
 4496SOL    HW213513   0.385   6.437   1.722
 4497SOL     OW13514   1.540   5.860   0.125
 4497SOL    HW113515   1.479   5.785   0.148
 4497SOL    HW213516   1.562   5.912   0.208
 4498SOL     OW13517   1.303   6.424   0.042
 4498SOL    HW113518   1.337   6.331   0.057
 4498SOL    HW213519   1.321   6.451  -0.053
 4499SOL     OW13520   1.068   6.919   0.849
 4499SOL    HW113521   1.075   6.835   0.794
 4499SOL    HW213522   1.130   6.988   0.813
 4500SOL     OW13523   0.319   6.396   0.949
 4500SOL    HW113524   0.412   6.432   0.954
 4500SOL    HW213525   0.313   6.311   1.001
 4501SOL     OW13526   0.339   6.095   1.006
 4501SOL    HW113527   0.287   6.012   0.989
 4501SOL    HW213528   0.416   6.100   0.942
 4502SOL     OW13529   1.138   5.966   1.678
 4502SOL    HW113530   1.093   6.029   1.742
 4502SOL    HW213531   1.231   5.997   1.661
 4503SOL     OW13532   1.160   5.793   1.477
 4503SOL    HW113533   1.160   5.857   1.554
 4503SOL    HW213534   1.188   5.841   1.394
 4504SOL     OW13535   0.008   6.912   0.200
 4504SOL    HW113536  -0.085   6.933   0.169
 4504SOL    HW213537   0.018   6.813   0.213
 4505SOL     OW13538   0.088   7.387   0.927
 4505SOL    HW113539   0.046   7.301   0.900
 4505SOL    HW213540   0.182   7.390   0.893
 4506SOL     OW13541   0.504   7.154   0.910
 4506SOL    HW113542   0.570   7.228   0.919
 4506SOL    HW213543   0.548   7.075   0.868
 4507SOL     OW13544   1.002   6.382   1.238
 4507SOL    HW113545   1.043   6.350   1.324
 4507SOL    HW213546   0.906   6.355   1.235
 4508SOL     OW13547   0.040   6.130   1.114
 4508SOL    HW113548   0.125   6.097   1.073
 4508SOL    HW213549   0.053   6.145   1.212
 4509SOL     OW13550   0.189   6.106   1.722
 4509SOL    HW113551   0.248   6.066   1.652
 4509SOL    HW213552   0.131   6.177   1.681
 4510SOL     OW13553   1.369   6.536   1.660
 4510SOL    HW113554   1.408   6.625   1.680
 4510SOL    HW213555   1.379   6.516   1.563
 4511SOL     OW13556   0.815   6.158   0.325
 4511SOL    HW113557   0.822   6.069   0.279
 4511SOL    HW213558   0.721   6.192   0.317
 4512SOL     OW13559   1.657   6.190   1.206
 4512SOL    HW113560   1.619   6.121   1.268
 4512SOL    HW213561   1.739   6.154   1.162
 4513SOL     OW13562   0.252   7.150   1.744
 4513SOL    HW113563   0.222   7.207   1.820
 4513SOL    HW213564   0.245   7.053   1.770
 4514SOL     OW13565   0.671   6.050   1.269
 4514SOL    HW113566   0.637   5.961   1.239
 4514SOL    HW213567   0.697   6.104   1.189
 4515SOL     OW13568   0.930   7.264   1.465
 4515SOL    HW113569   0.906   7.246   1.370
 4515SOL    HW213570   0.960   7.358   1.475
 4516SOL     OW13571   0.473   6.086   0.191
 4516SOL    HW113572   0.534   6.166   0.195
 4516SOL    HW213573   0.378   6.117   0.198
 4517SOL     OW13574   0.159   6.723   1.466
 4517SOL    HW113575   0.181   6.662   1.542
 4517SOL    HW213576   0.169   6.674   1.380
 4518SOL     OW13577   1.347   6.645   1.234
 4518SOL    HW113578   1.371   6.582   1.160
 4518SOL    HW213579   1.257   6.685   1.216
 4519SOL     OW13580   1.302   6.441   0.309
 4519SOL    HW113581   1.216   6.410   0.351
 4519SOL    HW213582   1.298   6.427   0.210
 4520SOL     OW13583   1.759   7.333   1.154
 4520SOL    HW113584   1.820   7.363   1.081
 4520SOL    HW213585   1.721   7.244   1.132
 4521SOL     OW13586   1.252   7.317   1.128
 4521SOL    HW113587   1.336   7.322   1.074
 4521SOL    HW213588   1.229   7.221   1.146
 4522SOL     OW13589   0.083   6.844   1.022
 4522SOL    HW113590   0.078   6.843   1.122
 4522SOL    HW213591   0.000   6.803   0.984
 4523SOL     OW13592   0.688   7.248   1.716
 4523SOL    HW113593   0.632   7.329   1.725
 4523SOL    HW213594   0.740   7.252   1.630
 4524SOL     OW13595   0.903   5.672   0.133
 4524SOL    HW113596   0.954   5.673   0.047
 4524SOL    HW213597   0.959   5.630   0.204
 4525SOL     OW13598   1.726   5.721   0.523
 4525SOL    HW113599   1.799   5.704   0.456
 4525SOL    HW213600   1.695   5.634   0.561
 4526SOL     OW13601   1.388   7.159   0.477
 4526SOL    HW113602   1.455   7.171   0.403
 4526SOL    HW213603   1.348   7.248   0.500
 4527SOL     OW13604   0.130   7.380   1.851
 4527SOL    HW113605   0.089   7.306   1.904
 4527SOL    HW213606   0.194   7.431   1.909
 4528SOL     OW13607   1.280   6.513   0.672
 4528SOL    HW113608   1.340   6.432   0.674
 4528SOL    HW213609   1.320   6.582   0.612
 4529SOL     OW13610   0.830   6.859   1.422
 4529SOL    HW113611   0.825   6.892   1.517
 4529SOL    HW213612   0.744   6.878   1.376
 4530SOL     OW13613   0.672   7.202   0.154
 4530SOL    HW113614   0.681   7.212   0.055
 4530SOL    HW213615   0.632   7.113   0.175
 4531SOL     OW13616   1.650   7.306   1.394
 4531SOL    HW113617   1.703   7.316   1.310
 4531SOL    HW213618   1.623   7.396   1.428
 4532SOL     OW13619   1.841   5.761   0.963
 4532SOL    HW113620   1.880   5.676   0.927
 4532SOL    HW213621   1.743   5.763   0.944
 4533SOL     OW13622   0.263   5.912   0.720
 4533SOL    HW113623   0.184   5.963   0.686
 4533SOL    HW213624   0.254   5.897   0.818
 4534SOL     OW13625   1.194   7.198   0.031
 4534SOL    HW113626   1.200   7.105   0.068
 4534SOL    HW213627   1.135   7.198  -0.049
 4535SOL     OW13628   0.822   6.588   1.372
 4535SOL    HW113629   0.862   6.587   1.280
 4535SOL    HW213630   0.832   6.680   1.412
 4536SOL     OW13631   0.916   6.496   0.291
 4536SOL    HW113632   0.979   6.534   0.223
 4536SOL    HW213633   0.956   6.413   0.330
 4537SOL     OW13634   1.504   7.193   0.044
 4537SOL    HW113635   1.412   7.230   0.051
 4537SOL    HW213636   1.542   7.213  -0.046
 4538SOL     OW13637   0.372   6.874   1.490
 4538SOL    HW113638   0.359   6.967   1.456
 4538SOL    HW213639   0.288   6.822   1.477
 4539SOL     OW13640   1.614   6.878   1.289
 4539SOL    HW113641   1.674   6.881   1.369
 4539SOL    HW213642   1.539   6.942   1.302
 4540SOL     OW13643   1.039   6.684   0.696
 4540SOL    HW113644   0.969   6.637   0.750
 4540SOL    HW213645   1.098   6.616   0.653
 4541SOL     OW13646   1.014   5.822   0.971
 4541SOL    HW113647   1.006   5.786   0.878
 4541SOL    HW213648   1.012   5.746   1.036
 4542SOL     OW13649   0.590   7.073   0.491
 4542SOL    HW113650   0.632   7.015   0.421
 4542SOL    HW213651   0.546   7.152   0.447
 4543SOL     OW13652   1.709   5.971   1.381
 4543SOL    HW113653   1.782   6.040   1.385
 4543SOL    HW213654   1.737   5.896   1.322
 4544SOL     OW13655   0.255   6.934   0.290
 4544SOL    HW113656   0.159   6.935   0.263
 4544SOL    HW213657   0.267   6.987   0.374
 4545SOL     OW13658   0.105   6.599   1.726
 4545SOL    HW113659   0.028   6.566   1.780
 4545SOL    HW213660   0.190   6.569   1.768
 4546SOL     OW13661   0.672   5.789   1.489
 4546SOL    HW113662   0.762   5.773   1.449
 4546SOL    HW213663   0.680   5.794   1.588
 4547SOL     OW13664   0.075   5.931   0.033
 4547SOL    HW113665  -0.017   5.903   0.004
 4547SOL    HW213666   0.106   6.008  -0.023
 4548SOL     OW13667   1.440   6.442   1.398
 4548SOL    HW113668   1.383   6.494   1.335
 4548SOL    HW213669   1.536   6.454   1.374
 4549SOL     OW13670   0.072   5.752   0.318
 4549SOL    HW113671   0.055   5.835   0.264
 4549SOL    HW213672   0.162   5.715   0.296
 4550SOL     OW13673   1.183   6.921   0.119
 4550SOL    HW113674   1.084   6.910   0.121
 4550SOL    HW213675   1.217   6.936   0.212
 4551SOL     OW13676   0.613   6.428   1.431
 4551SOL    HW113677   0.669   6.509   1.414
 4551SOL    HW213678   0.672   6.348   1.434
 4552SOL     OW13679   1.493   7.353   0.959
 4552SOL    HW113680   1.526   7.417   0.890
 4552SOL    HW213681   1.559   7.347   1.034
 4553SOL     OW13682   0.716   6.151   1.708
 4553SOL    HW113683   0.735   6.216   1.782
 4553SOL    HW213684   0.776   6.071   1.717
 4554SOL     OW13685   1.450   6.806   1.633
 4554SOL    HW113686   1.441   6.796   1.732
 4554SOL    HW213687   1.546   6.799   1.607
 4555SOL     OW13688   0.390   7.327   1.560
 4555SOL    HW113689   0.299   7.368   1.558
 4555SOL    HW213690   0.383   7.233   1.592
 4556SOL     OW13691   1.674   6.469   1.254
 4556SOL    HW113692   1.647   6.380   1.217
 4556SOL    HW213693   1.675   6.537   1.181
 4557SOL     OW13694   1.225   5.911   0.449
 4557SOL    HW113695   1.290   5.837   0.438
 4557SOL    HW213696   1.245   5.961   0.533
 4558SOL     OW13697   0.594   6.331   0.652
 4558SOL    HW113698   0.644   6.416   0.633
 4558SOL    HW213699   0.506   6.333   0.604
 4559SOL     OW13700   1.777   5.928   1.642
 4559SOL    HW113701   1.760   5.959   1.548
 4559SOL    HW213702   1.693   5.891   1.680
 4560SOL     OW13703   1.730   6.520   1.517
 4560SOL    HW113704   1.768   6.611   1.532
 4560SOL    HW213705   1.722   6.503   1.418
 4561SOL     OW13706   0.859   6.960   0.016
 4561SOL    HW113707   0.813   6.975   0.104
 4561SOL    HW213708   0.903   7.045  -0.014
 4562SOL     OW13709   0.661   7.376   0.953
 4562SOL    HW113710   0.615   7.464   0.940
 4562SOL    HW213711   0.760   7.388   0.946
 4563SOL     OW13712   0.859   6.542   0.861
 4563SOL    HW113713   0.913   6.473   0.909
 4563SOL    HW213714   0.827   6.611   0.927
 4564SOL     OW13715   1.083   6.570   0.087
 4564SOL    HW113716   1.060   6.623   0.005
 4564SOL    HW213717   1.164   6.514   0.068
 4565SOL     OW13718   1.861   7.155   0.851
 4565SOL    HW113719   1.790   7.143   0.781
 4565SOL    HW213720   1.862   7.076   0.911
 4566SOL     OW13721   0.221   6.900   1.844
 4566SOL    HW113722   0.156   6.827   1.823
 4566SOL    HW213723   0.225   6.914   1.942
 4567SOL     OW13724   0.079   6.826   0.653
 4567SOL    HW113725   0.078   6.779   0.741
 4567SOL    HW213726   0.161   6.798   0.602
 4568SOL     OW13727   0.672   6.977   1.624
 4568SOL    HW113728   0.594   6.927   1.662
 4568SOL    HW213729   0.669   7.072   1.655
 4569SOL     OW13730   1.824   5.778   1.227
 4569SOL    HW113731   1.820   5.688   1.271
 4569SOL    HW213732   1.827   5.767   1.128
 4570SOL     OW13733   0.428   6.010   0.520
 4570SOL    HW113734   0.458   5.938   0.458
 4570SOL    HW213735   0.389   5.970   0.603
 4571SOL     OW13736   1.705   7.073   1.104
 4571SOL    HW113737   1.612   7.048   1.077
 4571SOL    HW213738   1.731   7.023   1.186
 4572SOL     OW13739   0.317   6.133   1.280
 4572SOL    HW113740   0.355   6.074   1.352
 4572SOL    HW213741   0.357   6.107   1.192
 4573SOL     OW13742   0.812   7.172   0.687
 4573SOL    HW113743   0.844   7.182   0.593
 4573SOL    HW213744   0.733   7.110   0.689
 4574SOL     OW13745   1.424   5.800   1.112
 4574SOL    HW113746   1.476   5.735   1.167
 4574SOL    HW213747   1.375   5.863   1.173
 4575SOL     OW13748   1.001   5.620   1.154
 4575SOL    HW113749   0.938   5.548   1.123
 4575SOL    HW213750   1.094   5.584   1.154
 4576SOL     OW13751   0.770   6.916   0.301
 4576SOL    HW113752   0.724   6.829   0.318
 4576SOL    HW213753   0.861   6.913   0.342
 4577SOL     OW13754   0.618   7.153   1.284
 4577SOL    HW113755   0.613   7.235   1.341
 4577SOL    HW213756   0.707   7.150   1.239
 4578SOL     OW13757   1.352   5.638   0.168
 4578SOL    HW113758   1.387   5.597   0.084
 4578SOL    HW213759   1.262   5.600   0.188
 4579SOL     OW13760   1.300   6.039   0.691
 4579SOL    HW113761   1.241   6.119   0.695
 4579SOL    HW213762   1.315   6.004   0.784
 4580SOL     OW13763   1.593   5.807   0.882
 4580SOL    HW113764   1.509   5.806   0.936
 4580SOL    HW213765   1.595   5.890   0.826
 4581SOL     OW13766   0.039   6.663   0.300
 4581SOL    HW113767   0.138   6.652   0.291
 4581SOL    HW213768  -0.001   6.577   0.332
 4582SOL     OW13769   0.875   7.232   0.337
 4582SOL    HW113770   0.798   7.197   0.283
 4582SOL    HW213771   0.843   7.303   0.399
 4583SOL     OW13772   0.230   6.214   1.975
 4583SOL    HW113773   0.137   6.212   2.012
 4583SOL    HW213774   0.231   6.175   1.883
 4584SOL     OW13775   0.225   5.861   2.858
 4584SOL    HW113776   0.260   5.844   2.950
 4584SOL    HW213777   0.137   5.816   2.846
 4585SOL     OW13778   0.019   5.954   2.509
 4585SOL    HW113779  -0.063   5.997   2.548
 4585SOL    HW213780  -0.009   5.881   2.446
 4586SOL     OW13781   0.569   6.861   3.027
 4586SOL    HW113782   0.476   6.854   2.990
 4586SOL    HW213783   0.580   6.950   3.071
 4587SOL     OW13784   1.555   7.097   2.565
 4587SOL    HW113785   1.498   7.081   2.646
 4587SOL    HW213786   1.496   7.107   2.485
 4588SOL     OW13787   1.135   6.289   2.579
 4588SOL    HW113788   1.192   6.367   2.554
 4588SOL    HW213789   1.075   6.315   2.655
 4589SOL     OW13790   1.755   6.193   2.093
 4589SOL    HW113791   1.743   6.180   1.994
 4589SOL    HW213792   1.725   6.112   2.142
 4590SOL     OW13793   0.768   6.730   2.885
 4590SOL    HW113794   0.690   6.747   2.945
 4590SOL    HW213795   0.802   6.817   2.849
 4591SOL     OW13796   0.850   6.384   3.685
 4591SOL    HW113797   0.846   6.460   3.750
 4591SOL    HW213798   0.872   6.420   3.594
 4592SOL     OW13799   0.685   6.598   2.527
 4592SOL    HW113800   0.754   6.582   2.597
 4592SOL    HW213801   0.612   6.655   2.565
 4593SOL     OW13802   0.686   6.747   3.665
 4593SOL    HW113803   0.746   6.826   3.679
 4593SOL    HW213804   0.600   6.778   3.624
 4594SOL     OW13805   0.335   7.021   2.923
 4594SOL    HW113806   0.257   6.990   2.870
 4594SOL    HW213807   0.393   7.079   2.866
 4595SOL     OW13808   1.460   7.091   3.201
 4595SOL    HW113809   1.484   7.185   3.227
 4595SOL    HW213810   1.444   7.037   3.283
 4596SOL     OW13811   0.438   5.978   3.361
 4596SOL    HW113812   0.520   5.922   3.370
 4596SOL    HW213813   0.357   5.920   3.365
 4597SOL     OW13814   1.603   6.033   2.599
 4597SOL    HW113815   1.529   6.079   2.549
 4597SOL    HW213816   1.654   6.101   2.652
 4598SOL     OW13817   0.231   7.299   2.345
 4598SOL    HW113818   0.265   7.376   2.399
 4598SOL    HW213819   0.275   7.299   2.255
 4599SOL     OW13820   1.127   6.927   3.552
 4599SOL    HW113821   1.174   6.927   3.640
 4599SOL    HW213822   1.079   6.840   3.541
 4600SOL     OW13823   0.230   7.020   2.400
 4600SOL    HW113824   0.204   7.116   2.400
 4600SOL    HW213825   0.159   6.966   2.445
 4601SOL     OW13826   0.240   6.677   2.748
 4601SOL    HW113827   0.254   6.593   2.800
 4601SOL    HW213828   0.185   6.741   2.803
 4602SOL     OW13829   0.620   7.372   3.301
 4602SOL    HW113830   0.528   7.355   3.336
 4602SOL    HW213831   0.648   7.464   3.327
 4603SOL     OW13832   0.606   6.550   1.985
 4603SOL    HW113833   0.613   6.634   1.931
 4603SOL    HW213834   0.652   6.563   2.073
 4604SOL     OW13835   1.594   5.700   3.342
 4604SOL    HW113836   1.576   5.767   3.270
 4604SOL    HW213837   1.591   5.746   3.431
 4605SOL     OW13838   0.122   6.229   2.425
 4605SOL    HW113839   0.077   6.141   2.442
 4605SOL    HW213840   0.121   6.283   2.509
 4606SOL     OW13841   1.842   7.353   2.221
 4606SOL    HW113842   1.896   7.324   2.301
 4606SOL    HW213843   1.872   7.443   2.192
 4607SOL     OW13844   0.027   7.182   1.979
 4607SOL    HW113845   0.008   7.086   2.000
 4607SOL    HW213846  -0.006   7.240   2.054
 4608SOL     OW13847   1.689   6.508   2.474
 4608SOL    HW113848   1.784   6.479   2.482
 4608SOL    HW213849   1.681   6.573   2.399
 4609SOL     OW13850   1.641   6.694   2.294
 4609SOL    HW113851   1.727   6.696   2.242
 4609SOL    HW213852   1.655   6.741   2.382
 4610SOL     OW13853   0.113   6.323   3.459
 4610SOL    HW113854   0.201   6.310   3.504
 4610SOL    HW213855   0.100   6.420   3.437
 4611SOL     OW13856   0.613   6.951   2.588
 4611SOL    HW113857   0.564   6.864   2.597
 4611SOL    HW213858   0.590   6.994   2.501
 4612SOL     OW13859   1.293   6.814   3.285
 4612SOL    HW113860   1.330   6.741   3.227
 4612SOL    HW213861   1.345   6.819   3.370
 4613SOL     OW13862   0.809   5.590   2.364
 4613SOL    HW113863   0.849   5.681   2.355
 4613SOL    HW213864   0.709   5.598   2.370
 4614SOL     OW13865   0.197   6.562   3.126
 4614SOL    HW113866   0.286   6.517   3.112
 4614SOL    HW213867   0.124   6.497   3.107
 4615SOL     OW13868   1.525   6.585   2.052
 4615SOL    HW113869   1.462   6.509   2.065
 4615SOL    HW213870   1.573   6.603   2.138
 4616SOL     OW13871   1.187   7.378   3.478
 4616SOL    HW113872   1.211   7.438   3.402
 4616SOL    HW213873   1.194   7.283   3.448
 4617SOL     OW13874   0.317   5.837   3.663
 4617SOL    HW113875   0.388   5.908   3.669
 4617SOL    HW213876   0.229   5.876   3.691
 4618SOL     OW13877   1.466   7.003   2.815
 4618SOL    HW113878   1.407   7.009   2.895
 4618SOL    HW213879   1.451   6.915   2.769
 4619SOL     OW13880   1.667   7.300   2.434
 4619SOL    HW113881   1.626   7.277   2.346
 4619SOL    HW213882   1.649   7.226   2.499
 4620SOL     OW13883   0.598   6.315   2.132
 4620SOL    HW113884   0.622   6.384   2.064
 4620SOL    HW213885   0.520   6.348   2.186
 4621SOL     OW13886   1.281   5.931   2.806
 4621SOL    HW113887   1.195   5.881   2.793
 4621SOL    HW213888   1.343   5.877   2.862
 4622SOL     OW13889   1.576   7.248   2.169
 4622SOL    HW113890   1.665   7.294   2.172
 4622SOL    HW213891   1.555   7.224   2.074
 4623SOL     OW13892   0.807   6.191   3.327
 4623SOL    HW113893   0.760   6.188   3.416
 4623SOL    HW213894   0.756   6.136   3.261
 4624SOL     OW13895   1.394   6.055   3.536
 4624SOL    HW113896   1.374   6.098   3.624
 4624SOL    HW213897   1.472   5.993   3.545
 4625SOL     OW13898   0.973   6.476   3.434
 4625SOL    HW113899   1.019   6.392   3.405
 4625SOL    HW213900   0.917   6.510   3.359
 4626SOL     OW13901   0.991   5.996   3.104
 4626SOL    HW113902   0.914   6.030   3.158
 4626SOL    HW213903   0.957   5.945   3.025
 4627SOL     OW13904   1.041   6.287   2.291
 4627SOL    HW113905   1.067   6.283   2.387
 4627SOL    HW213906   0.956   6.236   2.277
 4628SOL     OW13907   0.076   6.397   2.651
 4628SOL    HW113908   0.175   6.385   2.660
 4628SOL    HW213909   0.052   6.492   2.672
 4629SOL     OW13910   0.130   7.407   3.433
 4629SOL    HW113911   0.120   7.392   3.532
 4629SOL    HW213912   0.044   7.443   3.397
 4630SOL     OW13913   0.865   5.934   2.057
 4630SOL    HW113914   0.924   5.997   2.008
 4630SOL    HW213915   0.884   5.840   2.028
 4631SOL     OW13916   1.719   6.171   3.693
 4631SOL    HW113917   1.693   6.260   3.657
 4631SOL    HW213918   1.717   6.103   3.620
 4632SOL     OW13919   1.362   6.730   2.407
 4632SOL    HW113920   1.445   6.701   2.359
 4632SOL    HW213921   1.313   6.797   2.351
 4633SOL     OW13922   0.550   5.782   2.747
 4633SOL    HW113923   0.545   5.777   2.847
 4633SOL    HW213924   0.552   5.878   2.718
 4634SOL     OW13925   1.008   7.042   2.339
 4634SOL    HW113926   0.962   7.114   2.287
 4634SOL    HW213927   1.004   7.062   2.437
 4635SOL     OW13928   0.351   7.387   2.715
 4635SOL    HW113929   0.401   7.301   2.721
 4635SOL    HW213930   0.416   7.464   2.712
 4636SOL     OW13931   1.795   6.652   2.735
 4636SOL    HW113932   1.733   6.637   2.659
 4636SOL    HW213933   1.743   6.663   2.820
 4637SOL     OW13934   1.227   7.136   3.368
 4637SOL    HW113935   1.233   7.059   3.432
 4637SOL    HW213936   1.175   7.110   3.288
 4638SOL     OW13937   0.321   6.529   2.104
 4638SOL    HW113938   0.403   6.568   2.062
 4638SOL    HW213939   0.294   6.447   2.055
 4639SOL     OW13940   1.458   6.321   2.590
 4639SOL    HW113941   1.453   6.256   2.665
 4639SOL    HW213942   1.538   6.380   2.603
 4640SOL     OW13943   0.461   6.852   3.589
 4640SOL    HW113944   0.411   6.853   3.503
 4640SOL    HW213945   0.398   6.834   3.665
 4641SOL     OW13946   1.111   7.362   2.099
 4641SOL    HW113947   1.051   7.300   2.149
 4641SOL    HW213948   1.142   7.318   2.014
 4642SOL     OW13949   0.202   5.871   3.360
 4642SOL    HW113950   0.122   5.931   3.347
 4642SOL    HW213951   0.192   5.822   3.446
 4643SOL     OW13952   1.632   6.963   1.943
 4643SOL    HW113953   1.600   7.057   1.933
 4643SOL    HW213954   1.556   6.900   1.931
 4644SOL     OW13955   0.464   7.329   2.185
 4644SOL    HW113956   0.497   7.368   2.271
 4644SOL    HW213957   0.540   7.322   2.120
 4645SOL     OW13958   1.400   5.693   2.288
 4645SOL    HW113959   1.376   5.656   2.198
 4645SOL    HW213960   1.499   5.709   2.292
 4646SOL     OW13961   0.249   7.371   3.103
 4646SOL    HW113962   0.306   7.306   3.153
 4646SOL    HW213963   0.233   7.338   3.010
 4647SOL     OW13964   0.940   7.284   2.766
 4647SOL    HW113965   1.020   7.227   2.787
 4647SOL    HW213966   0.891   7.244   2.689
 4648SOL     OW13967   0.382   6.286   2.342
 4648SOL    HW113968   0.427   6.196   2.339
 4648SOL    HW213969   0.288   6.275   2.375
 4649SOL     OW13970   1.547   5.808   3.591
 4649SOL    HW113971   1.542   5.845   3.683
 4649SOL    HW213972   1.475   5.739   3.579
 4650SOL     OW13973   0.614   5.708   1.979
 4650SOL    HW113974   0.712   5.686   1.986
 4650SOL    HW213975   0.583   5.691   1.886
 4651SOL     OW13976   0.781   5.850   3.611
 4651SOL    HW113977   0.848   5.789   3.654
 4651SOL    HW213978   0.708   5.869   3.676
 4652SOL     OW13979   0.888   7.100   3.057
 4652SOL    HW113980   0.865   7.075   2.963
 4652SOL    HW213981   0.949   7.031   3.096
 4653SOL     OW13982   1.351   6.176   3.295
 4653SOL    HW113983   1.379   6.133   3.380
 4653SOL    HW213984   1.376   6.272   3.296
 4654SOL     OW13985   0.803   6.988   2.786
 4654SOL    HW113986   0.893   7.002   2.744
 4654SOL    HW213987   0.732   6.990   2.715
 4655SOL     OW13988   0.922   6.089   2.761
 4655SOL    HW113989   0.897   6.080   2.665
 4655SOL    HW213990   0.970   6.007   2.792
 4656SOL     OW13991   0.539   5.650   2.374
 4656SOL    HW113992   0.458   5.651   2.432
 4656SOL    HW213993   0.542   5.733   2.319
 4657SOL     OW13994   1.434   6.774   1.903
 4657SOL    HW113995   1.466   6.698   1.960
 4657SOL    HW213996   1.342   6.801   1.933
 4658SOL     OW13997   0.297   5.621   2.033
 4658SOL    HW113998   0.346   5.705   2.012
 4658SOL    HW213999   0.359   5.556   2.078
 4659SOL     OW14000   0.935   5.822   2.342
 4659SOL    HW114001   0.887   5.863   2.264
 4659SOL    HW214002   1.034   5.820   2.323
 4660SOL     OW14003   1.076   6.269   3.326
 4660SOL    HW114004   0.996   6.208   3.329
 4660SOL    HW214005   1.157   6.216   3.302
 4661SOL     OW14006   1.227   7.156   2.655
 4661SOL    HW114007   1.248   7.230   2.590
 4661SOL    HW214008   1.295   7.156   2.728
 4662SOL     OW14009   0.459   6.738   2.603
 4662SOL    HW114010   0.388   6.711   2.668
 4662SOL    HW214011   0.433   6.710   2.510
 4663SOL     OW14012   1.271   7.383   2.453
 4663SOL    HW114013   1.315   7.447   2.389
 4663SOL    HW214014   1.221   7.435   2.523
 4664SOL     OW14015   1.032   6.135   1.878
 4664SOL    HW114016   0.991   6.217   1.839
 4664SOL    HW214017   1.096   6.161   1.951
 4665SOL     OW14018   0.078   6.142   3.248
 4665SOL    HW114019   0.170   6.141   3.207
 4665SOL    HW214020   0.072   6.216   3.315
 4666SOL     OW14021   0.561   5.808   3.009
 4666SOL    HW114022   0.599   5.724   3.046
 4666SOL    HW214023   0.473   5.827   3.053
 4667SOL     OW14024   0.866   6.040   2.504
 4667SOL    HW114025   0.834   6.112   2.442
 4667SOL    HW214026   0.890   5.959   2.451
 4668SOL     OW14027   1.017   5.625   2.615
 4668SOL    HW114028   0.945   5.630   2.546
 4668SOL    HW214029   0.993   5.556   2.684
 4669SOL     OW14030   1.429   6.759   2.729
 4669SOL    HW114031   1.374   6.675   2.722
 4669SOL    HW214032   1.455   6.788   2.637
 4670SOL     OW14033   1.466   6.176   2.854
 4670SOL    HW114034   1.436   6.081   2.861
 4670SOL    HW214035   1.539   6.192   2.920
 4671SOL     OW14036   1.857   6.419   2.239
 4671SOL    HW114037   1.899   6.355   2.303
 4671SOL    HW214038   1.819   6.368   2.161
 4672SOL     OW14039   0.488   6.971   2.036
 4672SOL    HW114040   0.401   6.956   2.083
 4672SOL    HW214041   0.471   6.997   1.941
 4673SOL     OW14042   1.664   6.866   2.519
 4673SOL    HW114043   1.763   6.874   2.533
 4673SOL    HW214044   1.619   6.950   2.550
 4674SOL     OW14045   1.390   6.161   1.940
 4674SOL    HW114046   1.336   6.140   2.021
 4674SOL    HW214047   1.481   6.120   1.949
 4675SOL     OW14048   0.527   5.842   2.190
 4675SOL    HW114049   0.554   5.783   2.115
 4675SOL    HW214050   0.527   5.937   2.159
 4676SOL     OW14051   1.754   6.809   3.450
 4676SOL    HW114052   1.845   6.770   3.437
 4676SOL    HW214053   1.762   6.905   3.474
 4677SOL     OW14054   1.064   6.933   3.202
 4677SOL    HW114055   0.984   6.910   3.257
 4677SOL    HW214056   1.147   6.907   3.251
 4678SOL     OW14057   1.592   7.215   3.487
 4678SOL    HW114058   1.619   7.249   3.397
 4678SOL    HW214059   1.671   7.177   3.533
 4679SOL     OW14060   1.111   6.781   2.962
 4679SOL    HW114061   1.071   6.825   3.043
 4679SOL    HW214062   1.070   6.818   2.879
 4680SOL     OW14063   1.638   6.685   2.941
 4680SOL    HW114064   1.643   6.766   3.000
 4680SOL    HW214065   1.552   6.687   2.890
 4681SOL     OW14066   0.915   5.675   3.264
 4681SOL    HW114067   0.940   5.655   3.169
 4681SOL    HW214068   0.987   5.731   3.306
 4682SOL     OW14069   0.980   6.702   3.581
 4682SOL    HW114070   0.881   6.708   3.591
 4682SOL    HW214071   1.003   6.622   3.525
 4683SOL     OW14072   0.705   6.636   2.230
 4683SOL    HW114073   0.691   6.643   2.329
 4683SOL    HW214074   0.789   6.585   2.212
 4684SOL     OW14075   0.410   6.399   3.113
 4684SOL    HW114076   0.496   6.411   3.163
 4684SOL    HW214077   0.368   6.312   3.140
 4685SOL     OW14078   1.274   5.972   3.124
 4685SOL    HW114079   1.295   6.046   3.188
 4685SOL    HW214080   1.185   5.989   3.081
 4686SOL     OW14081   0.064   7.150   3.193
 4686SOL    HW114082   0.018   7.232   3.159
 4686SOL    HW214083   0.162   7.169   3.202
 4687SOL     OW14084   0.367   6.686   2.363
 4687SOL    HW114085   0.360   6.769   2.307
 4687SOL    HW214086   0.371   6.606   2.303
 4688SOL     OW14087   0.566   6.123   2.727
 4688SOL    HW114088   0.578   6.189   2.653
 4688SOL    HW214089   0.612   6.157   2.810
 4689SOL     OW14090   1.252   6.934   2.250
 4689SOL    HW114091   1.302   7.011   2.290
 4689SOL    HW214092   1.157   6.936   2.282
 4690SOL     OW14093   1.272   7.031   3.004
 4690SOL    HW114094   1.319   7.044   3.091
 4690SOL    HW214095   1.206   6.957   3.013
 4691SOL     OW14096   1.582   6.225   2.334
 4691SOL    HW114097   1.551   6.286   2.407
 4691SOL    HW214098   1.632   6.277   2.265
 4692SOL     OW14099   0.354   7.096   3.191
 4692SOL    HW114100   0.333   7.052   3.104
 4692SOL    HW214101   0.451   7.122   3.194
 4693SOL     OW14102   0.402   6.337   3.460
 4693SOL    HW114103   0.470   6.392   3.413
 4693SOL    HW214104   0.442   6.249   3.487
 4694SOL     OW14105   1.587   6.365   3.532
 4694SOL    HW114106   1.495   6.403   3.527
 4694SOL    HW214107   1.647   6.412   3.467
 4695SOL     OW14108   1.013   5.691   3.632
 4695SOL    HW114109   1.019   5.776   3.580
 4695SOL    HW214110   1.045   5.615   3.575
 4696SOL     OW14111   0.504   5.636   3.602
 4696SOL    HW114112   0.462   5.579   3.532
 4696SOL    HW214113   0.438   5.705   3.634
 4697SOL     OW14114   0.573   6.456   2.891
 4697SOL    HW114115   0.617   6.545   2.882
 4697SOL    HW214116   0.510   6.456   2.968
 4698SOL     OW14117   1.360   6.448   2.907
 4698SOL    HW114118   1.285   6.448   2.841
 4698SOL    HW214119   1.397   6.356   2.916
 4699SOL     OW14120   1.209   6.111   2.137
 4699SOL    HW114121   1.222   6.027   2.191
 4699SOL    HW214122   1.180   6.185   2.197
 4700SOL     OW14123   0.307   5.799   3.093
 4700SOL    HW114124   0.284   5.836   3.183
 4700SOL    HW214125   0.277   5.704   3.087
 4701SOL     OW14126   0.037   6.896   3.144
 4701SOL    HW114127   0.090   6.847   3.212
 4701SOL    HW214128   0.059   6.994   3.149
 4702SOL     OW14129   0.732   6.220   2.926
 4702SOL    HW114130   0.791   6.194   2.850
 4702SOL    HW214131   0.704   6.316   2.915
 4703SOL     OW14132   1.728   6.521   3.716
 4703SOL    HW114133   1.682   6.514   3.627
 4703SOL    HW214134   1.666   6.565   3.782
 4704SOL     OW14135   0.307   5.649   2.480
 4704SOL    HW114136   0.296   5.743   2.513
 4704SOL    HW214137   0.302   5.586   2.557
 4705SOL     OW14138   1.622   5.953   2.236
 4705SOL    HW114139   1.624   5.877   2.300
 4705SOL    HW214140   1.574   6.030   2.276
 4706SOL     OW14141   1.023   6.352   2.828
 4706SOL    HW114142   1.038   6.373   2.924
 4706SOL    HW214143   0.993   6.257   2.819
 4707SOL     OW14144   0.980   7.159   3.562
 4707SOL    HW114145   0.960   7.203   3.474
 4707SOL    HW214146   1.019   7.068   3.546
 4708SOL     OW14147   1.859   7.104   3.467
 4708SOL    HW114148   1.873   7.131   3.372
 4708SOL    HW214149   1.942   7.126   3.520
 4709SOL     OW14150   0.350   6.484   3.666
 4709SOL    HW114151   0.426   6.528   3.714
 4709SOL    HW214152   0.385   6.437   3.584
 4710SOL     OW14153   1.540   5.860   1.987
 4710SOL    HW114154   1.479   5.785   2.010
 4710SOL    HW214155   1.562   5.912   2.070
 4711SOL     OW14156   1.303   6.424   1.904
 4711SOL    HW114157   1.337   6.331   1.919
 4711SOL    HW214158   1.321   6.451   1.809
 4712SOL     OW14159   1.068   6.919   2.711
 4712SOL    HW114160   1.075   6.835   2.656
 4712SOL    HW214161   1.130   6.988   2.675
 4713SOL     OW14162   0.319   6.396   2.811
 4713SOL    HW114163   0.412   6.432   2.816
 4713SOL    HW214164   0.313   6.311   2.863
 4714SOL     OW14165   0.339   6.095   2.868
 4714SOL    HW114166   0.287   6.012   2.851
 4714SOL    HW214167   0.416   6.100   2.804
 4715SOL     OW14168   1.138   5.966   3.540
 4715SOL    HW114169   1.093   6.029   3.604
 4715SOL    HW214170   1.231   5.997   3.523
 4716SOL     OW14171   1.160   5.793   3.339
 4716SOL    HW114172   1.160   5.857   3.416
 4716SOL    HW214173   1.188   5.841   3.256
 4717SOL     OW14174   0.008   6.912   2.062
 4717SOL    HW114175  -0.085   6.933   2.031
 4717SOL    HW214176   0.018   6.813   2.075
 4718SOL     OW14177   0.088   7.387   2.789
 4718SOL    HW114178   0.046   7.301   2.762
 4718SOL    HW214179   0.182   7.390   2.755
 4719SOL     OW14180   0.504   7.154   2.772
 4719SOL    HW114181   0.570   7.228   2.781
 4719SOL    HW214182   0.548   7.075   2.730
 4720SOL     OW14183   1.002   6.382   3.100
 4720SOL    HW114184   1.043   6.350   3.186
 4720SOL    HW214185   0.906   6.355   3.097
 4721SOL     OW14186   0.040   6.130   2.976
 4721SOL    HW114187   0.125   6.097   2.935
 4721SOL    HW214188   0.053   6.145   3.074
 4722SOL     OW14189   0.189   6.106   3.584
 4722SOL    HW114190   0.248   6.066   3.514
 4722SOL    HW214191   0.131   6.177   3.543
 4723SOL     OW14192   1.369   6.536   3.522
 4723SOL    HW114193   1.408   6.625   3.542
 4723SOL    HW214194   1.379   6.516   3.425
 4724SOL     OW14195   0.815   6.158   2.187
 4724SOL    HW114196   0.822   6.069   2.141
 4724SOL    HW214197   0.721   6.192   2.179
 4725SOL     OW14198   1.657   6.190   3.068
 4725SOL    HW114199   1.619   6.121   3.130
 4725SOL    HW214200   1.739   6.154   3.024
 4726SOL     OW14201   0.252   7.150   3.606
 4726SOL    HW114202   0.222   7.207   3.682
 4726SOL    HW214203   0.245   7.053   3.632
 4727SOL     OW14204   0.671   6.050   3.131
 4727SOL    HW114205   0.637   5.961   3.101
 4727SOL    HW214206   0.697   6.104   3.051
 4728SOL     OW14207   0.930   7.264   3.327
 4728SOL    HW114208   0.906   7.246   3.232
 4728SOL    HW214209   0.960   7.358   3.337
 4729SOL     OW14210   0.473   6.086   2.053
 4729SOL    HW114211   0.534   6.166   2.057
 4729SOL    HW214212   0.378   6.117   2.060
 4730SOL     OW14213   0.159   6.723   3.328
 4730SOL    HW114214   0.181   6.662   3.404
 4730SOL    HW214215   0.169   6.674   3.242
 4731SOL     OW14216   1.347   6.645   3.096
 4731SOL    HW114217   1.371   6.582   3.022
 4731SOL    HW214218   1.257   6.685   3.078
 4732SOL     OW14219   1.302   6.441   2.171
 4732SOL    HW114220   1.216   6.410   2.213
 4732SOL    HW214221   1.298   6.427   2.072
 4733SOL     OW14222   1.759   7.333   3.016
 4733SOL    HW114223   1.820   7.363   2.943
 4733SOL    HW214224   1.721   7.244   2.994
 4734SOL     OW14225   1.252   7.317   2.990
 4734SOL    HW114226   1.336   7.322   2.936
 4734SOL    HW214227   1.229   7.221   3.008
 4735SOL     OW14228   0.083   6.844   2.884
 4735SOL    HW114229   0.078   6.843   2.984
 4735SOL    HW214230   0.000   6.803   2.846
 4736SOL     OW14231   0.688   7.248   3.578
 4736SOL    HW114232   0.632   7.329   3.587
 4736SOL    HW214233   0.740   7.252   3.492
 4737SOL     OW14234   1.726   5.721   2.385
 4737SOL    HW114235   1.799   5.704   2.318
 4737SOL    HW214236   1.695   5.634   2.423
 4738SOL     OW14237   1.388   7.159   2.339
 4738SOL    HW114238   1.455   7.171   2.265
 4738SOL    HW214239   1.348   7.248   2.362
 4739SOL     OW14240   0.130   7.380   3.713
 4739SOL    HW114241   0.089   7.306   3.766
 4739SOL    HW214242   0.194   7.431   3.771
 4740SOL     OW14243   1.280   6.513   2.534
 4740SOL    HW114244   1.340   6.432   2.536
 4740SOL    HW214245   1.320   6.582   2.474
 4741SOL     OW14246   0.830   6.859   3.284
 4741SOL    HW114247   0.825   6.892   3.379
 4741SOL    HW214248   0.744   6.878   3.238
 4742SOL     OW14249   1.650   7.306   3.256
 4742SOL    HW114250   1.703   7.316   3.172
 4742SOL    HW214251   1.623   7.396   3.290
 4743SOL     OW14252   1.841   5.761   2.825
 4743SOL    HW114253   1.880   5.676   2.789
 4743SOL    HW214254   1.743   5.763   2.806
 4744SOL     OW14255   0.263   5.912   2.582
 4744SOL    HW114256   0.184   5.963   2.548
 4744SOL    HW214257   0.254   5.897   2.680
 4745SOL     OW14258   1.194   7.198   1.893
 4745SOL    HW114259   1.200   7.105   1.930
 4745SOL    HW214260   1.135   7.198   1.813
 4746SOL     OW14261   0.822   6.588   3.234
 4746SOL    HW114262   0.862   6.587   3.142
 4746SOL    HW214263   0.832   6.680   3.274
 4747SOL     OW14264   0.916   6.496   2.153
 4747SOL    HW114265   0.979   6.534   2.085
 4747SOL    HW214266   0.956   6.413   2.192
 4748SOL     OW14267   1.504   7.193   1.906
 4748SOL    HW114268   1.412   7.230   1.913
 4748SOL    HW214269   1.542   7.213   1.816
 4749SOL     OW14270   0.372   6.874   3.352
 4749SOL    HW114271   0.359   6.967   3.318
 4749SOL    HW214272   0.288   6.822   3.339
 4750SOL     OW14273   1.614   6.878   3.151
 4750SOL    HW114274   1.674   6.881   3.231
 4750SOL    HW214275   1.539   6.942   3.164
 4751SOL     OW14276   1.039   6.684   2.558
 4751SOL    HW114277   0.969   6.637   2.612
 4751SOL    HW214278   1.098   6.616   2.515
 4752SOL     OW14279   1.014   5.822   2.833
 4752SOL    HW114280   1.006   5.786   2.740
 4752SOL    HW214281   1.012   5.746   2.898
 4753SOL     OW14282   0.590   7.073   2.353
 4753SOL    HW114283   0.632   7.015   2.283
 4753SOL    HW214284   0.546   7.152   2.309
 4754SOL     OW14285   1.709   5.971   3.243
 4754SOL    HW114286   1.782   6.040   3.247
 4754SOL    HW214287   1.737   5.896   3.184
 4755SOL     OW14288   0.255   6.934   2.152
 4755SOL    HW114289   0.159   6.935   2.125
 4755SOL    HW214290   0.267   6.987   2.236
 4756SOL     OW14291   0.105   6.599   3.588
 4756SOL    HW114292   0.028   6.566   3.642
 4756SOL    HW214293   0.190   6.569   3.630
 4757SOL     OW14294   0.672   5.789   3.351
 4757SOL    HW114295   0.762   5.773   3.311
 4757SOL    HW214296   0.680   5.794   3.450
 4758SOL     OW14297   0.075   5.931   1.895
 4758SOL    HW114298  -0.017   5.903   1.866
 4758SOL    HW214299   0.106   6.008   1.839
 4759SOL     OW14300   1.440   6.442   3.260
 4759SOL    HW114301   1.383   6.494   3.197
 4759SOL    HW214302   1.536   6.454   3.236
 4760SOL     OW14303   0.072   5.752   2.180
 4760SOL    HW114304   0.055   5.835   2.126
 4760SOL    HW214305   0.162   5.715   2.158
 4761SOL     OW14306   1.183   6.921   1.981
 4761SOL    HW114307   1.084   6.910   1.983
 4761SOL    HW214308   1.217   6.936   2.074
 4762SOL     OW14309   0.613   6.428   3.293
 4762SOL    HW114310   0.669   6.509   3.276
 4762SOL    HW214311   0.672   6.348   3.296
 4763SOL     OW14312   1.493   7.353   2.821
 4763SOL    HW114313   1.526   7.417   2.752
 4763SOL    HW214314   1.559   7.347   2.896
 4764SOL     OW14315   0.716   6.151   3.570
 4764SOL    HW114316   0.735   6.216   3.644
 4764SOL    HW214317   0.776   6.071   3.579
 4765SOL     OW14318   1.450   6.806   3.495
 4765SOL    HW114319   1.441   6.796   3.594
 4765SOL    HW214320   1.546   6.799   3.469
 4766SOL     OW14321   0.390   7.327   3.422
 4766SOL    HW114322   0.299   7.368   3.420
 4766SOL    HW214323   0.383   7.233   3.454
 4767SOL     OW14324   1.674   6.469   3.116
 4767SOL    HW114325   1.647   6.380   3.079
 4767SOL    HW214326   1.675   6.537   3.043
 4768SOL     OW14327   1.225   5.911   2.311
 4768SOL    HW114328   1.290   5.837   2.300
 4768SOL    HW214329   1.245   5.961   2.395
 4769SOL     OW14330   0.594   6.331   2.514
 4769SOL    HW114331   0.644   6.416   2.495
 4769SOL    HW214332   0.506   6.333   2.466
 4770SOL     OW14333   1.777   5.928   3.504
 4770SOL    HW114334   1.760   5.959   3.410
 4770SOL    HW214335   1.693   5.891   3.542
 4771SOL     OW14336   1.730   6.520   3.379
 4771SOL    HW114337   1.768   6.611   3.394
 4771SOL    HW214338   1.722   6.503   3.280
 4772SOL     OW14339   0.859   6.960   1.878
 4772SOL    HW114340   0.813   6.975   1.966
 4772SOL    HW214341   0.903   7.045   1.848
 4773SOL     OW14342   0.661   7.376   2.815
 4773SOL    HW114343   0.615   7.464   2.802
 4773SOL    HW214344   0.760   7.388   2.808
 4774SOL     OW14345   0.859   6.542   2.723
 4774SOL    HW114346   0.913   6.473   2.771
 4774SOL    HW214347   0.827   6.611   2.789
 4775SOL     OW14348   1.083   6.570   1.949
 4775SOL    HW114349   1.060   6.623   1.867
 4775SOL    HW214350   1.164   6.514   1.930
 4776SOL     OW14351   1.861   7.155   2.713
 4776SOL    HW114352   1.790   7.143   2.643
 4776SOL    HW214353   1.862   7.076   2.773
 4777SOL     OW14354   0.221   6.900   3.706
 4777SOL    HW114355   0.156   6.827   3.685
 4777SOL    HW214356   0.225   6.914   3.804
 4778SOL     OW14357   0.079   6.826   2.515
 4778SOL    HW114358   0.078   6.779   2.603
 4778SOL    HW214359   0.161   6.798   2.464
 4779SOL     OW14360   0.672   6.977   3.486
 4779SOL    HW114361   0.594   6.927   3.524
 4779SOL    HW214362   0.669   7.072   3.517
 4780SOL     OW14363   1.824   5.778   3.089
 4780SOL    HW114364   1.820   5.688   3.133
 4780SOL    HW214365   1.827   5.767   2.990
 4781SOL     OW14366   0.428   6.010   2.382
 4781SOL    HW114367   0.458   5.938   2.320
 4781SOL    HW214368   0.389   5.970   2.465
 4782SOL     OW14369   1.705   7.073   2.966
 4782SOL    HW114370   1.612   7.048   2.939
 4782SOL    HW214371   1.731   7.023   3.048
 4783SOL     OW14372   0.317   6.133   3.142
 4783SOL    HW114373   0.355   6.074   3.214
 4783SOL    HW214374   0.357   6.107   3.054
 4784SOL     OW14375   0.812   7.172   2.549
 4784SOL    HW114376   0.844   7.182   2.455
 4784SOL    HW214377   0.733   7.110   2.551
 4785SOL     OW14378   1.424   5.800   2.974
 4785SOL    HW114379   1.476   5.735   3.029
 4785SOL    HW214380   1.375   5.863   3.035
 4786SOL     OW14381   1.001   5.620   3.016
 4786SOL    HW114382   0.938   5.548   2.985
 4786SOL    HW214383   1.094   5.584   3.016
 4787SOL     OW14384   0.770   6.916   2.163
 4787SOL    HW114385   0.724   6.829   2.180
 4787SOL    HW214386   0.861   6.913   2.204
 4788SOL     OW14387   0.618   7.153   3.146
 4788SOL    HW114388   0.613   7.235   3.203
 4788SOL    HW214389   0.707   7.150   3.101
 4789SOL     OW14390   1.352   5.638   2.030
 4789SOL    HW114391   1.387   5.597   1.946
 4789SOL    HW214392   1.262   5.600   2.050
 4790SOL     OW14393   1.300   6.039   2.553
 4790SOL    HW114394   1.241   6.119   2.557
 4790SOL    HW214395   1.315   6.004   2.646
 4791SOL     OW14396   1.593   5.807   2.744
 4791SOL    HW114397   1.509   5.806   2.798
 4791SOL    HW214398   1.595   5.890   2.688
 4792SOL     OW14399   0.039   6.663   2.162
 4792SOL    HW114400   0.138   6.652   2.153
 4792SOL    HW214401  -0.001   6.577   2.194
 4793SOL     OW14402   0.875   7.232   2.199
 4793SOL    HW114403   0.798   7.197   2.145
 4793SOL    HW214404   0.843   7.303   2.261
 4794SOL     OW14405   0.230   6.214   3.837
 4794SOL    HW114406   0.137   6.212   3.874
 4794SOL    HW214407   0.231   6.175   3.745
 4795SOL     OW14408   0.225   5.861   4.720
 4795SOL    HW114409   0.260   5.844   4.812
 4795SOL    HW214410   0.137   5.816   4.708
 4796SOL     OW14411   0.019   5.954   4.371
 4796SOL    HW114412  -0.063   5.997   4.410
 4796SOL    HW214413  -0.009   5.881   4.308
 4797SOL     OW14414   0.569   6.861   4.889
 4797SOL    HW114415   0.476   6.854   4.852
 4797SOL    HW214416   0.580   6.950   4.933
 4798SOL     OW14417   1.555   7.097   4.427
 4798SOL    HW114418   1.498   7.081   4.508
 4798SOL    HW214419   1.496   7.107   4.347
 4799SOL     OW14420   1.135   6.289   4.441
 4799SOL    HW114421   1.192   6.367   4.416
 4799SOL    HW214422   1.075   6.315   4.517
 4800SOL     OW14423   1.755   6.193   3.955
 4800SOL    HW114424   1.743   6.180   3.856
 4800SOL    HW214425   1.725   6.112   4.004
 4801SOL     OW14426   0.768   6.730   4.747
 4801SOL    HW114427   0.690   6.747   4.807
 4801SOL    HW214428   0.802   6.817   4.711
 4802SOL     OW14429   0.850   6.384   5.547
 4802SOL    HW114430   0.846   6.460   5.612
 4802SOL    HW214431   0.872   6.420   5.456
 4803SOL     OW14432   0.685   6.598   4.389
 4803SOL    HW114433   0.754   6.582   4.459
 4803SOL    HW214434   0.612   6.655   4.427
 4804SOL     OW14435   0.686   6.747   5.527
 4804SOL    HW114436   0.746   6.826   5.541
 4804SOL    HW214437   0.600   6.778   5.486
 4805SOL     OW14438   0.335   7.021   4.785
 4805SOL    HW114439   0.257   6.990   4.732
 4805SOL    HW214440   0.393   7.079   4.728
 4806SOL     OW14441   1.460   7.091   5.063
 4806SOL    HW114442   1.484   7.185   5.089
 4806SOL    HW214443   1.444   7.037   5.145
 4807SOL     OW14444   0.438   5.978   5.223
 4807SOL    HW114445   0.520   5.922   5.232
 4807SOL    HW214446   0.357   5.920   5.227
 4808SOL     OW14447   1.603   6.033   4.461
 4808SOL    HW114448   1.529   6.079   4.411
 4808SOL    HW214449   1.654   6.101   4.514
 4809SOL     OW14450   0.231   7.299   4.207
 4809SOL    HW114451   0.265   7.376   4.261
 4809SOL    HW214452   0.275   7.299   4.117
 4810SOL     OW14453   1.127   6.927   5.414
 4810SOL    HW114454   1.174   6.927   5.502
 4810SOL    HW214455   1.079   6.840   5.403
 4811SOL     OW14456   0.230   7.020   4.262
 4811SOL    HW114457   0.204   7.116   4.262
 4811SOL    HW214458   0.159   6.966   4.307
 4812SOL     OW14459   0.240   6.677   4.610
 4812SOL    HW114460   0.254   6.593   4.662
 4812SOL    HW214461   0.185   6.741   4.665
 4813SOL     OW14462   0.620   7.372   5.163
 4813SOL    HW114463   0.528   7.355   5.198
 4813SOL    HW214464   0.648   7.464   5.189
 4814SOL     OW14465   0.606   6.550   3.847
 4814SOL    HW114466   0.613   6.634   3.793
 4814SOL    HW214467   0.652   6.563   3.935
 4815SOL     OW14468   1.594   5.700   5.204
 4815SOL    HW114469   1.576   5.767   5.132
 4815SOL    HW214470   1.591   5.746   5.293
 4816SOL     OW14471   0.122   6.229   4.287
 4816SOL    HW114472   0.077   6.141   4.304
 4816SOL    HW214473   0.121   6.283   4.371
 4817SOL     OW14474   1.842   7.353   4.083
 4817SOL    HW114475   1.896   7.324   4.163
 4817SOL    HW214476   1.872   7.443   4.054
 4818SOL     OW14477   0.027   7.182   3.841
 4818SOL    HW114478   0.008   7.086   3.862
 4818SOL    HW214479  -0.006   7.240   3.916
 4819SOL     OW14480   1.689   6.508   4.336
 4819SOL    HW114481   1.784   6.479   4.344
 4819SOL    HW214482   1.681   6.573   4.261
 4820SOL     OW14483   1.641   6.694   4.156
 4820SOL    HW114484   1.727   6.696   4.104
 4820SOL    HW214485   1.655   6.741   4.244
 4821SOL     OW14486   0.113   6.323   5.321
 4821SOL    HW114487   0.201   6.310   5.366
 4821SOL    HW214488   0.100   6.420   5.299
 4822SOL     OW14489   0.613   6.951   4.450
 4822SOL    HW114490   0.564   6.864   4.459
 4822SOL    HW214491   0.590   6.994   4.363
 4823SOL     OW14492   1.293   6.814   5.147
 4823SOL    HW114493   1.330   6.741   5.089
 4823SOL    HW214494   1.345   6.819   5.232
 4824SOL     OW14495   0.809   5.590   4.226
 4824SOL    HW114496   0.849   5.681   4.217
 4824SOL    HW214497   0.709   5.598   4.232
 4825SOL     OW14498   0.197   6.562   4.988
 4825SOL    HW114499   0.286   6.517   4.974
 4825SOL    HW214500   0.124   6.497   4.969
 4826SOL     OW14501   1.525   6.585   3.914
 4826SOL    HW114502   1.462   6.509   3.927
 4826SOL    HW214503   1.573   6.603   4.000
 4827SOL     OW14504   1.187   7.378   5.340
 4827SOL    HW114505   1.211   7.438   5.264
 4827SOL    HW214506   1.194   7.283   5.310
 4828SOL     OW14507   0.317   5.837   5.525
 4828SOL    HW114508   0.388   5.908   5.531
 4828SOL    HW214509   0.229   5.876   5.553
 4829SOL     OW14510   1.466   7.003   4.677
 4829SOL    HW114511   1.407   7.009   4.757
 4829SOL    HW214512   1.451   6.915   4.631
 4830SOL     OW14513   1.667   7.300   4.296
 4830SOL    HW114514   1.626   7.277   4.208
 4830SOL    HW214515   1.649   7.226   4.361
 4831SOL     OW14516   0.598   6.315   3.994
 4831SOL    HW114517   0.622   6.384   3.926
 4831SOL    HW214518   0.520   6.348   4.048
 4832SOL     OW14519   1.281   5.931   4.668
 4832SOL    HW114520   1.195   5.881   4.655
 4832SOL    HW214521   1.343   5.877   4.724
 4833SOL     OW14522   1.576   7.248   4.031
 4833SOL    HW114523   1.665   7.294   4.034
 4833SOL    HW214524   1.555   7.224   3.936
 4834SOL     OW14525   0.807   6.191   5.189
 4834SOL    HW114526   0.760   6.188   5.278
 4834SOL    HW214527   0.756   6.136   5.123
 4835SOL     OW14528   1.394   6.055   5.398
 4835SOL    HW114529   1.374   6.098   5.486
 4835SOL    HW214530   1.472   5.993   5.407
 4836SOL     OW14531   0.973   6.476   5.296
 4836SOL    HW114532   1.019   6.392   5.267
 4836SOL    HW214533   0.917   6.510   5.221
 4837SOL     OW14534   0.991   5.996   4.966
 4837SOL    HW114535   0.914   6.030   5.020
 4837SOL    HW214536   0.957   5.945   4.887
 4838SOL     OW14537   1.041   6.287   4.153
 4838SOL    HW114538   1.067   6.283   4.249
 4838SOL    HW214539   0.956   6.236   4.139
 4839SOL     OW14540   0.076   6.397   4.513
 4839SOL    HW114541   0.175   6.385   4.522
 4839SOL    HW214542   0.052   6.492   4.534
 4840SOL     OW14543   0.130   7.407   5.295
 4840SOL    HW114544   0.120   7.392   5.394
 4840SOL    HW214545   0.044   7.443   5.259
 4841SOL     OW14546   0.865   5.934   3.919
 4841SOL    HW114547   0.924   5.997   3.870
 4841SOL    HW214548   0.884   5.840   3.890
 4842SOL     OW14549   1.719   6.171   5.555
 4842SOL    HW114550   1.693   6.260   5.519
 4842SOL    HW214551   1.717   6.103   5.482
 4843SOL     OW14552   1.362   6.730   4.269
 4843SOL    HW114553   1.445   6.701   4.221
 4843SOL    HW214554   1.313   6.797   4.213
 4844SOL     OW14555   0.550   5.782   4.609
 4844SOL    HW114556   0.545   5.777   4.709
 4844SOL    HW214557   0.552   5.878   4.580
 4845SOL     OW14558   1.008   7.042   4.201
 4845SOL    HW114559   0.962   7.114   4.149
 4845SOL    HW214560   1.004   7.062   4.299
 4846SOL     OW14561   0.351   7.387   4.577
 4846SOL    HW114562   0.401   7.301   4.583
 4846SOL    HW214563   0.416   7.464   4.574
 4847SOL     OW14564   1.795   6.652   4.597
 4847SOL    HW114565   1.733   6.637   4.521
 4847SOL    HW214566   1.743   6.663   4.682
 4848SOL     OW14567   1.227   7.136   5.230
 4848SOL    HW114568   1.233   7.059   5.294
 4848SOL    HW214569   1.175   7.110   5.150
 4849SOL     OW14570   0.321   6.529   3.966
 4849SOL    HW114571   0.403   6.568   3.924
 4849SOL    HW214572   0.294   6.447   3.917
 4850SOL     OW14573   1.458   6.321   4.452
 4850SOL    HW114574   1.453   6.256   4.527
 4850SOL    HW214575   1.538   6.380   4.465
 4851SOL     OW14576   0.461   6.852   5.451
 4851SOL    HW114577   0.411   6.853   5.365
 4851SOL    HW214578   0.398   6.834   5.527
 4852SOL     OW14579   1.111   7.362   3.961
 4852SOL    HW114580   1.051   7.300   4.011
 4852SOL    HW214581   1.142   7.318   3.876
 4853SOL     OW14582   0.202   5.871   5.222
 4853SOL    HW114583   0.122   5.931   5.209
 4853SOL    HW214584   0.192   5.822   5.308
 4854SOL     OW14585   1.632   6.963   3.805
 4854SOL    HW114586   1.600   7.057   3.795
 4854SOL    HW214587   1.556   6.900   3.793
 4855SOL     OW14588   0.464   7.329   4.047
 4855SOL    HW114589   0.497   7.368   4.133
 4855SOL    HW214590   0.540   7.322   3.982
 4856SOL     OW14591   1.400   5.693   4.150
 4856SOL    HW114592   1.376   5.656   4.060
 4856SOL    HW214593   1.499   5.709   4.154
 4857SOL     OW14594   0.249   7.371   4.965
 4857SOL    HW114595   0.306   7.306   5.015
 4857SOL    HW214596   0.233   7.338   4.872
 4858SOL     OW14597   0.940   7.284   4.628
 4858SOL    HW114598   1.020   7.227   4.649
 4858SOL    HW214599   0.891   7.244   4.551
 4859SOL     OW14600   0.382   6.286   4.204
 4859SOL    HW114601   0.427   6.196   4.201
 4859SOL    HW214602   0.288   6.275   4.237
 4860SOL     OW14603   1.547   5.808   5.453
 4860SOL    HW114604   1.542   5.845   5.545
 4860SOL    HW214605   1.475   5.739   5.441
 4861SOL     OW14606   0.614   5.708   3.841
 4861SOL    HW114607   0.712   5.686   3.848
 4861SOL    HW214608   0.583   5.691   3.748
 4862SOL     OW14609   0.781   5.850   5.473
 4862SOL    HW114610   0.848   5.789   5.516
 4862SOL    HW214611   0.708   5.869   5.538
 4863SOL     OW14612   0.888   7.100   4.919
 4863SOL    HW114613   0.865   7.075   4.825
 4863SOL    HW214614   0.949   7.031   4.958
 4864SOL     OW14615   1.351   6.176   5.157
 4864SOL    HW114616   1.379   6.133   5.242
 4864SOL    HW214617   1.376   6.272   5.158
 4865SOL     OW14618   0.803   6.988   4.648
 4865SOL    HW114619   0.893   7.002   4.606
 4865SOL    HW214620   0.732   6.990   4.577
 4866SOL     OW14621   0.922   6.089   4.623
 4866SOL    HW114622   0.897   6.080   4.527
 4866SOL    HW214623   0.970   6.007   4.654
 4867SOL     OW14624   0.539   5.650   4.236
 4867SOL    HW114625   0.458   5.651   4.294
 4867SOL    HW214626   0.542   5.733   4.181
 4868SOL     OW14627   1.434   6.774   3.765
 4868SOL    HW114628   1.466   6.698   3.822
 4868SOL    HW214629   1.342   6.801   3.795
 4869SOL     OW14630   0.297   5.621   3.895
 4869SOL    HW114631   0.346   5.705   3.874
 4869SOL    HW214632   0.359   5.556   3.940
 4870SOL     OW14633   0.935   5.822   4.204
 4870SOL    HW114634   0.887   5.863   4.126
 4870SOL    HW214635   1.034   5.820   4.185
 4871SOL     OW14636   1.076   6.269   5.188
 4871SOL    HW114637   0.996   6.208   5.191
 4871SOL    HW214638   1.157   6.216   5.164
 4872SOL     OW14639   1.227   7.156   4.517
 4872SOL    HW114640   1.248   7.230   4.452
 4872SOL    HW214641   1.295   7.156   4.590
 4873SOL     OW14642   0.459   6.738   4.465
 4873SOL    HW114643   0.388   6.711   4.530
 4873SOL    HW214644   0.433   6.710   4.372
 4874SOL     OW14645   1.271   7.383   4.315
 4874SOL    HW114646   1.315   7.447   4.251
 4874SOL    HW214647   1.221   7.435   4.385
 4875SOL     OW14648   0.078   6.142   5.110
 4875SOL    HW114649   0.170   6.141   5.069
 4875SOL    HW214650   0.072   6.216   5.177
 4876SOL     OW14651   0.561   5.808   4.871
 4876SOL    HW114652   0.599   5.724   4.908
 4876SOL    HW214653   0.473   5.827   4.915
 4877SOL     OW14654   0.866   6.040   4.366
 4877SOL    HW114655   0.834   6.112   4.304
 4877SOL    HW214656   0.890   5.959   4.313
 4878SOL     OW14657   1.017   5.625   4.477
 4878SOL    HW114658   0.945   5.630   4.408
 4878SOL    HW214659   0.993   5.556   4.546
 4879SOL     OW14660   1.429   6.759   4.591
 4879SOL    HW114661   1.374   6.675   4.584
 4879SOL    HW214662   1.455   6.788   4.499
 4880SOL     OW14663   1.466   6.176   4.716
 4880SOL    HW114664   1.436   6.081   4.723
 4880SOL    HW214665   1.539   6.192   4.782
 4881SOL     OW14666   1.857   6.419   4.101
 4881SOL    HW114667   1.899   6.355   4.165
 4881SOL    HW214668   1.819   6.368   4.023
 4882SOL     OW14669   0.488   6.971   3.898
 4882SOL    HW114670   0.401   6.956   3.945
 4882SOL    HW214671   0.471   6.997   3.803
 4883SOL     OW14672   1.664   6.866   4.381
 4883SOL    HW114673   1.763   6.874   4.395
 4883SOL    HW214674   1.619   6.950   4.412
 4884SOL     OW14675   1.390   6.161   3.802
 4884SOL    HW114676   1.336   6.140   3.883
 4884SOL    HW214677   1.481   6.120   3.811
 4885SOL     OW14678   0.527   5.842   4.052
 4885SOL    HW114679   0.554   5.783   3.977
 4885SOL    HW214680   0.527   5.937   4.021
 4886SOL     OW14681   1.754   6.809   5.312
 4886SOL    HW114682   1.845   6.770   5.299
 4886SOL    HW214683   1.762   6.905   5.336
 4887SOL     OW14684   1.064   6.933   5.064
 4887SOL    HW114685   0.984   6.910   5.119
 4887SOL    HW214686   1.147   6.907   5.113
 4888SOL     OW14687   1.592   7.215   5.349
 4888SOL    HW114688   1.619   7.249   5.259
 4888SOL    HW214689   1.671   7.177   5.395
 4889SOL     OW14690   1.111   6.781   4.824
 4889SOL    HW114691   1.071   6.825   4.905
 4889SOL    HW214692   1.070   6.818   4.741
 4890SOL     OW14693   1.638   6.685   4.803
 4890SOL    HW114694   1.643   6.766   4.862
 4890SOL    HW214695   1.552   6.687   4.752
 4891SOL     OW14696   0.915   5.675   5.126
 4891SOL    HW114697   0.940   5.655   5.031
 4891SOL    HW214698   0.987   5.731   5.168
 4892SOL     OW14699   0.980   6.702   5.443
 4892SOL    HW114700   0.881   6.708   5.453
 4892SOL    HW214701   1.003   6.622   5.387
 4893SOL     OW14702   0.705   6.636   4.092
 4893SOL    HW114703   0.691   6.643   4.191
 4893SOL    HW214704   0.789   6.585   4.074
 4894SOL     OW14705   0.410   6.399   4.975
 4894SOL    HW114706   0.496   6.411   5.025
 4894SOL    HW214707   0.368   6.312   5.002
 4895SOL     OW14708   1.274   5.972   4.986
 4895SOL    HW114709   1.295   6.046   5.050
 4895SOL    HW214710   1.185   5.989   4.943
 4896SOL     OW14711   0.064   7.150   5.055
 4896SOL    HW114712   0.018   7.232   5.021
 4896SOL    HW214713   0.162   7.169   5.064
 4897SOL     OW14714   0.367   6.686   4.225
 4897SOL    HW114715   0.360   6.769   4.169
 4897SOL    HW214716   0.371   6.606   4.165
 4898SOL     OW14717   0.566   6.123   4.589
 4898SOL    HW114718   0.578   6.189   4.515
 4898SOL    HW214719   0.612   6.157   4.672
 4899SOL     OW14720   1.252   6.934   4.112
 4899SOL    HW114721   1.302   7.011   4.152
 4899SOL    HW214722   1.157   6.936   4.144
 4900SOL     OW14723   1.272   7.031   4.866
 4900SOL    HW114724   1.319   7.044   4.953
 4900SOL    HW214725   1.206   6.957   4.875
 4901SOL     OW14726   1.582   6.225   4.196
 4901SOL    HW114727   1.551   6.286   4.269
 4901SOL    HW214728   1.632   6.277   4.127
 4902SOL     OW14729   0.354   7.096   5.053
 4902SOL    HW114730   0.333   7.052   4.966
 4902SOL    HW214731   0.451   7.122   5.056
 4903SOL     OW14732   0.402   6.337   5.322
 4903SOL    HW114733   0.470   6.392   5.275
 4903SOL    HW214734   0.442   6.249   5.349
 4904SOL     OW14735   1.587   6.365   5.394
 4904SOL    HW114736   1.495   6.403   5.389
 4904SOL    HW214737   1.647   6.412   5.329
 4905SOL     OW14738   1.013   5.691   5.494
 4905SOL    HW114739   1.019   5.776   5.442
 4905SOL    HW214740   1.045   5.615   5.437
 4906SOL     OW14741   0.504   5.636   5.464
 4906SOL    HW114742   0.462   5.579   5.394
 4906SOL    HW214743   0.438   5.705   5.496
 4907SOL     OW14744   0.573   6.456   4.753
 4907SOL    HW114745   0.617   6.545   4.744
 4907SOL    HW214746   0.510   6.456   4.830
 4908SOL     OW14747   1.360   6.448   4.769
 4908SOL    HW114748   1.285   6.448   4.703
 4908SOL    HW214749   1.397   6.356   4.778
 4909SOL     OW14750   1.209   6.111   3.999
 4909SOL    HW114751   1.222   6.027   4.053
 4909SOL    HW214752   1.180   6.185   4.059
 4910SOL     OW14753   0.307   5.799   4.955
 4910SOL    HW114754   0.284   5.836   5.045
 4910SOL    HW214755   0.277   5.704   4.949
 4911SOL     OW14756   0.037   6.896   5.006
 4911SOL    HW114757   0.090   6.847   5.074
 4911SOL    HW214758   0.059   6.994   5.011
 4912SOL     OW14759   0.732   6.220   4.788
 4912SOL    HW114760   0.791   6.194   4.712
 4912SOL    HW214761   0.704   6.316   4.777
 4913SOL     OW14762   1.728   6.521   5.578
 4913SOL    HW114763   1.682   6.514   5.489
 4913SOL    HW214764   1.666   6.565   5.644
 4914SOL     OW14765   0.307   5.649   4.342
 4914SOL    HW114766   0.296   5.743   4.375
 4914SOL    HW214767   0.302   5.586   4.419
 4915SOL     OW14768   1.622   5.953   4.098
 4915SOL    HW114769   1.624   5.877   4.162
 4915SOL    HW214770   1.574   6.030   4.138
 4916SOL     OW14771   1.023   6.352   4.690
 4916SOL    HW114772   1.038   6.373   4.786
 4916SOL    HW214773   0.993   6.257   4.681
 4917SOL     OW14774   0.980   7.159   5.424
 4917SOL    HW114775   0.960   7.203   5.336
 4917SOL    HW214776   1.019   7.068   5.408
 4918SOL     OW14777   1.859   7.104   5.329
 4918SOL    HW114778   1.873   7.131   5.234
 4918SOL    HW214779   1.942   7.126   5.382
 4919SOL     OW14780   0.350   6.484   5.528
 4919SOL    HW114781   0.426   6.528   5.576
 4919SOL    HW214782   0.385   6.437   5.446
 4920SOL     OW14783   1.540   5.860   3.849
 4920SOL    HW114784   1.479   5.785   3.872
 4920SOL    HW214785   1.562   5.912   3.932
 4921SOL     OW14786   1.303   6.424   3.766
 4921SOL    HW114787   1.337   6.331   3.781
 4921SOL    HW214788   1.321   6.451   3.671
 4922SOL     OW14789   1.068   6.919   4.573
 4922SOL    HW114790   1.075   6.835   4.518
 4922SOL    HW214791   1.130   6.988   4.537
 4923SOL     OW14792   0.319   6.396   4.673
 4923SOL    HW114793   0.412   6.432   4.678
 4923SOL    HW214794   0.313   6.311   4.725
 4924SOL     OW14795   0.339   6.095   4.730
 4924SOL    HW114796   0.287   6.012   4.713
 4924SOL    HW214797   0.416   6.100   4.666
 4925SOL     OW14798   1.138   5.966   5.402
 4925SOL    HW114799   1.093   6.029   5.466
 4925SOL    HW214800   1.231   5.997   5.385
 4926SOL     OW14801   1.160   5.793   5.201
 4926SOL    HW114802   1.160   5.857   5.278
 4926SOL    HW214803   1.188   5.841   5.118
 4927SOL     OW14804   0.008   6.912   3.924
 4927SOL    HW114805  -0.085   6.933   3.893
 4927SOL    HW214806   0.018   6.813   3.937
 4928SOL     OW14807   0.088   7.387   4.651
 4928SOL    HW114808   0.046   7.301   4.624
 4928SOL    HW214809   0.182   7.390   4.617
 4929SOL     OW14810   0.504   7.154   4.634
 4929SOL    HW114811   0.570   7.228   4.643
 4929SOL    HW214812   0.548   7.075   4.592
 4930SOL     OW14813   1.002   6.382   4.962
 4930SOL    HW114814   1.043   6.350   5.048
 4930SOL    HW214815   0.906   6.355   4.959
 4931SOL     OW14816   0.040   6.130   4.838
 4931SOL    HW114817   0.125   6.097   4.797
 4931SOL    HW214818   0.053   6.145   4.936
 4932SOL     OW14819   0.189   6.106   5.446
 4932SOL    HW114820   0.248   6.066   5.376
 4932SOL    HW214821   0.131   6.177   5.405
 4933SOL     OW14822   1.369   6.536   5.384
 4933SOL    HW114823   1.408   6.625   5.404
 4933SOL    HW214824   1.379   6.516   5.287
 4934SOL     OW14825   0.815   6.158   4.049
 4934SOL    HW114826   0.822   6.069   4.003
 4934SOL    HW214827   0.721   6.192   4.041
 4935SOL     OW14828   1.657   6.190   4.930
 4935SOL    HW114829   1.619   6.121   4.992
 4935SOL    HW214830   1.739   6.154   4.886
 4936SOL     OW14831   0.252   7.150   5.468
 4936SOL    HW114832   0.222   7.207   5.544
 4936SOL    HW214833   0.245   7.053   5.494
 4937SOL     OW14834   0.671   6.050   4.993
 4937SOL    HW114835   0.637   5.961   4.963
 4937SOL    HW214836   0.697   6.104   4.913
 4938SOL     OW14837   0.930   7.264   5.189
 4938SOL    HW114838   0.906   7.246   5.094
 4938SOL    HW214839   0.960   7.358   5.199
 4939SOL     OW14840   0.473   6.086   3.915
 4939SOL    HW114841   0.534   6.166   3.919
 4939SOL    HW214842   0.378   6.117   3.922
 4940SOL     OW14843   0.159   6.723   5.190
 4940SOL    HW114844   0.181   6.662   5.266
 4940SOL    HW214845   0.169   6.674   5.104
 4941SOL     OW14846   1.347   6.645   4.958
 4941SOL    HW114847   1.371   6.582   4.884
 4941SOL    HW214848   1.257   6.685   4.940
 4942SOL     OW14849   1.302   6.441   4.033
 4942SOL    HW114850   1.216   6.410   4.075
 4942SOL    HW214851   1.298   6.427   3.934
 4943SOL     OW14852   1.759   7.333   4.878
 4943SOL    HW114853   1.820   7.363   4.805
 4943SOL    HW214854   1.721   7.244   4.856
 4944SOL     OW14855   1.252   7.317   4.852
 4944SOL    HW114856   1.336   7.322   4.798
 4944SOL    HW214857   1.229   7.221   4.870
 4945SOL     OW14858   0.083   6.844   4.746
 4945SOL    HW114859   0.078   6.843   4.846
 4945SOL    HW214860   0.000   6.803   4.708
 4946SOL     OW14861   0.688   7.248   5.440
 4946SOL    HW114862   0.632   7.329   5.449
 4946SOL    HW214863   0.740   7.252   5.354
 4947SOL     OW14864   1.726   5.721   4.247
 4947SOL    HW114865   1.799   5.704   4.180
 4947SOL    HW214866   1.695   5.634   4.285
 4948SOL     OW14867   1.388   7.159   4.201
 4948SOL    HW114868   1.455   7.171   4.127
 4948SOL    HW214869   1.348   7.248   4.224
 4949SOL     OW14870   0.130   7.380   5.575
 4949SOL    HW114871   0.089   7.306   5.628
 4949SOL    HW214872   0.194   7.431   5.633
 4950SOL     OW14873   1.280   6.513   4.396
 4950SOL    HW114874   1.340   6.432   4.398
 4950SOL    HW214875   1.320   6.582   4.336
 4951SOL     OW14876   0.830   6.859   5.146
 4951SOL    HW114877   0.825   6.892   5.241
 4951SOL    HW214878   0.744   6.878   5.100
 4952SOL     OW14879   0.672   7.202   3.878
 4952SOL    HW114880   0.681   7.212   3.779
 4952SOL    HW214881   0.632   7.113   3.899
 4953SOL     OW14882   1.650   7.306   5.118
 4953SOL    HW114883   1.703   7.316   5.034
 4953SOL    HW214884   1.623   7.396   5.152
 4954SOL     OW14885   1.841   5.761   4.687
 4954SOL    HW114886   1.880   5.676   4.651
 4954SOL    HW214887   1.743   5.763   4.668
 4955SOL     OW14888   0.263   5.912   4.444
 4955SOL    HW114889   0.184   5.963   4.410
 4955SOL    HW214890   0.254   5.897   4.542
 4956SOL     OW14891   1.194   7.198   3.755
 4956SOL    HW114892   1.200   7.105   3.792
 4956SOL    HW214893   1.135   7.198   3.675
 4957SOL     OW14894   0.822   6.588   5.096
 4957SOL    HW114895   0.862   6.587   5.004
 4957SOL    HW214896   0.832   6.680   5.136
 4958SOL     OW14897   0.916   6.496   4.015
 4958SOL    HW114898   0.979   6.534   3.947
 4958SOL    HW214899   0.956   6.413   4.054
 4959SOL     OW14900   1.504   7.193   3.768
 4959SOL    HW114901   1.412   7.230   3.775
 4959SOL    HW214902   1.542   7.213   3.678
 4960SOL     OW14903   0.372   6.874   5.214
 4960SOL    HW114904   0.359   6.967   5.180
 4960SOL    HW214905   0.288   6.822   5.201
 4961SOL     OW14906   1.614   6.878   5.013
 4961SOL    HW114907   1.674   6.881   5.093
 4961SOL    HW214908   1.539   6.942   5.026
 4962SOL     OW14909   1.039   6.684   4.420
 4962SOL    HW114910   0.969   6.637   4.474
 4962SOL    HW214911   1.098   6.616   4.377
 4963SOL     OW14912   1.014   5.822   4.695
 4963SOL    HW114913   1.006   5.786   4.602
 4963SOL    HW214914   1.012   5.746   4.760
 4964SOL     OW14915   0.590   7.073   4.215
 4964SOL    HW114916   0.632   7.015   4.145
 4964SOL    HW214917   0.546   7.152   4.171
 4965SOL     OW14918   1.709   5.971   5.105
 4965SOL    HW114919   1.782   6.040   5.109
 4965SOL    HW214920   1.737   5.896   5.046
 4966SOL     OW14921   0.255   6.934   4.014
 4966SOL    HW114922   0.159   6.935   3.987
 4966SOL    HW214923   0.267   6.987   4.098
 4967SOL     OW14924   0.105   6.599   5.450
 4967SOL    HW114925   0.028   6.566   5.504
 4967SOL    HW214926   0.190   6.569   5.492
 4968SOL     OW14927   0.672   5.789   5.213
 4968SOL    HW114928   0.762   5.773   5.173
 4968SOL    HW214929   0.680   5.794   5.312
 4969SOL     OW14930   0.075   5.931   3.757
 4969SOL    HW114931  -0.017   5.903   3.728
 4969SOL    HW214932   0.106   6.008   3.701
 4970SOL     OW14933   1.440   6.442   5.122
 4970SOL    HW114934   1.383   6.494   5.059
 4970SOL    HW214935   1.536   6.454   5.098
 4971SOL     OW14936   0.072   5.752   4.042
 4971SOL    HW114937   0.055   5.835   3.988
 4971SOL    HW214938   0.162   5.715   4.020
 4972SOL     OW14939   1.183   6.921   3.843
 4972SOL    HW114940   1.084   6.910   3.845
 4972SOL    HW214941   1.217   6.936   3.936
 4973SOL     OW14942   0.613   6.428   5.155
 4973SOL    HW114943   0.669   6.509   5.138
 4973SOL    HW214944   0.672   6.348   5.158
 4974SOL     OW14945   1.493   7.353   4.683
 4974SOL    HW114946   1.526   7.417   4.614
 4974SOL    HW214947   1.559   7.347   4.758
 4975SOL     OW14948   0.716   6.151   5.432
 4975SOL    HW114949   0.735   6.216   5.506
 4975SOL    HW214950   0.776   6.071   5.441
 4976SOL     OW14951   1.450   6.806   5.357
 4976SOL    HW114952   1.441   6.796   5.456
 4976SOL    HW214953   1.546   6.799   5.331
 4977SOL     OW14954   0.390   7.327   5.284
 4977SOL    HW114955   0.299   7.368   5.282
 4977SOL    HW214956   0.383   7.233   5.316
 4978SOL     OW14957   1.674   6.469   4.978
 4978SOL    HW114958   1.647   6.380   4.941
 4978SOL    HW214959   1.675   6.537   4.905
 4979SOL     OW14960   1.225   5.911   4.173
 4979SOL    HW114961   1.290   5.837   4.162
 4979SOL    HW214962   1.245   5.961   4.257
 4980SOL     OW14963   0.594   6.331   4.376
 4980SOL    HW114964   0.644   6.416   4.357
 4980SOL    HW214965   0.506   6.333   4.328
 4981SOL     OW14966   1.777   5.928   5.366
 4981SOL    HW114967   1.760   5.959   5.272
 4981SOL    HW214968   1.693   5.891   5.404
 4982SOL     OW14969   1.730   6.520   5.241
 4982SOL    HW114970   1.768   6.611   5.256
 4982SOL    HW214971   1.722   6.503   5.142
 4983SOL     OW14972   0.859   6.960   3.740
 4983SOL    HW114973   0.813   6.975   3.828
 4983SOL    HW214974   0.903   7.045   3.710
 4984SOL     OW14975   0.661   7.376   4.677
 4984SOL    HW114976   0.615   7.464   4.664
 4984SOL    HW214977   0.760   7.388   4.670
 4985SOL     OW14978   0.859   6.542   4.585
 4985SOL    HW114979   0.913   6.473   4.633
 4985SOL    HW214980   0.827   6.611   4.651
 4986SOL     OW14981   1.083   6.570   3.811
 4986SOL    HW114982   1.060   6.623   3.729
 4986SOL    HW214983   1.164   6.514   3.792
 4987SOL     OW14984   1.861   7.155   4.575
 4987SOL    HW114985   1.790   7.143   4.505
 4987SOL    HW214986   1.862   7.076   4.635
 4988SOL     OW14987   0.221   6.900   5.568
 4988SOL    HW114988   0.156   6.827   5.547
 4988SOL    HW214989   0.225   6.914   5.666
 4989SOL     OW14990   0.079   6.826   4.377
 4989SOL    HW114991   0.078   6.779   4.465
 4989SOL    HW214992   0.161   6.798   4.326
 4990SOL     OW14993   0.672   6.977   5.348
 4990SOL    HW114994   0.594   6.927   5.386
 4990SOL    HW214995   0.669   7.072   5.379
 4991SOL     OW14996   1.824   5.778   4.951
 4991SOL    HW114997   1.820   5.688   4.995
 4991SOL    HW214998   1.827   5.767   4.852
 4992SOL     OW14999   0.428   6.010   4.244
 4992SOL    HW115000   0.458   5.938   4.182
 4992SOL    HW215001   0.389   5.970   4.327
 4993SOL     OW15002   1.705   7.073   4.828
 4993SOL    HW115003   1.612   7.048   4.801
 4993SOL    HW215004   1.731   7.023   4.910
 4994SOL     OW15005   0.317   6.133   5.004
 4994SOL    HW115006   0.355   6.074   5.076
 4994SOL    HW215007   0.357   6.107   4.916
 4995SOL     OW15008   0.812   7.172   4.411
 4995SOL    HW115009   0.844   7.182   4.317
 4995SOL    HW215010   0.733   7.110   4.413
 4996SOL     OW15011   1.424   5.800   4.836
 4996SOL    HW115012   1.476   5.735   4.891
 4996SOL    HW215013   1.375   5.863   4.897
 4997SOL     OW15014   1.001   5.620   4.878
 4997SOL    HW115015   0.938   5.548   4.847
 4997SOL    HW215016   1.094   5.584   4.878
 4998SOL     OW15017   0.770   6.916   4.025
 4998SOL    HW115018   0.724   6.829   4.042
 4998SOL    HW215019   0.861   6.913   4.066
 4999SOL     OW15020   0.618   7.153   5.008
 4999SOL    HW115021   0.613   7.235   5.065
 4999SOL    HW215022   0.707   7.150   4.963
 5000SOL     OW15023   1.352   5.638   3.892
 5000SOL    HW115024   1.387   5.597   3.808
 5000SOL    HW215025   1.262   5.600   3.912
 5001SOL     OW15026   1.300   6.039   4.415
 5001SOL    HW115027   1.241   6.119   4.419
 5001SOL    HW215028   1.315   6.004   4.508
 5002SOL     OW15029   1.593   5.807   4.606
 5002SOL    HW115030   1.509   5.806   4.660
 5002SOL    HW215031   1.595   5.890   4.550
 5003SOL     OW15032   0.039   6.663   4.024
 5003SOL    HW115033   0.138   6.652   4.015
 5003SOL    HW215034  -0.001   6.577   4.056
 5004SOL     OW15035   0.875   7.232   4.061
 5004SOL    HW115036   0.798   7.197   4.007
 5004SOL    HW215037   0.843   7.303   4.123
 5005SOL     OW15038   0.230   6.214   5.699
 5005SOL    HW115039   0.137   6.212   5.736
 5005SOL    HW215040   0.231   6.175   5.607
 5006SOL     OW15041   0.225   5.861   6.582
 5006SOL    HW115042   0.260   5.844   6.674
 5006SOL    HW215043   0.137   5.816   6.570
 5007SOL     OW15044   0.019   5.954   6.233
 5007SOL    HW115045  -0.063   5.997   6.272
 5007SOL    HW215046  -0.009   5.881   6.170
 5008SOL     OW15047   0.569   6.861   6.751
 5008SOL    HW115048   0.476   6.854   6.714
 5008SOL    HW215049   0.580   6.950   6.795
 5009SOL     OW15050   1.555   7.097   6.289
 5009SOL    HW115051   1.498   7.081   6.370
 5009SOL    HW215052   1.496   7.107   6.209
 5010SOL     OW15053   1.135   6.289   6.303
 5010SOL    HW115054   1.192   6.367   6.278
 5010SOL    HW215055   1.075   6.315   6.379
 5011SOL     OW15056   1.755   6.193   5.817
 5011SOL    HW115057   1.743   6.180   5.718
 5011SOL    HW215058   1.725   6.112   5.866
 5012SOL     OW15059   0.768   6.730   6.609
 5012SOL    HW115060   0.690   6.747   6.669
 5012SOL    HW215061   0.802   6.817   6.573
 5013SOL     OW15062   0.850   6.384   7.409
 5013SOL    HW115063   0.846   6.460   7.474
 5013SOL    HW215064   0.872   6.420   7.318
 5014SOL     OW15065   0.685   6.598   6.251
 5014SOL    HW115066   0.754   6.582   6.321
 5014SOL    HW215067   0.612   6.655   6.289
 5015SOL     OW15068   0.686   6.747   7.389
 5015SOL    HW115069   0.746   6.826   7.403
 5015SOL    HW215070   0.600   6.778   7.348
 5016SOL     OW15071   0.335   7.021   6.647
 5016SOL    HW115072   0.257   6.990   6.594
 5016SOL    HW215073   0.393   7.079   6.590
 5017SOL     OW15074   1.460   7.091   6.925
 5017SOL    HW115075   1.484   7.185   6.951
 5017SOL    HW215076   1.444   7.037   7.007
 5018SOL     OW15077   0.438   5.978   7.085
 5018SOL    HW115078   0.520   5.922   7.094
 5018SOL    HW215079   0.357   5.920   7.089
 5019SOL     OW15080   1.603   6.033   6.323
 5019SOL    HW115081   1.529   6.079   6.273
 5019SOL    HW215082   1.654   6.101   6.376
 5020SOL     OW15083   0.231   7.299   6.069
 5020SOL    HW115084   0.265   7.376   6.123
 5020SOL    HW215085   0.275   7.299   5.979
 5021SOL     OW15086   1.127   6.927   7.276
 5021SOL    HW115087   1.174   6.927   7.364
 5021SOL    HW215088   1.079   6.840   7.265
 5022SOL     OW15089   0.230   7.020   6.124
 5022SOL    HW115090   0.204   7.116   6.124
 5022SOL    HW215091   0.159   6.966   6.169
 5023SOL     OW15092   0.240   6.677   6.472
 5023SOL    HW115093   0.254   6.593   6.524
 5023SOL    HW215094   0.185   6.741   6.527
 5024SOL     OW15095   0.620   7.372   7.025
 5024SOL    HW115096   0.528   7.355   7.060
 5024SOL    HW215097   0.648   7.464   7.051
 5025SOL     OW15098   0.606   6.550   5.709
 5025SOL    HW115099   0.613   6.634   5.655
 5025SOL    HW215100   0.652   6.563   5.797
 5026SOL     OW15101   1.594   5.700   7.066
 5026SOL    HW115102   1.576   5.767   6.994
 5026SOL    HW215103   1.591   5.746   7.155
 5027SOL     OW15104   0.122   6.229   6.149
 5027SOL    HW115105   0.077   6.141   6.166
 5027SOL    HW215106   0.121   6.283   6.233
 5028SOL     OW15107   1.842   7.353   5.945
 5028SOL    HW115108   1.896   7.324   6.025
 5028SOL    HW215109   1.872   7.443   5.916
 5029SOL     OW15110   0.027   7.182   5.703
 5029SOL    HW115111   0.008   7.086   5.724
 5029SOL    HW215112  -0.006   7.240   5.778
 5030SOL     OW15113   1.689   6.508   6.198
 5030SOL    HW115114   1.784   6.479   6.206
 5030SOL    HW215115   1.681   6.573   6.123
 5031SOL     OW15116   1.641   6.694   6.018
 5031SOL    HW115117   1.727   6.696   5.966
 5031SOL    HW215118   1.655   6.741   6.106
 5032SOL     OW15119   0.113   6.323   7.183
 5032SOL    HW115120   0.201   6.310   7.228
 5032SOL    HW215121   0.100   6.420   7.161
 5033SOL     OW15122   0.613   6.951   6.312
 5033SOL    HW115123   0.564   6.864   6.321
 5033SOL    HW215124   0.590   6.994   6.225
 5034SOL     OW15125   1.293   6.814   7.009
 5034SOL    HW115126   1.330   6.741   6.951
 5034SOL    HW215127   1.345   6.819   7.094
 5035SOL     OW15128   0.809   5.590   6.088
 5035SOL    HW115129   0.849   5.681   6.079
 5035SOL    HW215130   0.709   5.598   6.094
 5036SOL     OW15131   0.197   6.562   6.850
 5036SOL    HW115132   0.286   6.517   6.836
 5036SOL    HW215133   0.124   6.497   6.831
 5037SOL     OW15134   1.525   6.585   5.776
 5037SOL    HW115135   1.462   6.509   5.789
 5037SOL    HW215136   1.573   6.603   5.862
 5038SOL     OW15137   1.187   7.378   7.202
 5038SOL    HW115138   1.211   7.438   7.126
 5038SOL    HW215139   1.194   7.283   7.172
 5039SOL     OW15140   0.317   5.837   7.387
 5039SOL    HW115141   0.388   5.908   7.393
 5039SOL    HW215142   0.229   5.876   7.415
 5040SOL     OW15143   1.466   7.003   6.539
 5040SOL    HW115144   1.407   7.009   6.619
 5040SOL    HW215145   1.451   6.915   6.493
 5041SOL     OW15146   1.667   7.300   6.158
 5041SOL    HW115147   1.626   7.277   6.070
 5041SOL    HW215148   1.649   7.226   6.223
 5042SOL     OW15149   0.598   6.315   5.856
 5042SOL    HW115150   0.622   6.384   5.788
 5042SOL    HW215151   0.520   6.348   5.910
 5043SOL     OW15152   1.281   5.931   6.530
 5043SOL    HW115153   1.195   5.881   6.517
 5043SOL    HW215154   1.343   5.877   6.586
 5044SOL     OW15155   1.576   7.248   5.893
 5044SOL    HW115156   1.665   7.294   5.896
 5044SOL    HW215157   1.555   7.224   5.798
 5045SOL     OW15158   0.807   6.191   7.051
 5045SOL    HW115159   0.760   6.188   7.140
 5045SOL    HW215160   0.756   6.136   6.985
 5046SOL     OW15161   1.394   6.055   7.260
 5046SOL    HW115162   1.374   6.098   7.348
 5046SOL    HW215163   1.472   5.993   7.269
 5047SOL     OW15164   0.973   6.476   7.158
 5047SOL    HW115165   1.019   6.392   7.129
 5047SOL    HW215166   0.917   6.510   7.083
 5048SOL     OW15167   0.991   5.996   6.828
 5048SOL    HW115168   0.914   6.030   6.882
 5048SOL    HW215169   0.957   5.945   6.749
 5049SOL     OW15170   1.041   6.287   6.015
 5049SOL    HW115171   1.067   6.283   6.111
 5049SOL    HW215172   0.956   6.236   6.001
 5050SOL     OW15173   0.076   6.397   6.375
 5050SOL    HW115174   0.175   6.385   6.384
 5050SOL    HW215175   0.052   6.492   6.396
 5051SOL     OW15176   0.130   7.407   7.157
 5051SOL    HW115177   0.120   7.392   7.256
 5051SOL    HW215178   0.044   7.443   7.121
 5052SOL     OW15179   0.865   5.934   5.781
 5052SOL    HW115180   0.924   5.997   5.732
 5052SOL    HW215181   0.884   5.840   5.752
 5053SOL     OW15182   1.719   6.171   7.417
 5053SOL    HW115183   1.693   6.260   7.381
 5053SOL    HW215184   1.717   6.103   7.344
 5054SOL     OW15185   1.362   6.730   6.131
 5054SOL    HW115186   1.445   6.701   6.083
 5054SOL    HW215187   1.313   6.797   6.075
 5055SOL     OW15188   0.550   5.782   6.471
 5055SOL    HW115189   0.545   5.777   6.571
 5055SOL    HW215190   0.552   5.878   6.442
 5056SOL     OW15191   1.008   7.042   6.063
 5056SOL    HW115192   0.962   7.114   6.011
 5056SOL    HW215193   1.004   7.062   6.161
 5057SOL     OW15194   0.351   7.387   6.439
 5057SOL    HW115195   0.401   7.301   6.445
 5057SOL    HW215196   0.416   7.464   6.436
 5058SOL     OW15197   1.795   6.652   6.459
 5058SOL    HW115198   1.733   6.637   6.383
 5058SOL    HW215199   1.743   6.663   6.544
 5059SOL     OW15200   1.227   7.136   7.092
 5059SOL    HW115201   1.233   7.059   7.156
 5059SOL    HW215202   1.175   7.110   7.012
 5060SOL     OW15203   0.321   6.529   5.828
 5060SOL    HW115204   0.403   6.568   5.786
 5060SOL    HW215205   0.294   6.447   5.779
 5061SOL     OW15206   1.458   6.321   6.314
 5061SOL    HW115207   1.453   6.256   6.389
 5061SOL    HW215208   1.538   6.380   6.327
 5062SOL     OW15209   0.461   6.852   7.313
 5062SOL    HW115210   0.411   6.853   7.227
 5062SOL    HW215211   0.398   6.834   7.389
 5063SOL     OW15212   1.111   7.362   5.823
 5063SOL    HW115213   1.051   7.300   5.873
 5063SOL    HW215214   1.142   7.318   5.738
 5064SOL     OW15215   0.202   5.871   7.084
 5064SOL    HW115216   0.122   5.931   7.071
 5064SOL    HW215217   0.192   5.822   7.170
 5065SOL     OW15218   1.632   6.963   5.667
 5065SOL    HW115219   1.600   7.057   5.657
 5065SOL    HW215220   1.556   6.900   5.655
 5066SOL     OW15221   0.464   7.329   5.909
 5066SOL    HW115222   0.497   7.368   5.995
 5066SOL    HW215223   0.540   7.322   5.844
 5067SOL     OW15224   1.400   5.693   6.012
 5067SOL    HW115225   1.376   5.656   5.922
 5067SOL    HW215226   1.499   5.709   6.016
 5068SOL     OW15227   0.249   7.371   6.827
 5068SOL    HW115228   0.306   7.306   6.877
 5068SOL    HW215229   0.233   7.338   6.734
 5069SOL     OW15230   0.940   7.284   6.490
 5069SOL    HW115231   1.020   7.227   6.511
 5069SOL    HW215232   0.891   7.244   6.413
 5070SOL     OW15233   0.382   6.286   6.066
 5070SOL    HW115234   0.427   6.196   6.063
 5070SOL    HW215235   0.288   6.275   6.099
 5071SOL     OW15236   1.547   5.808   7.315
 5071SOL    HW115237   1.542   5.845   7.407
 5071SOL    HW215238   1.475   5.739   7.303
 5072SOL     OW15239   0.614   5.708   5.703
 5072SOL    HW115240   0.712   5.686   5.710
 5072SOL    HW215241   0.583   5.691   5.610
 5073SOL     OW15242   0.781   5.850   7.335
 5073SOL    HW115243   0.848   5.789   7.378
 5073SOL    HW215244   0.708   5.869   7.400
 5074SOL     OW15245   0.888   7.100   6.781
 5074SOL    HW115246   0.865   7.075   6.687
 5074SOL    HW215247   0.949   7.031   6.820
 5075SOL     OW15248   1.351   6.176   7.019
 5075SOL    HW115249   1.379   6.133   7.104
 5075SOL    HW215250   1.376   6.272   7.020
 5076SOL     OW15251   0.803   6.988   6.510
 5076SOL    HW115252   0.893   7.002   6.468
 5076SOL    HW215253   0.732   6.990   6.439
 5077SOL     OW15254   0.922   6.089   6.485
 5077SOL    HW115255   0.897   6.080   6.389
 5077SOL    HW215256   0.970   6.007   6.516
 5078SOL     OW15257   0.539   5.650   6.098
 5078SOL    HW115258   0.458   5.651   6.156
 5078SOL    HW215259   0.542   5.733   6.043
 5079SOL     OW15260   1.434   6.774   5.627
 5079SOL    HW115261   1.466   6.698   5.684
 5079SOL    HW215262   1.342   6.801   5.657
 5080SOL     OW15263   0.297   5.621   5.757
 5080SOL    HW115264   0.346   5.705   5.736
 5080SOL    HW215265   0.359   5.556   5.802
 5081SOL     OW15266   0.935   5.822   6.066
 5081SOL    HW115267   0.887   5.863   5.988
 5081SOL    HW215268   1.034   5.820   6.047
 5082SOL     OW15269   1.076   6.269   7.050
 5082SOL    HW115270   0.996   6.208   7.053
 5082SOL    HW215271   1.157   6.216   7.026
 5083SOL     OW15272   1.227   7.156   6.379
 5083SOL    HW115273   1.248   7.230   6.314
 5083SOL    HW215274   1.295   7.156   6.452
 5084SOL     OW15275   0.459   6.738   6.327
 5084SOL    HW115276   0.388   6.711   6.392
 5084SOL    HW215277   0.433   6.710   6.234
 5085SOL     OW15278   1.271   7.383   6.177
 5085SOL    HW115279   1.315   7.447   6.113
 5085SOL    HW215280   1.221   7.435   6.247
 5086SOL     OW15281   1.032   6.135   5.602
 5086SOL    HW115282   0.991   6.217   5.563
 5086SOL    HW215283   1.096   6.161   5.675
 5087SOL     OW15284   0.078   6.142   6.972
 5087SOL    HW115285   0.170   6.141   6.931
 5087SOL    HW215286   0.072   6.216   7.039
 5088SOL     OW15287   0.561   5.808   6.733
 5088SOL    HW115288   0.599   5.724   6.770
 5088SOL    HW215289   0.473   5.827   6.777
 5089SOL     OW15290   0.866   6.040   6.228
 5089SOL    HW115291   0.834   6.112   6.166
 5089SOL    HW215292   0.890   5.959   6.175
 5090SOL     OW15293   1.017   5.625   6.339
 5090SOL    HW115294   0.945   5.630   6.270
 5090SOL    HW215295   0.993   5.556   6.408
 5091SOL     OW15296   1.429   6.759   6.453
 5091SOL    HW115297   1.374   6.675   6.446
 5091SOL    HW215298   1.455   6.788   6.361
 5092SOL     OW15299   1.466   6.176   6.578
 5092SOL    HW115300   1.436   6.081   6.585
 5092SOL    HW215301   1.539   6.192   6.644
 5093SOL     OW15302   1.857   6.419   5.963
 5093SOL    HW115303   1.899   6.355   6.027
 5093SOL    HW215304   1.819   6.368   5.885
 5094SOL     OW15305   0.488   6.971   5.760
 5094SOL    HW115306   0.401   6.956   5.807
 5094SOL    HW215307   0.471   6.997   5.665
 5095SOL     OW15308   1.664   6.866   6.243
 5095SOL    HW115309   1.763   6.874   6.257
 5095SOL    HW215310   1.619   6.950   6.274
 5096SOL     OW15311   1.390   6.161   5.664
 5096SOL    HW115312   1.336   6.140   5.745
 5096SOL    HW215313   1.481   6.120   5.673
 5097SOL     OW15314   0.527   5.842   5.914
 5097SOL    HW115315   0.554   5.783   5.839
 5097SOL    HW215316   0.527   5.937   5.883
 5098SOL     OW15317   1.754   6.809   7.174
 5098SOL    HW115318   1.845   6.770   7.161
 5098SOL    HW215319   1.762   6.905   7.198
 5099SOL     OW15320   1.064   6.933   6.926
 5099SOL    HW115321   0.984   6.910   6.981
 5099SOL    HW215322   1.147   6.907   6.975
 5100SOL     OW15323   1.592   7.215   7.211
 5100SOL    HW115324   1.619   7.249   7.121
 5100SOL    HW215325   1.671   7.177   7.257
 5101SOL     OW15326   1.111   6.781   6.686
 5101SOL    HW115327   1.071   6.825   6.767
 5101SOL    HW215328   1.070   6.818   6.603
 5102SOL     OW15329   1.638   6.685   6.665
 5102SOL    HW115330   1.643   6.766   6.724
 5102SOL    HW215331   1.552   6.687   6.614
 5103SOL     OW15332   0.915   5.675   6.988
 5103SOL    HW115333   0.940   5.655   6.893
 5103SOL    HW215334   0.987   5.731   7.030
 5104SOL     OW15335   0.980   6.702   7.305
 5104SOL    HW115336   0.881   6.708   7.315
 5104SOL    HW215337   1.003   6.622   7.249
 5105SOL     OW15338   0.705   6.636   5.954
 5105SOL    HW115339   0.691   6.643   6.053
 5105SOL    HW215340   0.789   6.585   5.936
 5106SOL     OW15341   0.410   6.399   6.837
 5106SOL    HW115342   0.496   6.411   6.887
 5106SOL    HW215343   0.368   6.312   6.864
 5107SOL     OW15344   1.274   5.972   6.848
 5107SOL    HW115345   1.295   6.046   6.912
 5107SOL    HW215346   1.185   5.989   6.805
 5108SOL     OW15347   0.064   7.150   6.917
 5108SOL    HW115348   0.018   7.232   6.883
 5108SOL    HW215349   0.162   7.169   6.926
 5109SOL     OW15350   0.367   6.686   6.087
 5109SOL    HW115351   0.360   6.769   6.031
 5109SOL    HW215352   0.371   6.606   6.027
 5110SOL     OW15353   0.566   6.123   6.451
 5110SOL    HW115354   0.578   6.189   6.377
 5110SOL    HW215355   0.612   6.157   6.534
 5111SOL     OW15356   1.252   6.934   5.974
 5111SOL    HW115357   1.302   7.011   6.014
 5111SOL    HW215358   1.157   6.936   6.006
 5112SOL     OW15359   1.272   7.031   6.728
 5112SOL    HW115360   1.319   7.044   6.815
 5112SOL    HW215361   1.206   6.957   6.737
 5113SOL     OW15362   1.582   6.225   6.058
 5113SOL    HW115363   1.551   6.286   6.131
 5113SOL    HW215364   1.632   6.277   5.989
 5114SOL     OW15365   0.354   7.096   6.915
 5114SOL    HW115366   0.333   7.052   6.828
 5114SOL    HW215367   0.451   7.122   6.918
 5115SOL     OW15368   0.402   6.337   7.184
 5115SOL    HW115369   0.470   6.392   7.137
 5115SOL    HW215370   0.442   6.249   7.211
 5116SOL     OW15371   1.587   6.365   7.256
 5116SOL    HW115372   1.495   6.403   7.251
 5116SOL    HW215373   1.647   6.412   7.191
 5117SOL     OW15374   1.013   5.691   7.356
 5117SOL    HW115375   1.019   5.776   7.304
 5117SOL    HW215376   1.045   5.615   7.299
 5118SOL     OW15377   0.504   5.636   7.326
 5118SOL    HW115378   0.462   5.579   7.256
 5118SOL    HW215379   0.438   5.705   7.358
 5119SOL     OW15380   0.573   6.456   6.615
 5119SOL    HW115381   0.617   6.545   6.606
 5119SOL    HW215382   0.510   6.456   6.692
 5120SOL     OW15383   1.360   6.448   6.631
 5120SOL    HW115384   1.285   6.448   6.565
 5120SOL    HW215385   1.397   6.356   6.640
 5121SOL     OW15386   1.209   6.111   5.861
 5121SOL    HW115387   1.222   6.027   5.915
 5121SOL    HW215388   1.180   6.185   5.921
 5122SOL     OW15389   0.307   5.799   6.817
 5122SOL    HW115390   0.284   5.836   6.907
 5122SOL    HW215391   0.277   5.704   6.811
 5123SOL     OW15392   0.037   6.896   6.868
 5123SOL    HW115393   0.090   6.847   6.936
 5123SOL    HW215394   0.059   6.994   6.873
 5124SOL     OW15395   0.732   6.220   6.650
 5124SOL    HW115396   0.791   6.194   6.574
 5124SOL    HW215397   0.704   6.316   6.639
 5125SOL     OW15398   1.728   6.521   7.440
 5125SOL    HW115399   1.682   6.514   7.351
 5125SOL    HW215400   1.666   6.565   7.506
 5126SOL     OW15401   0.307   5.649   6.204
 5126SOL    HW115402   0.296   5.743   6.237
 5126SOL    HW215403   0.302   5.586   6.281
 5127SOL     OW15404   1.622   5.953   5.960
 5127SOL    HW115405   1.624   5.877   6.024
 5127SOL    HW215406   1.574   6.030   6.000
 5128SOL     OW15407   1.023   6.352   6.552
 5128SOL    HW115408   1.038   6.373   6.648
 5128SOL    HW215409   0.993   6.257   6.543
 5129SOL     OW15410   0.980   7.159   7.286
 5129SOL    HW115411   0.960   7.203   7.198
 5129SOL    HW215412   1.019   7.068   7.270
 5130SOL     OW15413   1.859   7.104   7.191
 5130SOL    HW115414   1.873   7.131   7.096
 5130SOL    HW215415   1.942   7.126   7.244
 5131SOL     OW15416   0.350   6.484   7.390
 5131SOL    HW115417   0.426   6.528   7.438
 5131SOL    HW215418   0.385   6.437   7.308
 5132SOL     OW15419   1.540   5.860   5.711
 5132SOL    HW115420   1.479   5.785   5.734
 5132SOL    HW215421   1.562   5.912   5.794
 5133SOL     OW15422   1.303   6.424   5.628
 5133SOL    HW115423   1.337   6.331   5.643
 5133SOL    HW215424   1.321   6.451   5.533
 5134SOL     OW15425   1.068   6.919   6.435
 5134SOL    HW115426   1.075   6.835   6.380
 5134SOL    HW215427   1.130   6.988   6.399
 5135SOL     OW15428   0.319   6.396   6.535
 5135SOL    HW115429   0.412   6.432   6.540
 5135SOL    HW215430   0.313   6.311   6.587
 5136SOL     OW15431   0.339   6.095   6.592
 5136SOL    HW115432   0.287   6.012   6.575
 5136SOL    HW215433   0.416   6.100   6.528
 5137SOL     OW15434   1.138   5.966   7.264
 5137SOL    HW115435   1.093   6.029   7.328
 5137SOL    HW215436   1.231   5.997   7.247
 5138SOL     OW15437   1.160   5.793   7.063
 5138SOL    HW115438   1.160   5.857   7.140
 5138SOL    HW215439   1.188   5.841   6.980
 5139SOL     OW15440   0.008   6.912   5.786
 5139SOL    HW115441  -0.085   6.933   5.755
 5139SOL    HW215442   0.018   6.813   5.799
 5140SOL     OW15443   0.088   7.387   6.513
 5140SOL    HW115444   0.046   7.301   6.486
 5140SOL    HW215445   0.182   7.390   6.479
 5141SOL     OW15446   0.504   7.154   6.496
 5141SOL    HW115447   0.570   7.228   6.505
 5141SOL    HW215448   0.548   7.075   6.454
 5142SOL     OW15449   1.002   6.382   6.824
 5142SOL    HW115450   1.043   6.350   6.910
 5142SOL    HW215451   0.906   6.355   6.821
 5143SOL     OW15452   0.040   6.130   6.700
 5143SOL    HW115453   0.125   6.097   6.659
 5143SOL    HW215454   0.053   6.145   6.798
 5144SOL     OW15455   0.189   6.106   7.308
 5144SOL    HW115456   0.248   6.066   7.238
 5144SOL    HW215457   0.131   6.177   7.267
 5145SOL     OW15458   1.369   6.536   7.246
 5145SOL    HW115459   1.408   6.625   7.266
 5145SOL    HW215460   1.379   6.516   7.149
 5146SOL     OW15461   0.815   6.158   5.911
 5146SOL    HW115462   0.822   6.069   5.865
 5146SOL    HW215463   0.721   6.192   5.903
 5147SOL     OW15464   1.657   6.190   6.792
 5147SOL    HW115465   1.619   6.121   6.854
 5147SOL    HW215466   1.739   6.154   6.748
 5148SOL     OW15467   0.252   7.150   7.330
 5148SOL    HW115468   0.222   7.207   7.406
 5148SOL    HW215469   0.245   7.053   7.356
 5149SOL     OW15470   0.671   6.050   6.855
 5149SOL    HW115471   0.637   5.961   6.825
 5149SOL    HW215472   0.697   6.104   6.775
 5150SOL     OW15473   0.930   7.264   7.051
 5150SOL    HW115474   0.906   7.246   6.956
 5150SOL    HW215475   0.960   7.358   7.061
 5151SOL     OW15476   0.473   6.086   5.777
 5151SOL    HW115477   0.534   6.166   5.781
 5151SOL    HW215478   0.378   6.117   5.784
 5152SOL     OW15479   0.159   6.723   7.052
 5152SOL    HW115480   0.181   6.662   7.128
 5152SOL    HW215481   0.169   6.674   6.966
 5153SOL     OW15482   1.347   6.645   6.820
 5153SOL    HW115483   1.371   6.582   6.746
 5153SOL    HW215484   1.257   6.685   6.802
 5154SOL     OW15485   1.302   6.441   5.895
 5154SOL    HW115486   1.216   6.410   5.937
 5154SOL    HW215487   1.298   6.427   5.796
 5155SOL     OW15488   1.759   7.333   6.740
 5155SOL    HW115489   1.820   7.363   6.667
 5155SOL    HW215490   1.721   7.244   6.718
 5156SOL     OW15491   1.252   7.317   6.714
 5156SOL    HW115492   1.336   7.322   6.660
 5156SOL    HW215493   1.229   7.221   6.732
 5157SOL     OW15494   0.083   6.844   6.608
 5157SOL    HW115495   0.078   6.843   6.708
 5157SOL    HW215496   0.000   6.803   6.570
 5158SOL     OW15497   0.688   7.248   7.302
 5158SOL    HW115498   0.632   7.329   7.311
 5158SOL    HW215499   0.740   7.252   7.216
 5159SOL     OW15500   1.726   5.721   6.109
 5159SOL    HW115501   1.799   5.704   6.042
 5159SOL    HW215502   1.695   5.634   6.147
 5160SOL     OW15503   1.388   7.159   6.063
 5160SOL    HW115504   1.455   7.171   5.989
 5160SOL    HW215505   1.348   7.248   6.086
 5161SOL     OW15506   0.130   7.380   7.437
 5161SOL    HW115507   0.089   7.306   7.490
 5161SOL    HW215508   0.194   7.431   7.495
 5162SOL     OW15509   1.280   6.513   6.258
 5162SOL    HW115510   1.340   6.432   6.260
 5162SOL    HW215511   1.320   6.582   6.198
 5163SOL     OW15512   0.830   6.859   7.008
 5163SOL    HW115513   0.825   6.892   7.103
 5163SOL    HW215514   0.744   6.878   6.962
 5164SOL     OW15515   0.672   7.202   5.740
 5164SOL    HW115516   0.681   7.212   5.641
 5164SOL    HW215517   0.632   7.113   5.761
 5165SOL     OW15518   1.650   7.306   6.980
 5165SOL    HW115519   1.703   7.316   6.896
 5165SOL    HW215520   1.623   7.396   7.014
 5166SOL     OW15521   1.841   5.761   6.549
 5166SOL    HW115522   1.880   5.676   6.513
 5166SOL    HW215523   1.743   5.763   6.530
 5167SOL     OW15524   0.263   5.912   6.306
 5167SOL    HW115525   0.184   5.963   6.272
 5167SOL    HW215526   0.254   5.897   6.404
 5168SOL     OW15527   1.194   7.198   5.617
 5168SOL    HW115528   1.200   7.105   5.654
 5168SOL    HW215529   1.135   7.198   5.537
 5169SOL     OW15530   0.822   6.588   6.958
 5169SOL    HW115531   0.862   6.587   6.866
 5169SOL    HW215532   0.832   6.680   6.998
 5170SOL     OW15533   0.916   6.496   5.877
 5170SOL    HW115534   0.979   6.534   5.809
 5170SOL    HW215535   0.956   6.413   5.916
 5171SOL     OW15536   1.504   7.193   5.630
 5171SOL    HW115537   1.412   7.230   5.637
 5171SOL    HW215538   1.542   7.213   5.540
 5172SOL     OW15539   0.372   6.874   7.076
 5172SOL    HW115540   0.359   6.967   7.042
 5172SOL    HW215541   0.288   6.822   7.063
 5173SOL     OW15542   1.614   6.878   6.875
 5173SOL    HW115543   1.674   6.881   6.955
 5173SOL    HW215544   1.539   6.942   6.888
 5174SOL     OW15545   1.039   6.684   6.282
 5174SOL    HW115546   0.969   6.637   6.336
 5174SOL    HW215547   1.098   6.616   6.239
 5175SOL     OW15548   1.014   5.822   6.557
 5175SOL    HW115549   1.006   5.786   6.464
 5175SOL    HW215550   1.012   5.746   6.622
 5176SOL     OW15551   0.590   7.073   6.077
 5176SOL    HW115552   0.632   7.015   6.007
 5176SOL    HW215553   0.546   7.152   6.033
 5177SOL     OW15554   1.709   5.971   6.967
 5177SOL    HW115555   1.782   6.040   6.971
 5177SOL    HW215556   1.737   5.896   6.908
 5178SOL     OW15557   0.255   6.934   5.876
 5178SOL    HW115558   0.159   6.935   5.849
 5178SOL    HW215559   0.267   6.987   5.960
 5179SOL     OW15560   0.105   6.599   7.312
 5179SOL    HW115561   0.028   6.566   7.366
 5179SOL    HW215562   0.190   6.569   7.354
 5180SOL     OW15563   0.672   5.789   7.075
 5180SOL    HW115564   0.762   5.773   7.035
 5180SOL    HW215565   0.680   5.794   7.174
 5181SOL     OW15566   0.075   5.931   5.619
 5181SOL    HW115567  -0.017   5.903   5.590
 5181SOL    HW215568   0.106   6.008   5.563
 5182SOL     OW15569   1.440   6.442   6.984
 5182SOL    HW115570   1.383   6.494   6.921
 5182SOL    HW215571   1.536   6.454   6.960
 5183SOL     OW15572   0.072   5.752   5.904
 5183SOL    HW115573   0.055   5.835   5.850
 5183SOL    HW215574   0.162   5.715   5.882
 5184SOL     OW15575   1.183   6.921   5.705
 5184SOL    HW115576   1.084   6.910   5.707
 5184SOL    HW215577   1.217   6.936   5.798
 5185SOL     OW15578   0.613   6.428   7.017
 5185SOL    HW115579   0.669   6.509   7.000
 5185SOL    HW215580   0.672   6.348   7.020
 5186SOL     OW15581   1.493   7.353   6.545
 5186SOL    HW115582   1.526   7.417   6.476
 5186SOL    HW215583   1.559   7.347   6.620
 5187SOL     OW15584   0.716   6.151   7.294
 5187SOL    HW115585   0.735   6.216   7.368
 5187SOL    HW215586   0.776   6.071   7.303
 5188SOL     OW15587   1.450   6.806   7.219
 5188SOL    HW115588   1.441   6.796   7.318
 5188SOL    HW215589   1.546   6.799   7.193
 5189SOL     OW15590   0.390   7.327   7.146
 5189SOL    HW115591   0.299   7.368   7.144
 5189SOL    HW215592   0.383   7.233   7.178
 5190SOL     OW15593   1.674   6.469   6.840
 5190SOL    HW115594   1.647   6.380   6.803
 5190SOL    HW215595   1.675   6.537   6.767
 5191SOL     OW15596   1.225   5.911   6.035
 5191SOL    HW115597   1.290   5.837   6.024
 5191SOL    HW215598   1.245   5.961   6.119
 5192SOL     OW15599   0.594   6.331   6.238
 5192SOL    HW115600   0.644   6.416   6.219
 5192SOL    HW215601   0.506   6.333   6.190
 5193SOL     OW15602   1.777   5.928   7.228
 5193SOL    HW115603   1.760   5.959   7.134
 5193SOL    HW215604   1.693   5.891   7.266
 5194SOL     OW15605   1.730   6.520   7.103
 5194SOL    HW115606   1.768   6.611   7.118
 5194SOL    HW215607   1.722   6.503   7.004
 5195SOL     OW15608   0.859   6.960   5.602
 5195SOL    HW115609   0.813   6.975   5.690
 5195SOL    HW215610   0.903   7.045   5.572
 5196SOL     OW15611   0.661   7.376   6.539
 5196SOL    HW115612   0.615   7.464   6.526
 5196SOL    HW215613   0.760   7.388   6.532
 5197SOL     OW15614   0.859   6.542   6.447
 5197SOL    HW115615   0.913   6.473   6.495
 5197SOL    HW215616   0.827   6.611   6.513
 5198SOL     OW15617   1.083   6.570   5.673
 5198SOL    HW115618   1.060   6.623   5.591
 5198SOL    HW215619   1.164   6.514   5.654
 5199SOL     OW15620   1.861   7.155   6.437
 5199SOL    HW115621   1.790   7.143   6.367
 5199SOL    HW215622   1.862   7.076   6.497
 5200SOL     OW15623   0.221   6.900   7.430
 5200SOL    HW115624   0.156   6.827   7.409
 5200SOL    HW215625   0.225   6.914   7.528
 5201SOL     OW15626   0.079   6.826   6.239
 5201SOL    HW115627   0.078   6.779   6.327
 5201SOL    HW215628   0.161   6.798   6.188
 5202SOL     OW15629   0.672   6.977   7.210
 5202SOL    HW115630   0.594   6.927   7.248
 5202SOL    HW215631   0.669   7.072   7.241
 5203SOL     OW15632   1.824   5.778   6.813
 5203SOL    HW115633   1.820   5.688   6.857
 5203SOL    HW215634   1.827   5.767   6.714
 5204SOL     OW15635   0.428   6.010   6.106
 5204SOL    HW115636   0.458   5.938   6.044
 5204SOL    HW215637   0.389   5.970   6.189
 5205SOL     OW15638   1.705   7.073   6.690
 5205SOL    HW115639   1.612   7.048   6.663
 5205SOL    HW215640   1.731   7.023   6.772
 5206SOL     OW15641   0.317   6.133   6.866
 5206SOL    HW115642   0.355   6.074   6.938
 5206SOL    HW215643   0.357   6.107   6.778
 5207SOL     OW15644   0.812   7.172   6.273
 5207SOL    HW115645   0.844   7.182   6.179
 5207SOL    HW215646   0.733   7.110   6.275
 5208SOL     OW15647   1.424   5.800   6.698
 5208SOL    HW115648   1.476   5.735   6.753
 5208SOL    HW215649   1.375   5.863   6.759
 5209SOL     OW15650   1.001   5.620   6.740
 5209SOL    HW115651   0.938   5.548   6.709
 5209SOL    HW215652   1.094   5.584   6.740
 5210SOL     OW15653   0.770   6.916   5.887
 5210SOL    HW115654   0.724   6.829   5.904
 5210SOL    HW215655   0.861   6.913   5.928
 5211SOL     OW15656   0.618   7.153   6.870
 5211SOL    HW115657   0.613   7.235   6.927
 5211SOL    HW215658   0.707   7.150   6.825
 5212SOL     OW15659   1.352   5.638   5.754
 5212SOL    HW115660   1.387   5.597   5.670
 5212SOL    HW215661   1.262   5.600   5.774
 5213SOL     OW15662   1.300   6.039   6.277
 5213SOL    HW115663   1.241   6.119   6.281
 5213SOL    HW215664   1.315   6.004   6.370
 5214SOL     OW15665   1.593   5.807   6.468
 5214SOL    HW115666   1.509   5.806   6.522
 5214SOL    HW215667   1.595   5.890   6.412
 5215SOL     OW15668   0.039   6.663   5.886
 5215SOL    HW115669   0.138   6.652   5.877
 5215SOL    HW215670  -0.001   6.577   5.918
 5216SOL     OW15671   0.875   7.232   5.923
 5216SOL    HW115672   0.798   7.197   5.869
 5216SOL    HW215673   0.843   7.303   5.985
 5217SOL     OW15674   0.230   6.214   7.561
 5217SOL    HW115675   0.137   6.212   7.598
 5217SOL    HW215676   0.231   6.175   7.469
 5218SOL     OW15677   0.225   5.861   8.444
 5218SOL    HW115678   0.260   5.844   8.536
 5218SOL    HW215679   0.137   5.816   8.432
 5219SOL     OW15680   0.019   5.954   8.095
 5219SOL    HW115681  -0.063   5.997   8.134
 5219SOL    HW215682  -0.009   5.881   8.032
 5220SOL     OW15683   0.569   6.861   8.613
 5220SOL    HW115684   0.476   6.854   8.576
 5220SOL    HW215685   0.580   6.950   8.657
 5221SOL     OW15686   1.555   7.097   8.151
 5221SOL    HW115687   1.498   7.081   8.232
 5221SOL    HW215688   1.496   7.107   8.071
 5222SOL     OW15689   1.135   6.289   8.165
 5222SOL    HW115690   1.192   6.367   8.140
 5222SOL    HW215691   1.075   6.315   8.241
 5223SOL     OW15692   1.755   6.193   7.679
 5223SOL    HW115693   1.743   6.180   7.580
 5223SOL    HW215694   1.725   6.112   7.728
 5224SOL     OW15695   0.768   6.730   8.471
 5224SOL    HW115696   0.690   6.747   8.531
 5224SOL    HW215697   0.802   6.817   8.435
 5225SOL     OW15698   0.850   6.384   9.271
 5225SOL    HW115699   0.846   6.460   9.336
 5225SOL    HW215700   0.872   6.420   9.180
 5226SOL     OW15701   0.685   6.598   8.113
 5226SOL    HW115702   0.754   6.582   8.183
 5226SOL    HW215703   0.612   6.655   8.151
 5227SOL     OW15704   0.686   6.747   9.251
 5227SOL    HW115705   0.746   6.826   9.265
 5227SOL    HW215706   0.600   6.778   9.210
 5228SOL     OW15707   0.335   7.021   8.509
 5228SOL    HW115708   0.257   6.990   8.456
 5228SOL    HW215709   0.393   7.079   8.452
 5229SOL     OW15710   1.460   7.091   8.787
 5229SOL    HW115711   1.484   7.185   8.813
 5229SOL    HW215712   1.444   7.037   8.869
 5230SOL     OW15713   0.438   5.978   8.947
 5230SOL    HW115714   0.520   5.922   8.956
 5230SOL    HW215715   0.357   5.920   8.951
 5231SOL     OW15716   1.603   6.033   8.185
 5231SOL    HW115717   1.529   6.079   8.135
 5231SOL    HW215718   1.654   6.101   8.238
 5232SOL     OW15719   0.231   7.299   7.931
 5232SOL    HW115720   0.265   7.376   7.985
 5232SOL    HW215721   0.275   7.299   7.841
 5233SOL     OW15722   1.127   6.927   9.138
 5233SOL    HW115723   1.174   6.927   9.226
 5233SOL    HW215724   1.079   6.840   9.127
 5234SOL     OW15725   0.230   7.020   7.986
 5234SOL    HW115726   0.204   7.116   7.986
 5234SOL    HW215727   0.159   6.966   8.031
 5235SOL     OW15728   0.240   6.677   8.334
 5235SOL    HW115729   0.254   6.593   8.386
 5235SOL    HW215730   0.185   6.741   8.389
 5236SOL     OW15731   0.620   7.372   8.887
 5236SOL    HW115732   0.528   7.355   8.922
 5236SOL    HW215733   0.648   7.464   8.913
 5237SOL     OW15734   0.606   6.550   7.571
 5237SOL    HW115735   0.613   6.634   7.517
 5237SOL    HW215736   0.652   6.563   7.659
 5238SOL     OW15737   1.594   5.700   8.928
 5238SOL    HW115738   1.576   5.767   8.856
 5238SOL    HW215739   1.591   5.746   9.017
 5239SOL     OW15740   0.122   6.229   8.011
 5239SOL    HW115741   0.077   6.141   8.028
 5239SOL    HW215742   0.121   6.283   8.095
 5240SOL     OW15743   1.842   7.353   7.807
 5240SOL    HW115744   1.896   7.324   7.887
 5240SOL    HW215745   1.872   7.443   7.778
 5241SOL     OW15746   0.027   7.182   7.565
 5241SOL    HW115747   0.008   7.086   7.586
 5241SOL    HW215748  -0.006   7.240   7.640
 5242SOL     OW15749   1.689   6.508   8.060
 5242SOL    HW115750   1.784   6.479   8.068
 5242SOL    HW215751   1.681   6.573   7.985
 5243SOL     OW15752   1.641   6.694   7.880
 5243SOL    HW115753   1.727   6.696   7.828
 5243SOL    HW215754   1.655   6.741   7.968
 5244SOL     OW15755   0.113   6.323   9.045
 5244SOL    HW115756   0.201   6.310   9.090
 5244SOL    HW215757   0.100   6.420   9.023
 5245SOL     OW15758   0.613   6.951   8.174
 5245SOL    HW115759   0.564   6.864   8.183
 5245SOL    HW215760   0.590   6.994   8.087
 5246SOL     OW15761   1.293   6.814   8.871
 5246SOL    HW115762   1.330   6.741   8.813
 5246SOL    HW215763   1.345   6.819   8.956
 5247SOL     OW15764   0.809   5.590   7.950
 5247SOL    HW115765   0.849   5.681   7.941
 5247SOL    HW215766   0.709   5.598   7.956
 5248SOL     OW15767   0.197   6.562   8.712
 5248SOL    HW115768   0.286   6.517   8.698
 5248SOL    HW215769   0.124   6.497   8.693
 5249SOL     OW15770   1.525   6.585   7.638
 5249SOL    HW115771   1.462   6.509   7.651
 5249SOL    HW215772   1.573   6.603   7.724
 5250SOL     OW15773   1.187   7.378   9.064
 5250SOL    HW115774   1.211   7.438   8.988
 5250SOL    HW215775   1.194   7.283   9.034
 5251SOL     OW15776   0.317   5.837   9.249
 5251SOL    HW115777   0.388   5.908   9.255
 5251SOL    HW215778   0.229   5.876   9.277
 5252SOL     OW15779   1.466   7.003   8.401
 5252SOL    HW115780   1.407   7.009   8.481
 5252SOL    HW215781   1.451   6.915   8.355
 5253SOL     OW15782   1.667   7.300   8.020
 5253SOL    HW115783   1.626   7.277   7.932
 5253SOL    HW215784   1.649   7.226   8.085
 5254SOL     OW15785   0.598   6.315   7.718
 5254SOL    HW115786   0.622   6.384   7.650
 5254SOL    HW215787   0.520   6.348   7.772
 5255SOL     OW15788   1.281   5.931   8.392
 5255SOL    HW115789   1.195   5.881   8.379
 5255SOL    HW215790   1.343   5.877   8.448
 5256SOL     OW15791   1.576   7.248   7.755
 5256SOL    HW115792   1.665   7.294   7.758
 5256SOL    HW215793   1.555   7.224   7.660
 5257SOL     OW15794   0.807   6.191   8.913
 5257SOL    HW115795   0.760   6.188   9.002
 5257SOL    HW215796   0.756   6.136   8.847
 5258SOL     OW15797   1.394   6.055   9.122
 5258SOL    HW115798   1.374   6.098   9.210
 5258SOL    HW215799   1.472   5.993   9.131
 5259SOL     OW15800   0.973   6.476   9.020
 5259SOL    HW115801   1.019   6.392   8.991
 5259SOL    HW215802   0.917   6.510   8.945
 5260SOL     OW15803   0.991   5.996   8.690
 5260SOL    HW115804   0.914   6.030   8.744
 5260SOL    HW215805   0.957   5.945   8.611
 5261SOL     OW15806   1.041   6.287   7.877
 5261SOL    HW115807   1.067   6.283   7.973
 5261SOL    HW215808   0.956   6.236   7.863
 5262SOL     OW15809   0.076   6.397   8.237
 5262SOL    HW115810   0.175   6.385   8.246
 5262SOL    HW215811   0.052   6.492   8.258
 5263SOL     OW15812   0.130   7.407   9.019
 5263SOL    HW115813   0.120   7.392   9.118
 5263SOL    HW215814   0.044   7.443   8.983
 5264SOL     OW15815   0.865   5.934   7.643
 5264SOL    HW115816   0.924   5.997   7.594
 5264SOL    HW215817   0.884   5.840   7.614
 5265SOL     OW15818   1.719   6.171   9.279
 5265SOL    HW115819   1.693   6.260   9.243
 5265SOL    HW215820   1.717   6.103   9.206
 5266SOL     OW15821   1.362   6.730   7.993
 5266SOL    HW115822   1.445   6.701   7.945
 5266SOL    HW215823   1.313   6.797   7.937
 5267SOL     OW15824   0.550   5.782   8.333
 5267SOL    HW115825   0.545   5.777   8.433
 5267SOL    HW215826   0.552   5.878   8.304
 5268SOL     OW15827   1.008   7.042   7.925
 5268SOL    HW115828   0.962   7.114   7.873
 5268SOL    HW215829   1.004   7.062   8.023
 5269SOL     OW15830   0.351   7.387   8.301
 5269SOL    HW115831   0.401   7.301   8.307
 5269SOL    HW215832   0.416   7.464   8.298
 5270SOL     OW15833   1.795   6.652   8.321
 5270SOL    HW115834   1.733   6.637   8.245
 5270SOL    HW215835   1.743   6.663   8.406
 5271SOL     OW15836   1.227   7.136   8.954
 5271SOL    HW115837   1.233   7.059   9.018
 5271SOL    HW215838   1.175   7.110   8.874
 5272SOL     OW15839   0.321   6.529   7.690
 5272SOL    HW115840   0.403   6.568   7.648
 5272SOL    HW215841   0.294   6.447   7.641
 5273SOL     OW15842   1.458   6.321   8.176
 5273SOL    HW115843   1.453   6.256   8.251
 5273SOL    HW215844   1.538   6.380   8.189
 5274SOL     OW15845   0.461   6.852   9.175
 5274SOL    HW115846   0.411   6.853   9.089
 5274SOL    HW215847   0.398   6.834   9.251
 5275SOL     OW15848   1.111   7.362   7.685
 5275SOL    HW115849   1.051   7.300   7.735
 5275SOL    HW215850   1.142   7.318   7.600
 5276SOL     OW15851   0.202   5.871   8.946
 5276SOL    HW115852   0.122   5.931   8.933
 5276SOL    HW215853   0.192   5.822   9.032
 5277SOL     OW15854   1.632   6.963   7.529
 5277SOL    HW115855   1.600   7.057   7.519
 5277SOL    HW215856   1.556   6.900   7.517
 5278SOL     OW15857   0.464   7.329   7.771
 5278SOL    HW115858   0.497   7.368   7.857
 5278SOL    HW215859   0.540   7.322   7.706
 5279SOL     OW15860   1.400   5.693   7.874
 5279SOL    HW115861   1.376   5.656   7.784
 5279SOL    HW215862   1.499   5.709   7.878
 5280SOL     OW15863   0.249   7.371   8.689
 5280SOL    HW115864   0.306   7.306   8.739
 5280SOL    HW215865   0.233   7.338   8.596
 5281SOL     OW15866   0.940   7.284   8.352
 5281SOL    HW115867   1.020   7.227   8.373
 5281SOL    HW215868   0.891   7.244   8.275
 5282SOL     OW15869   0.382   6.286   7.928
 5282SOL    HW115870   0.427   6.196   7.925
 5282SOL    HW215871   0.288   6.275   7.961
 5283SOL     OW15872   1.547   5.808   9.177
 5283SOL    HW115873   1.542   5.845   9.269
 5283SOL    HW215874   1.475   5.739   9.165
 5284SOL     OW15875   0.614   5.708   7.565
 5284SOL    HW115876   0.712   5.686   7.572
 5284SOL    HW215877   0.583   5.691   7.472
 5285SOL     OW15878   0.781   5.850   9.197
 5285SOL    HW115879   0.848   5.789   9.240
 5285SOL    HW215880   0.708   5.869   9.262
 5286SOL     OW15881   0.888   7.100   8.643
 5286SOL    HW115882   0.865   7.075   8.549
 5286SOL    HW215883   0.949   7.031   8.682
 5287SOL     OW15884   1.351   6.176   8.881
 5287SOL    HW115885   1.379   6.133   8.966
 5287SOL    HW215886   1.376   6.272   8.882
 5288SOL     OW15887   0.803   6.988   8.372
 5288SOL    HW115888   0.893   7.002   8.330
 5288SOL    HW215889   0.732   6.990   8.301
 5289SOL     OW15890   0.922   6.089   8.347
 5289SOL    HW115891   0.897   6.080   8.251
 5289SOL    HW215892   0.970   6.007   8.378
 5290SOL     OW15893   0.539   5.650   7.960
 5290SOL    HW115894   0.458   5.651   8.018
 5290SOL    HW215895   0.542   5.733   7.905
 5291SOL     OW15896   1.434   6.774   7.489
 5291SOL    HW115897   1.466   6.698   7.546
 5291SOL    HW215898   1.342   6.801   7.519
 5292SOL     OW15899   0.297   5.621   7.619
 5292SOL    HW115900   0.346   5.705   7.598
 5292SOL    HW215901   0.359   5.556   7.664
 5293SOL     OW15902   0.935   5.822   7.928
 5293SOL    HW115903   0.887   5.863   7.850
 5293SOL    HW215904   1.034   5.820   7.909
 5294SOL     OW15905   1.076   6.269   8.912
 5294SOL    HW115906   0.996   6.208   8.915
 5294SOL    HW215907   1.157   6.216   8.888
 5295SOL     OW15908   1.227   7.156   8.241
 5295SOL    HW115909   1.248   7.230   8.176
 5295SOL    HW215910   1.295   7.156   8.314
 5296SOL     OW15911   0.459   6.738   8.189
 5296SOL    HW115912   0.388   6.711   8.254
 5296SOL    HW215913   0.433   6.710   8.096
 5297SOL     OW15914   1.271   7.383   8.039
 5297SOL    HW115915   1.315   7.447   7.975
 5297SOL    HW215916   1.221   7.435   8.109
 5298SOL     OW15917   1.032   6.135   7.464
 5298SOL    HW115918   0.991   6.217   7.425
 5298SOL    HW215919   1.096   6.161   7.537
 5299SOL     OW15920   0.078   6.142   8.834
 5299SOL    HW115921   0.170   6.141   8.793
 5299SOL    HW215922   0.072   6.216   8.901
 5300SOL     OW15923   0.561   5.808   8.595
 5300SOL    HW115924   0.599   5.724   8.632
 5300SOL    HW215925   0.473   5.827   8.639
 5301SOL     OW15926   0.866   6.040   8.090
 5301SOL    HW115927   0.834   6.112   8.028
 5301SOL    HW215928   0.890   5.959   8.037
 5302SOL     OW15929   1.017   5.625   8.201
 5302SOL    HW115930   0.945   5.630   8.132
 5302SOL    HW215931   0.993   5.556   8.270
 5303SOL     OW15932   1.429   6.759   8.315
 5303SOL    HW115933   1.374   6.675   8.308
 5303SOL    HW215934   1.455   6.788   8.223
 5304SOL     OW15935   1.466   6.176   8.440
 5304SOL    HW115936   1.436   6.081   8.447
 5304SOL    HW215937   1.539   6.192   8.506
 5305SOL     OW15938   1.857   6.419   7.825
 5305SOL    HW115939   1.899   6.355   7.889
 5305SOL    HW215940   1.819   6.368   7.747
 5306SOL     OW15941   0.488   6.971   7.622
 5306SOL    HW115942   0.401   6.956   7.669
 5306SOL    HW215943   0.471   6.997   7.527
 5307SOL     OW15944   1.664   6.866   8.105
 5307SOL    HW115945   1.763   6.874   8.119
 5307SOL    HW215946   1.619   6.950   8.136
 5308SOL     OW15947   1.390   6.161   7.526
 5308SOL    HW115948   1.336   6.140   7.607
 5308SOL    HW215949   1.481   6.120   7.535
 5309SOL     OW15950   0.527   5.842   7.776
 5309SOL    HW115951   0.554   5.783   7.701
 5309SOL    HW215952   0.527   5.937   7.745
 5310SOL     OW15953   1.754   6.809   9.036
 5310SOL    HW115954   1.845   6.770   9.023
 5310SOL    HW215955   1.762   6.905   9.060
 5311SOL     OW15956   1.064   6.933   8.788
 5311SOL    HW115957   0.984   6.910   8.843
 5311SOL    HW215958   1.147   6.907   8.837
 5312SOL     OW15959   1.592   7.215   9.073
 5312SOL    HW115960   1.619   7.249   8.983
 5312SOL    HW215961   1.671   7.177   9.119
 5313SOL     OW15962   1.111   6.781   8.548
 5313SOL    HW115963   1.071   6.825   8.629
 5313SOL    HW215964   1.070   6.818   8.465
 5314SOL     OW15965   1.638   6.685   8.527
 5314SOL    HW115966   1.643   6.766   8.586
 5314SOL    HW215967   1.552   6.687   8.476
 5315SOL     OW15968   0.915   5.675   8.850
 5315SOL    HW115969   0.940   5.655   8.755
 5315SOL    HW215970   0.987   5.731   8.892
 5316SOL     OW15971   0.980   6.702   9.167
 5316SOL    HW115972   0.881   6.708   9.177
 5316SOL    HW215973   1.003   6.622   9.111
 5317SOL     OW15974   0.705   6.636   7.816
 5317SOL    HW115975   0.691   6.643   7.915
 5317SOL    HW215976   0.789   6.585   7.798
 5318SOL     OW15977   0.410   6.399   8.699
 5318SOL    HW115978   0.496   6.411   8.749
 5318SOL    HW215979   0.368   6.312   8.726
 5319SOL     OW15980   1.274   5.972   8.710
 5319SOL    HW115981   1.295   6.046   8.774
 5319SOL    HW215982   1.185   5.989   8.667
 5320SOL     OW15983   0.064   7.150   8.779
 5320SOL    HW115984   0.018   7.232   8.745
 5320SOL    HW215985   0.162   7.169   8.788
 5321SOL     OW15986   0.367   6.686   7.949
 5321SOL    HW115987   0.360   6.769   7.893
 5321SOL    HW215988   0.371   6.606   7.889
 5322SOL     OW15989   0.566   6.123   8.313
 5322SOL    HW115990   0.578   6.189   8.239
 5322SOL    HW215991   0.612   6.157   8.396
 5323SOL     OW15992   1.252   6.934   7.836
 5323SOL    HW115993   1.302   7.011   7.876
 5323SOL    HW215994   1.157   6.936   7.868
 5324SOL     OW15995   1.272   7.031   8.590
 5324SOL    HW115996   1.319   7.044   8.677
 5324SOL    HW215997   1.206   6.957   8.599
 5325SOL     OW15998   1.582   6.225   7.920
 5325SOL    HW115999   1.551   6.286   7.993
 5325SOL    HW216000   1.632   6.277   7.851
 5326SOL     OW16001   0.354   7.096   8.777
 5326SOL    HW116002   0.333   7.052   8.690
 5326SOL    HW216003   0.451   7.122   8.780
 5327SOL     OW16004   0.402   6.337   9.046
 5327SOL    HW116005   0.470   6.392   8.999
 5327SOL    HW216006   0.442   6.249   9.073
 5328SOL     OW16007   1.587   6.365   9.118
 5328SOL    HW116008   1.495   6.403   9.113
 5328SOL    HW216009   1.647   6.412   9.053
 5329SOL     OW16010   1.013   5.691   9.218
 5329SOL    HW116011   1.019   5.776   9.166
 5329SOL    HW216012   1.045   5.615   9.161
 5330SOL     OW16013   0.504   5.636   9.188
 5330SOL    HW116014   0.462   5.579   9.118
 5330SOL    HW216015   0.438   5.705   9.220
 5331SOL     OW16016   0.573   6.456   8.477
 5331SOL    HW116017   0.617   6.545   8.468
 5331SOL    HW216018   0.510   6.456   8.554
 5332SOL     OW16019   1.360   6.448   8.493
 5332SOL    HW116020   1.285   6.448   8.427
 5332SOL    HW216021   1.397   6.356   8.502
 5333SOL     OW16022   1.209   6.111   7.723
 5333SOL    HW116023   1.222   6.027   7.777
 5333SOL    HW216024   1.180   6.185   7.783
 5334SOL     OW16025   0.307   5.799   8.679
 5334SOL    HW116026   0.284   5.836   8.769
 5334SOL    HW216027   0.277   5.704   8.673
 5335SOL     OW16028   0.037   6.896   8.730
 5335SOL    HW116029   0.090   6.847   8.798
 5335SOL    HW216030   0.059   6.994   8.735
 5336SOL     OW16031   0.732   6.220   8.512
 5336SOL    HW116032   0.791   6.194   8.436
 5336SOL    HW216033   0.704   6.316   8.501
 5337SOL     OW16034   1.728   6.521   9.302
 5337SOL    HW116035   1.682   6.514   9.213
 5337SOL    HW216036   1.666   6.565   9.368
 5338SOL     OW16037   0.307   5.649   8.066
 5338SOL    HW116038   0.296   5.743   8.099
 5338SOL    HW216039   0.302   5.586   8.143
 5339SOL     OW16040   1.622   5.953   7.822
 5339SOL    HW116041   1.624   5.877   7.886
 5339SOL    HW216042   1.574   6.030   7.862
 5340SOL     OW16043   1.023   6.352   8.414
 5340SOL    HW116044   1.038   6.373   8.510
 5340SOL    HW216045   0.993   6.257   8.405
 5341SOL     OW16046   0.980   7.159   9.148
 5341SOL    HW116047   0.960   7.203   9.060
 5341SOL    HW216048   1.019   7.068   9.132
 5342SOL     OW16049   1.859   7.104   9.053
 5342SOL    HW116050   1.873   7.131   8.958
 5342SOL    HW216051   1.942   7.126   9.106
 5343SOL     OW16052   0.350   6.484   9.252
 5343SOL    HW116053   0.426   6.528   9.300
 5343SOL    HW216054   0.385   6.437   9.170
 5344SOL     OW16055   1.540   5.860   7.573
 5344SOL    HW116056   1.479   5.785   7.596
 5344SOL    HW216057   1.562   5.912   7.656
 5345SOL     OW16058   1.303   6.424   7.490
 5345SOL    HW116059   1.337   6.331   7.505
 5345SOL    HW216060   1.321   6.451   7.395
 5346SOL     OW16061   1.068   6.919   8.297
 5346SOL    HW116062   1.075   6.835   8.242
 5346SOL    HW216063   1.130   6.988   8.261
 5347SOL     OW16064   0.319   6.396   8.397
 5347SOL    HW116065   0.412   6.432   8.402
 5347SOL    HW216066   0.313   6.311   8.449
 5348SOL     OW16067   0.339   6.095   8.454
 5348SOL    HW116068   0.287   6.012   8.437
 5348SOL    HW216069   0.416   6.100   8.390
 5349SOL     OW16070   1.138   5.966   9.126
 5349SOL    HW116071   1.093   6.029   9.190
 5349SOL    HW216072   1.231   5.997   9.109
 5350SOL     OW16073   1.160   5.793   8.925
 5350SOL    HW116074   1.160   5.857   9.002
 5350SOL    HW216075   1.188   5.841   8.842
 5351SOL     OW16076   0.008   6.912   7.648
 5351SOL    HW116077  -0.085   6.933   7.617
 5351SOL    HW216078   0.018   6.813   7.661
 5352SOL     OW16079   0.088   7.387   8.375
 5352SOL    HW116080   0.046   7.301   8.348
 5352SOL    HW216081   0.182   7.390   8.341
 5353SOL     OW16082   0.504   7.154   8.358
 5353SOL    HW116083   0.570   7.228   8.367
 5353SOL    HW216084   0.548   7.075   8.316
 5354SOL     OW16085   1.002   6.382   8.686
 5354SOL    HW116086   1.043   6.350   8.772
 5354SOL    HW216087   0.906   6.355   8.683
 5355SOL     OW16088   0.040   6.130   8.562
 5355SOL    HW116089   0.125   6.097   8.521
 5355SOL    HW216090   0.053   6.145   8.660
 5356SOL     OW16091   0.189   6.106   9.170
 5356SOL    HW116092   0.248   6.066   9.100
 5356SOL    HW216093   0.131   6.177   9.129
 5357SOL     OW16094   1.369   6.536   9.108
 5357SOL    HW116095   1.408   6.625   9.128
 5357SOL    HW216096   1.379   6.516   9.011
 5358SOL     OW16097   0.815   6.158   7.773
 5358SOL    HW116098   0.822   6.069   7.727
 5358SOL    HW216099   0.721   6.192   7.765
 5359SOL     OW16100   1.657   6.190   8.654
 5359SOL    HW116101   1.619   6.121   8.716
 5359SOL    HW216102   1.739   6.154   8.610
 5360SOL     OW16103   0.252   7.150   9.192
 5360SOL    HW116104   0.222   7.207   9.268
 5360SOL    HW216105   0.245   7.053   9.218
 5361SOL     OW16106   0.671   6.050   8.717
 5361SOL    HW116107   0.637   5.961   8.687
 5361SOL    HW216108   0.697   6.104   8.637
 5362SOL     OW16109   0.930   7.264   8.913
 5362SOL    HW116110   0.906   7.246   8.818
 5362SOL    HW216111   0.960   7.358   8.923
 5363SOL     OW16112   0.473   6.086   7.639
 5363SOL    HW116113   0.534   6.166   7.643
 5363SOL    HW216114   0.378   6.117   7.646
 5364SOL     OW16115   0.159   6.723   8.914
 5364SOL    HW116116   0.181   6.662   8.990
 5364SOL    HW216117   0.169   6.674   8.828
 5365SOL     OW16118   1.347   6.645   8.682
 5365SOL    HW116119   1.371   6.582   8.608
 5365SOL    HW216120   1.257   6.685   8.664
 5366SOL     OW16121   1.302   6.441   7.757
 5366SOL    HW116122   1.216   6.410   7.799
 5366SOL    HW216123   1.298   6.427   7.658
 5367SOL     OW16124   1.759   7.333   8.602
 5367SOL    HW116125   1.820   7.363   8.529
 5367SOL    HW216126   1.721   7.244   8.580
 5368SOL     OW16127   1.252   7.317   8.576
 5368SOL    HW116128   1.336   7.322   8.522
 5368SOL    HW216129   1.229   7.221   8.594
 5369SOL     OW16130   0.083   6.844   8.470
 5369SOL    HW116131   0.078   6.843   8.570
 5369SOL    HW216132   0.000   6.803   8.432
 5370SOL     OW16133   0.688   7.248   9.164
 5370SOL    HW116134   0.632   7.329   9.173
 5370SOL    HW216135   0.740   7.252   9.078
 5371SOL     OW16136   1.726   5.721   7.971
 5371SOL    HW116137   1.799   5.704   7.904
 5371SOL    HW216138   1.695   5.634   8.009
 5372SOL     OW16139   1.388   7.159   7.925
 5372SOL    HW116140   1.455   7.171   7.851
 5372SOL    HW216141   1.348   7.248   7.948
 5373SOL     OW16142   0.130   7.380   9.299
 5373SOL    HW116143   0.089   7.306   9.352
 5373SOL    HW216144   0.194   7.431   9.357
 5374SOL     OW16145   1.280   6.513   8.120
 5374SOL    HW116146   1.340   6.432   8.122
 5374SOL    HW216147   1.320   6.582   8.060
 5375SOL     OW16148   0.830   6.859   8.870
 5375SOL    HW116149   0.825   6.892   8.965
 5375SOL    HW216150   0.744   6.878   8.824
 5376SOL     OW16151   0.672   7.202   7.602
 5376SOL    HW116152   0.681   7.212   7.503
 5376SOL    HW216153   0.632   7.113   7.623
 5377SOL     OW16154   1.650   7.306   8.842
 5377SOL    HW116155   1.703   7.316   8.758
 5377SOL    HW216156   1.623   7.396   8.876
 5378SOL     OW16157   1.841   5.761   8.411
 5378SOL    HW116158   1.880   5.676   8.375
 5378SOL    HW216159   1.743   5.763   8.392
 5379SOL     OW16160   0.263   5.912   8.168
 5379SOL    HW116161   0.184   5.963   8.134
 5379SOL    HW216162   0.254   5.897   8.266
 5380SOL     OW16163   1.194   7.198   7.479
 5380SOL    HW116164   1.200   7.105   7.516
 5380SOL    HW216165   1.135   7.198   7.399
 5381SOL     OW16166   0.822   6.588   8.820
 5381SOL    HW116167   0.862   6.587   8.728
 5381SOL    HW216168   0.832   6.680   8.860
 5382SOL     OW16169   0.916   6.496   7.739
 5382SOL    HW116170   0.979   6.534   7.671
 5382SOL    HW216171   0.956   6.413   7.778
 5383SOL     OW16172   1.504   7.193   7.492
 5383SOL    HW116173   1.412   7.230   7.499
 5383SOL    HW216174   1.542   7.213   7.402
 5384SOL     OW16175   0.372   6.874   8.938
 5384SOL    HW116176   0.359   6.967   8.904
 5384SOL    HW216177   0.288   6.822   8.925
 5385SOL     OW16178   1.614   6.878   8.737
 5385SOL    HW116179   1.674   6.881   8.817
 5385SOL    HW216180   1.539   6.942   8.750
 5386SOL     OW16181   1.039   6.684   8.144
 5386SOL    HW116182   0.969   6.637   8.198
 5386SOL    HW216183   1.098   6.616   8.101
 5387SOL     OW16184   1.014   5.822   8.419
 5387SOL    HW116185   1.006   5.786   8.326
 5387SOL    HW216186   1.012   5.746   8.484
 5388SOL     OW16187   0.590   7.073   7.939
 5388SOL    HW116188   0.632   7.015   7.869
 5388SOL    HW216189   0.546   7.152   7.895
 5389SOL     OW16190   1.709   5.971   8.829
 5389SOL    HW116191   1.782   6.040   8.833
 5389SOL    HW216192   1.737   5.896   8.770
 5390SOL     OW16193   0.255   6.934   7.738
 5390SOL    HW116194   0.159   6.935   7.711
 5390SOL    HW216195   0.267   6.987   7.822
 5391SOL     OW16196   0.105   6.599   9.174
 5391SOL    HW116197   0.028   6.566   9.228
 5391SOL    HW216198   0.190   6.569   9.216
 5392SOL     OW16199   0.672   5.789   8.937
 5392SOL    HW116200   0.762   5.773   8.897
 5392SOL    HW216201   0.680   5.794   9.036
 5393SOL     OW16202   0.075   5.931   7.481
 5393SOL    HW116203  -0.017   5.903   7.452
 5393SOL    HW216204   0.106   6.008   7.425
 5394SOL     OW16205   1.440   6.442   8.846
 5394SOL    HW116206   1.383   6.494   8.783
 5394SOL    HW216207   1.536   6.454   8.822
 5395SOL     OW16208   0.072   5.752   7.766
 5395SOL    HW116209   0.055   5.835   7.712
 5395SOL    HW216210   0.162   5.715   7.744
 5396SOL     OW16211   1.183   6.921   7.567
 5396SOL    HW116212   1.084   6.910   7.569
 5396SOL    HW216213   1.217   6.936   7.660
 5397SOL     OW16214   1.493   7.353   8.407
 5397SOL    HW116215   1.526   7.417   8.338
 5397SOL    HW216216   1.559   7.347   8.482
 5398SOL     OW16217   0.716   6.151   9.156
 5398SOL    HW116218   0.735   6.216   9.230
 5398SOL    HW216219   0.776   6.071   9.165
 5399SOL     OW16220   1.450   6.806   9.081
 5399SOL    HW116221   1.441   6.796   9.180
 5399SOL    HW216222   1.546   6.799   9.055
 5400SOL     OW16223   0.390   7.327   9.008
 5400SOL    HW116224   0.299   7.368   9.006
 5400SOL    HW216225   0.383   7.233   9.040
 5401SOL     OW16226   1.674   6.469   8.702
 5401SOL    HW116227   1.647   6.380   8.665
 5401SOL    HW216228   1.675   6.537   8.629
 5402SOL     OW16229   1.225   5.911   7.897
 5402SOL    HW116230   1.290   5.837   7.886
 5402SOL    HW216231   1.245   5.961   7.981
 5403SOL     OW16232   0.594   6.331   8.100
 5403SOL    HW116233   0.644   6.416   8.081
 5403SOL    HW216234   0.506   6.333   8.052
 5404SOL     OW16235   1.777   5.928   9.090
 5404SOL    HW116236   1.760   5.959   8.996
 5404SOL    HW216237   1.693   5.891   9.128
 5405SOL     OW16238   1.730   6.520   8.965
 5405SOL    HW116239   1.768   6.611   8.980
 5405SOL    HW216240   1.722   6.503   8.866
 5406SOL     OW16241   0.859   6.960   7.464
 5406SOL    HW116242   0.813   6.975   7.552
 5406SOL    HW216243   0.903   7.045   7.434
 5407SOL     OW16244   0.661   7.376   8.401
 5407SOL    HW116245   0.615   7.464   8.388
 5407SOL    HW216246   0.760   7.388   8.394
 5408SOL     OW16247   0.859   6.542   8.309
 5408SOL    HW116248   0.913   6.473   8.357
 5408SOL    HW216249   0.827   6.611   8.375
 5409SOL     OW16250   1.083   6.570   7.535
 5409SOL    HW116251   1.060   6.623   7.453
 5409SOL    HW216252   1.164   6.514   7.516
 5410SOL     OW16253   1.861   7.155   8.299
 5410SOL    HW116254   1.790   7.143   8.229
 5410SOL    HW216255   1.862   7.076   8.359
 5411SOL     OW16256   0.221   6.900   9.292
 5411SOL    HW116257   0.156   6.827   9.271
 5411SOL    HW216258   0.225   6.914   9.390
 5412SOL     OW16259   0.079   6.826   8.101
 5412SOL    HW116260   0.078   6.779   8.189
 5412SOL    HW216261   0.161   6.798   8.050
 5413SOL     OW16262   0.672   6.977   9.072
 5413SOL    HW116263   0.594   6.927   9.110
 5413SOL    HW216264   0.669   7.072   9.103
 5414SOL     OW16265   1.824   5.778   8.675
 5414SOL    HW116266   1.820   5.688   8.719
 5414SOL    HW216267   1.827   5.767   8.576
 5415SOL     OW16268   0.428   6.010   7.968
 5415SOL    HW116269   0.458   5.938   7.906
 5415SOL    HW216270   0.389   5.970   8.051
 5416SOL     OW16271   1.705   7.073   8.552
 5416SOL    HW116272   1.612   7.048   8.525
 5416SOL    HW216273   1.731   7.023   8.634
 5417SOL     OW16274   0.317   6.133   8.728
 5417SOL    HW116275   0.355   6.074   8.800
 5417SOL    HW216276   0.357   6.107   8.640
 5418SOL     OW16277   0.812   7.172   8.135
 5418SOL    HW116278   0.844   7.182   8.041
 5418SOL    HW216279   0.733   7.110   8.137
 5419SOL     OW16280   1.424   5.800   8.560
 5419SOL    HW116281   1.476   5.735   8.615
 5419SOL    HW216282   1.375   5.863   8.621
 5420SOL     OW16283   1.001   5.620   8.602
 5420SOL    HW116284   0.938   5.548   8.571
 5420SOL    HW216285   1.094   5.584   8.602
 5421SOL     OW16286   0.770   6.916   7.749
 5421SOL    HW116287   0.724   6.829   7.766
 5421SOL    HW216288   0.861   6.913   7.790
 5422SOL     OW16289   0.618   7.153   8.732
 5422SOL    HW116290   0.613   7.235   8.789
 5422SOL    HW216291   0.707   7.150   8.687
 5423SOL     OW16292   1.352   5.638   7.616
 5423SOL    HW116293   1.387   5.597   7.532
 5423SOL    HW216294   1.262   5.600   7.636
 5424SOL     OW16295   1.300   6.039   8.139
 5424SOL    HW116296   1.241   6.119   8.143
 5424SOL    HW216297   1.315   6.004   8.232
 5425SOL     OW16298   1.593   5.807   8.330
 5425SOL    HW116299   1.509   5.806   8.384
 5425SOL    HW216300   1.595   5.890   8.274
 5426SOL     OW16301   0.039   6.663   7.748
 5426SOL    HW116302   0.138   6.652   7.739
 5426SOL    HW216303  -0.001   6.577   7.780
 5427SOL     OW16304   0.875   7.232   7.785
 5427SOL    HW116305   0.798   7.197   7.731
 5427SOL    HW216306   0.843   7.303   7.847
 5428SOL     OW16307   0.230   6.214   9.423
 5428SOL    HW116308   0.137   6.212   9.460
 5428SOL    HW216309   0.231   6.175   9.331
 5429SOL     OW16310   0.019   5.954   9.957
 5429SOL    HW116311  -0.063   5.997   9.996
 5429SOL    HW216312  -0.009   5.881   9.894
 5430SOL     OW16313   0.569   6.861  10.475
 5430SOL    HW116314   0.476   6.854  10.438
 5430SOL    HW216315   0.580   6.950  10.519
 5431SOL     OW16316   1.555   7.097  10.013
 5431SOL    HW116317   1.498   7.081  10.094
 5431SOL    HW216318   1.496   7.107   9.933
 5432SOL     OW16319   1.135   6.289  10.027
 5432SOL    HW116320   1.192   6.367  10.002
 5432SOL    HW216321   1.075   6.315  10.103
 5433SOL     OW16322   1.755   6.193   9.541
 5433SOL    HW116323   1.743   6.180   9.442
 5433SOL    HW216324   1.725   6.112   9.590
 5434SOL     OW16325   0.768   6.730  10.333
 5434SOL    HW116326   0.690   6.747  10.393
 5434SOL    HW216327   0.802   6.817  10.297
 5435SOL     OW16328   0.850   6.384  11.133
 5435SOL    HW116329   0.846   6.460  11.198
 5435SOL    HW216330   0.872   6.420  11.042
 5436SOL     OW16331   0.685   6.598   9.975
 5436SOL    HW116332   0.754   6.582  10.045
 5436SOL    HW216333   0.612   6.655  10.013
 5437SOL     OW16334   0.686   6.747  11.113
 5437SOL    HW116335   0.746   6.826  11.127
 5437SOL    HW216336   0.600   6.778  11.072
 5438SOL     OW16337   0.335   7.021  10.371
 5438SOL    HW116338   0.257   6.990  10.318
 5438SOL    HW216339   0.393   7.079  10.314
 5439SOL     OW16340   1.460   7.091  10.649
 5439SOL    HW116341   1.484   7.185  10.675
 5439SOL    HW216342   1.444   7.037  10.731
 5440SOL     OW16343   0.438   5.978  10.809
 5440SOL    HW116344   0.520   5.922  10.818
 5440SOL    HW216345   0.357   5.920  10.813
 5441SOL     OW16346   1.603   6.033  10.047
 5441SOL    HW116347   1.529   6.079   9.997
 5441SOL    HW216348   1.654   6.101  10.100
 5442SOL     OW16349   0.231   7.299   9.793
 5442SOL    HW116350   0.265   7.376   9.847
 5442SOL    HW216351   0.275   7.299   9.703
 5443SOL     OW16352   1.127   6.927  11.000
 5443SOL    HW116353   1.174   6.927  11.088
 5443SOL    HW216354   1.079   6.840  10.989
 5444SOL     OW16355   0.230   7.020   9.848
 5444SOL    HW116356   0.204   7.116   9.848
 5444SOL    HW216357   0.159   6.966   9.893
 5445SOL     OW16358   0.240   6.677  10.196
 5445SOL    HW116359   0.254   6.593  10.248
 5445SOL    HW216360   0.185   6.741  10.251
 5446SOL     OW16361   0.620   7.372  10.749
 5446SOL    HW116362   0.528   7.355  10.784
 5446SOL    HW216363   0.648   7.464  10.775
 5447SOL     OW16364   0.606   6.550   9.433
 5447SOL    HW116365   0.613   6.634   9.379
 5447SOL    HW216366   0.652   6.563   9.521
 5448SOL     OW16367   1.594   5.700  10.790
 5448SOL    HW116368   1.576   5.767  10.718
 5448SOL    HW216369   1.591   5.746  10.879
 5449SOL     OW16370   0.122   6.229   9.873
 5449SOL    HW116371   0.077   6.141   9.890
 5449SOL    HW216372   0.121   6.283   9.957
 5450SOL     OW16373   1.842   7.353   9.669
 5450SOL    HW116374   1.896   7.324   9.749
 5450SOL    HW216375   1.872   7.443   9.640
 5451SOL     OW16376   0.027   7.182   9.427
 5451SOL    HW116377   0.008   7.086   9.448
 5451SOL    HW216378  -0.006   7.240   9.502
 5452SOL     OW16379   1.689   6.508   9.922
 5452SOL    HW116380   1.784   6.479   9.930
 5452SOL    HW216381   1.681   6.573   9.847
 5453SOL     OW16382   1.641   6.694   9.742
 5453SOL    HW116383   1.727   6.696   9.690
 5453SOL    HW216384   1.655   6.741   9.830
 5454SOL     OW16385   0.113   6.323  10.907
 5454SOL    HW116386   0.201   6.310  10.952
 5454SOL    HW216387   0.100   6.420  10.885
 5455SOL     OW16388   0.613   6.951  10.036
 5455SOL    HW116389   0.564   6.864  10.045
 5455SOL    HW216390   0.590   6.994   9.949
 5456SOL     OW16391   1.293   6.814  10.733
 5456SOL    HW116392   1.330   6.741  10.675
 5456SOL    HW216393   1.345   6.819  10.818
 5457SOL     OW16394   0.809   5.590   9.812
 5457SOL    HW116395   0.849   5.681   9.803
 5457SOL    HW216396   0.709   5.598   9.818
 5458SOL     OW16397   0.197   6.562  10.574
 5458SOL    HW116398   0.286   6.517  10.560
 5458SOL    HW216399   0.124   6.497  10.555
 5459SOL     OW16400   1.525   6.585   9.500
 5459SOL    HW116401   1.462   6.509   9.513
 5459SOL    HW216402   1.573   6.603   9.586
 5460SOL     OW16403   1.187   7.378  10.926
 5460SOL    HW116404   1.211   7.438  10.850
 5460SOL    HW216405   1.194   7.283  10.896
 5461SOL     OW16406   0.317   5.837  11.111
 5461SOL    HW116407   0.388   5.908  11.117
 5461SOL    HW216408   0.229   5.876  11.139
 5462SOL     OW16409   1.466   7.003  10.263
 5462SOL    HW116410   1.407   7.009  10.343
 5462SOL    HW216411   1.451   6.915  10.217
 5463SOL     OW16412   1.667   7.300   9.882
 5463SOL    HW116413   1.626   7.277   9.794
 5463SOL    HW216414   1.649   7.226   9.947
 5464SOL     OW16415   0.598   6.315   9.580
 5464SOL    HW116416   0.622   6.384   9.512
 5464SOL    HW216417   0.520   6.348   9.634
 5465SOL     OW16418   1.281   5.931  10.254
 5465SOL    HW116419   1.195   5.881  10.241
 5465SOL    HW216420   1.343   5.877  10.310
 5466SOL     OW16421   1.576   7.248   9.617
 5466SOL    HW116422   1.665   7.294   9.620
 5466SOL    HW216423   1.555   7.224   9.522
 5467SOL     OW16424   0.807   6.191  10.775
 5467SOL    HW116425   0.760   6.188  10.864
 5467SOL    HW216426   0.756   6.136  10.709
 5468SOL     OW16427   1.394   6.055  10.984
 5468SOL    HW116428   1.374   6.098  11.072
 5468SOL    HW216429   1.472   5.993  10.993
 5469SOL     OW16430   0.973   6.476  10.882
 5469SOL    HW116431   1.019   6.392  10.853
 5469SOL    HW216432   0.917   6.510  10.807
 5470SOL     OW16433   0.991   5.996  10.552
 5470SOL    HW116434   0.914   6.030  10.606
 5470SOL    HW216435   0.957   5.945  10.473
 5471SOL     OW16436   1.041   6.287   9.739
 5471SOL    HW116437   1.067   6.283   9.835
 5471SOL    HW216438   0.956   6.236   9.725
 5472SOL     OW16439   0.076   6.397  10.099
 5472SOL    HW116440   0.175   6.385  10.108
 5472SOL    HW216441   0.052   6.492  10.120
 5473SOL     OW16442   0.130   7.407  10.881
 5473SOL    HW116443   0.120   7.392  10.980
 5473SOL    HW216444   0.044   7.443  10.845
 5474SOL     OW16445   0.865   5.934   9.505
 5474SOL    HW116446   0.924   5.997   9.456
 5474SOL    HW216447   0.884   5.840   9.476
 5475SOL     OW16448   1.719   6.171  11.141
 5475SOL    HW116449   1.693   6.260  11.105
 5475SOL    HW216450   1.717   6.103  11.068
 5476SOL     OW16451   1.362   6.730   9.855
 5476SOL    HW116452   1.445   6.701   9.807
 5476SOL    HW216453   1.313   6.797   9.799
 5477SOL     OW16454   0.550   5.782  10.195
 5477SOL    HW116455   0.545   5.777  10.295
 5477SOL    HW216456   0.552   5.878  10.166
 5478SOL     OW16457   1.008   7.042   9.787
 5478SOL    HW116458   0.962   7.114   9.735
 5478SOL    HW216459   1.004   7.062   9.885
 5479SOL     OW16460   0.351   7.387  10.163
 5479SOL    HW116461   0.401   7.301  10.169
 5479SOL    HW216462   0.416   7.464  10.160
 5480SOL     OW16463   1.795   6.652  10.183
 5480SOL    HW116464   1.733   6.637  10.107
 5480SOL    HW216465   1.743   6.663  10.268
 5481SOL     OW16466   1.227   7.136  10.816
 5481SOL    HW116467   1.233   7.059  10.880
 5481SOL    HW216468   1.175   7.110  10.736
 5482SOL     OW16469   0.321   6.529   9.552
 5482SOL    HW116470   0.403   6.568   9.510
 5482SOL    HW216471   0.294   6.447   9.503
 5483SOL     OW16472   1.458   6.321  10.038
 5483SOL    HW116473   1.453   6.256  10.113
 5483SOL    HW216474   1.538   6.380  10.051
 5484SOL     OW16475   0.461   6.852  11.037
 5484SOL    HW116476   0.411   6.853  10.951
 5484SOL    HW216477   0.398   6.834  11.113
 5485SOL     OW16478   1.111   7.362   9.547
 5485SOL    HW116479   1.051   7.300   9.597
 5485SOL    HW216480   1.142   7.318   9.462
 5486SOL     OW16481   0.202   5.871  10.808
 5486SOL    HW116482   0.122   5.931  10.795
 5486SOL    HW216483   0.192   5.822  10.894
 5487SOL     OW16484   1.632   6.963   9.391
 5487SOL    HW116485   1.600   7.057   9.381
 5487SOL    HW216486   1.556   6.900   9.379
 5488SOL     OW16487   0.464   7.329   9.633
 5488SOL    HW116488   0.497   7.368   9.719
 5488SOL    HW216489   0.540   7.322   9.568
 5489SOL     OW16490   1.400   5.693   9.736
 5489SOL    HW116491   1.376   5.656   9.646
 5489SOL    HW216492   1.499   5.709   9.740
 5490SOL     OW16493   0.249   7.371  10.551
 5490SOL    HW116494   0.306   7.306  10.601
 5490SOL    HW216495   0.233   7.338  10.458
 5491SOL     OW16496   0.940   7.284  10.214
 5491SOL    HW116497   1.020   7.227  10.235
 5491SOL    HW216498   0.891   7.244  10.137
 5492SOL     OW16499   0.382   6.286   9.790
 5492SOL    HW116500   0.427   6.196   9.787
 5492SOL    HW216501   0.288   6.275   9.823
 5493SOL     OW16502   1.547   5.808  11.039
 5493SOL    HW116503   1.542   5.845  11.131
 5493SOL    HW216504   1.475   5.739  11.027
 5494SOL     OW16505   0.614   5.708   9.427
 5494SOL    HW116506   0.712   5.686   9.434
 5494SOL    HW216507   0.583   5.691   9.334
 5495SOL     OW16508   0.781   5.850  11.059
 5495SOL    HW116509   0.848   5.789  11.102
 5495SOL    HW216510   0.708   5.869  11.124
 5496SOL     OW16511   0.888   7.100  10.505
 5496SOL    HW116512   0.865   7.075  10.411
 5496SOL    HW216513   0.949   7.031  10.544
 5497SOL     OW16514   1.351   6.176  10.743
 5497SOL    HW116515   1.379   6.133  10.828
 5497SOL    HW216516   1.376   6.272  10.744
 5498SOL     OW16517   0.803   6.988  10.234
 5498SOL    HW116518   0.893   7.002  10.192
 5498SOL    HW216519   0.732   6.990  10.163
 5499SOL     OW16520   0.922   6.089  10.209
 5499SOL    HW116521   0.897   6.080  10.113
 5499SOL    HW216522   0.970   6.007  10.240
 5500SOL     OW16523   0.539   5.650   9.822
 5500SOL    HW116524   0.458   5.651   9.880
 5500SOL    HW216525   0.542   5.733   9.767
 5501SOL     OW16526   1.434   6.774   9.351
 5501SOL    HW116527   1.466   6.698   9.408
 5501SOL    HW216528   1.342   6.801   9.381
 5502SOL     OW16529   0.297   5.621   9.481
 5502SOL    HW116530   0.346   5.705   9.460
 5502SOL    HW216531   0.359   5.556   9.526
 5503SOL     OW16532   0.935   5.822   9.790
 5503SOL    HW116533   0.887   5.863   9.712
 5503SOL    HW216534   1.034   5.820   9.771
 5504SOL     OW16535   1.076   6.269  10.774
 5504SOL    HW116536   0.996   6.208  10.777
 5504SOL    HW216537   1.157   6.216  10.750
 5505SOL     OW16538   1.227   7.156  10.103
 5505SOL    HW116539   1.248   7.230  10.038
 5505SOL    HW216540   1.295   7.156  10.176
 5506SOL     OW16541   0.459   6.738  10.051
 5506SOL    HW116542   0.388   6.711  10.116
 5506SOL    HW216543   0.433   6.710   9.958
 5507SOL     OW16544   1.271   7.383   9.901
 5507SOL    HW116545   1.315   7.447   9.837
 5507SOL    HW216546   1.221   7.435   9.971
 5508SOL     OW16547   1.032   6.135   9.326
 5508SOL    HW116548   0.991   6.217   9.287
 5508SOL    HW216549   1.096   6.161   9.399
 5509SOL     OW16550   0.078   6.142  10.696
 5509SOL    HW116551   0.170   6.141  10.655
 5509SOL    HW216552   0.072   6.216  10.763
 5510SOL     OW16553   0.561   5.808  10.457
 5510SOL    HW116554   0.599   5.724  10.494
 5510SOL    HW216555   0.473   5.827  10.501
 5511SOL     OW16556   0.866   6.040   9.952
 5511SOL    HW116557   0.834   6.112   9.890
 5511SOL    HW216558   0.890   5.959   9.899
 5512SOL     OW16559   1.017   5.625  10.063
 5512SOL    HW116560   0.945   5.630   9.994
 5512SOL    HW216561   0.993   5.556  10.132
 5513SOL     OW16562   1.429   6.759  10.177
 5513SOL    HW116563   1.374   6.675  10.170
 5513SOL    HW216564   1.455   6.788  10.085
 5514SOL     OW16565   1.466   6.176  10.302
 5514SOL    HW116566   1.436   6.081  10.309
 5514SOL    HW216567   1.539   6.192  10.368
 5515SOL     OW16568   1.857   6.419   9.687
 5515SOL    HW116569   1.899   6.355   9.751
 5515SOL    HW216570   1.819   6.368   9.609
 5516SOL     OW16571   0.488   6.971   9.484
 5516SOL    HW116572   0.401   6.956   9.531
 5516SOL    HW216573   0.471   6.997   9.389
 5517SOL     OW16574   1.664   6.866   9.967
 5517SOL    HW116575   1.763   6.874   9.981
 5517SOL    HW216576   1.619   6.950   9.998
 5518SOL     OW16577   1.390   6.161   9.388
 5518SOL    HW116578   1.336   6.140   9.469
 5518SOL    HW216579   1.481   6.120   9.397
 5519SOL     OW16580   0.527   5.842   9.638
 5519SOL    HW116581   0.554   5.783   9.563
 5519SOL    HW216582   0.527   5.937   9.607
 5520SOL     OW16583   1.754   6.809  10.898
 5520SOL    HW116584   1.845   6.770  10.885
 5520SOL    HW216585   1.762   6.905  10.922
 5521SOL     OW16586   1.064   6.933  10.650
 5521SOL    HW116587   0.984   6.910  10.705
 5521SOL    HW216588   1.147   6.907  10.699
 5522SOL     OW16589   1.592   7.215  10.935
 5522SOL    HW116590   1.619   7.249  10.845
 5522SOL    HW216591   1.671   7.177  10.981
 5523SOL     OW16592   1.111   6.781  10.410
 5523SOL    HW116593   1.071   6.825  10.491
 5523SOL    HW216594   1.070   6.818  10.327
 5524SOL     OW16595   1.638   6.685  10.389
 5524SOL    HW116596   1.643   6.766  10.448
 5524SOL    HW216597   1.552   6.687  10.338
 5525SOL     OW16598   0.915   5.675  10.712
 5525SOL    HW116599   0.940   5.655  10.617
 5525SOL    HW216600   0.987   5.731  10.754
 5526SOL     OW16601   0.980   6.702  11.029
 5526SOL    HW116602   0.881   6.708  11.039
 5526SOL    HW216603   1.003   6.622  10.973
 5527SOL     OW16604   0.705   6.636   9.678
 5527SOL    HW116605   0.691   6.643   9.777
 5527SOL    HW216606   0.789   6.585   9.660
 5528SOL     OW16607   0.410   6.399  10.561
 5528SOL    HW116608   0.496   6.411  10.611
 5528SOL    HW216609   0.368   6.312  10.588
 5529SOL     OW16610   1.274   5.972  10.572
 5529SOL    HW116611   1.295   6.046  10.636
 5529SOL    HW216612   1.185   5.989  10.529
 5530SOL     OW16613   0.064   7.150  10.641
 5530SOL    HW116614   0.018   7.232  10.607
 5530SOL    HW216615   0.162   7.169  10.650
 5531SOL     OW16616   0.367   6.686   9.811
 5531SOL    HW116617   0.360   6.769   9.755
 5531SOL    HW216618   0.371   6.606   9.751
 5532SOL     OW16619   0.566   6.123  10.175
 5532SOL    HW116620   0.578   6.189  10.101
 5532SOL    HW216621   0.612   6.157  10.258
 5533SOL     OW16622   1.252   6.934   9.698
 5533SOL    HW116623   1.302   7.011   9.738
 5533SOL    HW216624   1.157   6.936   9.730
 5534SOL     OW16625   1.272   7.031  10.452
 5534SOL    HW116626   1.319   7.044  10.539
 5534SOL    HW216627   1.206   6.957  10.461
 5535SOL     OW16628   1.582   6.225   9.782
 5535SOL    HW116629   1.551   6.286   9.855
 5535SOL    HW216630   1.632   6.277   9.713
 5536SOL     OW16631   0.354   7.096  10.639
 5536SOL    HW116632   0.333   7.052  10.552
 5536SOL    HW216633   0.451   7.122  10.642
 5537SOL     OW16634   0.402   6.337  10.908
 5537SOL    HW116635   0.470   6.392  10.861
 5537SOL    HW216636   0.442   6.249  10.935
 5538SOL     OW16637   1.587   6.365  10.980
 5538SOL    HW116638   1.495   6.403  10.975
 5538SOL    HW216639   1.647   6.412  10.915
 5539SOL     OW16640   1.013   5.691  11.080
 5539SOL    HW116641   1.019   5.776  11.028
 5539SOL    HW216642   1.045   5.615  11.023
 5540SOL     OW16643   0.504   5.636  11.050
 5540SOL    HW116644   0.462   5.579  10.980
 5540SOL    HW216645   0.438   5.705  11.082
 5541SOL     OW16646   0.573   6.456  10.339
 5541SOL    HW116647   0.617   6.545  10.330
 5541SOL    HW216648   0.510   6.456  10.416
 5542SOL     OW16649   1.360   6.448  10.355
 5542SOL    HW116650   1.285   6.448  10.289
 5542SOL    HW216651   1.397   6.356  10.364
 5543SOL     OW16652   1.209   6.111   9.585
 5543SOL    HW116653   1.222   6.027   9.639
 5543SOL    HW216654   1.180   6.185   9.645
 5544SOL     OW16655   0.307   5.799  10.541
 5544SOL    HW116656   0.284   5.836  10.631
 5544SOL    HW216657   0.277   5.704  10.535
 5545SOL     OW16658   0.037   6.896  10.592
 5545SOL    HW116659   0.090   6.847  10.660
 5545SOL    HW216660   0.059   6.994  10.597
 5546SOL     OW16661   0.732   6.220  10.374
 5546SOL    HW116662   0.791   6.194  10.298
 5546SOL    HW216663   0.704   6.316  10.363
 5547SOL     OW16664   1.728   6.521  11.164
 5547SOL    HW116665   1.682   6.514  11.075
 5547SOL    HW216666   1.666   6.565  11.230
 5548SOL     OW16667   0.307   5.649   9.928
 5548SOL    HW116668   0.296   5.743   9.961
 5548SOL    HW216669   0.302   5.586  10.005
 5549SOL     OW16670   1.622   5.953   9.684
 5549SOL    HW116671   1.624   5.877   9.748
 5549SOL    HW216672   1.574   6.030   9.724
 5550SOL     OW16673   1.023   6.352  10.276
 5550SOL    HW116674   1.038   6.373  10.372
 5550SOL    HW216675   0.993   6.257  10.267
 5551SOL     OW16676   0.980   7.159  11.010
 5551SOL    HW116677   0.960   7.203  10.922
 5551SOL    HW216678   1.019   7.068  10.994
 5552SOL     OW16679   1.859   7.104  10.915
 5552SOL    HW116680   1.873   7.131  10.820
 5552SOL    HW216681   1.942   7.126  10.968
 5553SOL     OW16682   0.350   6.484  11.114
 5553SOL    HW116683   0.426   6.528  11.162
 5553SOL    HW216684   0.385   6.437  11.032
 5554SOL     OW16685   1.540   5.860   9.435
 5554SOL    HW116686   1.479   5.785   9.458
 5554SOL    HW216687   1.562   5.912   9.518
 5555SOL     OW16688   1.303   6.424   9.352
 5555SOL    HW116689   1.337   6.331   9.367
 5555SOL    HW216690   1.321   6.451   9.257
 5556SOL     OW16691   1.068   6.919  10.159
 5556SOL    HW116692   1.075   6.835  10.104
 5556SOL    HW216693   1.130   6.988  10.123
 5557SOL     OW16694   0.319   6.396  10.259
 5557SOL    HW116695   0.412   6.432  10.264
 5557SOL    HW216696   0.313   6.311  10.311
 5558SOL     OW16697   0.339   6.095  10.316
 5558SOL    HW116698   0.287   6.012  10.299
 5558SOL    HW216699   0.416   6.100  10.252
 5559SOL     OW16700   1.138   5.966  10.988
 5559SOL    HW116701   1.093   6.029  11.052
 5559SOL    HW216702   1.231   5.997  10.971
 5560SOL     OW16703   1.160   5.793  10.787
 5560SOL    HW116704   1.160   5.857  10.864
 5560SOL    HW216705   1.188   5.841  10.704
 5561SOL     OW16706   0.008   6.912   9.510
 5561SOL    HW116707  -0.085   6.933   9.479
 5561SOL    HW216708   0.018   6.813   9.523
 5562SOL     OW16709   0.088   7.387  10.237
 5562SOL    HW116710   0.046   7.301  10.210
 5562SOL    HW216711   0.182   7.390  10.203
 5563SOL     OW16712   0.504   7.154  10.220
 5563SOL    HW116713   0.570   7.228  10.229
 5563SOL    HW216714   0.548   7.075  10.178
 5564SOL     OW16715   1.002   6.382  10.548
 5564SOL    HW116716   1.043   6.350  10.634
 5564SOL    HW216717   0.906   6.355  10.545
 5565SOL     OW16718   0.040   6.130  10.424
 5565SOL    HW116719   0.125   6.097  10.383
 5565SOL    HW216720   0.053   6.145  10.522
 5566SOL     OW16721   0.189   6.106  11.032
 5566SOL    HW116722   0.248   6.066  10.962
 5566SOL    HW216723   0.131   6.177  10.991
 5567SOL     OW16724   1.369   6.536  10.970
 5567SOL    HW116725   1.408   6.625  10.990
 5567SOL    HW216726   1.379   6.516  10.873
 5568SOL     OW16727   0.815   6.158   9.635
 5568SOL    HW116728   0.822   6.069   9.589
 5568SOL    HW216729   0.721   6.192   9.627
 5569SOL     OW16730   1.657   6.190  10.516
 5569SOL    HW116731   1.619   6.121  10.578
 5569SOL    HW216732   1.739   6.154  10.472
 5570SOL     OW16733   0.252   7.150  11.054
 5570SOL    HW116734   0.222   7.207  11.130
 5570SOL    HW216735   0.245   7.053  11.080
 5571SOL     OW16736   0.671   6.050  10.579
 5571SOL    HW116737   0.637   5.961  10.549
 5571SOL    HW216738   0.697   6.104  10.499
 5572SOL     OW16739   0.473   6.086   9.501
 5572SOL    HW116740   0.534   6.166   9.505
 5572SOL    HW216741   0.378   6.117   9.508
 5573SOL     OW16742   0.159   6.723  10.776
 5573SOL    HW116743   0.181   6.662  10.852
 5573SOL    HW216744   0.169   6.674  10.690
 5574SOL     OW16745   1.347   6.645  10.544
 5574SOL    HW116746   1.371   6.582  10.470
 5574SOL    HW216747   1.257   6.685  10.526
 5575SOL     OW16748   1.302   6.441   9.619
 5575SOL    HW116749   1.216   6.410   9.661
 5575SOL    HW216750   1.298   6.427   9.520
 5576SOL     OW16751   1.759   7.333  10.464
 5576SOL    HW116752   1.820   7.363  10.391
 5576SOL    HW216753   1.721   7.244  10.442
 5577SOL     OW16754   1.252   7.317  10.438
 5577SOL    HW116755   1.336   7.322  10.384
 5577SOL    HW216756   1.229   7.221  10.456
 5578SOL     OW16757   0.083   6.844  10.332
 5578SOL    HW116758   0.078   6.843  10.432
 5578SOL    HW216759   0.000   6.803  10.294
 5579SOL     OW16760   0.688   7.248  11.026
 5579SOL    HW116761   0.632   7.329  11.035
 5579SOL    HW216762   0.740   7.252  10.940
 5580SOL     OW16763   1.726   5.721   9.833
 5580SOL    HW116764   1.799   5.704   9.766
 5580SOL    HW216765   1.695   5.634   9.871
 5581SOL     OW16766   1.388   7.159   9.787
 5581SOL    HW116767   1.455   7.171   9.713
 5581SOL    HW216768   1.348   7.248   9.810
 5582SOL     OW16769   0.130   7.380  11.161
 5582SOL    HW116770   0.089   7.306  11.214
 5582SOL    HW216771   0.194   7.431  11.219
 5583SOL     OW16772   1.280   6.513   9.982
 5583SOL    HW116773   1.340   6.432   9.984
 5583SOL    HW216774   1.320   6.582   9.922
 5584SOL     OW16775   0.830   6.859  10.732
 5584SOL    HW116776   0.825   6.892  10.827
 5584SOL    HW216777   0.744   6.878  10.686
 5585SOL     OW16778   0.672   7.202   9.464
 5585SOL    HW116779   0.681   7.212   9.365
 5585SOL    HW216780   0.632   7.113   9.485
 5586SOL     OW16781   1.650   7.306  10.704
 5586SOL    HW116782   1.703   7.316  10.620
 5586SOL    HW216783   1.623   7.396  10.738
 5587SOL     OW16784   1.841   5.761  10.273
 5587SOL    HW116785   1.880   5.676  10.237
 5587SOL    HW216786   1.743   5.763  10.254
 5588SOL     OW16787   0.263   5.912  10.030
 5588SOL    HW116788   0.184   5.963   9.996
 5588SOL    HW216789   0.254   5.897  10.128
 5589SOL     OW16790   1.194   7.198   9.341
 5589SOL    HW116791   1.200   7.105   9.378
 5589SOL    HW216792   1.135   7.198   9.261
 5590SOL     OW16793   0.822   6.588  10.682
 5590SOL    HW116794   0.862   6.587  10.590
 5590SOL    HW216795   0.832   6.680  10.722
 5591SOL     OW16796   0.916   6.496   9.601
 5591SOL    HW116797   0.979   6.534   9.533
 5591SOL    HW216798   0.956   6.413   9.640
 5592SOL     OW16799   1.504   7.193   9.354
 5592SOL    HW116800   1.412   7.230   9.361
 5592SOL    HW216801   1.542   7.213   9.264
 5593SOL     OW16802   0.372   6.874  10.800
 5593SOL    HW116803   0.359   6.967  10.766
 5593SOL    HW216804   0.288   6.822  10.787
 5594SOL     OW16805   1.039   6.684  10.006
 5594SOL    HW116806   0.969   6.637  10.060
 5594SOL    HW216807   1.098   6.616   9.963
 5595SOL     OW16808   1.014   5.822  10.281
 5595SOL    HW116809   1.006   5.786  10.188
 5595SOL    HW216810   1.012   5.746  10.346
 5596SOL     OW16811   0.590   7.073   9.801
 5596SOL    HW116812   0.632   7.015   9.731
 5596SOL    HW216813   0.546   7.152   9.757
 5597SOL     OW16814   1.709   5.971  10.691
 5597SOL    HW116815   1.782   6.040  10.695
 5597SOL    HW216816   1.737   5.896  10.632
 5598SOL     OW16817   0.255   6.934   9.600
 5598SOL    HW116818   0.159   6.935   9.573
 5598SOL    HW216819   0.267   6.987   9.684
 5599SOL     OW16820   0.105   6.599  11.036
 5599SOL    HW116821   0.028   6.566  11.090
 5599SOL    HW216822   0.190   6.569  11.078
 5600SOL     OW16823   0.672   5.789  10.799
 5600SOL    HW116824   0.762   5.773  10.759
 5600SOL    HW216825   0.680   5.794  10.898
 5601SOL     OW16826   0.075   5.931   9.343
 5601SOL    HW116827  -0.017   5.903   9.314
 5601SOL    HW216828   0.106   6.008   9.287
 5602SOL     OW16829   1.440   6.442  10.708
 5602SOL    HW116830   1.383   6.494  10.645
 5602SOL    HW216831   1.536   6.454  10.684
 5603SOL     OW16832   0.072   5.752   9.628
 5603SOL    HW116833   0.055   5.835   9.574
 5603SOL    HW216834   0.162   5.715   9.606
 5604SOL     OW16835   1.183   6.921   9.429
 5604SOL    HW116836   1.084   6.910   9.431
 5604SOL    HW216837   1.217   6.936   9.522
 5605SOL     OW16838   0.613   6.428  10.741
 5605SOL    HW116839   0.669   6.509  10.724
 5605SOL    HW216840   0.672   6.348  10.744
 5606SOL     OW16841   1.493   7.353  10.269
 5606SOL    HW116842   1.526   7.417  10.200
 5606SOL    HW216843   1.559   7.347  10.344
 5607SOL     OW16844   0.716   6.151  11.018
 5607SOL    HW116845   0.735   6.216  11.092
 5607SOL    HW216846   0.776   6.071  11.027
 5608SOL     OW16847   1.450   6.806  10.943
 5608SOL    HW116848   1.441   6.796  11.042
 5608SOL    HW216849   1.546   6.799  10.917
 5609SOL     OW16850   0.390   7.327  10.870
 5609SOL    HW116851   0.299   7.368  10.868
 5609SOL    HW216852   0.383   7.233  10.902
 5610SOL     OW16853   1.674   6.469  10.564
 5610SOL    HW116854   1.647   6.380  10.527
 5610SOL    HW216855   1.675   6.537  10.491
 5611SOL     OW16856   1.225   5.911   9.759
 5611SOL    HW116857   1.290   5.837   9.748
 5611SOL    HW216858   1.245   5.961   9.843
 5612SOL     OW16859   0.594   6.331   9.962
 5612SOL    HW116860   0.644   6.416   9.943
 5612SOL    HW216861   0.506   6.333   9.914
 5613SOL     OW16862   1.777   5.928  10.952
 5613SOL    HW116863   1.760   5.959  10.858
 5613SOL    HW216864   1.693   5.891  10.990
 5614SOL     OW16865   1.730   6.520  10.827
 5614SOL    HW116866   1.768   6.611  10.842
 5614SOL    HW216867   1.722   6.503  10.728
 5615SOL     OW16868   0.859   6.960   9.326
 5615SOL    HW116869   0.813   6.975   9.414
 5615SOL    HW216870   0.903   7.045   9.296
 5616SOL     OW16871   0.661   7.376  10.263
 5616SOL    HW116872   0.615   7.464  10.250
 5616SOL    HW216873   0.760   7.388  10.256
 5617SOL     OW16874   0.859   6.542  10.171
 5617SOL    HW116875   0.913   6.473  10.219
 5617SOL    HW216876   0.827   6.611  10.237
 5618SOL     OW16877   1.083   6.570   9.397
 5618SOL    HW116878   1.060   6.623   9.315
 5618SOL    HW216879   1.164   6.514   9.378
 5619SOL     OW16880   1.861   7.155  10.161
 5619SOL    HW116881   1.790   7.143  10.091
 5619SOL    HW216882   1.862   7.076  10.221
 5620SOL     OW16883   0.221   6.900  11.154
 5620SOL    HW116884   0.156   6.827  11.133
 5620SOL    HW216885   0.225   6.914  11.252
 5621SOL     OW16886   0.079   6.826   9.963
 5621SOL    HW116887   0.078   6.779  10.051
 5621SOL    HW216888   0.161   6.798   9.912
 5622SOL     OW16889   0.672   6.977  10.934
 5622SOL    HW116890   0.594   6.927  10.972
 5622SOL    HW216891   0.669   7.072  10.965
 5623SOL     OW16892   1.824   5.778  10.537
 5623SOL    HW116893   1.820   5.688  10.581
 5623SOL    HW216894   1.827   5.767  10.438
 5624SOL     OW16895   0.428   6.010   9.830
 5624SOL    HW116896   0.458   5.938   9.768
 5624SOL    HW216897   0.389   5.970   9.913
 5625SOL     OW16898   1.705   7.073  10.414
 5625SOL    HW116899   1.612   7.048  10.387
 5625SOL    HW216900   1.731   7.023  10.496
 5626SOL     OW16901   0.317   6.133  10.590
 5626SOL    HW116902   0.355   6.074  10.662
 5626SOL    HW216903   0.357   6.107  10.502
 5627SOL     OW16904   0.812   7.172   9.997
 5627SOL    HW116905   0.844   7.182   9.903
 5627SOL    HW216906   0.733   7.110   9.999
 5628SOL     OW16907   1.424   5.800  10.422
 5628SOL    HW116908   1.476   5.735  10.477
 5628SOL    HW216909   1.375   5.863  10.483
 5629SOL     OW16910   1.001   5.620  10.464
 5629SOL    HW116911   0.938   5.548  10.433
 5629SOL    HW216912   1.094   5.584  10.464
 5630SOL     OW16913   0.770   6.916   9.611
 5630SOL    HW116914   0.724   6.829   9.628
 5630SOL    HW216915   0.861   6.913   9.652
 5631SOL     OW16916   0.618   7.153  10.594
 5631SOL    HW116917   0.613   7.235  10.651
 5631SOL    HW216918   0.707   7.150  10.549
 5632SOL     OW16919   1.352   5.638   9.478
 5632SOL    HW116920   1.387   5.597   9.394
 5632SOL    HW216921   1.262   5.600   9.498
 5633SOL     OW16922   1.300   6.039  10.001
 5633SOL    HW116923   1.241   6.119  10.005
 5633SOL    HW216924   1.315   6.004  10.094
 5634SOL     OW16925   1.593   5.807  10.192
 5634SOL    HW116926   1.509   5.806  10.246
 5634SOL    HW216927   1.595   5.890  10.136
 5635SOL     OW16928   0.039   6.663   9.610
 5635SOL    HW116929   0.138   6.652   9.601
 5635SOL    HW216930  -0.001   6.577   9.642
 5636SOL     OW16931   0.875   7.232   9.647
 5636SOL    HW116932   0.798   7.197   9.593
 5636SOL    HW216933   0.843   7.303   9.709
 5637SOL     OW16934   0.230   6.214  11.285
 5637SOL    HW116935   0.137   6.212  11.322
 5637SOL    HW216936   0.231   6.175  11.193
 5638SOL     OW16937   0.225   5.861  12.168
 5638SOL    HW116938   0.260   5.844  12.260
 5638SOL    HW216939   0.137   5.816  12.156
 5639SOL     OW16940   0.019   5.954  11.819
 5639SOL    HW116941  -0.063   5.997  11.858
 5639SOL    HW216942  -0.009   5.881  11.756
 5640SOL     OW16943   0.569   6.861  12.337
 5640SOL    HW116944   0.476   6.854  12.300
 5640SOL    HW216945   0.580   6.950  12.381
 5641SOL     OW16946   1.555   7.097  11.875
 5641SOL    HW116947   1.498   7.081  11.956
 5641SOL    HW216948   1.496   7.107  11.795
 5642SOL     OW16949   1.135   6.289  11.889
 5642SOL    HW116950   1.192   6.367  11.864
 5642SOL    HW216951   1.075   6.315  11.965
 5643SOL     OW16952   1.755   6.193  11.403
 5643SOL    HW116953   1.743   6.180  11.304
 5643SOL    HW216954   1.725   6.112  11.452
 5644SOL     OW16955   0.768   6.730  12.195
 5644SOL    HW116956   0.690   6.747  12.255
 5644SOL    HW216957   0.802   6.817  12.159
 5645SOL     OW16958   0.685   6.598  11.837
 5645SOL    HW116959   0.754   6.582  11.907
 5645SOL    HW216960   0.612   6.655  11.875
 5646SOL     OW16961   0.335   7.021  12.233
 5646SOL    HW116962   0.257   6.990  12.180
 5646SOL    HW216963   0.393   7.079  12.176
 5647SOL     OW16964   1.460   7.091  12.511
 5647SOL    HW116965   1.484   7.185  12.537
 5647SOL    HW216966   1.444   7.037  12.593
 5648SOL     OW16967   0.438   5.978  12.671
 5648SOL    HW116968   0.520   5.922  12.680
 5648SOL    HW216969   0.357   5.920  12.675
 5649SOL     OW16970   1.603   6.033  11.909
 5649SOL    HW116971   1.529   6.079  11.859
 5649SOL    HW216972   1.654   6.101  11.962
 5650SOL     OW16973   0.231   7.299  11.655
 5650SOL    HW116974   0.265   7.376  11.709
 5650SOL    HW216975   0.275   7.299  11.565
 5651SOL     OW16976   0.230   7.020  11.710
 5651SOL    HW116977   0.204   7.116  11.710
 5651SOL    HW216978   0.159   6.966  11.755
 5652SOL     OW16979   0.240   6.677  12.058
 5652SOL    HW116980   0.254   6.593  12.110
 5652SOL    HW216981   0.185   6.741  12.113
 5653SOL     OW16982   0.620   7.372  12.611
 5653SOL    HW116983   0.528   7.355  12.646
 5653SOL    HW216984   0.648   7.464  12.637
 5654SOL     OW16985   0.606   6.550  11.295
 5654SOL    HW116986   0.613   6.634  11.241
 5654SOL    HW216987   0.652   6.563  11.383
 5655SOL     OW16988   1.594   5.700  12.652
 5655SOL    HW116989   1.576   5.767  12.580
 5655SOL    HW216990   1.591   5.746  12.741
 5656SOL     OW16991   0.122   6.229  11.735
 5656SOL    HW116992   0.077   6.141  11.752
 5656SOL    HW216993   0.121   6.283  11.819
 5657SOL     OW16994   1.842   7.353  11.531
 5657SOL    HW116995   1.896   7.324  11.611
 5657SOL    HW216996   1.872   7.443  11.502
 5658SOL     OW16997   0.027   7.182  11.289
 5658SOL    HW116998   0.008   7.086  11.310
 5658SOL    HW216999  -0.006   7.240  11.364
 5659SOL     OW17000   1.689   6.508  11.784
 5659SOL    HW117001   1.784   6.479  11.792
 5659SOL    HW217002   1.681   6.573  11.709
 5660SOL     OW17003   1.641   6.694  11.604
 5660SOL    HW117004   1.727   6.696  11.552
 5660SOL    HW217005   1.655   6.741  11.692
 5661SOL     OW17006   0.113   6.323  12.769
 5661SOL    HW117007   0.201   6.310  12.814
 5661SOL    HW217008   0.100   6.420  12.747
 5662SOL     OW17009   0.613   6.951  11.898
 5662SOL    HW117010   0.564   6.864  11.907
 5662SOL    HW217011   0.590   6.994  11.811
 5663SOL     OW17012   1.293   6.814  12.595
 5663SOL    HW117013   1.330   6.741  12.537
 5663SOL    HW217014   1.345   6.819  12.680
 5664SOL     OW17015   0.809   5.590  11.674
 5664SOL    HW117016   0.849   5.681  11.665
 5664SOL    HW217017   0.709   5.598  11.680
 5665SOL     OW17018   0.197   6.562  12.436
 5665SOL    HW117019   0.286   6.517  12.422
 5665SOL    HW217020   0.124   6.497  12.417
 5666SOL     OW17021   1.525   6.585  11.362
 5666SOL    HW117022   1.462   6.509  11.375
 5666SOL    HW217023   1.573   6.603  11.448
 5667SOL     OW17024   1.466   7.003  12.125
 5667SOL    HW117025   1.407   7.009  12.205
 5667SOL    HW217026   1.451   6.915  12.079
 5668SOL     OW17027   1.667   7.300  11.744
 5668SOL    HW117028   1.626   7.277  11.656
 5668SOL    HW217029   1.649   7.226  11.809
 5669SOL     OW17030   0.598   6.315  11.442
 5669SOL    HW117031   0.622   6.384  11.374
 5669SOL    HW217032   0.520   6.348  11.496
 5670SOL     OW17033   1.281   5.931  12.116
 5670SOL    HW117034   1.195   5.881  12.103
 5670SOL    HW217035   1.343   5.877  12.172
 5671SOL     OW17036   1.576   7.248  11.479
 5671SOL    HW117037   1.665   7.294  11.482
 5671SOL    HW217038   1.555   7.224  11.384
 5672SOL     OW17039   0.807   6.191  12.637
 5672SOL    HW117040   0.760   6.188  12.726
 5672SOL    HW217041   0.756   6.136  12.571
 5673SOL     OW17042   0.973   6.476  12.744
 5673SOL    HW117043   1.019   6.392  12.715
 5673SOL    HW217044   0.917   6.510  12.669
 5674SOL     OW17045   0.991   5.996  12.414
 5674SOL    HW117046   0.914   6.030  12.468
 5674SOL    HW217047   0.957   5.945  12.335
 5675SOL     OW17048   1.041   6.287  11.601
 5675SOL    HW117049   1.067   6.283  11.697
 5675SOL    HW217050   0.956   6.236  11.587
 5676SOL     OW17051   0.076   6.397  11.961
 5676SOL    HW117052   0.175   6.385  11.970
 5676SOL    HW217053   0.052   6.492  11.982
 5677SOL     OW17054   0.130   7.407  12.743
 5677SOL    HW117055   0.120   7.392  12.842
 5677SOL    HW217056   0.044   7.443  12.707
 5678SOL     OW17057   0.865   5.934  11.367
 5678SOL    HW117058   0.924   5.997  11.318
 5678SOL    HW217059   0.884   5.840  11.338
 5679SOL     OW17060   1.362   6.730  11.717
 5679SOL    HW117061   1.445   6.701  11.669
 5679SOL    HW217062   1.313   6.797  11.661
 5680SOL     OW17063   0.550   5.782  12.057
 5680SOL    HW117064   0.545   5.777  12.157
 5680SOL    HW217065   0.552   5.878  12.028
 5681SOL     OW17066   1.008   7.042  11.649
 5681SOL    HW117067   0.962   7.114  11.597
 5681SOL    HW217068   1.004   7.062  11.747
 5682SOL     OW17069   0.351   7.387  12.025
 5682SOL    HW117070   0.401   7.301  12.031
 5682SOL    HW217071   0.416   7.464  12.022
 5683SOL     OW17072   1.795   6.652  12.045
 5683SOL    HW117073   1.733   6.637  11.969
 5683SOL    HW217074   1.743   6.663  12.130
 5684SOL     OW17075   1.227   7.136  12.678
 5684SOL    HW117076   1.233   7.059  12.742
 5684SOL    HW217077   1.175   7.110  12.598
 5685SOL     OW17078   0.321   6.529  11.414
 5685SOL    HW117079   0.403   6.568  11.372
 5685SOL    HW217080   0.294   6.447  11.365
 5686SOL     OW17081   1.458   6.321  11.900
 5686SOL    HW117082   1.453   6.256  11.975
 5686SOL    HW217083   1.538   6.380  11.913
 5687SOL     OW17084   1.111   7.362  11.409
 5687SOL    HW117085   1.051   7.300  11.459
 5687SOL    HW217086   1.142   7.318  11.324
 5688SOL     OW17087   0.202   5.871  12.670
 5688SOL    HW117088   0.122   5.931  12.657
 5688SOL    HW217089   0.192   5.822  12.756
 5689SOL     OW17090   1.632   6.963  11.253
 5689SOL    HW117091   1.600   7.057  11.243
 5689SOL    HW217092   1.556   6.900  11.241
 5690SOL     OW17093   0.464   7.329  11.495
 5690SOL    HW117094   0.497   7.368  11.581
 5690SOL    HW217095   0.540   7.322  11.430
 5691SOL     OW17096   1.400   5.693  11.598
 5691SOL    HW117097   1.376   5.656  11.508
 5691SOL    HW217098   1.499   5.709  11.602
 5692SOL     OW17099   0.249   7.371  12.413
 5692SOL    HW117100   0.306   7.306  12.463
 5692SOL    HW217101   0.233   7.338  12.320
 5693SOL     OW17102   0.940   7.284  12.076
 5693SOL    HW117103   1.020   7.227  12.097
 5693SOL    HW217104   0.891   7.244  11.999
 5694SOL     OW17105   0.382   6.286  11.652
 5694SOL    HW117106   0.427   6.196  11.649
 5694SOL    HW217107   0.288   6.275  11.685
 5695SOL     OW17108   0.614   5.708  11.289
 5695SOL    HW117109   0.712   5.686  11.296
 5695SOL    HW217110   0.583   5.691  11.196
 5696SOL     OW17111   0.888   7.100  12.367
 5696SOL    HW117112   0.865   7.075  12.273
 5696SOL    HW217113   0.949   7.031  12.406
 5697SOL     OW17114   1.351   6.176  12.605
 5697SOL    HW117115   1.379   6.133  12.690
 5697SOL    HW217116   1.376   6.272  12.606
 5698SOL     OW17117   0.803   6.988  12.096
 5698SOL    HW117118   0.893   7.002  12.054
 5698SOL    HW217119   0.732   6.990  12.025
 5699SOL     OW17120   0.922   6.089  12.071
 5699SOL    HW117121   0.897   6.080  11.975
 5699SOL    HW217122   0.970   6.007  12.102
 5700SOL     OW17123   0.539   5.650  11.684
 5700SOL    HW117124   0.458   5.651  11.742
 5700SOL    HW217125   0.542   5.733  11.629
 5701SOL     OW17126   1.434   6.774  11.213
 5701SOL    HW117127   1.466   6.698  11.270
 5701SOL    HW217128   1.342   6.801  11.243
 5702SOL     OW17129   0.297   5.621  11.343
 5702SOL    HW117130   0.346   5.705  11.322
 5702SOL    HW217131   0.359   5.556  11.388
 5703SOL     OW17132   0.935   5.822  11.652
 5703SOL    HW117133   0.887   5.863  11.574
 5703SOL    HW217134   1.034   5.820  11.633
 5704SOL     OW17135   1.076   6.269  12.636
 5704SOL    HW117136   0.996   6.208  12.639
 5704SOL    HW217137   1.157   6.216  12.612
 5705SOL     OW17138   1.227   7.156  11.965
 5705SOL    HW117139   1.248   7.230  11.900
 5705SOL    HW217140   1.295   7.156  12.038
 5706SOL     OW17141   0.459   6.738  11.913
 5706SOL    HW117142   0.388   6.711  11.978
 5706SOL    HW217143   0.433   6.710  11.820
 5707SOL     OW17144   1.271   7.383  11.763
 5707SOL    HW117145   1.315   7.447  11.699
 5707SOL    HW217146   1.221   7.435  11.833
 5708SOL     OW17147   1.032   6.135  11.188
 5708SOL    HW117148   0.991   6.217  11.149
 5708SOL    HW217149   1.096   6.161  11.261
 5709SOL     OW17150   0.078   6.142  12.558
 5709SOL    HW117151   0.170   6.141  12.517
 5709SOL    HW217152   0.072   6.216  12.625
 5710SOL     OW17153   0.561   5.808  12.319
 5710SOL    HW117154   0.599   5.724  12.356
 5710SOL    HW217155   0.473   5.827  12.363
 5711SOL     OW17156   0.866   6.040  11.814
 5711SOL    HW117157   0.834   6.112  11.752
 5711SOL    HW217158   0.890   5.959  11.761
 5712SOL     OW17159   1.017   5.625  11.925
 5712SOL    HW117160   0.945   5.630  11.856
 5712SOL    HW217161   0.993   5.556  11.994
 5713SOL     OW17162   1.429   6.759  12.039
 5713SOL    HW117163   1.374   6.675  12.032
 5713SOL    HW217164   1.455   6.788  11.947
 5714SOL     OW17165   1.466   6.176  12.164
 5714SOL    HW117166   1.436   6.081  12.171
 5714SOL    HW217167   1.539   6.192  12.230
 5715SOL     OW17168   1.857   6.419  11.549
 5715SOL    HW117169   1.899   6.355  11.613
 5715SOL    HW217170   1.819   6.368  11.471
 5716SOL     OW17171   0.488   6.971  11.346
 5716SOL    HW117172   0.401   6.956  11.393
 5716SOL    HW217173   0.471   6.997  11.251
 5717SOL     OW17174   1.664   6.866  11.829
 5717SOL    HW117175   1.763   6.874  11.843
 5717SOL    HW217176   1.619   6.950  11.860
 5718SOL     OW17177   1.390   6.161  11.250
 5718SOL    HW117178   1.336   6.140  11.331
 5718SOL    HW217179   1.481   6.120  11.259
 5719SOL     OW17180   0.527   5.842  11.500
 5719SOL    HW117181   0.554   5.783  11.425
 5719SOL    HW217182   0.527   5.937  11.469
 5720SOL     OW17183   1.754   6.809  12.760
 5720SOL    HW117184   1.845   6.770  12.747
 5720SOL    HW217185   1.762   6.905  12.784
 5721SOL     OW17186   1.064   6.933  12.512
 5721SOL    HW117187   0.984   6.910  12.567
 5721SOL    HW217188   1.147   6.907  12.561
 5722SOL     OW17189   1.111   6.781  12.272
 5722SOL    HW117190   1.071   6.825  12.353
 5722SOL    HW217191   1.070   6.818  12.189
 5723SOL     OW17192   1.638   6.685  12.251
 5723SOL    HW117193   1.643   6.766  12.310
 5723SOL    HW217194   1.552   6.687  12.200
 5724SOL     OW17195   0.915   5.675  12.574
 5724SOL    HW117196   0.940   5.655  12.479
 5724SOL    HW217197   0.987   5.731  12.616
 5725SOL     OW17198   0.705   6.636  11.540
 5725SOL    HW117199   0.691   6.643  11.639
 5725SOL    HW217200   0.789   6.585  11.522
 5726SOL     OW17201   0.410   6.399  12.423
 5726SOL    HW117202   0.496   6.411  12.473
 5726SOL    HW217203   0.368   6.312  12.450
 5727SOL     OW17204   1.274   5.972  12.434
 5727SOL    HW117205   1.295   6.046  12.498
 5727SOL    HW217206   1.185   5.989  12.391
 5728SOL     OW17207   0.064   7.150  12.503
 5728SOL    HW117208   0.018   7.232  12.469
 5728SOL    HW217209   0.162   7.169  12.512
 5729SOL     OW17210   0.367   6.686  11.673
 5729SOL    HW117211   0.360   6.769  11.617
 5729SOL    HW217212   0.371   6.606  11.613
 5730SOL     OW17213   0.566   6.123  12.037
 5730SOL    HW117214   0.578   6.189  11.963
 5730SOL    HW217215   0.612   6.157  12.120
 5731SOL     OW17216   1.252   6.934  11.560
 5731SOL    HW117217   1.302   7.011  11.600
 5731SOL    HW217218   1.157   6.936  11.592
 5732SOL     OW17219   1.272   7.031  12.314
 5732SOL    HW117220   1.319   7.044  12.401
 5732SOL    HW217221   1.206   6.957  12.323
 5733SOL     OW17222   1.582   6.225  11.644
 5733SOL    HW117223   1.551   6.286  11.717
 5733SOL    HW217224   1.632   6.277  11.575
 5734SOL     OW17225   0.354   7.096  12.501
 5734SOL    HW117226   0.333   7.052  12.414
 5734SOL    HW217227   0.451   7.122  12.504
 5735SOL     OW17228   0.402   6.337  12.770
 5735SOL    HW117229   0.470   6.392  12.723
 5735SOL    HW217230   0.442   6.249  12.797
 5736SOL     OW17231   1.587   6.365  12.842
 5736SOL    HW117232   1.495   6.403  12.837
 5736SOL    HW217233   1.647   6.412  12.777
 5737SOL     OW17234   0.573   6.456  12.201
 5737SOL    HW117235   0.617   6.545  12.192
 5737SOL    HW217236   0.510   6.456  12.278
 5738SOL     OW17237   1.360   6.448  12.217
 5738SOL    HW117238   1.285   6.448  12.151
 5738SOL    HW217239   1.397   6.356  12.226
 5739SOL     OW17240   1.209   6.111  11.447
 5739SOL    HW117241   1.222   6.027  11.501
 5739SOL    HW217242   1.180   6.185  11.507
 5740SOL     OW17243   0.307   5.799  12.403
 5740SOL    HW117244   0.284   5.836  12.493
 5740SOL    HW217245   0.277   5.704  12.397
 5741SOL     OW17246   0.037   6.896  12.454
 5741SOL    HW117247   0.090   6.847  12.522
 5741SOL    HW217248   0.059   6.994  12.459
 5742SOL     OW17249   0.732   6.220  12.236
 5742SOL    HW117250   0.791   6.194  12.160
 5742SOL    HW217251   0.704   6.316  12.225
 5743SOL     OW17252   0.307   5.649  11.790
 5743SOL    HW117253   0.296   5.743  11.823
 5743SOL    HW217254   0.302   5.586  11.867
 5744SOL     OW17255   1.622   5.953  11.546
 5744SOL    HW117256   1.624   5.877  11.610
 5744SOL    HW217257   1.574   6.030  11.586
 5745SOL     OW17258   1.023   6.352  12.138
 5745SOL    HW117259   1.038   6.373  12.234
 5745SOL    HW217260   0.993   6.257  12.129
 5746SOL     OW17261   1.540   5.860  11.297
 5746SOL    HW117262   1.479   5.785  11.320
 5746SOL    HW217263   1.562   5.912  11.380
 5747SOL     OW17264   1.303   6.424  11.214
 5747SOL    HW117265   1.337   6.331  11.229
 5747SOL    HW217266   1.321   6.451  11.119
 5748SOL     OW17267   1.068   6.919  12.021
 5748SOL    HW117268   1.075   6.835  11.966
 5748SOL    HW217269   1.130   6.988  11.985
 5749SOL     OW17270   0.319   6.396  12.121
 5749SOL    HW117271   0.412   6.432  12.126
 5749SOL    HW217272   0.313   6.311  12.173
 5750SOL     OW17273   0.339   6.095  12.178
 5750SOL    HW117274   0.287   6.012  12.161
 5750SOL    HW217275   0.416   6.100  12.114
 5751SOL     OW17276   1.160   5.793  12.649
 5751SOL    HW117277   1.160   5.857  12.726
 5751SOL    HW217278   1.188   5.841  12.566
 5752SOL     OW17279   0.008   6.912  11.372
 5752SOL    HW117280  -0.085   6.933  11.341
 5752SOL    HW217281   0.018   6.813  11.385
 5753SOL     OW17282   0.088   7.387  12.099
 5753SOL    HW117283   0.046   7.301  12.072
 5753SOL    HW217284   0.182   7.390  12.065
 5754SOL     OW17285   0.504   7.154  12.082
 5754SOL    HW117286   0.570   7.228  12.091
 5754SOL    HW217287   0.548   7.075  12.040
 5755SOL     OW17288   1.002   6.382  12.410
 5755SOL    HW117289   1.043   6.350  12.496
 5755SOL    HW217290   0.906   6.355  12.407
 5756SOL     OW17291   0.040   6.130  12.286
 5756SOL    HW117292   0.125   6.097  12.245
 5756SOL    HW217293   0.053   6.145  12.384
 5757SOL     OW17294   0.815   6.158  11.497
 5757SOL    HW117295   0.822   6.069  11.451
 5757SOL    HW217296   0.721   6.192  11.489
 5758SOL     OW17297   1.657   6.190  12.378
 5758SOL    HW117298   1.619   6.121  12.440
 5758SOL    HW217299   1.739   6.154  12.334
 5759SOL     OW17300   0.252   7.150  12.916
 5759SOL    HW117301   0.222   7.207  12.992
 5759SOL    HW217302   0.245   7.053  12.942
 5760SOL     OW17303   0.671   6.050  12.441
 5760SOL    HW117304   0.637   5.961  12.411
 5760SOL    HW217305   0.697   6.104  12.361
 5761SOL     OW17306   0.930   7.264  12.637
 5761SOL    HW117307   0.906   7.246  12.542
 5761SOL    HW217308   0.960   7.358  12.647
 5762SOL     OW17309   0.473   6.086  11.363
 5762SOL    HW117310   0.534   6.166  11.367
 5762SOL    HW217311   0.378   6.117  11.370
 5763SOL     OW17312   0.159   6.723  12.638
 5763SOL    HW117313   0.181   6.662  12.714
 5763SOL    HW217314   0.169   6.674  12.552
 5764SOL     OW17315   1.347   6.645  12.406
 5764SOL    HW117316   1.371   6.582  12.332
 5764SOL    HW217317   1.257   6.685  12.388
 5765SOL     OW17318   1.302   6.441  11.481
 5765SOL    HW117319   1.216   6.410  11.523
 5765SOL    HW217320   1.298   6.427  11.382
 5766SOL     OW17321   1.759   7.333  12.326
 5766SOL    HW117322   1.820   7.363  12.253
 5766SOL    HW217323   1.721   7.244  12.304
 5767SOL     OW17324   1.252   7.317  12.300
 5767SOL    HW117325   1.336   7.322  12.246
 5767SOL    HW217326   1.229   7.221  12.318
 5768SOL     OW17327   1.726   5.721  11.695
 5768SOL    HW117328   1.799   5.704  11.628
 5768SOL    HW217329   1.695   5.634  11.733
 5769SOL     OW17330   1.388   7.159  11.649
 5769SOL    HW117331   1.455   7.171  11.575
 5769SOL    HW217332   1.348   7.248  11.672
 5770SOL     OW17333   1.280   6.513  11.844
 5770SOL    HW117334   1.340   6.432  11.846
 5770SOL    HW217335   1.320   6.582  11.784
 5771SOL     OW17336   0.830   6.859  12.594
 5771SOL    HW117337   0.825   6.892  12.689
 5771SOL    HW217338   0.744   6.878  12.548
 5772SOL     OW17339   0.672   7.202  11.326
 5772SOL    HW117340   0.681   7.212  11.227
 5772SOL    HW217341   0.632   7.113  11.347
 5773SOL     OW17342   1.650   7.306  12.566
 5773SOL    HW117343   1.703   7.316  12.482
 5773SOL    HW217344   1.623   7.396  12.600
 5774SOL     OW17345   1.841   5.761  12.135
 5774SOL    HW117346   1.880   5.676  12.099
 5774SOL    HW217347   1.743   5.763  12.116
 5775SOL     OW17348   0.263   5.912  11.892
 5775SOL    HW117349   0.184   5.963  11.858
 5775SOL    HW217350   0.254   5.897  11.990
 5776SOL     OW17351   1.194   7.198  11.203
 5776SOL    HW117352   1.200   7.105  11.240
 5776SOL    HW217353   1.135   7.198  11.123
 5777SOL     OW17354   0.822   6.588  12.544
 5777SOL    HW117355   0.862   6.587  12.452
 5777SOL    HW217356   0.832   6.680  12.584
 5778SOL     OW17357   0.916   6.496  11.463
 5778SOL    HW117358   0.979   6.534  11.395
 5778SOL    HW217359   0.956   6.413  11.502
 5779SOL     OW17360   1.504   7.193  11.216
 5779SOL    HW117361   1.412   7.230  11.223
 5779SOL    HW217362   1.542   7.213  11.126
 5780SOL     OW17363   0.372   6.874  12.662
 5780SOL    HW117364   0.359   6.967  12.628
 5780SOL    HW217365   0.288   6.822  12.649
 5781SOL     OW17366   1.614   6.878  12.461
 5781SOL    HW117367   1.674   6.881  12.541
 5781SOL    HW217368   1.539   6.942  12.474
 5782SOL     OW17369   1.039   6.684  11.868
 5782SOL    HW117370   0.969   6.637  11.922
 5782SOL    HW217371   1.098   6.616  11.825
 5783SOL     OW17372   1.014   5.822  12.143
 5783SOL    HW117373   1.006   5.786  12.050
 5783SOL    HW217374   1.012   5.746  12.208
 5784SOL     OW17375   0.590   7.073  11.663
 5784SOL    HW117376   0.632   7.015  11.593
 5784SOL    HW217377   0.546   7.152  11.619
 5785SOL     OW17378   1.709   5.971  12.553
 5785SOL    HW117379   1.782   6.040  12.557
 5785SOL    HW217380   1.737   5.896  12.494
 5786SOL     OW17381   0.255   6.934  11.462
 5786SOL    HW117382   0.159   6.935  11.435
 5786SOL    HW217383   0.267   6.987  11.546
 5787SOL     OW17384   0.105   6.599  12.898
 5787SOL    HW117385   0.028   6.566  12.952
 5787SOL    HW217386   0.190   6.569  12.940
 5788SOL     OW17387   0.672   5.789  12.661
 5788SOL    HW117388   0.762   5.773  12.621
 5788SOL    HW217389   0.680   5.794  12.760
 5789SOL     OW17390   0.075   5.931  11.205
 5789SOL    HW117391  -0.017   5.903  11.176
 5789SOL    HW217392   0.106   6.008  11.149
 5790SOL     OW17393   1.440   6.442  12.570
 5790SOL    HW117394   1.383   6.494  12.507
 5790SOL    HW217395   1.536   6.454  12.546
 5791SOL     OW17396   0.072   5.752  11.490
 5791SOL    HW117397   0.055   5.835  11.436
 5791SOL    HW217398   0.162   5.715  11.468
 5792SOL     OW17399   1.183   6.921  11.291
 5792SOL    HW117400   1.084   6.910  11.293
 5792SOL    HW217401   1.217   6.936  11.384
 5793SOL     OW17402   0.613   6.428  12.603
 5793SOL    HW117403   0.669   6.509  12.586
 5793SOL    HW217404   0.672   6.348  12.606
 5794SOL     OW17405   1.493   7.353  12.131
 5794SOL    HW117406   1.526   7.417  12.062
 5794SOL    HW217407   1.559   7.347  12.206
 5795SOL     OW17408   0.716   6.151  12.880
 5795SOL    HW117409   0.735   6.216  12.954
 5795SOL    HW217410   0.776   6.071  12.889
 5796SOL     OW17411   0.390   7.327  12.732
 5796SOL    HW117412   0.299   7.368  12.730
 5796SOL    HW217413   0.383   7.233  12.764
 5797SOL     OW17414   1.674   6.469  12.426
 5797SOL    HW117415   1.647   6.380  12.389
 5797SOL    HW217416   1.675   6.537  12.353
 5798SOL     OW17417   1.225   5.911  11.621
 5798SOL    HW117418   1.290   5.837  11.610
 5798SOL    HW217419   1.245   5.961  11.705
 5799SOL     OW17420   0.594   6.331  11.824
 5799SOL    HW117421   0.644   6.416  11.805
 5799SOL    HW217422   0.506   6.333  11.776
 5800SOL     OW17423   1.777   5.928  12.814
 5800SOL    HW117424   1.760   5.959  12.720
 5800SOL    HW217425   1.693   5.891  12.852
 5801SOL     OW17426   1.730   6.520  12.689
 5801SOL    HW117427   1.768   6.611  12.704
 5801SOL    HW217428   1.722   6.503  12.590
 5802SOL     OW17429   0.859   6.960  11.188
 5802SOL    HW117430   0.813   6.975  11.276
 5802SOL    HW217431   0.903   7.045  11.158
 5803SOL     OW17432   0.661   7.376  12.125
 5803SOL    HW117433   0.615   7.464  12.112
 5803SOL    HW217434   0.760   7.388  12.118
 5804SOL     OW17435   0.859   6.542  12.033
 5804SOL    HW117436   0.913   6.473  12.081
 5804SOL    HW217437   0.827   6.611  12.099
 5805SOL     OW17438   1.083   6.570  11.259
 5805SOL    HW117439   1.060   6.623  11.177
 5805SOL    HW217440   1.164   6.514  11.240
 5806SOL     OW17441   1.861   7.155  12.023
 5806SOL    HW117442   1.790   7.143  11.953
 5806SOL    HW217443   1.862   7.076  12.083
 5807SOL     OW17444   0.079   6.826  11.825
 5807SOL    HW117445   0.078   6.779  11.913
 5807SOL    HW217446   0.161   6.798  11.774
 5808SOL     OW17447   0.672   6.977  12.796
 5808SOL    HW117448   0.594   6.927  12.834
 5808SOL    HW217449   0.669   7.072  12.827
 5809SOL     OW17450   1.824   5.778  12.399
 5809SOL    HW117451   1.820   5.688  12.443
 5809SOL    HW217452   1.827   5.767  12.300
 5810SOL     OW17453   0.428   6.010  11.692
 5810SOL    HW117454   0.458   5.938  11.630
 5810SOL    HW217455   0.389   5.970  11.775
 5811SOL     OW17456   1.705   7.073  12.276
 5811SOL    HW117457   1.612   7.048  12.249
 5811SOL    HW217458   1.731   7.023  12.358
 5812SOL     OW17459   0.317   6.133  12.452
 5812SOL    HW117460   0.355   6.074  12.524
 5812SOL    HW217461   0.357   6.107  12.364
 5813SOL     OW17462   0.812   7.172  11.859
 5813SOL    HW117463   0.844   7.182  11.765
 5813SOL    HW217464   0.733   7.110  11.861
 5814SOL     OW17465   1.424   5.800  12.284
 5814SOL    HW117466   1.476   5.735  12.339
 5814SOL    HW217467   1.375   5.863  12.345
 5815SOL     OW17468   1.001   5.620  12.326
 5815SOL    HW117469   0.938   5.548  12.295
 5815SOL    HW217470   1.094   5.584  12.326
 5816SOL     OW17471   0.770   6.916  11.473
 5816SOL    HW117472   0.724   6.829  11.490
 5816SOL    HW217473   0.861   6.913  11.514
 5817SOL     OW17474   0.618   7.153  12.456
 5817SOL    HW117475   0.613   7.235  12.513
 5817SOL    HW217476   0.707   7.150  12.411
 5818SOL     OW17477   1.352   5.638  11.340
 5818SOL    HW117478   1.387   5.597  11.256
 5818SOL    HW217479   1.262   5.600  11.360
 5819SOL     OW17480   1.300   6.039  11.863
 5819SOL    HW117481   1.241   6.119  11.867
 5819SOL    HW217482   1.315   6.004  11.956
 5820SOL     OW17483   1.593   5.807  12.054
 5820SOL    HW117484   1.509   5.806  12.108
 5820SOL    HW217485   1.595   5.890  11.998
 5821SOL     OW17486   0.039   6.663  11.472
 5821SOL    HW117487   0.138   6.652  11.463
 5821SOL    HW217488  -0.001   6.577  11.504
 5822SOL     OW17489   0.875   7.232  11.509
 5822SOL    HW117490   0.798   7.197  11.455
 5822SOL    HW217491   0.843   7.303  11.571
 5823SOL     OW17492   0.230   8.076   0.113
 5823SOL    HW117493   0.137   8.074   0.150
 5823SOL    HW217494   0.231   8.037   0.021
 5824SOL     OW17495   0.225   7.723   0.996
 5824SOL    HW117496   0.260   7.706   1.088
 5824SOL    HW217497   0.137   7.678   0.984
 5825SOL     OW17498   0.019   7.816   0.647
 5825SOL    HW117499  -0.063   7.859   0.686
 5825SOL    HW217500  -0.009   7.743   0.584
 5826SOL     OW17501   0.569   8.723   1.165
 5826SOL    HW117502   0.476   8.716   1.128
 5826SOL    HW217503   0.580   8.812   1.209
 5827SOL     OW17504   1.555   8.959   0.703
 5827SOL    HW117505   1.498   8.943   0.784
 5827SOL    HW217506   1.496   8.969   0.623
 5828SOL     OW17507   1.135   8.151   0.717
 5828SOL    HW117508   1.192   8.229   0.692
 5828SOL    HW217509   1.075   8.177   0.793
 5829SOL     OW17510   1.755   8.055   0.231
 5829SOL    HW117511   1.743   8.042   0.132
 5829SOL    HW217512   1.725   7.974   0.280
 5830SOL     OW17513   0.768   8.592   1.023
 5830SOL    HW117514   0.690   8.609   1.083
 5830SOL    HW217515   0.802   8.679   0.987
 5831SOL     OW17516   0.850   8.246   1.823
 5831SOL    HW117517   0.846   8.322   1.888
 5831SOL    HW217518   0.872   8.282   1.732
 5832SOL     OW17519   0.685   8.460   0.665
 5832SOL    HW117520   0.754   8.444   0.735
 5832SOL    HW217521   0.612   8.517   0.703
 5833SOL     OW17522   0.686   8.609   1.803
 5833SOL    HW117523   0.746   8.688   1.817
 5833SOL    HW217524   0.600   8.640   1.762
 5834SOL     OW17525   0.335   8.883   1.061
 5834SOL    HW117526   0.257   8.852   1.008
 5834SOL    HW217527   0.393   8.941   1.004
 5835SOL     OW17528   1.460   8.953   1.339
 5835SOL    HW117529   1.484   9.047   1.365
 5835SOL    HW217530   1.444   8.899   1.421
 5836SOL     OW17531   0.438   7.840   1.499
 5836SOL    HW117532   0.520   7.784   1.508
 5836SOL    HW217533   0.357   7.782   1.503
 5837SOL     OW17534   1.603   7.895   0.737
 5837SOL    HW117535   1.529   7.941   0.687
 5837SOL    HW217536   1.654   7.963   0.790
 5838SOL     OW17537   0.231   9.161   0.483
 5838SOL    HW117538   0.265   9.238   0.537
 5838SOL    HW217539   0.275   9.161   0.393
 5839SOL     OW17540   1.127   8.789   1.690
 5839SOL    HW117541   1.174   8.789   1.778
 5839SOL    HW217542   1.079   8.702   1.679
 5840SOL     OW17543   0.230   8.882   0.538
 5840SOL    HW117544   0.204   8.978   0.538
 5840SOL    HW217545   0.159   8.828   0.583
 5841SOL     OW17546   0.240   8.539   0.886
 5841SOL    HW117547   0.254   8.455   0.938
 5841SOL    HW217548   0.185   8.603   0.941
 5842SOL     OW17549   0.620   9.234   1.439
 5842SOL    HW117550   0.528   9.217   1.474
 5842SOL    HW217551   0.648   9.326   1.465
 5843SOL     OW17552   0.606   8.412   0.123
 5843SOL    HW117553   0.613   8.496   0.069
 5843SOL    HW217554   0.652   8.425   0.211
 5844SOL     OW17555   1.594   7.562   1.480
 5844SOL    HW117556   1.576   7.629   1.408
 5844SOL    HW217557   1.591   7.608   1.569
 5845SOL     OW17558   0.122   8.091   0.563
 5845SOL    HW117559   0.077   8.003   0.580
 5845SOL    HW217560   0.121   8.145   0.647
 5846SOL     OW17561   1.842   9.215   0.359
 5846SOL    HW117562   1.896   9.186   0.439
 5846SOL    HW217563   1.872   9.305   0.330
 5847SOL     OW17564   0.027   9.044   0.117
 5847SOL    HW117565   0.008   8.948   0.138
 5847SOL    HW217566  -0.006   9.102   0.192
 5848SOL     OW17567   1.689   8.370   0.612
 5848SOL    HW117568   1.784   8.341   0.620
 5848SOL    HW217569   1.681   8.435   0.537
 5849SOL     OW17570   1.641   8.556   0.432
 5849SOL    HW117571   1.727   8.558   0.380
 5849SOL    HW217572   1.655   8.603   0.520
 5850SOL     OW17573   0.113   8.185   1.597
 5850SOL    HW117574   0.201   8.172   1.642
 5850SOL    HW217575   0.100   8.282   1.575
 5851SOL     OW17576   0.613   8.813   0.726
 5851SOL    HW117577   0.564   8.726   0.735
 5851SOL    HW217578   0.590   8.856   0.639
 5852SOL     OW17579   1.293   8.676   1.423
 5852SOL    HW117580   1.330   8.603   1.365
 5852SOL    HW217581   1.345   8.681   1.508
 5853SOL     OW17582   0.809   7.452   0.502
 5853SOL    HW117583   0.849   7.543   0.493
 5853SOL    HW217584   0.709   7.460   0.508
 5854SOL     OW17585   0.197   8.424   1.264
 5854SOL    HW117586   0.286   8.379   1.250
 5854SOL    HW217587   0.124   8.359   1.245
 5855SOL     OW17588   1.525   8.447   0.190
 5855SOL    HW117589   1.462   8.371   0.203
 5855SOL    HW217590   1.573   8.465   0.276
 5856SOL     OW17591   1.187   9.240   1.616
 5856SOL    HW117592   1.211   9.300   1.540
 5856SOL    HW217593   1.194   9.145   1.586
 5857SOL     OW17594   0.317   7.699   1.801
 5857SOL    HW117595   0.388   7.770   1.807
 5857SOL    HW217596   0.229   7.738   1.829
 5858SOL     OW17597   1.466   8.865   0.953
 5858SOL    HW117598   1.407   8.871   1.033
 5858SOL    HW217599   1.451   8.777   0.907
 5859SOL     OW17600   1.667   9.162   0.572
 5859SOL    HW117601   1.626   9.139   0.484
 5859SOL    HW217602   1.649   9.088   0.637
 5860SOL     OW17603   0.598   8.177   0.270
 5860SOL    HW117604   0.622   8.246   0.202
 5860SOL    HW217605   0.520   8.210   0.324
 5861SOL     OW17606   1.281   7.793   0.944
 5861SOL    HW117607   1.195   7.743   0.931
 5861SOL    HW217608   1.343   7.739   1.000
 5862SOL     OW17609   1.576   9.110   0.307
 5862SOL    HW117610   1.665   9.156   0.310
 5862SOL    HW217611   1.555   9.086   0.212
 5863SOL     OW17612   0.807   8.053   1.465
 5863SOL    HW117613   0.760   8.050   1.554
 5863SOL    HW217614   0.756   7.998   1.399
 5864SOL     OW17615   1.394   7.917   1.674
 5864SOL    HW117616   1.374   7.960   1.762
 5864SOL    HW217617   1.472   7.855   1.683
 5865SOL     OW17618   0.973   8.338   1.572
 5865SOL    HW117619   1.019   8.254   1.543
 5865SOL    HW217620   0.917   8.372   1.497
 5866SOL     OW17621   0.991   7.858   1.242
 5866SOL    HW117622   0.914   7.892   1.296
 5866SOL    HW217623   0.957   7.807   1.163
 5867SOL     OW17624   1.041   8.149   0.429
 5867SOL    HW117625   1.067   8.145   0.525
 5867SOL    HW217626   0.956   8.098   0.415
 5868SOL     OW17627   0.076   8.259   0.789
 5868SOL    HW117628   0.175   8.247   0.798
 5868SOL    HW217629   0.052   8.354   0.810
 5869SOL     OW17630   0.130   9.269   1.571
 5869SOL    HW117631   0.120   9.254   1.670
 5869SOL    HW217632   0.044   9.305   1.535
 5870SOL     OW17633   0.865   7.796   0.195
 5870SOL    HW117634   0.924   7.859   0.146
 5870SOL    HW217635   0.884   7.702   0.166
 5871SOL     OW17636   1.719   8.033   1.831
 5871SOL    HW117637   1.693   8.122   1.795
 5871SOL    HW217638   1.717   7.965   1.758
 5872SOL     OW17639   1.362   8.592   0.545
 5872SOL    HW117640   1.445   8.563   0.497
 5872SOL    HW217641   1.313   8.659   0.489
 5873SOL     OW17642   0.550   7.644   0.885
 5873SOL    HW117643   0.545   7.639   0.985
 5873SOL    HW217644   0.552   7.740   0.856
 5874SOL     OW17645   1.008   8.904   0.477
 5874SOL    HW117646   0.962   8.976   0.425
 5874SOL    HW217647   1.004   8.924   0.575
 5875SOL     OW17648   0.351   9.249   0.853
 5875SOL    HW117649   0.401   9.163   0.859
 5875SOL    HW217650   0.416   9.326   0.850
 5876SOL     OW17651   1.795   8.514   0.873
 5876SOL    HW117652   1.733   8.499   0.797
 5876SOL    HW217653   1.743   8.525   0.958
 5877SOL     OW17654   1.227   8.998   1.506
 5877SOL    HW117655   1.233   8.921   1.570
 5877SOL    HW217656   1.175   8.972   1.426
 5878SOL     OW17657   0.321   8.391   0.242
 5878SOL    HW117658   0.403   8.430   0.200
 5878SOL    HW217659   0.294   8.309   0.193
 5879SOL     OW17660   1.458   8.183   0.728
 5879SOL    HW117661   1.453   8.118   0.803
 5879SOL    HW217662   1.538   8.242   0.741
 5880SOL     OW17663   0.461   8.714   1.727
 5880SOL    HW117664   0.411   8.715   1.641
 5880SOL    HW217665   0.398   8.696   1.803
 5881SOL     OW17666   1.111   9.224   0.237
 5881SOL    HW117667   1.051   9.162   0.287
 5881SOL    HW217668   1.142   9.180   0.152
 5882SOL     OW17669   0.202   7.733   1.498
 5882SOL    HW117670   0.122   7.793   1.485
 5882SOL    HW217671   0.192   7.684   1.584
 5883SOL     OW17672   1.632   8.825   0.081
 5883SOL    HW117673   1.600   8.919   0.071
 5883SOL    HW217674   1.556   8.762   0.069
 5884SOL     OW17675   0.464   9.191   0.323
 5884SOL    HW117676   0.497   9.230   0.409
 5884SOL    HW217677   0.540   9.184   0.258
 5885SOL     OW17678   1.400   7.555   0.426
 5885SOL    HW117679   1.376   7.518   0.336
 5885SOL    HW217680   1.499   7.571   0.430
 5886SOL     OW17681   0.249   9.233   1.241
 5886SOL    HW117682   0.306   9.168   1.291
 5886SOL    HW217683   0.233   9.200   1.148
 5887SOL     OW17684   0.940   9.146   0.904
 5887SOL    HW117685   1.020   9.089   0.925
 5887SOL    HW217686   0.891   9.106   0.827
 5888SOL     OW17687   0.382   8.148   0.480
 5888SOL    HW117688   0.427   8.058   0.477
 5888SOL    HW217689   0.288   8.137   0.513
 5889SOL     OW17690   1.547   7.670   1.729
 5889SOL    HW117691   1.542   7.707   1.821
 5889SOL    HW217692   1.475   7.601   1.717
 5890SOL     OW17693   0.614   7.570   0.117
 5890SOL    HW117694   0.712   7.548   0.124
 5890SOL    HW217695   0.583   7.553   0.024
 5891SOL     OW17696   0.781   7.712   1.749
 5891SOL    HW117697   0.848   7.651   1.792
 5891SOL    HW217698   0.708   7.731   1.814
 5892SOL     OW17699   0.888   8.962   1.195
 5892SOL    HW117700   0.865   8.937   1.101
 5892SOL    HW217701   0.949   8.893   1.234
 5893SOL     OW17702   1.351   8.038   1.433
 5893SOL    HW117703   1.379   7.995   1.518
 5893SOL    HW217704   1.376   8.134   1.434
 5894SOL     OW17705   0.803   8.850   0.924
 5894SOL    HW117706   0.893   8.864   0.882
 5894SOL    HW217707   0.732   8.852   0.853
 5895SOL     OW17708   0.922   7.951   0.899
 5895SOL    HW117709   0.897   7.942   0.803
 5895SOL    HW217710   0.970   7.869   0.930
 5896SOL     OW17711   0.539   7.512   0.512
 5896SOL    HW117712   0.458   7.513   0.570
 5896SOL    HW217713   0.542   7.595   0.457
 5897SOL     OW17714   1.434   8.636   0.041
 5897SOL    HW117715   1.466   8.560   0.098
 5897SOL    HW217716   1.342   8.663   0.071
 5898SOL     OW17717   0.297   7.483   0.171
 5898SOL    HW117718   0.346   7.567   0.150
 5898SOL    HW217719   0.359   7.418   0.216
 5899SOL     OW17720   0.935   7.684   0.480
 5899SOL    HW117721   0.887   7.725   0.402
 5899SOL    HW217722   1.034   7.682   0.461
 5900SOL     OW17723   1.076   8.131   1.464
 5900SOL    HW117724   0.996   8.070   1.467
 5900SOL    HW217725   1.157   8.078   1.440
 5901SOL     OW17726   1.227   9.018   0.793
 5901SOL    HW117727   1.248   9.092   0.728
 5901SOL    HW217728   1.295   9.018   0.866
 5902SOL     OW17729   0.459   8.600   0.741
 5902SOL    HW117730   0.388   8.573   0.806
 5902SOL    HW217731   0.433   8.572   0.648
 5903SOL     OW17732   1.271   9.245   0.591
 5903SOL    HW117733   1.315   9.309   0.527
 5903SOL    HW217734   1.221   9.297   0.661
 5904SOL     OW17735   1.032   7.997   0.016
 5904SOL    HW117736   0.991   8.079  -0.023
 5904SOL    HW217737   1.096   8.023   0.089
 5905SOL     OW17738   0.078   8.004   1.386
 5905SOL    HW117739   0.170   8.003   1.345
 5905SOL    HW217740   0.072   8.078   1.453
 5906SOL     OW17741   0.561   7.670   1.147
 5906SOL    HW117742   0.599   7.586   1.184
 5906SOL    HW217743   0.473   7.689   1.191
 5907SOL     OW17744   0.866   7.902   0.642
 5907SOL    HW117745   0.834   7.974   0.580
 5907SOL    HW217746   0.890   7.821   0.589
 5908SOL     OW17747   1.017   7.487   0.753
 5908SOL    HW117748   0.945   7.492   0.684
 5908SOL    HW217749   0.993   7.418   0.822
 5909SOL     OW17750   1.429   8.621   0.867
 5909SOL    HW117751   1.374   8.537   0.860
 5909SOL    HW217752   1.455   8.650   0.775
 5910SOL     OW17753   1.466   8.038   0.992
 5910SOL    HW117754   1.436   7.943   0.999
 5910SOL    HW217755   1.539   8.054   1.058
 5911SOL     OW17756   1.857   8.281   0.377
 5911SOL    HW117757   1.899   8.217   0.441
 5911SOL    HW217758   1.819   8.230   0.299
 5912SOL     OW17759   0.488   8.833   0.174
 5912SOL    HW117760   0.401   8.818   0.221
 5912SOL    HW217761   0.471   8.859   0.079
 5913SOL     OW17762   1.664   8.728   0.657
 5913SOL    HW117763   1.763   8.736   0.671
 5913SOL    HW217764   1.619   8.812   0.688
 5914SOL     OW17765   1.390   8.023   0.078
 5914SOL    HW117766   1.336   8.002   0.159
 5914SOL    HW217767   1.481   7.982   0.087
 5915SOL     OW17768   0.527   7.704   0.328
 5915SOL    HW117769   0.554   7.645   0.253
 5915SOL    HW217770   0.527   7.799   0.297
 5916SOL     OW17771   1.754   8.671   1.588
 5916SOL    HW117772   1.845   8.632   1.575
 5916SOL    HW217773   1.762   8.767   1.612
 5917SOL     OW17774   1.064   8.795   1.340
 5917SOL    HW117775   0.984   8.772   1.395
 5917SOL    HW217776   1.147   8.769   1.389
 5918SOL     OW17777   1.592   9.077   1.625
 5918SOL    HW117778   1.619   9.111   1.535
 5918SOL    HW217779   1.671   9.039   1.671
 5919SOL     OW17780   1.111   8.643   1.100
 5919SOL    HW117781   1.071   8.687   1.181
 5919SOL    HW217782   1.070   8.680   1.017
 5920SOL     OW17783   1.638   8.547   1.079
 5920SOL    HW117784   1.643   8.628   1.138
 5920SOL    HW217785   1.552   8.549   1.028
 5921SOL     OW17786   0.915   7.537   1.402
 5921SOL    HW117787   0.940   7.517   1.307
 5921SOL    HW217788   0.987   7.593   1.444
 5922SOL     OW17789   0.980   8.564   1.719
 5922SOL    HW117790   0.881   8.570   1.729
 5922SOL    HW217791   1.003   8.484   1.663
 5923SOL     OW17792   0.705   8.498   0.368
 5923SOL    HW117793   0.691   8.505   0.467
 5923SOL    HW217794   0.789   8.447   0.350
 5924SOL     OW17795   0.410   8.261   1.251
 5924SOL    HW117796   0.496   8.273   1.301
 5924SOL    HW217797   0.368   8.174   1.278
 5925SOL     OW17798   1.274   7.834   1.262
 5925SOL    HW117799   1.295   7.908   1.326
 5925SOL    HW217800   1.185   7.851   1.219
 5926SOL     OW17801   0.064   9.012   1.331
 5926SOL    HW117802   0.018   9.094   1.297
 5926SOL    HW217803   0.162   9.031   1.340
 5927SOL     OW17804   0.367   8.548   0.501
 5927SOL    HW117805   0.360   8.631   0.445
 5927SOL    HW217806   0.371   8.468   0.441
 5928SOL     OW17807   0.566   7.985   0.865
 5928SOL    HW117808   0.578   8.051   0.791
 5928SOL    HW217809   0.612   8.019   0.948
 5929SOL     OW17810   1.252   8.796   0.388
 5929SOL    HW117811   1.302   8.873   0.428
 5929SOL    HW217812   1.157   8.798   0.420
 5930SOL     OW17813   1.272   8.893   1.142
 5930SOL    HW117814   1.319   8.906   1.229
 5930SOL    HW217815   1.206   8.819   1.151
 5931SOL     OW17816   1.582   8.087   0.472
 5931SOL    HW117817   1.551   8.148   0.545
 5931SOL    HW217818   1.632   8.139   0.403
 5932SOL     OW17819   0.354   8.958   1.329
 5932SOL    HW117820   0.333   8.914   1.242
 5932SOL    HW217821   0.451   8.984   1.332
 5933SOL     OW17822   0.402   8.199   1.598
 5933SOL    HW117823   0.470   8.254   1.551
 5933SOL    HW217824   0.442   8.111   1.625
 5934SOL     OW17825   1.587   8.227   1.670
 5934SOL    HW117826   1.495   8.265   1.665
 5934SOL    HW217827   1.647   8.274   1.605
 5935SOL     OW17828   1.013   7.553   1.770
 5935SOL    HW117829   1.019   7.638   1.718
 5935SOL    HW217830   1.045   7.477   1.713
 5936SOL     OW17831   0.504   7.498   1.740
 5936SOL    HW117832   0.462   7.441   1.670
 5936SOL    HW217833   0.438   7.567   1.772
 5937SOL     OW17834   0.573   8.318   1.029
 5937SOL    HW117835   0.617   8.407   1.020
 5937SOL    HW217836   0.510   8.318   1.106
 5938SOL     OW17837   1.360   8.310   1.045
 5938SOL    HW117838   1.285   8.310   0.979
 5938SOL    HW217839   1.397   8.218   1.054
 5939SOL     OW17840   1.209   7.973   0.275
 5939SOL    HW117841   1.222   7.889   0.329
 5939SOL    HW217842   1.180   8.047   0.335
 5940SOL     OW17843   0.307   7.661   1.231
 5940SOL    HW117844   0.284   7.698   1.321
 5940SOL    HW217845   0.277   7.566   1.225
 5941SOL     OW17846   0.037   8.758   1.282
 5941SOL    HW117847   0.090   8.709   1.350
 5941SOL    HW217848   0.059   8.856   1.287
 5942SOL     OW17849   0.732   8.082   1.064
 5942SOL    HW117850   0.791   8.056   0.988
 5942SOL    HW217851   0.704   8.178   1.053
 5943SOL     OW17852   1.728   8.383   1.854
 5943SOL    HW117853   1.682   8.376   1.765
 5943SOL    HW217854   1.666   8.427   1.920
 5944SOL     OW17855   0.307   7.511   0.618
 5944SOL    HW117856   0.296   7.605   0.651
 5944SOL    HW217857   0.302   7.448   0.695
 5945SOL     OW17858   1.622   7.815   0.374
 5945SOL    HW117859   1.624   7.739   0.438
 5945SOL    HW217860   1.574   7.892   0.414
 5946SOL     OW17861   1.023   8.214   0.966
 5946SOL    HW117862   1.038   8.235   1.062
 5946SOL    HW217863   0.993   8.119   0.957
 5947SOL     OW17864   0.980   9.021   1.700
 5947SOL    HW117865   0.960   9.065   1.612
 5947SOL    HW217866   1.019   8.930   1.684
 5948SOL     OW17867   1.859   8.966   1.605
 5948SOL    HW117868   1.873   8.993   1.510
 5948SOL    HW217869   1.942   8.988   1.658
 5949SOL     OW17870   0.350   8.346   1.804
 5949SOL    HW117871   0.426   8.390   1.852
 5949SOL    HW217872   0.385   8.299   1.722
 5950SOL     OW17873   1.540   7.722   0.125
 5950SOL    HW117874   1.479   7.647   0.148
 5950SOL    HW217875   1.562   7.774   0.208
 5951SOL     OW17876   1.303   8.286   0.042
 5951SOL    HW117877   1.337   8.193   0.057
 5951SOL    HW217878   1.321   8.313  -0.053
 5952SOL     OW17879   1.068   8.781   0.849
 5952SOL    HW117880   1.075   8.697   0.794
 5952SOL    HW217881   1.130   8.850   0.813
 5953SOL     OW17882   0.319   8.258   0.949
 5953SOL    HW117883   0.412   8.294   0.954
 5953SOL    HW217884   0.313   8.173   1.001
 5954SOL     OW17885   0.339   7.957   1.006
 5954SOL    HW117886   0.287   7.874   0.989
 5954SOL    HW217887   0.416   7.962   0.942
 5955SOL     OW17888   1.138   7.828   1.678
 5955SOL    HW117889   1.093   7.891   1.742
 5955SOL    HW217890   1.231   7.859   1.661
 5956SOL     OW17891   1.160   7.655   1.477
 5956SOL    HW117892   1.160   7.719   1.554
 5956SOL    HW217893   1.188   7.703   1.394
 5957SOL     OW17894   0.008   8.774   0.200
 5957SOL    HW117895  -0.085   8.795   0.169
 5957SOL    HW217896   0.018   8.675   0.213
 5958SOL     OW17897   0.088   9.249   0.927
 5958SOL    HW117898   0.046   9.163   0.900
 5958SOL    HW217899   0.182   9.252   0.893
 5959SOL     OW17900   0.504   9.016   0.910
 5959SOL    HW117901   0.570   9.090   0.919
 5959SOL    HW217902   0.548   8.937   0.868
 5960SOL     OW17903   1.002   8.244   1.238
 5960SOL    HW117904   1.043   8.212   1.324
 5960SOL    HW217905   0.906   8.217   1.235
 5961SOL     OW17906   0.040   7.992   1.114
 5961SOL    HW117907   0.125   7.959   1.073
 5961SOL    HW217908   0.053   8.007   1.212
 5962SOL     OW17909   0.189   7.968   1.722
 5962SOL    HW117910   0.248   7.928   1.652
 5962SOL    HW217911   0.131   8.039   1.681
 5963SOL     OW17912   1.369   8.398   1.660
 5963SOL    HW117913   1.408   8.487   1.680
 5963SOL    HW217914   1.379   8.378   1.563
 5964SOL     OW17915   0.815   8.020   0.325
 5964SOL    HW117916   0.822   7.931   0.279
 5964SOL    HW217917   0.721   8.054   0.317
 5965SOL     OW17918   1.657   8.052   1.206
 5965SOL    HW117919   1.619   7.983   1.268
 5965SOL    HW217920   1.739   8.016   1.162
 5966SOL     OW17921   0.252   9.012   1.744
 5966SOL    HW117922   0.222   9.069   1.820
 5966SOL    HW217923   0.245   8.915   1.770
 5967SOL     OW17924   0.671   7.912   1.269
 5967SOL    HW117925   0.637   7.823   1.239
 5967SOL    HW217926   0.697   7.966   1.189
 5968SOL     OW17927   0.930   9.126   1.465
 5968SOL    HW117928   0.906   9.108   1.370
 5968SOL    HW217929   0.960   9.220   1.475
 5969SOL     OW17930   0.473   7.948   0.191
 5969SOL    HW117931   0.534   8.028   0.195
 5969SOL    HW217932   0.378   7.979   0.198
 5970SOL     OW17933   0.159   8.585   1.466
 5970SOL    HW117934   0.181   8.524   1.542
 5970SOL    HW217935   0.169   8.536   1.380
 5971SOL     OW17936   1.347   8.507   1.234
 5971SOL    HW117937   1.371   8.444   1.160
 5971SOL    HW217938   1.257   8.547   1.216
 5972SOL     OW17939   1.302   8.303   0.309
 5972SOL    HW117940   1.216   8.272   0.351
 5972SOL    HW217941   1.298   8.289   0.210
 5973SOL     OW17942   1.759   9.195   1.154
 5973SOL    HW117943   1.820   9.225   1.081
 5973SOL    HW217944   1.721   9.106   1.132
 5974SOL     OW17945   1.252   9.179   1.128
 5974SOL    HW117946   1.336   9.184   1.074
 5974SOL    HW217947   1.229   9.083   1.146
 5975SOL     OW17948   0.083   8.706   1.022
 5975SOL    HW117949   0.078   8.705   1.122
 5975SOL    HW217950   0.000   8.665   0.984
 5976SOL     OW17951   0.688   9.110   1.716
 5976SOL    HW117952   0.632   9.191   1.725
 5976SOL    HW217953   0.740   9.114   1.630
 5977SOL     OW17954   0.903   7.534   0.133
 5977SOL    HW117955   0.954   7.535   0.047
 5977SOL    HW217956   0.959   7.492   0.204
 5978SOL     OW17957   1.726   7.583   0.523
 5978SOL    HW117958   1.799   7.566   0.456
 5978SOL    HW217959   1.695   7.496   0.561
 5979SOL     OW17960   1.388   9.021   0.477
 5979SOL    HW117961   1.455   9.033   0.403
 5979SOL    HW217962   1.348   9.110   0.500
 5980SOL     OW17963   0.130   9.242   1.851
 5980SOL    HW117964   0.089   9.168   1.904
 5980SOL    HW217965   0.194   9.293   1.909
 5981SOL     OW17966   1.280   8.375   0.672
 5981SOL    HW117967   1.340   8.294   0.674
 5981SOL    HW217968   1.320   8.444   0.612
 5982SOL     OW17969   0.830   8.721   1.422
 5982SOL    HW117970   0.825   8.754   1.517
 5982SOL    HW217971   0.744   8.740   1.376
 5983SOL     OW17972   0.672   9.064   0.154
 5983SOL    HW117973   0.681   9.074   0.055
 5983SOL    HW217974   0.632   8.975   0.175
 5984SOL     OW17975   1.650   9.168   1.394
 5984SOL    HW117976   1.703   9.178   1.310
 5984SOL    HW217977   1.623   9.258   1.428
 5985SOL     OW17978   1.841   7.623   0.963
 5985SOL    HW117979   1.880   7.538   0.927
 5985SOL    HW217980   1.743   7.625   0.944
 5986SOL     OW17981   0.263   7.774   0.720
 5986SOL    HW117982   0.184   7.825   0.686
 5986SOL    HW217983   0.254   7.759   0.818
 5987SOL     OW17984   1.194   9.060   0.031
 5987SOL    HW117985   1.200   8.967   0.068
 5987SOL    HW217986   1.135   9.060  -0.049
 5988SOL     OW17987   0.822   8.450   1.372
 5988SOL    HW117988   0.862   8.449   1.280
 5988SOL    HW217989   0.832   8.542   1.412
 5989SOL     OW17990   0.916   8.358   0.291
 5989SOL    HW117991   0.979   8.396   0.223
 5989SOL    HW217992   0.956   8.275   0.330
 5990SOL     OW17993   1.504   9.055   0.044
 5990SOL    HW117994   1.412   9.092   0.051
 5990SOL    HW217995   1.542   9.075  -0.046
 5991SOL     OW17996   0.372   8.736   1.490
 5991SOL    HW117997   0.359   8.829   1.456
 5991SOL    HW217998   0.288   8.684   1.477
 5992SOL     OW17999   1.614   8.740   1.289
 5992SOL    HW118000   1.674   8.743   1.369
 5992SOL    HW218001   1.539   8.804   1.302
 5993SOL     OW18002   1.039   8.546   0.696
 5993SOL    HW118003   0.969   8.499   0.750
 5993SOL    HW218004   1.098   8.478   0.653
 5994SOL     OW18005   1.014   7.684   0.971
 5994SOL    HW118006   1.006   7.648   0.878
 5994SOL    HW218007   1.012   7.608   1.036
 5995SOL     OW18008   0.590   8.935   0.491
 5995SOL    HW118009   0.632   8.877   0.421
 5995SOL    HW218010   0.546   9.014   0.447
 5996SOL     OW18011   1.709   7.833   1.381
 5996SOL    HW118012   1.782   7.902   1.385
 5996SOL    HW218013   1.737   7.758   1.322
 5997SOL     OW18014   0.255   8.796   0.290
 5997SOL    HW118015   0.159   8.797   0.263
 5997SOL    HW218016   0.267   8.849   0.374
 5998SOL     OW18017   0.105   8.461   1.726
 5998SOL    HW118018   0.028   8.428   1.780
 5998SOL    HW218019   0.190   8.431   1.768
 5999SOL     OW18020   0.672   7.651   1.489
 5999SOL    HW118021   0.762   7.635   1.449
 5999SOL    HW218022   0.680   7.656   1.588
 6000SOL     OW18023   0.075   7.793   0.033
 6000SOL    HW118024  -0.017   7.765   0.004
 6000SOL    HW218025   0.106   7.870  -0.023
 6001SOL     OW18026   1.440   8.304   1.398
 6001SOL    HW118027   1.383   8.356   1.335
 6001SOL    HW218028   1.536   8.316   1.374
 6002SOL     OW18029   0.072   7.614   0.318
 6002SOL    HW118030   0.055   7.697   0.264
 6002SOL    HW218031   0.162   7.577   0.296
 6003SOL     OW18032   1.183   8.783   0.119
 6003SOL    HW118033   1.084   8.772   0.121
 6003SOL    HW218034   1.217   8.798   0.212
 6004SOL     OW18035   0.613   8.290   1.431
 6004SOL    HW118036   0.669   8.371   1.414
 6004SOL    HW218037   0.672   8.210   1.434
 6005SOL     OW18038   1.493   9.215   0.959
 6005SOL    HW118039   1.526   9.279   0.890
 6005SOL    HW218040   1.559   9.209   1.034
 6006SOL     OW18041   0.716   8.013   1.708
 6006SOL    HW118042   0.735   8.078   1.782
 6006SOL    HW218043   0.776   7.933   1.717
 6007SOL     OW18044   1.450   8.668   1.633
 6007SOL    HW118045   1.441   8.658   1.732
 6007SOL    HW218046   1.546   8.661   1.607
 6008SOL     OW18047   0.390   9.189   1.560
 6008SOL    HW118048   0.299   9.230   1.558
 6008SOL    HW218049   0.383   9.095   1.592
 6009SOL     OW18050   1.674   8.331   1.254
 6009SOL    HW118051   1.647   8.242   1.217
 6009SOL    HW218052   1.675   8.399   1.181
 6010SOL     OW18053   1.225   7.773   0.449
 6010SOL    HW118054   1.290   7.699   0.438
 6010SOL    HW218055   1.245   7.823   0.533
 6011SOL     OW18056   0.594   8.193   0.652
 6011SOL    HW118057   0.644   8.278   0.633
 6011SOL    HW218058   0.506   8.195   0.604
 6012SOL     OW18059   1.777   7.790   1.642
 6012SOL    HW118060   1.760   7.821   1.548
 6012SOL    HW218061   1.693   7.753   1.680
 6013SOL     OW18062   1.730   8.382   1.517
 6013SOL    HW118063   1.768   8.473   1.532
 6013SOL    HW218064   1.722   8.365   1.418
 6014SOL     OW18065   0.859   8.822   0.016
 6014SOL    HW118066   0.813   8.837   0.104
 6014SOL    HW218067   0.903   8.907  -0.014
 6015SOL     OW18068   0.661   9.238   0.953
 6015SOL    HW118069   0.615   9.326   0.940
 6015SOL    HW218070   0.760   9.250   0.946
 6016SOL     OW18071   0.859   8.404   0.861
 6016SOL    HW118072   0.913   8.335   0.909
 6016SOL    HW218073   0.827   8.473   0.927
 6017SOL     OW18074   1.083   8.432   0.087
 6017SOL    HW118075   1.060   8.485   0.005
 6017SOL    HW218076   1.164   8.376   0.068
 6018SOL     OW18077   1.861   9.017   0.851
 6018SOL    HW118078   1.790   9.005   0.781
 6018SOL    HW218079   1.862   8.938   0.911
 6019SOL     OW18080   0.221   8.762   1.844
 6019SOL    HW118081   0.156   8.689   1.823
 6019SOL    HW218082   0.225   8.776   1.942
 6020SOL     OW18083   0.079   8.688   0.653
 6020SOL    HW118084   0.078   8.641   0.741
 6020SOL    HW218085   0.161   8.660   0.602
 6021SOL     OW18086   0.672   8.839   1.624
 6021SOL    HW118087   0.594   8.789   1.662
 6021SOL    HW218088   0.669   8.934   1.655
 6022SOL     OW18089   1.824   7.640   1.227
 6022SOL    HW118090   1.820   7.550   1.271
 6022SOL    HW218091   1.827   7.629   1.128
 6023SOL     OW18092   0.428   7.872   0.520
 6023SOL    HW118093   0.458   7.800   0.458
 6023SOL    HW218094   0.389   7.832   0.603
 6024SOL     OW18095   1.705   8.935   1.104
 6024SOL    HW118096   1.612   8.910   1.077
 6024SOL    HW218097   1.731   8.885   1.186
 6025SOL     OW18098   0.317   7.995   1.280
 6025SOL    HW118099   0.355   7.936   1.352
 6025SOL    HW218100   0.357   7.969   1.192
 6026SOL     OW18101   0.812   9.034   0.687
 6026SOL    HW118102   0.844   9.044   0.593
 6026SOL    HW218103   0.733   8.972   0.689
 6027SOL     OW18104   1.424   7.662   1.112
 6027SOL    HW118105   1.476   7.597   1.167
 6027SOL    HW218106   1.375   7.725   1.173
 6028SOL     OW18107   1.001   7.482   1.154
 6028SOL    HW118108   0.938   7.410   1.123
 6028SOL    HW218109   1.094   7.446   1.154
 6029SOL     OW18110   0.770   8.778   0.301
 6029SOL    HW118111   0.724   8.691   0.318
 6029SOL    HW218112   0.861   8.775   0.342
 6030SOL     OW18113   0.618   9.015   1.284
 6030SOL    HW118114   0.613   9.097   1.341
 6030SOL    HW218115   0.707   9.012   1.239
 6031SOL     OW18116   1.352   7.500   0.168
 6031SOL    HW118117   1.387   7.459   0.084
 6031SOL    HW218118   1.262   7.462   0.188
 6032SOL     OW18119   1.300   7.901   0.691
 6032SOL    HW118120   1.241   7.981   0.695
 6032SOL    HW218121   1.315   7.866   0.784
 6033SOL     OW18122   1.593   7.669   0.882
 6033SOL    HW118123   1.509   7.668   0.936
 6033SOL    HW218124   1.595   7.752   0.826
 6034SOL     OW18125   0.039   8.525   0.300
 6034SOL    HW118126   0.138   8.514   0.291
 6034SOL    HW218127  -0.001   8.439   0.332
 6035SOL     OW18128   0.875   9.094   0.337
 6035SOL    HW118129   0.798   9.059   0.283
 6035SOL    HW218130   0.843   9.165   0.399
 6036SOL     OW18131   0.230   8.076   1.975
 6036SOL    HW118132   0.137   8.074   2.012
 6036SOL    HW218133   0.231   8.037   1.883
 6037SOL     OW18134   0.225   7.723   2.858
 6037SOL    HW118135   0.260   7.706   2.950
 6037SOL    HW218136   0.137   7.678   2.846
 6038SOL     OW18137   0.019   7.816   2.509
 6038SOL    HW118138  -0.063   7.859   2.548
 6038SOL    HW218139  -0.009   7.743   2.446
 6039SOL     OW18140   0.569   8.723   3.027
 6039SOL    HW118141   0.476   8.716   2.990
 6039SOL    HW218142   0.580   8.812   3.071
 6040SOL     OW18143   1.555   8.959   2.565
 6040SOL    HW118144   1.498   8.943   2.646
 6040SOL    HW218145   1.496   8.969   2.485
 6041SOL     OW18146   1.135   8.151   2.579
 6041SOL    HW118147   1.192   8.229   2.554
 6041SOL    HW218148   1.075   8.177   2.655
 6042SOL     OW18149   1.755   8.055   2.093
 6042SOL    HW118150   1.743   8.042   1.994
 6042SOL    HW218151   1.725   7.974   2.142
 6043SOL     OW18152   0.768   8.592   2.885
 6043SOL    HW118153   0.690   8.609   2.945
 6043SOL    HW218154   0.802   8.679   2.849
 6044SOL     OW18155   0.850   8.246   3.685
 6044SOL    HW118156   0.846   8.322   3.750
 6044SOL    HW218157   0.872   8.282   3.594
 6045SOL     OW18158   0.685   8.460   2.527
 6045SOL    HW118159   0.754   8.444   2.597
 6045SOL    HW218160   0.612   8.517   2.565
 6046SOL     OW18161   0.686   8.609   3.665
 6046SOL    HW118162   0.746   8.688   3.679
 6046SOL    HW218163   0.600   8.640   3.624
 6047SOL     OW18164   0.335   8.883   2.923
 6047SOL    HW118165   0.257   8.852   2.870
 6047SOL    HW218166   0.393   8.941   2.866
 6048SOL     OW18167   1.460   8.953   3.201
 6048SOL    HW118168   1.484   9.047   3.227
 6048SOL    HW218169   1.444   8.899   3.283
 6049SOL     OW18170   0.438   7.840   3.361
 6049SOL    HW118171   0.520   7.784   3.370
 6049SOL    HW218172   0.357   7.782   3.365
 6050SOL     OW18173   1.603   7.895   2.599
 6050SOL    HW118174   1.529   7.941   2.549
 6050SOL    HW218175   1.654   7.963   2.652
 6051SOL     OW18176   0.231   9.161   2.345
 6051SOL    HW118177   0.265   9.238   2.399
 6051SOL    HW218178   0.275   9.161   2.255
 6052SOL     OW18179   1.127   8.789   3.552
 6052SOL    HW118180   1.174   8.789   3.640
 6052SOL    HW218181   1.079   8.702   3.541
 6053SOL     OW18182   0.230   8.882   2.400
 6053SOL    HW118183   0.204   8.978   2.400
 6053SOL    HW218184   0.159   8.828   2.445
 6054SOL     OW18185   0.240   8.539   2.748
 6054SOL    HW118186   0.254   8.455   2.800
 6054SOL    HW218187   0.185   8.603   2.803
 6055SOL     OW18188   0.620   9.234   3.301
 6055SOL    HW118189   0.528   9.217   3.336
 6055SOL    HW218190   0.648   9.326   3.327
 6056SOL     OW18191   0.606   8.412   1.985
 6056SOL    HW118192   0.613   8.496   1.931
 6056SOL    HW218193   0.652   8.425   2.073
 6057SOL     OW18194   1.594   7.562   3.342
 6057SOL    HW118195   1.576   7.629   3.270
 6057SOL    HW218196   1.591   7.608   3.431
 6058SOL     OW18197   0.122   8.091   2.425
 6058SOL    HW118198   0.077   8.003   2.442
 6058SOL    HW218199   0.121   8.145   2.509
 6059SOL     OW18200   1.842   9.215   2.221
 6059SOL    HW118201   1.896   9.186   2.301
 6059SOL    HW218202   1.872   9.305   2.192
 6060SOL     OW18203   0.027   9.044   1.979
 6060SOL    HW118204   0.008   8.948   2.000
 6060SOL    HW218205  -0.006   9.102   2.054
 6061SOL     OW18206   1.689   8.370   2.474
 6061SOL    HW118207   1.784   8.341   2.482
 6061SOL    HW218208   1.681   8.435   2.399
 6062SOL     OW18209   0.113   8.185   3.459
 6062SOL    HW118210   0.201   8.172   3.504
 6062SOL    HW218211   0.100   8.282   3.437
 6063SOL     OW18212   0.613   8.813   2.588
 6063SOL    HW118213   0.564   8.726   2.597
 6063SOL    HW218214   0.590   8.856   2.501
 6064SOL     OW18215   1.293   8.676   3.285
 6064SOL    HW118216   1.330   8.603   3.227
 6064SOL    HW218217   1.345   8.681   3.370
 6065SOL     OW18218   0.809   7.452   2.364
 6065SOL    HW118219   0.849   7.543   2.355
 6065SOL    HW218220   0.709   7.460   2.370
 6066SOL     OW18221   0.197   8.424   3.126
 6066SOL    HW118222   0.286   8.379   3.112
 6066SOL    HW218223   0.124   8.359   3.107
 6067SOL     OW18224   1.525   8.447   2.052
 6067SOL    HW118225   1.462   8.371   2.065
 6067SOL    HW218226   1.573   8.465   2.138
 6068SOL     OW18227   1.187   9.240   3.478
 6068SOL    HW118228   1.211   9.300   3.402
 6068SOL    HW218229   1.194   9.145   3.448
 6069SOL     OW18230   0.317   7.699   3.663
 6069SOL    HW118231   0.388   7.770   3.669
 6069SOL    HW218232   0.229   7.738   3.691
 6070SOL     OW18233   1.466   8.865   2.815
 6070SOL    HW118234   1.407   8.871   2.895
 6070SOL    HW218235   1.451   8.777   2.769
 6071SOL     OW18236   1.667   9.162   2.434
 6071SOL    HW118237   1.626   9.139   2.346
 6071SOL    HW218238   1.649   9.088   2.499
 6072SOL     OW18239   0.598   8.177   2.132
 6072SOL    HW118240   0.622   8.246   2.064
 6072SOL    HW218241   0.520   8.210   2.186
 6073SOL     OW18242   1.281   7.793   2.806
 6073SOL    HW118243   1.195   7.743   2.793
 6073SOL    HW218244   1.343   7.739   2.862
 6074SOL     OW18245   1.576   9.110   2.169
 6074SOL    HW118246   1.665   9.156   2.172
 6074SOL    HW218247   1.555   9.086   2.074
 6075SOL     OW18248   0.807   8.053   3.327
 6075SOL    HW118249   0.760   8.050   3.416
 6075SOL    HW218250   0.756   7.998   3.261
 6076SOL     OW18251   1.394   7.917   3.536
 6076SOL    HW118252   1.374   7.960   3.624
 6076SOL    HW218253   1.472   7.855   3.545
 6077SOL     OW18254   0.973   8.338   3.434
 6077SOL    HW118255   1.019   8.254   3.405
 6077SOL    HW218256   0.917   8.372   3.359
 6078SOL     OW18257   0.991   7.858   3.104
 6078SOL    HW118258   0.914   7.892   3.158
 6078SOL    HW218259   0.957   7.807   3.025
 6079SOL     OW18260   1.041   8.149   2.291
 6079SOL    HW118261   1.067   8.145   2.387
 6079SOL    HW218262   0.956   8.098   2.277
 6080SOL     OW18263   0.076   8.259   2.651
 6080SOL    HW118264   0.175   8.247   2.660
 6080SOL    HW218265   0.052   8.354   2.672
 6081SOL     OW18266   0.130   9.269   3.433
 6081SOL    HW118267   0.120   9.254   3.532
 6081SOL    HW218268   0.044   9.305   3.397
 6082SOL     OW18269   0.865   7.796   2.057
 6082SOL    HW118270   0.924   7.859   2.008
 6082SOL    HW218271   0.884   7.702   2.028
 6083SOL     OW18272   1.719   8.033   3.693
 6083SOL    HW118273   1.693   8.122   3.657
 6083SOL    HW218274   1.717   7.965   3.620
 6084SOL     OW18275   1.362   8.592   2.407
 6084SOL    HW118276   1.445   8.563   2.359
 6084SOL    HW218277   1.313   8.659   2.351
 6085SOL     OW18278   0.550   7.644   2.747
 6085SOL    HW118279   0.545   7.639   2.847
 6085SOL    HW218280   0.552   7.740   2.718
 6086SOL     OW18281   1.008   8.904   2.339
 6086SOL    HW118282   0.962   8.976   2.287
 6086SOL    HW218283   1.004   8.924   2.437
 6087SOL     OW18284   0.351   9.249   2.715
 6087SOL    HW118285   0.401   9.163   2.721
 6087SOL    HW218286   0.416   9.326   2.712
 6088SOL     OW18287   1.795   8.514   2.735
 6088SOL    HW118288   1.733   8.499   2.659
 6088SOL    HW218289   1.743   8.525   2.820
 6089SOL     OW18290   1.227   8.998   3.368
 6089SOL    HW118291   1.233   8.921   3.432
 6089SOL    HW218292   1.175   8.972   3.288
 6090SOL     OW18293   0.321   8.391   2.104
 6090SOL    HW118294   0.403   8.430   2.062
 6090SOL    HW218295   0.294   8.309   2.055
 6091SOL     OW18296   1.458   8.183   2.590
 6091SOL    HW118297   1.453   8.118   2.665
 6091SOL    HW218298   1.538   8.242   2.603
 6092SOL     OW18299   0.461   8.714   3.589
 6092SOL    HW118300   0.411   8.715   3.503
 6092SOL    HW218301   0.398   8.696   3.665
 6093SOL     OW18302   1.111   9.224   2.099
 6093SOL    HW118303   1.051   9.162   2.149
 6093SOL    HW218304   1.142   9.180   2.014
 6094SOL     OW18305   0.202   7.733   3.360
 6094SOL    HW118306   0.122   7.793   3.347
 6094SOL    HW218307   0.192   7.684   3.446
 6095SOL     OW18308   1.632   8.825   1.943
 6095SOL    HW118309   1.600   8.919   1.933
 6095SOL    HW218310   1.556   8.762   1.931
 6096SOL     OW18311   0.464   9.191   2.185
 6096SOL    HW118312   0.497   9.230   2.271
 6096SOL    HW218313   0.540   9.184   2.120
 6097SOL     OW18314   1.400   7.555   2.288
 6097SOL    HW118315   1.376   7.518   2.198
 6097SOL    HW218316   1.499   7.571   2.292
 6098SOL     OW18317   0.249   9.233   3.103
 6098SOL    HW118318   0.306   9.168   3.153
 6098SOL    HW218319   0.233   9.200   3.010
 6099SOL     OW18320   0.940   9.146   2.766
 6099SOL    HW118321   1.020   9.089   2.787
 6099SOL    HW218322   0.891   9.106   2.689
 6100SOL     OW18323   0.382   8.148   2.342
 6100SOL    HW118324   0.427   8.058   2.339
 6100SOL    HW218325   0.288   8.137   2.375
 6101SOL     OW18326   1.547   7.670   3.591
 6101SOL    HW118327   1.542   7.707   3.683
 6101SOL    HW218328   1.475   7.601   3.579
 6102SOL     OW18329   0.614   7.570   1.979
 6102SOL    HW118330   0.712   7.548   1.986
 6102SOL    HW218331   0.583   7.553   1.886
 6103SOL     OW18332   0.781   7.712   3.611
 6103SOL    HW118333   0.848   7.651   3.654
 6103SOL    HW218334   0.708   7.731   3.676
 6104SOL     OW18335   0.888   8.962   3.057
 6104SOL    HW118336   0.865   8.937   2.963
 6104SOL    HW218337   0.949   8.893   3.096
 6105SOL     OW18338   1.351   8.038   3.295
 6105SOL    HW118339   1.379   7.995   3.380
 6105SOL    HW218340   1.376   8.134   3.296
 6106SOL     OW18341   0.803   8.850   2.786
 6106SOL    HW118342   0.893   8.864   2.744
 6106SOL    HW218343   0.732   8.852   2.715
 6107SOL     OW18344   0.922   7.951   2.761
 6107SOL    HW118345   0.897   7.942   2.665
 6107SOL    HW218346   0.970   7.869   2.792
 6108SOL     OW18347   0.539   7.512   2.374
 6108SOL    HW118348   0.458   7.513   2.432
 6108SOL    HW218349   0.542   7.595   2.319
 6109SOL     OW18350   1.434   8.636   1.903
 6109SOL    HW118351   1.466   8.560   1.960
 6109SOL    HW218352   1.342   8.663   1.933
 6110SOL     OW18353   0.297   7.483   2.033
 6110SOL    HW118354   0.346   7.567   2.012
 6110SOL    HW218355   0.359   7.418   2.078
 6111SOL     OW18356   0.935   7.684   2.342
 6111SOL    HW118357   0.887   7.725   2.264
 6111SOL    HW218358   1.034   7.682   2.323
 6112SOL     OW18359   1.076   8.131   3.326
 6112SOL    HW118360   0.996   8.070   3.329
 6112SOL    HW218361   1.157   8.078   3.302
 6113SOL     OW18362   1.227   9.018   2.655
 6113SOL    HW118363   1.248   9.092   2.590
 6113SOL    HW218364   1.295   9.018   2.728
 6114SOL     OW18365   0.459   8.600   2.603
 6114SOL    HW118366   0.388   8.573   2.668
 6114SOL    HW218367   0.433   8.572   2.510
 6115SOL     OW18368   1.271   9.245   2.453
 6115SOL    HW118369   1.315   9.309   2.389
 6115SOL    HW218370   1.221   9.297   2.523
 6116SOL     OW18371   1.032   7.997   1.878
 6116SOL    HW118372   0.991   8.079   1.839
 6116SOL    HW218373   1.096   8.023   1.951
 6117SOL     OW18374   0.078   8.004   3.248
 6117SOL    HW118375   0.170   8.003   3.207
 6117SOL    HW218376   0.072   8.078   3.315
 6118SOL     OW18377   0.561   7.670   3.009
 6118SOL    HW118378   0.599   7.586   3.046
 6118SOL    HW218379   0.473   7.689   3.053
 6119SOL     OW18380   0.866   7.902   2.504
 6119SOL    HW118381   0.834   7.974   2.442
 6119SOL    HW218382   0.890   7.821   2.451
 6120SOL     OW18383   1.017   7.487   2.615
 6120SOL    HW118384   0.945   7.492   2.546
 6120SOL    HW218385   0.993   7.418   2.684
 6121SOL     OW18386   1.429   8.621   2.729
 6121SOL    HW118387   1.374   8.537   2.722
 6121SOL    HW218388   1.455   8.650   2.637
 6122SOL     OW18389   1.466   8.038   2.854
 6122SOL    HW118390   1.436   7.943   2.861
 6122SOL    HW218391   1.539   8.054   2.920
 6123SOL     OW18392   1.857   8.281   2.239
 6123SOL    HW118393   1.899   8.217   2.303
 6123SOL    HW218394   1.819   8.230   2.161
 6124SOL     OW18395   0.488   8.833   2.036
 6124SOL    HW118396   0.401   8.818   2.083
 6124SOL    HW218397   0.471   8.859   1.941
 6125SOL     OW18398   1.664   8.728   2.519
 6125SOL    HW118399   1.763   8.736   2.533
 6125SOL    HW218400   1.619   8.812   2.550
 6126SOL     OW18401   1.390   8.023   1.940
 6126SOL    HW118402   1.336   8.002   2.021
 6126SOL    HW218403   1.481   7.982   1.949
 6127SOL     OW18404   0.527   7.704   2.190
 6127SOL    HW118405   0.554   7.645   2.115
 6127SOL    HW218406   0.527   7.799   2.159
 6128SOL     OW18407   1.754   8.671   3.450
 6128SOL    HW118408   1.845   8.632   3.437
 6128SOL    HW218409   1.762   8.767   3.474
 6129SOL     OW18410   1.064   8.795   3.202
 6129SOL    HW118411   0.984   8.772   3.257
 6129SOL    HW218412   1.147   8.769   3.251
 6130SOL     OW18413   1.592   9.077   3.487
 6130SOL    HW118414   1.619   9.111   3.397
 6130SOL    HW218415   1.671   9.039   3.533
 6131SOL     OW18416   1.111   8.643   2.962
 6131SOL    HW118417   1.071   8.687   3.043
 6131SOL    HW218418   1.070   8.680   2.879
 6132SOL     OW18419   1.638   8.547   2.941
 6132SOL    HW118420   1.643   8.628   3.000
 6132SOL    HW218421   1.552   8.549   2.890
 6133SOL     OW18422   0.915   7.537   3.264
 6133SOL    HW118423   0.940   7.517   3.169
 6133SOL    HW218424   0.987   7.593   3.306
 6134SOL     OW18425   0.980   8.564   3.581
 6134SOL    HW118426   0.881   8.570   3.591
 6134SOL    HW218427   1.003   8.484   3.525
 6135SOL     OW18428   0.705   8.498   2.230
 6135SOL    HW118429   0.691   8.505   2.329
 6135SOL    HW218430   0.789   8.447   2.212
 6136SOL     OW18431   0.410   8.261   3.113
 6136SOL    HW118432   0.496   8.273   3.163
 6136SOL    HW218433   0.368   8.174   3.140
 6137SOL     OW18434   1.274   7.834   3.124
 6137SOL    HW118435   1.295   7.908   3.188
 6137SOL    HW218436   1.185   7.851   3.081
 6138SOL     OW18437   0.064   9.012   3.193
 6138SOL    HW118438   0.018   9.094   3.159
 6138SOL    HW218439   0.162   9.031   3.202
 6139SOL     OW18440   0.367   8.548   2.363
 6139SOL    HW118441   0.360   8.631   2.307
 6139SOL    HW218442   0.371   8.468   2.303
 6140SOL     OW18443   0.566   7.985   2.727
 6140SOL    HW118444   0.578   8.051   2.653
 6140SOL    HW218445   0.612   8.019   2.810
 6141SOL     OW18446   1.252   8.796   2.250
 6141SOL    HW118447   1.302   8.873   2.290
 6141SOL    HW218448   1.157   8.798   2.282
 6142SOL     OW18449   1.272   8.893   3.004
 6142SOL    HW118450   1.319   8.906   3.091
 6142SOL    HW218451   1.206   8.819   3.013
 6143SOL     OW18452   1.582   8.087   2.334
 6143SOL    HW118453   1.551   8.148   2.407
 6143SOL    HW218454   1.632   8.139   2.265
 6144SOL     OW18455   0.354   8.958   3.191
 6144SOL    HW118456   0.333   8.914   3.104
 6144SOL    HW218457   0.451   8.984   3.194
 6145SOL     OW18458   0.402   8.199   3.460
 6145SOL    HW118459   0.470   8.254   3.413
 6145SOL    HW218460   0.442   8.111   3.487
 6146SOL     OW18461   1.587   8.227   3.532
 6146SOL    HW118462   1.495   8.265   3.527
 6146SOL    HW218463   1.647   8.274   3.467
 6147SOL     OW18464   1.013   7.553   3.632
 6147SOL    HW118465   1.019   7.638   3.580
 6147SOL    HW218466   1.045   7.477   3.575
 6148SOL     OW18467   0.504   7.498   3.602
 6148SOL    HW118468   0.462   7.441   3.532
 6148SOL    HW218469   0.438   7.567   3.634
 6149SOL     OW18470   0.573   8.318   2.891
 6149SOL    HW118471   0.617   8.407   2.882
 6149SOL    HW218472   0.510   8.318   2.968
 6150SOL     OW18473   1.360   8.310   2.907
 6150SOL    HW118474   1.285   8.310   2.841
 6150SOL    HW218475   1.397   8.218   2.916
 6151SOL     OW18476   1.209   7.973   2.137
 6151SOL    HW118477   1.222   7.889   2.191
 6151SOL    HW218478   1.180   8.047   2.197
 6152SOL     OW18479   0.307   7.661   3.093
 6152SOL    HW118480   0.284   7.698   3.183
 6152SOL    HW218481   0.277   7.566   3.087
 6153SOL     OW18482   0.037   8.758   3.144
 6153SOL    HW118483   0.090   8.709   3.212
 6153SOL    HW218484   0.059   8.856   3.149
 6154SOL     OW18485   0.732   8.082   2.926
 6154SOL    HW118486   0.791   8.056   2.850
 6154SOL    HW218487   0.704   8.178   2.915
 6155SOL     OW18488   1.728   8.383   3.716
 6155SOL    HW118489   1.682   8.376   3.627
 6155SOL    HW218490   1.666   8.427   3.782
 6156SOL     OW18491   0.307   7.511   2.480
 6156SOL    HW118492   0.296   7.605   2.513
 6156SOL    HW218493   0.302   7.448   2.557
 6157SOL     OW18494   1.622   7.815   2.236
 6157SOL    HW118495   1.624   7.739   2.300
 6157SOL    HW218496   1.574   7.892   2.276
 6158SOL     OW18497   1.023   8.214   2.828
 6158SOL    HW118498   1.038   8.235   2.924
 6158SOL    HW218499   0.993   8.119   2.819
 6159SOL     OW18500   0.980   9.021   3.562
 6159SOL    HW118501   0.960   9.065   3.474
 6159SOL    HW218502   1.019   8.930   3.546
 6160SOL     OW18503   1.859   8.966   3.467
 6160SOL    HW118504   1.873   8.993   3.372
 6160SOL    HW218505   1.942   8.988   3.520
 6161SOL     OW18506   0.350   8.346   3.666
 6161SOL    HW118507   0.426   8.390   3.714
 6161SOL    HW218508   0.385   8.299   3.584
 6162SOL     OW18509   1.540   7.722   1.987
 6162SOL    HW118510   1.479   7.647   2.010
 6162SOL    HW218511   1.562   7.774   2.070
 6163SOL     OW18512   1.303   8.286   1.904
 6163SOL    HW118513   1.337   8.193   1.919
 6163SOL    HW218514   1.321   8.313   1.809
 6164SOL     OW18515   1.068   8.781   2.711
 6164SOL    HW118516   1.075   8.697   2.656
 6164SOL    HW218517   1.130   8.850   2.675
 6165SOL     OW18518   0.319   8.258   2.811
 6165SOL    HW118519   0.412   8.294   2.816
 6165SOL    HW218520   0.313   8.173   2.863
 6166SOL     OW18521   0.339   7.957   2.868
 6166SOL    HW118522   0.287   7.874   2.851
 6166SOL    HW218523   0.416   7.962   2.804
 6167SOL     OW18524   1.138   7.828   3.540
 6167SOL    HW118525   1.093   7.891   3.604
 6167SOL    HW218526   1.231   7.859   3.523
 6168SOL     OW18527   1.160   7.655   3.339
 6168SOL    HW118528   1.160   7.719   3.416
 6168SOL    HW218529   1.188   7.703   3.256
 6169SOL     OW18530   0.008   8.774   2.062
 6169SOL    HW118531  -0.085   8.795   2.031
 6169SOL    HW218532   0.018   8.675   2.075
 6170SOL     OW18533   0.088   9.249   2.789
 6170SOL    HW118534   0.046   9.163   2.762
 6170SOL    HW218535   0.182   9.252   2.755
 6171SOL     OW18536   0.504   9.016   2.772
 6171SOL    HW118537   0.570   9.090   2.781
 6171SOL    HW218538   0.548   8.937   2.730
 6172SOL     OW18539   1.002   8.244   3.100
 6172SOL    HW118540   1.043   8.212   3.186
 6172SOL    HW218541   0.906   8.217   3.097
 6173SOL     OW18542   0.040   7.992   2.976
 6173SOL    HW118543   0.125   7.959   2.935
 6173SOL    HW218544   0.053   8.007   3.074
 6174SOL     OW18545   0.189   7.968   3.584
 6174SOL    HW118546   0.248   7.928   3.514
 6174SOL    HW218547   0.131   8.039   3.543
 6175SOL     OW18548   1.369   8.398   3.522
 6175SOL    HW118549   1.408   8.487   3.542
 6175SOL    HW218550   1.379   8.378   3.425
 6176SOL     OW18551   0.815   8.020   2.187
 6176SOL    HW118552   0.822   7.931   2.141
 6176SOL    HW218553   0.721   8.054   2.179
 6177SOL     OW18554   1.657   8.052   3.068
 6177SOL    HW118555   1.619   7.983   3.130
 6177SOL    HW218556   1.739   8.016   3.024
 6178SOL     OW18557   0.252   9.012   3.606
 6178SOL    HW118558   0.222   9.069   3.682
 6178SOL    HW218559   0.245   8.915   3.632
 6179SOL     OW18560   0.671   7.912   3.131
 6179SOL    HW118561   0.637   7.823   3.101
 6179SOL    HW218562   0.697   7.966   3.051
 6180SOL     OW18563   0.930   9.126   3.327
 6180SOL    HW118564   0.906   9.108   3.232
 6180SOL    HW218565   0.960   9.220   3.337
 6181SOL     OW18566   0.473   7.948   2.053
 6181SOL    HW118567   0.534   8.028   2.057
 6181SOL    HW218568   0.378   7.979   2.060
 6182SOL     OW18569   0.159   8.585   3.328
 6182SOL    HW118570   0.181   8.524   3.404
 6182SOL    HW218571   0.169   8.536   3.242
 6183SOL     OW18572   1.347   8.507   3.096
 6183SOL    HW118573   1.371   8.444   3.022
 6183SOL    HW218574   1.257   8.547   3.078
 6184SOL     OW18575   1.302   8.303   2.171
 6184SOL    HW118576   1.216   8.272   2.213
 6184SOL    HW218577   1.298   8.289   2.072
 6185SOL     OW18578   1.759   9.195   3.016
 6185SOL    HW118579   1.820   9.225   2.943
 6185SOL    HW218580   1.721   9.106   2.994
 6186SOL     OW18581   1.252   9.179   2.990
 6186SOL    HW118582   1.336   9.184   2.936
 6186SOL    HW218583   1.229   9.083   3.008
 6187SOL     OW18584   0.083   8.706   2.884
 6187SOL    HW118585   0.078   8.705   2.984
 6187SOL    HW218586   0.000   8.665   2.846
 6188SOL     OW18587   0.688   9.110   3.578
 6188SOL    HW118588   0.632   9.191   3.587
 6188SOL    HW218589   0.740   9.114   3.492
 6189SOL     OW18590   1.726   7.583   2.385
 6189SOL    HW118591   1.799   7.566   2.318
 6189SOL    HW218592   1.695   7.496   2.423
 6190SOL     OW18593   1.388   9.021   2.339
 6190SOL    HW118594   1.455   9.033   2.265
 6190SOL    HW218595   1.348   9.110   2.362
 6191SOL     OW18596   0.130   9.242   3.713
 6191SOL    HW118597   0.089   9.168   3.766
 6191SOL    HW218598   0.194   9.293   3.771
 6192SOL     OW18599   1.280   8.375   2.534
 6192SOL    HW118600   1.340   8.294   2.536
 6192SOL    HW218601   1.320   8.444   2.474
 6193SOL     OW18602   0.830   8.721   3.284
 6193SOL    HW118603   0.825   8.754   3.379
 6193SOL    HW218604   0.744   8.740   3.238
 6194SOL     OW18605   0.672   9.064   2.016
 6194SOL    HW118606   0.681   9.074   1.917
 6194SOL    HW218607   0.632   8.975   2.037
 6195SOL     OW18608   1.650   9.168   3.256
 6195SOL    HW118609   1.703   9.178   3.172
 6195SOL    HW218610   1.623   9.258   3.290
 6196SOL     OW18611   1.841   7.623   2.825
 6196SOL    HW118612   1.880   7.538   2.789
 6196SOL    HW218613   1.743   7.625   2.806
 6197SOL     OW18614   0.263   7.774   2.582
 6197SOL    HW118615   0.184   7.825   2.548
 6197SOL    HW218616   0.254   7.759   2.680
 6198SOL     OW18617   1.194   9.060   1.893
 6198SOL    HW118618   1.200   8.967   1.930
 6198SOL    HW218619   1.135   9.060   1.813
 6199SOL     OW18620   0.822   8.450   3.234
 6199SOL    HW118621   0.862   8.449   3.142
 6199SOL    HW218622   0.832   8.542   3.274
 6200SOL     OW18623   0.916   8.358   2.153
 6200SOL    HW118624   0.979   8.396   2.085
 6200SOL    HW218625   0.956   8.275   2.192
 6201SOL     OW18626   1.504   9.055   1.906
 6201SOL    HW118627   1.412   9.092   1.913
 6201SOL    HW218628   1.542   9.075   1.816
 6202SOL     OW18629   0.372   8.736   3.352
 6202SOL    HW118630   0.359   8.829   3.318
 6202SOL    HW218631   0.288   8.684   3.339
 6203SOL     OW18632   1.614   8.740   3.151
 6203SOL    HW118633   1.674   8.743   3.231
 6203SOL    HW218634   1.539   8.804   3.164
 6204SOL     OW18635   1.039   8.546   2.558
 6204SOL    HW118636   0.969   8.499   2.612
 6204SOL    HW218637   1.098   8.478   2.515
 6205SOL     OW18638   1.014   7.684   2.833
 6205SOL    HW118639   1.006   7.648   2.740
 6205SOL    HW218640   1.012   7.608   2.898
 6206SOL     OW18641   0.590   8.935   2.353
 6206SOL    HW118642   0.632   8.877   2.283
 6206SOL    HW218643   0.546   9.014   2.309
 6207SOL     OW18644   1.709   7.833   3.243
 6207SOL    HW118645   1.782   7.902   3.247
 6207SOL    HW218646   1.737   7.758   3.184
 6208SOL     OW18647   0.255   8.796   2.152
 6208SOL    HW118648   0.159   8.797   2.125
 6208SOL    HW218649   0.267   8.849   2.236
 6209SOL     OW18650   0.105   8.461   3.588
 6209SOL    HW118651   0.028   8.428   3.642
 6209SOL    HW218652   0.190   8.431   3.630
 6210SOL     OW18653   0.672   7.651   3.351
 6210SOL    HW118654   0.762   7.635   3.311
 6210SOL    HW218655   0.680   7.656   3.450
 6211SOL     OW18656   0.075   7.793   1.895
 6211SOL    HW118657  -0.017   7.765   1.866
 6211SOL    HW218658   0.106   7.870   1.839
 6212SOL     OW18659   1.440   8.304   3.260
 6212SOL    HW118660   1.383   8.356   3.197
 6212SOL    HW218661   1.536   8.316   3.236
 6213SOL     OW18662   0.072   7.614   2.180
 6213SOL    HW118663   0.055   7.697   2.126
 6213SOL    HW218664   0.162   7.577   2.158
 6214SOL     OW18665   1.183   8.783   1.981
 6214SOL    HW118666   1.084   8.772   1.983
 6214SOL    HW218667   1.217   8.798   2.074
 6215SOL     OW18668   0.613   8.290   3.293
 6215SOL    HW118669   0.669   8.371   3.276
 6215SOL    HW218670   0.672   8.210   3.296
 6216SOL     OW18671   1.493   9.215   2.821
 6216SOL    HW118672   1.526   9.279   2.752
 6216SOL    HW218673   1.559   9.209   2.896
 6217SOL     OW18674   0.716   8.013   3.570
 6217SOL    HW118675   0.735   8.078   3.644
 6217SOL    HW218676   0.776   7.933   3.579
 6218SOL     OW18677   1.450   8.668   3.495
 6218SOL    HW118678   1.441   8.658   3.594
 6218SOL    HW218679   1.546   8.661   3.469
 6219SOL     OW18680   0.390   9.189   3.422
 6219SOL    HW118681   0.299   9.230   3.420
 6219SOL    HW218682   0.383   9.095   3.454
 6220SOL     OW18683   1.674   8.331   3.116
 6220SOL    HW118684   1.647   8.242   3.079
 6220SOL    HW218685   1.675   8.399   3.043
 6221SOL     OW18686   1.225   7.773   2.311
 6221SOL    HW118687   1.290   7.699   2.300
 6221SOL    HW218688   1.245   7.823   2.395
 6222SOL     OW18689   0.594   8.193   2.514
 6222SOL    HW118690   0.644   8.278   2.495
 6222SOL    HW218691   0.506   8.195   2.466
 6223SOL     OW18692   1.777   7.790   3.504
 6223SOL    HW118693   1.760   7.821   3.410
 6223SOL    HW218694   1.693   7.753   3.542
 6224SOL     OW18695   1.730   8.382   3.379
 6224SOL    HW118696   1.768   8.473   3.394
 6224SOL    HW218697   1.722   8.365   3.280
 6225SOL     OW18698   0.859   8.822   1.878
 6225SOL    HW118699   0.813   8.837   1.966
 6225SOL    HW218700   0.903   8.907   1.848
 6226SOL     OW18701   0.661   9.238   2.815
 6226SOL    HW118702   0.615   9.326   2.802
 6226SOL    HW218703   0.760   9.250   2.808
 6227SOL     OW18704   0.859   8.404   2.723
 6227SOL    HW118705   0.913   8.335   2.771
 6227SOL    HW218706   0.827   8.473   2.789
 6228SOL     OW18707   1.083   8.432   1.949
 6228SOL    HW118708   1.060   8.485   1.867
 6228SOL    HW218709   1.164   8.376   1.930
 6229SOL     OW18710   1.861   9.017   2.713
 6229SOL    HW118711   1.790   9.005   2.643
 6229SOL    HW218712   1.862   8.938   2.773
 6230SOL     OW18713   0.221   8.762   3.706
 6230SOL    HW118714   0.156   8.689   3.685
 6230SOL    HW218715   0.225   8.776   3.804
 6231SOL     OW18716   0.079   8.688   2.515
 6231SOL    HW118717   0.078   8.641   2.603
 6231SOL    HW218718   0.161   8.660   2.464
 6232SOL     OW18719   0.672   8.839   3.486
 6232SOL    HW118720   0.594   8.789   3.524
 6232SOL    HW218721   0.669   8.934   3.517
 6233SOL     OW18722   1.824   7.640   3.089
 6233SOL    HW118723   1.820   7.550   3.133
 6233SOL    HW218724   1.827   7.629   2.990
 6234SOL     OW18725   0.428   7.872   2.382
 6234SOL    HW118726   0.458   7.800   2.320
 6234SOL    HW218727   0.389   7.832   2.465
 6235SOL     OW18728   1.705   8.935   2.966
 6235SOL    HW118729   1.612   8.910   2.939
 6235SOL    HW218730   1.731   8.885   3.048
 6236SOL     OW18731   0.317   7.995   3.142
 6236SOL    HW118732   0.355   7.936   3.214
 6236SOL    HW218733   0.357   7.969   3.054
 6237SOL     OW18734   0.812   9.034   2.549
 6237SOL    HW118735   0.844   9.044   2.455
 6237SOL    HW218736   0.733   8.972   2.551
 6238SOL     OW18737   1.424   7.662   2.974
 6238SOL    HW118738   1.476   7.597   3.029
 6238SOL    HW218739   1.375   7.725   3.035
 6239SOL     OW18740   1.001   7.482   3.016
 6239SOL    HW118741   0.938   7.410   2.985
 6239SOL    HW218742   1.094   7.446   3.016
 6240SOL     OW18743   0.770   8.778   2.163
 6240SOL    HW118744   0.724   8.691   2.180
 6240SOL    HW218745   0.861   8.775   2.204
 6241SOL     OW18746   0.618   9.015   3.146
 6241SOL    HW118747   0.613   9.097   3.203
 6241SOL    HW218748   0.707   9.012   3.101
 6242SOL     OW18749   1.352   7.500   2.030
 6242SOL    HW118750   1.387   7.459   1.946
 6242SOL    HW218751   1.262   7.462   2.050
 6243SOL     OW18752   1.300   7.901   2.553
 6243SOL    HW118753   1.241   7.981   2.557
 6243SOL    HW218754   1.315   7.866   2.646
 6244SOL     OW18755   1.593   7.669   2.744
 6244SOL    HW118756   1.509   7.668   2.798
 6244SOL    HW218757   1.595   7.752   2.688
 6245SOL     OW18758   0.039   8.525   2.162
 6245SOL    HW118759   0.138   8.514   2.153
 6245SOL    HW218760  -0.001   8.439   2.194
 6246SOL     OW18761   0.875   9.094   2.199
 6246SOL    HW118762   0.798   9.059   2.145
 6246SOL    HW218763   0.843   9.165   2.261
 6247SOL     OW18764   0.230   8.076   3.837
 6247SOL    HW118765   0.137   8.074   3.874
 6247SOL    HW218766   0.231   8.037   3.745
 6248SOL     OW18767   0.225   7.723   4.720
 6248SOL    HW118768   0.260   7.706   4.812
 6248SOL    HW218769   0.137   7.678   4.708
 6249SOL     OW18770   0.019   7.816   4.371
 6249SOL    HW118771  -0.063   7.859   4.410
 6249SOL    HW218772  -0.009   7.743   4.308
 6250SOL     OW18773   0.569   8.723   4.889
 6250SOL    HW118774   0.476   8.716   4.852
 6250SOL    HW218775   0.580   8.812   4.933
 6251SOL     OW18776   1.555   8.959   4.427
 6251SOL    HW118777   1.498   8.943   4.508
 6251SOL    HW218778   1.496   8.969   4.347
 6252SOL     OW18779   1.135   8.151   4.441
 6252SOL    HW118780   1.192   8.229   4.416
 6252SOL    HW218781   1.075   8.177   4.517
 6253SOL     OW18782   1.755   8.055   3.955
 6253SOL    HW118783   1.743   8.042   3.856
 6253SOL    HW218784   1.725   7.974   4.004
 6254SOL     OW18785   0.768   8.592   4.747
 6254SOL    HW118786   0.690   8.609   4.807
 6254SOL    HW218787   0.802   8.679   4.711
 6255SOL     OW18788   0.685   8.460   4.389
 6255SOL    HW118789   0.754   8.444   4.459
 6255SOL    HW218790   0.612   8.517   4.427
 6256SOL     OW18791   0.686   8.609   5.527
 6256SOL    HW118792   0.746   8.688   5.541
 6256SOL    HW218793   0.600   8.640   5.486
 6257SOL     OW18794   0.335   8.883   4.785
 6257SOL    HW118795   0.257   8.852   4.732
 6257SOL    HW218796   0.393   8.941   4.728
 6258SOL     OW18797   1.460   8.953   5.063
 6258SOL    HW118798   1.484   9.047   5.089
 6258SOL    HW218799   1.444   8.899   5.145
 6259SOL     OW18800   0.438   7.840   5.223
 6259SOL    HW118801   0.520   7.784   5.232
 6259SOL    HW218802   0.357   7.782   5.227
 6260SOL     OW18803   1.603   7.895   4.461
 6260SOL    HW118804   1.529   7.941   4.411
 6260SOL    HW218805   1.654   7.963   4.514
 6261SOL     OW18806   0.231   9.161   4.207
 6261SOL    HW118807   0.265   9.238   4.261
 6261SOL    HW218808   0.275   9.161   4.117
 6262SOL     OW18809   1.127   8.789   5.414
 6262SOL    HW118810   1.174   8.789   5.502
 6262SOL    HW218811   1.079   8.702   5.403
 6263SOL     OW18812   0.230   8.882   4.262
 6263SOL    HW118813   0.204   8.978   4.262
 6263SOL    HW218814   0.159   8.828   4.307
 6264SOL     OW18815   0.240   8.539   4.610
 6264SOL    HW118816   0.254   8.455   4.662
 6264SOL    HW218817   0.185   8.603   4.665
 6265SOL     OW18818   0.620   9.234   5.163
 6265SOL    HW118819   0.528   9.217   5.198
 6265SOL    HW218820   0.648   9.326   5.189
 6266SOL     OW18821   0.606   8.412   3.847
 6266SOL    HW118822   0.613   8.496   3.793
 6266SOL    HW218823   0.652   8.425   3.935
 6267SOL     OW18824   1.594   7.562   5.204
 6267SOL    HW118825   1.576   7.629   5.132
 6267SOL    HW218826   1.591   7.608   5.293
 6268SOL     OW18827   0.122   8.091   4.287
 6268SOL    HW118828   0.077   8.003   4.304
 6268SOL    HW218829   0.121   8.145   4.371
 6269SOL     OW18830   1.842   9.215   4.083
 6269SOL    HW118831   1.896   9.186   4.163
 6269SOL    HW218832   1.872   9.305   4.054
 6270SOL     OW18833   0.027   9.044   3.841
 6270SOL    HW118834   0.008   8.948   3.862
 6270SOL    HW218835  -0.006   9.102   3.916
 6271SOL     OW18836   1.689   8.370   4.336
 6271SOL    HW118837   1.784   8.341   4.344
 6271SOL    HW218838   1.681   8.435   4.261
 6272SOL     OW18839   1.641   8.556   4.156
 6272SOL    HW118840   1.727   8.558   4.104
 6272SOL    HW218841   1.655   8.603   4.244
 6273SOL     OW18842   0.113   8.185   5.321
 6273SOL    HW118843   0.201   8.172   5.366
 6273SOL    HW218844   0.100   8.282   5.299
 6274SOL     OW18845   0.613   8.813   4.450
 6274SOL    HW118846   0.564   8.726   4.459
 6274SOL    HW218847   0.590   8.856   4.363
 6275SOL     OW18848   1.293   8.676   5.147
 6275SOL    HW118849   1.330   8.603   5.089
 6275SOL    HW218850   1.345   8.681   5.232
 6276SOL     OW18851   0.809   7.452   4.226
 6276SOL    HW118852   0.849   7.543   4.217
 6276SOL    HW218853   0.709   7.460   4.232
 6277SOL     OW18854   0.197   8.424   4.988
 6277SOL    HW118855   0.286   8.379   4.974
 6277SOL    HW218856   0.124   8.359   4.969
 6278SOL     OW18857   1.525   8.447   3.914
 6278SOL    HW118858   1.462   8.371   3.927
 6278SOL    HW218859   1.573   8.465   4.000
 6279SOL     OW18860   1.187   9.240   5.340
 6279SOL    HW118861   1.211   9.300   5.264
 6279SOL    HW218862   1.194   9.145   5.310
 6280SOL     OW18863   0.317   7.699   5.525
 6280SOL    HW118864   0.388   7.770   5.531
 6280SOL    HW218865   0.229   7.738   5.553
 6281SOL     OW18866   1.466   8.865   4.677
 6281SOL    HW118867   1.407   8.871   4.757
 6281SOL    HW218868   1.451   8.777   4.631
 6282SOL     OW18869   1.667   9.162   4.296
 6282SOL    HW118870   1.626   9.139   4.208
 6282SOL    HW218871   1.649   9.088   4.361
 6283SOL     OW18872   0.598   8.177   3.994
 6283SOL    HW118873   0.622   8.246   3.926
 6283SOL    HW218874   0.520   8.210   4.048
 6284SOL     OW18875   1.281   7.793   4.668
 6284SOL    HW118876   1.195   7.743   4.655
 6284SOL    HW218877   1.343   7.739   4.724
 6285SOL     OW18878   1.576   9.110   4.031
 6285SOL    HW118879   1.665   9.156   4.034
 6285SOL    HW218880   1.555   9.086   3.936
 6286SOL     OW18881   0.807   8.053   5.189
 6286SOL    HW118882   0.760   8.050   5.278
 6286SOL    HW218883   0.756   7.998   5.123
 6287SOL     OW18884   1.394   7.917   5.398
 6287SOL    HW118885   1.374   7.960   5.486
 6287SOL    HW218886   1.472   7.855   5.407
 6288SOL     OW18887   0.973   8.338   5.296
 6288SOL    HW118888   1.019   8.254   5.267
 6288SOL    HW218889   0.917   8.372   5.221
 6289SOL     OW18890   0.991   7.858   4.966
 6289SOL    HW118891   0.914   7.892   5.020
 6289SOL    HW218892   0.957   7.807   4.887
 6290SOL     OW18893   1.041   8.149   4.153
 6290SOL    HW118894   1.067   8.145   4.249
 6290SOL    HW218895   0.956   8.098   4.139
 6291SOL     OW18896   0.076   8.259   4.513
 6291SOL    HW118897   0.175   8.247   4.522
 6291SOL    HW218898   0.052   8.354   4.534
 6292SOL     OW18899   0.130   9.269   5.295
 6292SOL    HW118900   0.120   9.254   5.394
 6292SOL    HW218901   0.044   9.305   5.259
 6293SOL     OW18902   0.865   7.796   3.919
 6293SOL    HW118903   0.924   7.859   3.870
 6293SOL    HW218904   0.884   7.702   3.890
 6294SOL     OW18905   1.719   8.033   5.555
 6294SOL    HW118906   1.693   8.122   5.519
 6294SOL    HW218907   1.717   7.965   5.482
 6295SOL     OW18908   1.362   8.592   4.269
 6295SOL    HW118909   1.445   8.563   4.221
 6295SOL    HW218910   1.313   8.659   4.213
 6296SOL     OW18911   0.550   7.644   4.609
 6296SOL    HW118912   0.545   7.639   4.709
 6296SOL    HW218913   0.552   7.740   4.580
 6297SOL     OW18914   1.008   8.904   4.201
 6297SOL    HW118915   0.962   8.976   4.149
 6297SOL    HW218916   1.004   8.924   4.299
 6298SOL     OW18917   0.351   9.249   4.577
 6298SOL    HW118918   0.401   9.163   4.583
 6298SOL    HW218919   0.416   9.326   4.574
 6299SOL     OW18920   1.795   8.514   4.597
 6299SOL    HW118921   1.733   8.499   4.521
 6299SOL    HW218922   1.743   8.525   4.682
 6300SOL     OW18923   1.227   8.998   5.230
 6300SOL    HW118924   1.233   8.921   5.294
 6300SOL    HW218925   1.175   8.972   5.150
 6301SOL     OW18926   0.321   8.391   3.966
 6301SOL    HW118927   0.403   8.430   3.924
 6301SOL    HW218928   0.294   8.309   3.917
 6302SOL     OW18929   1.458   8.183   4.452
 6302SOL    HW118930   1.453   8.118   4.527
 6302SOL    HW218931   1.538   8.242   4.465
 6303SOL     OW18932   0.461   8.714   5.451
 6303SOL    HW118933   0.411   8.715   5.365
 6303SOL    HW218934   0.398   8.696   5.527
 6304SOL     OW18935   1.111   9.224   3.961
 6304SOL    HW118936   1.051   9.162   4.011
 6304SOL    HW218937   1.142   9.180   3.876
 6305SOL     OW18938   0.202   7.733   5.222
 6305SOL    HW118939   0.122   7.793   5.209
 6305SOL    HW218940   0.192   7.684   5.308
 6306SOL     OW18941   1.632   8.825   3.805
 6306SOL    HW118942   1.600   8.919   3.795
 6306SOL    HW218943   1.556   8.762   3.793
 6307SOL     OW18944   0.464   9.191   4.047
 6307SOL    HW118945   0.497   9.230   4.133
 6307SOL    HW218946   0.540   9.184   3.982
 6308SOL     OW18947   1.400   7.555   4.150
 6308SOL    HW118948   1.376   7.518   4.060
 6308SOL    HW218949   1.499   7.571   4.154
 6309SOL     OW18950   0.249   9.233   4.965
 6309SOL    HW118951   0.306   9.168   5.015
 6309SOL    HW218952   0.233   9.200   4.872
 6310SOL     OW18953   0.940   9.146   4.628
 6310SOL    HW118954   1.020   9.089   4.649
 6310SOL    HW218955   0.891   9.106   4.551
 6311SOL     OW18956   0.382   8.148   4.204
 6311SOL    HW118957   0.427   8.058   4.201
 6311SOL    HW218958   0.288   8.137   4.237
 6312SOL     OW18959   1.547   7.670   5.453
 6312SOL    HW118960   1.542   7.707   5.545
 6312SOL    HW218961   1.475   7.601   5.441
 6313SOL     OW18962   0.614   7.570   3.841
 6313SOL    HW118963   0.712   7.548   3.848
 6313SOL    HW218964   0.583   7.553   3.748
 6314SOL     OW18965   0.781   7.712   5.473
 6314SOL    HW118966   0.848   7.651   5.516
 6314SOL    HW218967   0.708   7.731   5.538
 6315SOL     OW18968   0.888   8.962   4.919
 6315SOL    HW118969   0.865   8.937   4.825
 6315SOL    HW218970   0.949   8.893   4.958
 6316SOL     OW18971   1.351   8.038   5.157
 6316SOL    HW118972   1.379   7.995   5.242
 6316SOL    HW218973   1.376   8.134   5.158
 6317SOL     OW18974   0.803   8.850   4.648
 6317SOL    HW118975   0.893   8.864   4.606
 6317SOL    HW218976   0.732   8.852   4.577
 6318SOL     OW18977   0.922   7.951   4.623
 6318SOL    HW118978   0.897   7.942   4.527
 6318SOL    HW218979   0.970   7.869   4.654
 6319SOL     OW18980   0.539   7.512   4.236
 6319SOL    HW118981   0.458   7.513   4.294
 6319SOL    HW218982   0.542   7.595   4.181
 6320SOL     OW18983   1.434   8.636   3.765
 6320SOL    HW118984   1.466   8.560   3.822
 6320SOL    HW218985   1.342   8.663   3.795
 6321SOL     OW18986   0.297   7.483   3.895
 6321SOL    HW118987   0.346   7.567   3.874
 6321SOL    HW218988   0.359   7.418   3.940
 6322SOL     OW18989   0.935   7.684   4.204
 6322SOL    HW118990   0.887   7.725   4.126
 6322SOL    HW218991   1.034   7.682   4.185
 6323SOL     OW18992   1.076   8.131   5.188
 6323SOL    HW118993   0.996   8.070   5.191
 6323SOL    HW218994   1.157   8.078   5.164
 6324SOL     OW18995   1.227   9.018   4.517
 6324SOL    HW118996   1.248   9.092   4.452
 6324SOL    HW218997   1.295   9.018   4.590
 6325SOL     OW18998   0.459   8.600   4.465
 6325SOL    HW118999   0.388   8.573   4.530
 6325SOL    HW219000   0.433   8.572   4.372
 6326SOL     OW19001   1.271   9.245   4.315
 6326SOL    HW119002   1.315   9.309   4.251
 6326SOL    HW219003   1.221   9.297   4.385
 6327SOL     OW19004   1.032   7.997   3.740
 6327SOL    HW119005   0.991   8.079   3.701
 6327SOL    HW219006   1.096   8.023   3.813
 6328SOL     OW19007   0.078   8.004   5.110
 6328SOL    HW119008   0.170   8.003   5.069
 6328SOL    HW219009   0.072   8.078   5.177
 6329SOL     OW19010   0.561   7.670   4.871
 6329SOL    HW119011   0.599   7.586   4.908
 6329SOL    HW219012   0.473   7.689   4.915
 6330SOL     OW19013   0.866   7.902   4.366
 6330SOL    HW119014   0.834   7.974   4.304
 6330SOL    HW219015   0.890   7.821   4.313
 6331SOL     OW19016   1.017   7.487   4.477
 6331SOL    HW119017   0.945   7.492   4.408
 6331SOL    HW219018   0.993   7.418   4.546
 6332SOL     OW19019   1.429   8.621   4.591
 6332SOL    HW119020   1.374   8.537   4.584
 6332SOL    HW219021   1.455   8.650   4.499
 6333SOL     OW19022   1.466   8.038   4.716
 6333SOL    HW119023   1.436   7.943   4.723
 6333SOL    HW219024   1.539   8.054   4.782
 6334SOL     OW19025   1.857   8.281   4.101
 6334SOL    HW119026   1.899   8.217   4.165
 6334SOL    HW219027   1.819   8.230   4.023
 6335SOL     OW19028   0.488   8.833   3.898
 6335SOL    HW119029   0.401   8.818   3.945
 6335SOL    HW219030   0.471   8.859   3.803
 6336SOL     OW19031   1.664   8.728   4.381
 6336SOL    HW119032   1.763   8.736   4.395
 6336SOL    HW219033   1.619   8.812   4.412
 6337SOL     OW19034   1.390   8.023   3.802
 6337SOL    HW119035   1.336   8.002   3.883
 6337SOL    HW219036   1.481   7.982   3.811
 6338SOL     OW19037   0.527   7.704   4.052
 6338SOL    HW119038   0.554   7.645   3.977
 6338SOL    HW219039   0.527   7.799   4.021
 6339SOL     OW19040   1.754   8.671   5.312
 6339SOL    HW119041   1.845   8.632   5.299
 6339SOL    HW219042   1.762   8.767   5.336
 6340SOL     OW19043   1.064   8.795   5.064
 6340SOL    HW119044   0.984   8.772   5.119
 6340SOL    HW219045   1.147   8.769   5.113
 6341SOL     OW19046   1.592   9.077   5.349
 6341SOL    HW119047   1.619   9.111   5.259
 6341SOL    HW219048   1.671   9.039   5.395
 6342SOL     OW19049   1.111   8.643   4.824
 6342SOL    HW119050   1.071   8.687   4.905
 6342SOL    HW219051   1.070   8.680   4.741
 6343SOL     OW19052   1.638   8.547   4.803
 6343SOL    HW119053   1.643   8.628   4.862
 6343SOL    HW219054   1.552   8.549   4.752
 6344SOL     OW19055   0.915   7.537   5.126
 6344SOL    HW119056   0.940   7.517   5.031
 6344SOL    HW219057   0.987   7.593   5.168
 6345SOL     OW19058   0.980   8.564   5.443
 6345SOL    HW119059   0.881   8.570   5.453
 6345SOL    HW219060   1.003   8.484   5.387
 6346SOL     OW19061   0.705   8.498   4.092
 6346SOL    HW119062   0.691   8.505   4.191
 6346SOL    HW219063   0.789   8.447   4.074
 6347SOL     OW19064   0.410   8.261   4.975
 6347SOL    HW119065   0.496   8.273   5.025
 6347SOL    HW219066   0.368   8.174   5.002
 6348SOL     OW19067   1.274   7.834   4.986
 6348SOL    HW119068   1.295   7.908   5.050
 6348SOL    HW219069   1.185   7.851   4.943
 6349SOL     OW19070   0.064   9.012   5.055
 6349SOL    HW119071   0.018   9.094   5.021
 6349SOL    HW219072   0.162   9.031   5.064
 6350SOL     OW19073   0.367   8.548   4.225
 6350SOL    HW119074   0.360   8.631   4.169
 6350SOL    HW219075   0.371   8.468   4.165
 6351SOL     OW19076   0.566   7.985   4.589
 6351SOL    HW119077   0.578   8.051   4.515
 6351SOL    HW219078   0.612   8.019   4.672
 6352SOL     OW19079   1.252   8.796   4.112
 6352SOL    HW119080   1.302   8.873   4.152
 6352SOL    HW219081   1.157   8.798   4.144
 6353SOL     OW19082   1.272   8.893   4.866
 6353SOL    HW119083   1.319   8.906   4.953
 6353SOL    HW219084   1.206   8.819   4.875
 6354SOL     OW19085   1.582   8.087   4.196
 6354SOL    HW119086   1.551   8.148   4.269
 6354SOL    HW219087   1.632   8.139   4.127
 6355SOL     OW19088   0.354   8.958   5.053
 6355SOL    HW119089   0.333   8.914   4.966
 6355SOL    HW219090   0.451   8.984   5.056
 6356SOL     OW19091   0.402   8.199   5.322
 6356SOL    HW119092   0.470   8.254   5.275
 6356SOL    HW219093   0.442   8.111   5.349
 6357SOL     OW19094   1.587   8.227   5.394
 6357SOL    HW119095   1.495   8.265   5.389
 6357SOL    HW219096   1.647   8.274   5.329
 6358SOL     OW19097   1.013   7.553   5.494
 6358SOL    HW119098   1.019   7.638   5.442
 6358SOL    HW219099   1.045   7.477   5.437
 6359SOL     OW19100   0.504   7.498   5.464
 6359SOL    HW119101   0.462   7.441   5.394
 6359SOL    HW219102   0.438   7.567   5.496
 6360SOL     OW19103   0.573   8.318   4.753
 6360SOL    HW119104   0.617   8.407   4.744
 6360SOL    HW219105   0.510   8.318   4.830
 6361SOL     OW19106   1.360   8.310   4.769
 6361SOL    HW119107   1.285   8.310   4.703
 6361SOL    HW219108   1.397   8.218   4.778
 6362SOL     OW19109   1.209   7.973   3.999
 6362SOL    HW119110   1.222   7.889   4.053
 6362SOL    HW219111   1.180   8.047   4.059
 6363SOL     OW19112   0.307   7.661   4.955
 6363SOL    HW119113   0.284   7.698   5.045
 6363SOL    HW219114   0.277   7.566   4.949
 6364SOL     OW19115   0.037   8.758   5.006
 6364SOL    HW119116   0.090   8.709   5.074
 6364SOL    HW219117   0.059   8.856   5.011
 6365SOL     OW19118   0.732   8.082   4.788
 6365SOL    HW119119   0.791   8.056   4.712
 6365SOL    HW219120   0.704   8.178   4.777
 6366SOL     OW19121   1.728   8.383   5.578
 6366SOL    HW119122   1.682   8.376   5.489
 6366SOL    HW219123   1.666   8.427   5.644
 6367SOL     OW19124   0.307   7.511   4.342
 6367SOL    HW119125   0.296   7.605   4.375
 6367SOL    HW219126   0.302   7.448   4.419
 6368SOL     OW19127   1.622   7.815   4.098
 6368SOL    HW119128   1.624   7.739   4.162
 6368SOL    HW219129   1.574   7.892   4.138
 6369SOL     OW19130   1.023   8.214   4.690
 6369SOL    HW119131   1.038   8.235   4.786
 6369SOL    HW219132   0.993   8.119   4.681
 6370SOL     OW19133   0.980   9.021   5.424
 6370SOL    HW119134   0.960   9.065   5.336
 6370SOL    HW219135   1.019   8.930   5.408
 6371SOL     OW19136   1.859   8.966   5.329
 6371SOL    HW119137   1.873   8.993   5.234
 6371SOL    HW219138   1.942   8.988   5.382
 6372SOL     OW19139   0.350   8.346   5.528
 6372SOL    HW119140   0.426   8.390   5.576
 6372SOL    HW219141   0.385   8.299   5.446
 6373SOL     OW19142   1.540   7.722   3.849
 6373SOL    HW119143   1.479   7.647   3.872
 6373SOL    HW219144   1.562   7.774   3.932
 6374SOL     OW19145   1.303   8.286   3.766
 6374SOL    HW119146   1.337   8.193   3.781
 6374SOL    HW219147   1.321   8.313   3.671
 6375SOL     OW19148   1.068   8.781   4.573
 6375SOL    HW119149   1.075   8.697   4.518
 6375SOL    HW219150   1.130   8.850   4.537
 6376SOL     OW19151   0.319   8.258   4.673
 6376SOL    HW119152   0.412   8.294   4.678
 6376SOL    HW219153   0.313   8.173   4.725
 6377SOL     OW19154   0.339   7.957   4.730
 6377SOL    HW119155   0.287   7.874   4.713
 6377SOL    HW219156   0.416   7.962   4.666
 6378SOL     OW19157   1.138   7.828   5.402
 6378SOL    HW119158   1.093   7.891   5.466
 6378SOL    HW219159   1.231   7.859   5.385
 6379SOL     OW19160   1.160   7.655   5.201
 6379SOL    HW119161   1.160   7.719   5.278
 6379SOL    HW219162   1.188   7.703   5.118
 6380SOL     OW19163   0.008   8.774   3.924
 6380SOL    HW119164  -0.085   8.795   3.893
 6380SOL    HW219165   0.018   8.675   3.937
 6381SOL     OW19166   0.088   9.249   4.651
 6381SOL    HW119167   0.046   9.163   4.624
 6381SOL    HW219168   0.182   9.252   4.617
 6382SOL     OW19169   0.504   9.016   4.634
 6382SOL    HW119170   0.570   9.090   4.643
 6382SOL    HW219171   0.548   8.937   4.592
 6383SOL     OW19172   1.002   8.244   4.962
 6383SOL    HW119173   1.043   8.212   5.048
 6383SOL    HW219174   0.906   8.217   4.959
 6384SOL     OW19175   0.040   7.992   4.838
 6384SOL    HW119176   0.125   7.959   4.797
 6384SOL    HW219177   0.053   8.007   4.936
 6385SOL     OW19178   0.189   7.968   5.446
 6385SOL    HW119179   0.248   7.928   5.376
 6385SOL    HW219180   0.131   8.039   5.405
 6386SOL     OW19181   1.369   8.398   5.384
 6386SOL    HW119182   1.408   8.487   5.404
 6386SOL    HW219183   1.379   8.378   5.287
 6387SOL     OW19184   0.815   8.020   4.049
 6387SOL    HW119185   0.822   7.931   4.003
 6387SOL    HW219186   0.721   8.054   4.041
 6388SOL     OW19187   1.657   8.052   4.930
 6388SOL    HW119188   1.619   7.983   4.992
 6388SOL    HW219189   1.739   8.016   4.886
 6389SOL     OW19190   0.252   9.012   5.468
 6389SOL    HW119191   0.222   9.069   5.544
 6389SOL    HW219192   0.245   8.915   5.494
 6390SOL     OW19193   0.671   7.912   4.993
 6390SOL    HW119194   0.637   7.823   4.963
 6390SOL    HW219195   0.697   7.966   4.913
 6391SOL     OW19196   0.930   9.126   5.189
 6391SOL    HW119197   0.906   9.108   5.094
 6391SOL    HW219198   0.960   9.220   5.199
 6392SOL     OW19199   0.473   7.948   3.915
 6392SOL    HW119200   0.534   8.028   3.919
 6392SOL    HW219201   0.378   7.979   3.922
 6393SOL     OW19202   0.159   8.585   5.190
 6393SOL    HW119203   0.181   8.524   5.266
 6393SOL    HW219204   0.169   8.536   5.104
 6394SOL     OW19205   1.347   8.507   4.958
 6394SOL    HW119206   1.371   8.444   4.884
 6394SOL    HW219207   1.257   8.547   4.940
 6395SOL     OW19208   1.302   8.303   4.033
 6395SOL    HW119209   1.216   8.272   4.075
 6395SOL    HW219210   1.298   8.289   3.934
 6396SOL     OW19211   1.759   9.195   4.878
 6396SOL    HW119212   1.820   9.225   4.805
 6396SOL    HW219213   1.721   9.106   4.856
 6397SOL     OW19214   1.252   9.179   4.852
 6397SOL    HW119215   1.336   9.184   4.798
 6397SOL    HW219216   1.229   9.083   4.870
 6398SOL     OW19217   0.083   8.706   4.746
 6398SOL    HW119218   0.078   8.705   4.846
 6398SOL    HW219219   0.000   8.665   4.708
 6399SOL     OW19220   0.688   9.110   5.440
 6399SOL    HW119221   0.632   9.191   5.449
 6399SOL    HW219222   0.740   9.114   5.354
 6400SOL     OW19223   1.726   7.583   4.247
 6400SOL    HW119224   1.799   7.566   4.180
 6400SOL    HW219225   1.695   7.496   4.285
 6401SOL     OW19226   1.388   9.021   4.201
 6401SOL    HW119227   1.455   9.033   4.127
 6401SOL    HW219228   1.348   9.110   4.224
 6402SOL     OW19229   0.130   9.242   5.575
 6402SOL    HW119230   0.089   9.168   5.628
 6402SOL    HW219231   0.194   9.293   5.633
 6403SOL     OW19232   1.280   8.375   4.396
 6403SOL    HW119233   1.340   8.294   4.398
 6403SOL    HW219234   1.320   8.444   4.336
 6404SOL     OW19235   0.830   8.721   5.146
 6404SOL    HW119236   0.825   8.754   5.241
 6404SOL    HW219237   0.744   8.740   5.100
 6405SOL     OW19238   0.672   9.064   3.878
 6405SOL    HW119239   0.681   9.074   3.779
 6405SOL    HW219240   0.632   8.975   3.899
 6406SOL     OW19241   1.650   9.168   5.118
 6406SOL    HW119242   1.703   9.178   5.034
 6406SOL    HW219243   1.623   9.258   5.152
 6407SOL     OW19244   1.841   7.623   4.687
 6407SOL    HW119245   1.880   7.538   4.651
 6407SOL    HW219246   1.743   7.625   4.668
 6408SOL     OW19247   0.263   7.774   4.444
 6408SOL    HW119248   0.184   7.825   4.410
 6408SOL    HW219249   0.254   7.759   4.542
 6409SOL     OW19250   1.194   9.060   3.755
 6409SOL    HW119251   1.200   8.967   3.792
 6409SOL    HW219252   1.135   9.060   3.675
 6410SOL     OW19253   0.822   8.450   5.096
 6410SOL    HW119254   0.862   8.449   5.004
 6410SOL    HW219255   0.832   8.542   5.136
 6411SOL     OW19256   0.916   8.358   4.015
 6411SOL    HW119257   0.979   8.396   3.947
 6411SOL    HW219258   0.956   8.275   4.054
 6412SOL     OW19259   1.504   9.055   3.768
 6412SOL    HW119260   1.412   9.092   3.775
 6412SOL    HW219261   1.542   9.075   3.678
 6413SOL     OW19262   0.372   8.736   5.214
 6413SOL    HW119263   0.359   8.829   5.180
 6413SOL    HW219264   0.288   8.684   5.201
 6414SOL     OW19265   1.614   8.740   5.013
 6414SOL    HW119266   1.674   8.743   5.093
 6414SOL    HW219267   1.539   8.804   5.026
 6415SOL     OW19268   1.039   8.546   4.420
 6415SOL    HW119269   0.969   8.499   4.474
 6415SOL    HW219270   1.098   8.478   4.377
 6416SOL     OW19271   1.014   7.684   4.695
 6416SOL    HW119272   1.006   7.648   4.602
 6416SOL    HW219273   1.012   7.608   4.760
 6417SOL     OW19274   0.590   8.935   4.215
 6417SOL    HW119275   0.632   8.877   4.145
 6417SOL    HW219276   0.546   9.014   4.171
 6418SOL     OW19277   1.709   7.833   5.105
 6418SOL    HW119278   1.782   7.902   5.109
 6418SOL    HW219279   1.737   7.758   5.046
 6419SOL     OW19280   0.255   8.796   4.014
 6419SOL    HW119281   0.159   8.797   3.987
 6419SOL    HW219282   0.267   8.849   4.098
 6420SOL     OW19283   0.105   8.461   5.450
 6420SOL    HW119284   0.028   8.428   5.504
 6420SOL    HW219285   0.190   8.431   5.492
 6421SOL     OW19286   0.672   7.651   5.213
 6421SOL    HW119287   0.762   7.635   5.173
 6421SOL    HW219288   0.680   7.656   5.312
 6422SOL     OW19289   0.075   7.793   3.757
 6422SOL    HW119290  -0.017   7.765   3.728
 6422SOL    HW219291   0.106   7.870   3.701
 6423SOL     OW19292   1.440   8.304   5.122
 6423SOL    HW119293   1.383   8.356   5.059
 6423SOL    HW219294   1.536   8.316   5.098
 6424SOL     OW19295   0.072   7.614   4.042
 6424SOL    HW119296   0.055   7.697   3.988
 6424SOL    HW219297   0.162   7.577   4.020
 6425SOL     OW19298   1.183   8.783   3.843
 6425SOL    HW119299   1.084   8.772   3.845
 6425SOL    HW219300   1.217   8.798   3.936
 6426SOL     OW19301   0.613   8.290   5.155
 6426SOL    HW119302   0.669   8.371   5.138
 6426SOL    HW219303   0.672   8.210   5.158
 6427SOL     OW19304   1.493   9.215   4.683
 6427SOL    HW119305   1.526   9.279   4.614
 6427SOL    HW219306   1.559   9.209   4.758
 6428SOL     OW19307   0.716   8.013   5.432
 6428SOL    HW119308   0.735   8.078   5.506
 6428SOL    HW219309   0.776   7.933   5.441
 6429SOL     OW19310   1.450   8.668   5.357
 6429SOL    HW119311   1.441   8.658   5.456
 6429SOL    HW219312   1.546   8.661   5.331
 6430SOL     OW19313   0.390   9.189   5.284
 6430SOL    HW119314   0.299   9.230   5.282
 6430SOL    HW219315   0.383   9.095   5.316
 6431SOL     OW19316   1.674   8.331   4.978
 6431SOL    HW119317   1.647   8.242   4.941
 6431SOL    HW219318   1.675   8.399   4.905
 6432SOL     OW19319   1.225   7.773   4.173
 6432SOL    HW119320   1.290   7.699   4.162
 6432SOL    HW219321   1.245   7.823   4.257
 6433SOL     OW19322   0.594   8.193   4.376
 6433SOL    HW119323   0.644   8.278   4.357
 6433SOL    HW219324   0.506   8.195   4.328
 6434SOL     OW19325   1.777   7.790   5.366
 6434SOL    HW119326   1.760   7.821   5.272
 6434SOL    HW219327   1.693   7.753   5.404
 6435SOL     OW19328   1.730   8.382   5.241
 6435SOL    HW119329   1.768   8.473   5.256
 6435SOL    HW219330   1.722   8.365   5.142
 6436SOL     OW19331   0.859   8.822   3.740
 6436SOL    HW119332   0.813   8.837   3.828
 6436SOL    HW219333   0.903   8.907   3.710
 6437SOL     OW19334   0.661   9.238   4.677
 6437SOL    HW119335   0.615   9.326   4.664
 6437SOL    HW219336   0.760   9.250   4.670
 6438SOL     OW19337   0.859   8.404   4.585
 6438SOL    HW119338   0.913   8.335   4.633
 6438SOL    HW219339   0.827   8.473   4.651
 6439SOL     OW19340   1.083   8.432   3.811
 6439SOL    HW119341   1.060   8.485   3.729
 6439SOL    HW219342   1.164   8.376   3.792
 6440SOL     OW19343   1.861   9.017   4.575
 6440SOL    HW119344   1.790   9.005   4.505
 6440SOL    HW219345   1.862   8.938   4.635
 6441SOL     OW19346   0.221   8.762   5.568
 6441SOL    HW119347   0.156   8.689   5.547
 6441SOL    HW219348   0.225   8.776   5.666
 6442SOL     OW19349   0.079   8.688   4.377
 6442SOL    HW119350   0.078   8.641   4.465
 6442SOL    HW219351   0.161   8.660   4.326
 6443SOL     OW19352   0.672   8.839   5.348
 6443SOL    HW119353   0.594   8.789   5.386
 6443SOL    HW219354   0.669   8.934   5.379
 6444SOL     OW19355   1.824   7.640   4.951
 6444SOL    HW119356   1.820   7.550   4.995
 6444SOL    HW219357   1.827   7.629   4.852
 6445SOL     OW19358   0.428   7.872   4.244
 6445SOL    HW119359   0.458   7.800   4.182
 6445SOL    HW219360   0.389   7.832   4.327
 6446SOL     OW19361   1.705   8.935   4.828
 6446SOL    HW119362   1.612   8.910   4.801
 6446SOL    HW219363   1.731   8.885   4.910
 6447SOL     OW19364   0.317   7.995   5.004
 6447SOL    HW119365   0.355   7.936   5.076
 6447SOL    HW219366   0.357   7.969   4.916
 6448SOL     OW19367   0.812   9.034   4.411
 6448SOL    HW119368   0.844   9.044   4.317
 6448SOL    HW219369   0.733   8.972   4.413
 6449SOL     OW19370   1.424   7.662   4.836
 6449SOL    HW119371   1.476   7.597   4.891
 6449SOL    HW219372   1.375   7.725   4.897
 6450SOL     OW19373   1.001   7.482   4.878
 6450SOL    HW119374   0.938   7.410   4.847
 6450SOL    HW219375   1.094   7.446   4.878
 6451SOL     OW19376   0.770   8.778   4.025
 6451SOL    HW119377   0.724   8.691   4.042
 6451SOL    HW219378   0.861   8.775   4.066
 6452SOL     OW19379   0.618   9.015   5.008
 6452SOL    HW119380   0.613   9.097   5.065
 6452SOL    HW219381   0.707   9.012   4.963
 6453SOL     OW19382   1.352   7.500   3.892
 6453SOL    HW119383   1.387   7.459   3.808
 6453SOL    HW219384   1.262   7.462   3.912
 6454SOL     OW19385   1.300   7.901   4.415
 6454SOL    HW119386   1.241   7.981   4.419
 6454SOL    HW219387   1.315   7.866   4.508
 6455SOL     OW19388   1.593   7.669   4.606
 6455SOL    HW119389   1.509   7.668   4.660
 6455SOL    HW219390   1.595   7.752   4.550
 6456SOL     OW19391   0.039   8.525   4.024
 6456SOL    HW119392   0.138   8.514   4.015
 6456SOL    HW219393  -0.001   8.439   4.056
 6457SOL     OW19394   0.875   9.094   4.061
 6457SOL    HW119395   0.798   9.059   4.007
 6457SOL    HW219396   0.843   9.165   4.123
 6458SOL     OW19397   0.230   8.076   5.699
 6458SOL    HW119398   0.137   8.074   5.736
 6458SOL    HW219399   0.231   8.037   5.607
 6459SOL     OW19400   0.225   7.723   6.582
 6459SOL    HW119401   0.260   7.706   6.674
 6459SOL    HW219402   0.137   7.678   6.570
 6460SOL     OW19403   0.019   7.816   6.233
 6460SOL    HW119404  -0.063   7.859   6.272
 6460SOL    HW219405  -0.009   7.743   6.170
 6461SOL     OW19406   0.569   8.723   6.751
 6461SOL    HW119407   0.476   8.716   6.714
 6461SOL    HW219408   0.580   8.812   6.795
 6462SOL     OW19409   1.555   8.959   6.289
 6462SOL    HW119410   1.498   8.943   6.370
 6462SOL    HW219411   1.496   8.969   6.209
 6463SOL     OW19412   1.135   8.151   6.303
 6463SOL    HW119413   1.192   8.229   6.278
 6463SOL    HW219414   1.075   8.177   6.379
 6464SOL     OW19415   1.755   8.055   5.817
 6464SOL    HW119416   1.743   8.042   5.718
 6464SOL    HW219417   1.725   7.974   5.866
 6465SOL     OW19418   0.768   8.592   6.609
 6465SOL    HW119419   0.690   8.609   6.669
 6465SOL    HW219420   0.802   8.679   6.573
 6466SOL     OW19421   0.850   8.246   7.409
 6466SOL    HW119422   0.846   8.322   7.474
 6466SOL    HW219423   0.872   8.282   7.318
 6467SOL     OW19424   0.685   8.460   6.251
 6467SOL    HW119425   0.754   8.444   6.321
 6467SOL    HW219426   0.612   8.517   6.289
 6468SOL     OW19427   0.686   8.609   7.389
 6468SOL    HW119428   0.746   8.688   7.403
 6468SOL    HW219429   0.600   8.640   7.348
 6469SOL     OW19430   0.335   8.883   6.647
 6469SOL    HW119431   0.257   8.852   6.594
 6469SOL    HW219432   0.393   8.941   6.590
 6470SOL     OW19433   1.460   8.953   6.925
 6470SOL    HW119434   1.484   9.047   6.951
 6470SOL    HW219435   1.444   8.899   7.007
 6471SOL     OW19436   0.438   7.840   7.085
 6471SOL    HW119437   0.520   7.784   7.094
 6471SOL    HW219438   0.357   7.782   7.089
 6472SOL     OW19439   1.603   7.895   6.323
 6472SOL    HW119440   1.529   7.941   6.273
 6472SOL    HW219441   1.654   7.963   6.376
 6473SOL     OW19442   0.231   9.161   6.069
 6473SOL    HW119443   0.265   9.238   6.123
 6473SOL    HW219444   0.275   9.161   5.979
 6474SOL     OW19445   1.127   8.789   7.276
 6474SOL    HW119446   1.174   8.789   7.364
 6474SOL    HW219447   1.079   8.702   7.265
 6475SOL     OW19448   0.230   8.882   6.124
 6475SOL    HW119449   0.204   8.978   6.124
 6475SOL    HW219450   0.159   8.828   6.169
 6476SOL     OW19451   0.240   8.539   6.472
 6476SOL    HW119452   0.254   8.455   6.524
 6476SOL    HW219453   0.185   8.603   6.527
 6477SOL     OW19454   0.620   9.234   7.025
 6477SOL    HW119455   0.528   9.217   7.060
 6477SOL    HW219456   0.648   9.326   7.051
 6478SOL     OW19457   0.606   8.412   5.709
 6478SOL    HW119458   0.613   8.496   5.655
 6478SOL    HW219459   0.652   8.425   5.797
 6479SOL     OW19460   1.594   7.562   7.066
 6479SOL    HW119461   1.576   7.629   6.994
 6479SOL    HW219462   1.591   7.608   7.155
 6480SOL     OW19463   0.122   8.091   6.149
 6480SOL    HW119464   0.077   8.003   6.166
 6480SOL    HW219465   0.121   8.145   6.233
 6481SOL     OW19466   1.842   9.215   5.945
 6481SOL    HW119467   1.896   9.186   6.025
 6481SOL    HW219468   1.872   9.305   5.916
 6482SOL     OW19469   0.027   9.044   5.703
 6482SOL    HW119470   0.008   8.948   5.724
 6482SOL    HW219471  -0.006   9.102   5.778
 6483SOL     OW19472   1.689   8.370   6.198
 6483SOL    HW119473   1.784   8.341   6.206
 6483SOL    HW219474   1.681   8.435   6.123
 6484SOL     OW19475   1.641   8.556   6.018
 6484SOL    HW119476   1.727   8.558   5.966
 6484SOL    HW219477   1.655   8.603   6.106
 6485SOL     OW19478   0.613   8.813   6.312
 6485SOL    HW119479   0.564   8.726   6.321
 6485SOL    HW219480   0.590   8.856   6.225
 6486SOL     OW19481   1.293   8.676   7.009
 6486SOL    HW119482   1.330   8.603   6.951
 6486SOL    HW219483   1.345   8.681   7.094
 6487SOL     OW19484   0.809   7.452   6.088
 6487SOL    HW119485   0.849   7.543   6.079
 6487SOL    HW219486   0.709   7.460   6.094
 6488SOL     OW19487   0.197   8.424   6.850
 6488SOL    HW119488   0.286   8.379   6.836
 6488SOL    HW219489   0.124   8.359   6.831
 6489SOL     OW19490   1.525   8.447   5.776
 6489SOL    HW119491   1.462   8.371   5.789
 6489SOL    HW219492   1.573   8.465   5.862
 6490SOL     OW19493   1.187   9.240   7.202
 6490SOL    HW119494   1.211   9.300   7.126
 6490SOL    HW219495   1.194   9.145   7.172
 6491SOL     OW19496   0.317   7.699   7.387
 6491SOL    HW119497   0.388   7.770   7.393
 6491SOL    HW219498   0.229   7.738   7.415
 6492SOL     OW19499   1.466   8.865   6.539
 6492SOL    HW119500   1.407   8.871   6.619
 6492SOL    HW219501   1.451   8.777   6.493
 6493SOL     OW19502   1.667   9.162   6.158
 6493SOL    HW119503   1.626   9.139   6.070
 6493SOL    HW219504   1.649   9.088   6.223
 6494SOL     OW19505   0.598   8.177   5.856
 6494SOL    HW119506   0.622   8.246   5.788
 6494SOL    HW219507   0.520   8.210   5.910
 6495SOL     OW19508   1.281   7.793   6.530
 6495SOL    HW119509   1.195   7.743   6.517
 6495SOL    HW219510   1.343   7.739   6.586
 6496SOL     OW19511   1.576   9.110   5.893
 6496SOL    HW119512   1.665   9.156   5.896
 6496SOL    HW219513   1.555   9.086   5.798
 6497SOL     OW19514   0.807   8.053   7.051
 6497SOL    HW119515   0.760   8.050   7.140
 6497SOL    HW219516   0.756   7.998   6.985
 6498SOL     OW19517   1.394   7.917   7.260
 6498SOL    HW119518   1.374   7.960   7.348
 6498SOL    HW219519   1.472   7.855   7.269
 6499SOL     OW19520   0.973   8.338   7.158
 6499SOL    HW119521   1.019   8.254   7.129
 6499SOL    HW219522   0.917   8.372   7.083
 6500SOL     OW19523   0.991   7.858   6.828
 6500SOL    HW119524   0.914   7.892   6.882
 6500SOL    HW219525   0.957   7.807   6.749
 6501SOL     OW19526   1.041   8.149   6.015
 6501SOL    HW119527   1.067   8.145   6.111
 6501SOL    HW219528   0.956   8.098   6.001
 6502SOL     OW19529   0.076   8.259   6.375
 6502SOL    HW119530   0.175   8.247   6.384
 6502SOL    HW219531   0.052   8.354   6.396
 6503SOL     OW19532   0.130   9.269   7.157
 6503SOL    HW119533   0.120   9.254   7.256
 6503SOL    HW219534   0.044   9.305   7.121
 6504SOL     OW19535   0.865   7.796   5.781
 6504SOL    HW119536   0.924   7.859   5.732
 6504SOL    HW219537   0.884   7.702   5.752
 6505SOL     OW19538   1.719   8.033   7.417
 6505SOL    HW119539   1.693   8.122   7.381
 6505SOL    HW219540   1.717   7.965   7.344
 6506SOL     OW19541   1.362   8.592   6.131
 6506SOL    HW119542   1.445   8.563   6.083
 6506SOL    HW219543   1.313   8.659   6.075
 6507SOL     OW19544   0.550   7.644   6.471
 6507SOL    HW119545   0.545   7.639   6.571
 6507SOL    HW219546   0.552   7.740   6.442
 6508SOL     OW19547   1.008   8.904   6.063
 6508SOL    HW119548   0.962   8.976   6.011
 6508SOL    HW219549   1.004   8.924   6.161
 6509SOL     OW19550   0.351   9.249   6.439
 6509SOL    HW119551   0.401   9.163   6.445
 6509SOL    HW219552   0.416   9.326   6.436
 6510SOL     OW19553   1.795   8.514   6.459
 6510SOL    HW119554   1.733   8.499   6.383
 6510SOL    HW219555   1.743   8.525   6.544
 6511SOL     OW19556   1.227   8.998   7.092
 6511SOL    HW119557   1.233   8.921   7.156
 6511SOL    HW219558   1.175   8.972   7.012
 6512SOL     OW19559   0.321   8.391   5.828
 6512SOL    HW119560   0.403   8.430   5.786
 6512SOL    HW219561   0.294   8.309   5.779
 6513SOL     OW19562   1.458   8.183   6.314
 6513SOL    HW119563   1.453   8.118   6.389
 6513SOL    HW219564   1.538   8.242   6.327
 6514SOL     OW19565   0.461   8.714   7.313
 6514SOL    HW119566   0.411   8.715   7.227
 6514SOL    HW219567   0.398   8.696   7.389
 6515SOL     OW19568   1.111   9.224   5.823
 6515SOL    HW119569   1.051   9.162   5.873
 6515SOL    HW219570   1.142   9.180   5.738
 6516SOL     OW19571   0.202   7.733   7.084
 6516SOL    HW119572   0.122   7.793   7.071
 6516SOL    HW219573   0.192   7.684   7.170
 6517SOL     OW19574   1.632   8.825   5.667
 6517SOL    HW119575   1.600   8.919   5.657
 6517SOL    HW219576   1.556   8.762   5.655
 6518SOL     OW19577   0.464   9.191   5.909
 6518SOL    HW119578   0.497   9.230   5.995
 6518SOL    HW219579   0.540   9.184   5.844
 6519SOL     OW19580   1.400   7.555   6.012
 6519SOL    HW119581   1.376   7.518   5.922
 6519SOL    HW219582   1.499   7.571   6.016
 6520SOL     OW19583   0.249   9.233   6.827
 6520SOL    HW119584   0.306   9.168   6.877
 6520SOL    HW219585   0.233   9.200   6.734
 6521SOL     OW19586   0.940   9.146   6.490
 6521SOL    HW119587   1.020   9.089   6.511
 6521SOL    HW219588   0.891   9.106   6.413
 6522SOL     OW19589   0.382   8.148   6.066
 6522SOL    HW119590   0.427   8.058   6.063
 6522SOL    HW219591   0.288   8.137   6.099
 6523SOL     OW19592   1.547   7.670   7.315
 6523SOL    HW119593   1.542   7.707   7.407
 6523SOL    HW219594   1.475   7.601   7.303
 6524SOL     OW19595   0.614   7.570   5.703
 6524SOL    HW119596   0.712   7.548   5.710
 6524SOL    HW219597   0.583   7.553   5.610
 6525SOL     OW19598   0.781   7.712   7.335
 6525SOL    HW119599   0.848   7.651   7.378
 6525SOL    HW219600   0.708   7.731   7.400
 6526SOL     OW19601   0.888   8.962   6.781
 6526SOL    HW119602   0.865   8.937   6.687
 6526SOL    HW219603   0.949   8.893   6.820
 6527SOL     OW19604   1.351   8.038   7.019
 6527SOL    HW119605   1.379   7.995   7.104
 6527SOL    HW219606   1.376   8.134   7.020
 6528SOL     OW19607   0.803   8.850   6.510
 6528SOL    HW119608   0.893   8.864   6.468
 6528SOL    HW219609   0.732   8.852   6.439
 6529SOL     OW19610   0.922   7.951   6.485
 6529SOL    HW119611   0.897   7.942   6.389
 6529SOL    HW219612   0.970   7.869   6.516
 6530SOL     OW19613   0.539   7.512   6.098
 6530SOL    HW119614   0.458   7.513   6.156
 6530SOL    HW219615   0.542   7.595   6.043
 6531SOL     OW19616   1.434   8.636   5.627
 6531SOL    HW119617   1.466   8.560   5.684
 6531SOL    HW219618   1.342   8.663   5.657
 6532SOL     OW19619   0.297   7.483   5.757
 6532SOL    HW119620   0.346   7.567   5.736
 6532SOL    HW219621   0.359   7.418   5.802
 6533SOL     OW19622   0.935   7.684   6.066
 6533SOL    HW119623   0.887   7.725   5.988
 6533SOL    HW219624   1.034   7.682   6.047
 6534SOL     OW19625   1.076   8.131   7.050
 6534SOL    HW119626   0.996   8.070   7.053
 6534SOL    HW219627   1.157   8.078   7.026
 6535SOL     OW19628   1.227   9.018   6.379
 6535SOL    HW119629   1.248   9.092   6.314
 6535SOL    HW219630   1.295   9.018   6.452
 6536SOL     OW19631   0.459   8.600   6.327
 6536SOL    HW119632   0.388   8.573   6.392
 6536SOL    HW219633   0.433   8.572   6.234
 6537SOL     OW19634   1.271   9.245   6.177
 6537SOL    HW119635   1.315   9.309   6.113
 6537SOL    HW219636   1.221   9.297   6.247
 6538SOL     OW19637   1.032   7.997   5.602
 6538SOL    HW119638   0.991   8.079   5.563
 6538SOL    HW219639   1.096   8.023   5.675
 6539SOL     OW19640   0.078   8.004   6.972
 6539SOL    HW119641   0.170   8.003   6.931
 6539SOL    HW219642   0.072   8.078   7.039
 6540SOL     OW19643   0.561   7.670   6.733
 6540SOL    HW119644   0.599   7.586   6.770
 6540SOL    HW219645   0.473   7.689   6.777
 6541SOL     OW19646   0.866   7.902   6.228
 6541SOL    HW119647   0.834   7.974   6.166
 6541SOL    HW219648   0.890   7.821   6.175
 6542SOL     OW19649   1.017   7.487   6.339
 6542SOL    HW119650   0.945   7.492   6.270
 6542SOL    HW219651   0.993   7.418   6.408
 6543SOL     OW19652   1.429   8.621   6.453
 6543SOL    HW119653   1.374   8.537   6.446
 6543SOL    HW219654   1.455   8.650   6.361
 6544SOL     OW19655   1.466   8.038   6.578
 6544SOL    HW119656   1.436   7.943   6.585
 6544SOL    HW219657   1.539   8.054   6.644
 6545SOL     OW19658   1.857   8.281   5.963
 6545SOL    HW119659   1.899   8.217   6.027
 6545SOL    HW219660   1.819   8.230   5.885
 6546SOL     OW19661   0.488   8.833   5.760
 6546SOL    HW119662   0.401   8.818   5.807
 6546SOL    HW219663   0.471   8.859   5.665
 6547SOL     OW19664   1.664   8.728   6.243
 6547SOL    HW119665   1.763   8.736   6.257
 6547SOL    HW219666   1.619   8.812   6.274
 6548SOL     OW19667   1.390   8.023   5.664
 6548SOL    HW119668   1.336   8.002   5.745
 6548SOL    HW219669   1.481   7.982   5.673
 6549SOL     OW19670   0.527   7.704   5.914
 6549SOL    HW119671   0.554   7.645   5.839
 6549SOL    HW219672   0.527   7.799   5.883
 6550SOL     OW19673   1.754   8.671   7.174
 6550SOL    HW119674   1.845   8.632   7.161
 6550SOL    HW219675   1.762   8.767   7.198
 6551SOL     OW19676   1.064   8.795   6.926
 6551SOL    HW119677   0.984   8.772   6.981
 6551SOL    HW219678   1.147   8.769   6.975
 6552SOL     OW19679   1.592   9.077   7.211
 6552SOL    HW119680   1.619   9.111   7.121
 6552SOL    HW219681   1.671   9.039   7.257
 6553SOL     OW19682   1.111   8.643   6.686
 6553SOL    HW119683   1.071   8.687   6.767
 6553SOL    HW219684   1.070   8.680   6.603
 6554SOL     OW19685   1.638   8.547   6.665
 6554SOL    HW119686   1.643   8.628   6.724
 6554SOL    HW219687   1.552   8.549   6.614
 6555SOL     OW19688   0.915   7.537   6.988
 6555SOL    HW119689   0.940   7.517   6.893
 6555SOL    HW219690   0.987   7.593   7.030
 6556SOL     OW19691   0.980   8.564   7.305
 6556SOL    HW119692   0.881   8.570   7.315
 6556SOL    HW219693   1.003   8.484   7.249
 6557SOL     OW19694   0.705   8.498   5.954
 6557SOL    HW119695   0.691   8.505   6.053
 6557SOL    HW219696   0.789   8.447   5.936
 6558SOL     OW19697   0.410   8.261   6.837
 6558SOL    HW119698   0.496   8.273   6.887
 6558SOL    HW219699   0.368   8.174   6.864
 6559SOL     OW19700   1.274   7.834   6.848
 6559SOL    HW119701   1.295   7.908   6.912
 6559SOL    HW219702   1.185   7.851   6.805
 6560SOL     OW19703   0.064   9.012   6.917
 6560SOL    HW119704   0.018   9.094   6.883
 6560SOL    HW219705   0.162   9.031   6.926
 6561SOL     OW19706   0.367   8.548   6.087
 6561SOL    HW119707   0.360   8.631   6.031
 6561SOL    HW219708   0.371   8.468   6.027
 6562SOL     OW19709   0.566   7.985   6.451
 6562SOL    HW119710   0.578   8.051   6.377
 6562SOL    HW219711   0.612   8.019   6.534
 6563SOL     OW19712   1.252   8.796   5.974
 6563SOL    HW119713   1.302   8.873   6.014
 6563SOL    HW219714   1.157   8.798   6.006
 6564SOL     OW19715   1.272   8.893   6.728
 6564SOL    HW119716   1.319   8.906   6.815
 6564SOL    HW219717   1.206   8.819   6.737
 6565SOL     OW19718   1.582   8.087   6.058
 6565SOL    HW119719   1.551   8.148   6.131
 6565SOL    HW219720   1.632   8.139   5.989
 6566SOL     OW19721   0.354   8.958   6.915
 6566SOL    HW119722   0.333   8.914   6.828
 6566SOL    HW219723   0.451   8.984   6.918
 6567SOL     OW19724   0.402   8.199   7.184
 6567SOL    HW119725   0.470   8.254   7.137
 6567SOL    HW219726   0.442   8.111   7.211
 6568SOL     OW19727   1.587   8.227   7.256
 6568SOL    HW119728   1.495   8.265   7.251
 6568SOL    HW219729   1.647   8.274   7.191
 6569SOL     OW19730   1.013   7.553   7.356
 6569SOL    HW119731   1.019   7.638   7.304
 6569SOL    HW219732   1.045   7.477   7.299
 6570SOL     OW19733   0.504   7.498   7.326
 6570SOL    HW119734   0.462   7.441   7.256
 6570SOL    HW219735   0.438   7.567   7.358
 6571SOL     OW19736   0.573   8.318   6.615
 6571SOL    HW119737   0.617   8.407   6.606
 6571SOL    HW219738   0.510   8.318   6.692
 6572SOL     OW19739   1.360   8.310   6.631
 6572SOL    HW119740   1.285   8.310   6.565
 6572SOL    HW219741   1.397   8.218   6.640
 6573SOL     OW19742   1.209   7.973   5.861
 6573SOL    HW119743   1.222   7.889   5.915
 6573SOL    HW219744   1.180   8.047   5.921
 6574SOL     OW19745   0.307   7.661   6.817
 6574SOL    HW119746   0.284   7.698   6.907
 6574SOL    HW219747   0.277   7.566   6.811
 6575SOL     OW19748   0.037   8.758   6.868
 6575SOL    HW119749   0.090   8.709   6.936
 6575SOL    HW219750   0.059   8.856   6.873
 6576SOL     OW19751   0.732   8.082   6.650
 6576SOL    HW119752   0.791   8.056   6.574
 6576SOL    HW219753   0.704   8.178   6.639
 6577SOL     OW19754   1.728   8.383   7.440
 6577SOL    HW119755   1.682   8.376   7.351
 6577SOL    HW219756   1.666   8.427   7.506
 6578SOL     OW19757   0.307   7.511   6.204
 6578SOL    HW119758   0.296   7.605   6.237
 6578SOL    HW219759   0.302   7.448   6.281
 6579SOL     OW19760   1.622   7.815   5.960
 6579SOL    HW119761   1.624   7.739   6.024
 6579SOL    HW219762   1.574   7.892   6.000
 6580SOL     OW19763   1.023   8.214   6.552
 6580SOL    HW119764   1.038   8.235   6.648
 6580SOL    HW219765   0.993   8.119   6.543
 6581SOL     OW19766   0.980   9.021   7.286
 6581SOL    HW119767   0.960   9.065   7.198
 6581SOL    HW219768   1.019   8.930   7.270
 6582SOL     OW19769   1.859   8.966   7.191
 6582SOL    HW119770   1.873   8.993   7.096
 6582SOL    HW219771   1.942   8.988   7.244
 6583SOL     OW19772   0.350   8.346   7.390
 6583SOL    HW119773   0.426   8.390   7.438
 6583SOL    HW219774   0.385   8.299   7.308
 6584SOL     OW19775   1.540   7.722   5.711
 6584SOL    HW119776   1.479   7.647   5.734
 6584SOL    HW219777   1.562   7.774   5.794
 6585SOL     OW19778   1.303   8.286   5.628
 6585SOL    HW119779   1.337   8.193   5.643
 6585SOL    HW219780   1.321   8.313   5.533
 6586SOL     OW19781   1.068   8.781   6.435
 6586SOL    HW119782   1.075   8.697   6.380
 6586SOL    HW219783   1.130   8.850   6.399
 6587SOL     OW19784   0.319   8.258   6.535
 6587SOL    HW119785   0.412   8.294   6.540
 6587SOL    HW219786   0.313   8.173   6.587
 6588SOL     OW19787   0.339   7.957   6.592
 6588SOL    HW119788   0.287   7.874   6.575
 6588SOL    HW219789   0.416   7.962   6.528
 6589SOL     OW19790   1.138   7.828   7.264
 6589SOL    HW119791   1.093   7.891   7.328
 6589SOL    HW219792   1.231   7.859   7.247
 6590SOL     OW19793   1.160   7.655   7.063
 6590SOL    HW119794   1.160   7.719   7.140
 6590SOL    HW219795   1.188   7.703   6.980
 6591SOL     OW19796   0.008   8.774   5.786
 6591SOL    HW119797  -0.085   8.795   5.755
 6591SOL    HW219798   0.018   8.675   5.799
 6592SOL     OW19799   0.088   9.249   6.513
 6592SOL    HW119800   0.046   9.163   6.486
 6592SOL    HW219801   0.182   9.252   6.479
 6593SOL     OW19802   0.504   9.016   6.496
 6593SOL    HW119803   0.570   9.090   6.505
 6593SOL    HW219804   0.548   8.937   6.454
 6594SOL     OW19805   1.002   8.244   6.824
 6594SOL    HW119806   1.043   8.212   6.910
 6594SOL    HW219807   0.906   8.217   6.821
 6595SOL     OW19808   0.040   7.992   6.700
 6595SOL    HW119809   0.125   7.959   6.659
 6595SOL    HW219810   0.053   8.007   6.798
 6596SOL     OW19811   0.189   7.968   7.308
 6596SOL    HW119812   0.248   7.928   7.238
 6596SOL    HW219813   0.131   8.039   7.267
 6597SOL     OW19814   1.369   8.398   7.246
 6597SOL    HW119815   1.408   8.487   7.266
 6597SOL    HW219816   1.379   8.378   7.149
 6598SOL     OW19817   0.815   8.020   5.911
 6598SOL    HW119818   0.822   7.931   5.865
 6598SOL    HW219819   0.721   8.054   5.903
 6599SOL     OW19820   1.657   8.052   6.792
 6599SOL    HW119821   1.619   7.983   6.854
 6599SOL    HW219822   1.739   8.016   6.748
 6600SOL     OW19823   0.252   9.012   7.330
 6600SOL    HW119824   0.222   9.069   7.406
 6600SOL    HW219825   0.245   8.915   7.356
 6601SOL     OW19826   0.671   7.912   6.855
 6601SOL    HW119827   0.637   7.823   6.825
 6601SOL    HW219828   0.697   7.966   6.775
 6602SOL     OW19829   0.930   9.126   7.051
 6602SOL    HW119830   0.906   9.108   6.956
 6602SOL    HW219831   0.960   9.220   7.061
 6603SOL     OW19832   0.473   7.948   5.777
 6603SOL    HW119833   0.534   8.028   5.781
 6603SOL    HW219834   0.378   7.979   5.784
 6604SOL     OW19835   0.159   8.585   7.052
 6604SOL    HW119836   0.181   8.524   7.128
 6604SOL    HW219837   0.169   8.536   6.966
 6605SOL     OW19838   1.347   8.507   6.820
 6605SOL    HW119839   1.371   8.444   6.746
 6605SOL    HW219840   1.257   8.547   6.802
 6606SOL     OW19841   1.302   8.303   5.895
 6606SOL    HW119842   1.216   8.272   5.937
 6606SOL    HW219843   1.298   8.289   5.796
 6607SOL     OW19844   1.759   9.195   6.740
 6607SOL    HW119845   1.820   9.225   6.667
 6607SOL    HW219846   1.721   9.106   6.718
 6608SOL     OW19847   1.252   9.179   6.714
 6608SOL    HW119848   1.336   9.184   6.660
 6608SOL    HW219849   1.229   9.083   6.732
 6609SOL     OW19850   0.083   8.706   6.608
 6609SOL    HW119851   0.078   8.705   6.708
 6609SOL    HW219852   0.000   8.665   6.570
 6610SOL     OW19853   0.688   9.110   7.302
 6610SOL    HW119854   0.632   9.191   7.311
 6610SOL    HW219855   0.740   9.114   7.216
 6611SOL     OW19856   1.726   7.583   6.109
 6611SOL    HW119857   1.799   7.566   6.042
 6611SOL    HW219858   1.695   7.496   6.147
 6612SOL     OW19859   1.388   9.021   6.063
 6612SOL    HW119860   1.455   9.033   5.989
 6612SOL    HW219861   1.348   9.110   6.086
 6613SOL     OW19862   0.130   9.242   7.437
 6613SOL    HW119863   0.089   9.168   7.490
 6613SOL    HW219864   0.194   9.293   7.495
 6614SOL     OW19865   1.280   8.375   6.258
 6614SOL    HW119866   1.340   8.294   6.260
 6614SOL    HW219867   1.320   8.444   6.198
 6615SOL     OW19868   0.830   8.721   7.008
 6615SOL    HW119869   0.825   8.754   7.103
 6615SOL    HW219870   0.744   8.740   6.962
 6616SOL     OW19871   0.672   9.064   5.740
 6616SOL    HW119872   0.681   9.074   5.641
 6616SOL    HW219873   0.632   8.975   5.761
 6617SOL     OW19874   1.650   9.168   6.980
 6617SOL    HW119875   1.703   9.178   6.896
 6617SOL    HW219876   1.623   9.258   7.014
 6618SOL     OW19877   1.841   7.623   6.549
 6618SOL    HW119878   1.880   7.538   6.513
 6618SOL    HW219879   1.743   7.625   6.530
 6619SOL     OW19880   0.263   7.774   6.306
 6619SOL    HW119881   0.184   7.825   6.272
 6619SOL    HW219882   0.254   7.759   6.404
 6620SOL     OW19883   1.194   9.060   5.617
 6620SOL    HW119884   1.200   8.967   5.654
 6620SOL    HW219885   1.135   9.060   5.537
 6621SOL     OW19886   0.822   8.450   6.958
 6621SOL    HW119887   0.862   8.449   6.866
 6621SOL    HW219888   0.832   8.542   6.998
 6622SOL     OW19889   0.916   8.358   5.877
 6622SOL    HW119890   0.979   8.396   5.809
 6622SOL    HW219891   0.956   8.275   5.916
 6623SOL     OW19892   1.504   9.055   5.630
 6623SOL    HW119893   1.412   9.092   5.637
 6623SOL    HW219894   1.542   9.075   5.540
 6624SOL     OW19895   0.372   8.736   7.076
 6624SOL    HW119896   0.359   8.829   7.042
 6624SOL    HW219897   0.288   8.684   7.063
 6625SOL     OW19898   1.614   8.740   6.875
 6625SOL    HW119899   1.674   8.743   6.955
 6625SOL    HW219900   1.539   8.804   6.888
 6626SOL     OW19901   1.039   8.546   6.282
 6626SOL    HW119902   0.969   8.499   6.336
 6626SOL    HW219903   1.098   8.478   6.239
 6627SOL     OW19904   1.014   7.684   6.557
 6627SOL    HW119905   1.006   7.648   6.464
 6627SOL    HW219906   1.012   7.608   6.622
 6628SOL     OW19907   0.590   8.935   6.077
 6628SOL    HW119908   0.632   8.877   6.007
 6628SOL    HW219909   0.546   9.014   6.033
 6629SOL     OW19910   1.709   7.833   6.967
 6629SOL    HW119911   1.782   7.902   6.971
 6629SOL    HW219912   1.737   7.758   6.908
 6630SOL     OW19913   0.255   8.796   5.876
 6630SOL    HW119914   0.159   8.797   5.849
 6630SOL    HW219915   0.267   8.849   5.960
 6631SOL     OW19916   0.105   8.461   7.312
 6631SOL    HW119917   0.028   8.428   7.366
 6631SOL    HW219918   0.190   8.431   7.354
 6632SOL     OW19919   0.672   7.651   7.075
 6632SOL    HW119920   0.762   7.635   7.035
 6632SOL    HW219921   0.680   7.656   7.174
 6633SOL     OW19922   0.075   7.793   5.619
 6633SOL    HW119923  -0.017   7.765   5.590
 6633SOL    HW219924   0.106   7.870   5.563
 6634SOL     OW19925   1.440   8.304   6.984
 6634SOL    HW119926   1.383   8.356   6.921
 6634SOL    HW219927   1.536   8.316   6.960
 6635SOL     OW19928   0.072   7.614   5.904
 6635SOL    HW119929   0.055   7.697   5.850
 6635SOL    HW219930   0.162   7.577   5.882
 6636SOL     OW19931   1.183   8.783   5.705
 6636SOL    HW119932   1.084   8.772   5.707
 6636SOL    HW219933   1.217   8.798   5.798
 6637SOL     OW19934   0.613   8.290   7.017
 6637SOL    HW119935   0.669   8.371   7.000
 6637SOL    HW219936   0.672   8.210   7.020
 6638SOL     OW19937   1.493   9.215   6.545
 6638SOL    HW119938   1.526   9.279   6.476
 6638SOL    HW219939   1.559   9.209   6.620
 6639SOL     OW19940   0.716   8.013   7.294
 6639SOL    HW119941   0.735   8.078   7.368
 6639SOL    HW219942   0.776   7.933   7.303
 6640SOL     OW19943   1.450   8.668   7.219
 6640SOL    HW119944   1.441   8.658   7.318
 6640SOL    HW219945   1.546   8.661   7.193
 6641SOL     OW19946   0.390   9.189   7.146
 6641SOL    HW119947   0.299   9.230   7.144
 6641SOL    HW219948   0.383   9.095   7.178
 6642SOL     OW19949   1.674   8.331   6.840
 6642SOL    HW119950   1.647   8.242   6.803
 6642SOL    HW219951   1.675   8.399   6.767
 6643SOL     OW19952   1.225   7.773   6.035
 6643SOL    HW119953   1.290   7.699   6.024
 6643SOL    HW219954   1.245   7.823   6.119
 6644SOL     OW19955   0.594   8.193   6.238
 6644SOL    HW119956   0.644   8.278   6.219
 6644SOL    HW219957   0.506   8.195   6.190
 6645SOL     OW19958   1.777   7.790   7.228
 6645SOL    HW119959   1.760   7.821   7.134
 6645SOL    HW219960   1.693   7.753   7.266
 6646SOL     OW19961   1.730   8.382   7.103
 6646SOL    HW119962   1.768   8.473   7.118
 6646SOL    HW219963   1.722   8.365   7.004
 6647SOL     OW19964   0.859   8.822   5.602
 6647SOL    HW119965   0.813   8.837   5.690
 6647SOL    HW219966   0.903   8.907   5.572
 6648SOL     OW19967   0.661   9.238   6.539
 6648SOL    HW119968   0.615   9.326   6.526
 6648SOL    HW219969   0.760   9.250   6.532
 6649SOL     OW19970   0.859   8.404   6.447
 6649SOL    HW119971   0.913   8.335   6.495
 6649SOL    HW219972   0.827   8.473   6.513
 6650SOL     OW19973   1.083   8.432   5.673
 6650SOL    HW119974   1.060   8.485   5.591
 6650SOL    HW219975   1.164   8.376   5.654
 6651SOL     OW19976   1.861   9.017   6.437
 6651SOL    HW119977   1.790   9.005   6.367
 6651SOL    HW219978   1.862   8.938   6.497
 6652SOL     OW19979   0.221   8.762   7.430
 6652SOL    HW119980   0.156   8.689   7.409
 6652SOL    HW219981   0.225   8.776   7.528
 6653SOL     OW19982   0.079   8.688   6.239
 6653SOL    HW119983   0.078   8.641   6.327
 6653SOL    HW219984   0.161   8.660   6.188
 6654SOL     OW19985   0.672   8.839   7.210
 6654SOL    HW119986   0.594   8.789   7.248
 6654SOL    HW219987   0.669   8.934   7.241
 6655SOL     OW19988   1.824   7.640   6.813
 6655SOL    HW119989   1.820   7.550   6.857
 6655SOL    HW219990   1.827   7.629   6.714
 6656SOL     OW19991   0.428   7.872   6.106
 6656SOL    HW119992   0.458   7.800   6.044
 6656SOL    HW219993   0.389   7.832   6.189
 6657SOL     OW19994   1.705   8.935   6.690
 6657SOL    HW119995   1.612   8.910   6.663
 6657SOL    HW219996   1.731   8.885   6.772
 6658SOL     OW19997   0.317   7.995   6.866
 6658SOL    HW119998   0.355   7.936   6.938
 6658SOL    HW219999   0.357   7.969   6.778
 6659SOL     OW20000   0.812   9.034   6.273
 6659SOL    HW120001   0.844   9.044   6.179
 6659SOL    HW220002   0.733   8.972   6.275
 6660SOL     OW20003   1.424   7.662   6.698
 6660SOL    HW120004   1.476   7.597   6.753
 6660SOL    HW220005   1.375   7.725   6.759
 6661SOL     OW20006   1.001   7.482   6.740
 6661SOL    HW120007   0.938   7.410   6.709
 6661SOL    HW220008   1.094   7.446   6.740
 6662SOL     OW20009   0.770   8.778   5.887
 6662SOL    HW120010   0.724   8.691   5.904
 6662SOL    HW220011   0.861   8.775   5.928
 6663SOL     OW20012   0.618   9.015   6.870
 6663SOL    HW120013   0.613   9.097   6.927
 6663SOL    HW220014   0.707   9.012   6.825
 6664SOL     OW20015   1.352   7.500   5.754
 6664SOL    HW120016   1.387   7.459   5.670
 6664SOL    HW220017   1.262   7.462   5.774
 6665SOL     OW20018   1.300   7.901   6.277
 6665SOL    HW120019   1.241   7.981   6.281
 6665SOL    HW220020   1.315   7.866   6.370
 6666SOL     OW20021   1.593   7.669   6.468
 6666SOL    HW120022   1.509   7.668   6.522
 6666SOL    HW220023   1.595   7.752   6.412
 6667SOL     OW20024   0.039   8.525   5.886
 6667SOL    HW120025   0.138   8.514   5.877
 6667SOL    HW220026  -0.001   8.439   5.918
 6668SOL     OW20027   0.875   9.094   5.923
 6668SOL    HW120028   0.798   9.059   5.869
 6668SOL    HW220029   0.843   9.165   5.985
 6669SOL     OW20030   0.230   8.076   7.561
 6669SOL    HW120031   0.137   8.074   7.598
 6669SOL    HW220032   0.231   8.037   7.469
 6670SOL     OW20033   0.225   7.723   8.444
 6670SOL    HW120034   0.260   7.706   8.536
 6670SOL    HW220035   0.137   7.678   8.432
 6671SOL     OW20036   0.019   7.816   8.095
 6671SOL    HW120037  -0.063   7.859   8.134
 6671SOL    HW220038  -0.009   7.743   8.032
 6672SOL     OW20039   0.569   8.723   8.613
 6672SOL    HW120040   0.476   8.716   8.576
 6672SOL    HW220041   0.580   8.812   8.657
 6673SOL     OW20042   1.555   8.959   8.151
 6673SOL    HW120043   1.498   8.943   8.232
 6673SOL    HW220044   1.496   8.969   8.071
 6674SOL     OW20045   1.135   8.151   8.165
 6674SOL    HW120046   1.192   8.229   8.140
 6674SOL    HW220047   1.075   8.177   8.241
 6675SOL     OW20048   1.755   8.055   7.679
 6675SOL    HW120049   1.743   8.042   7.580
 6675SOL    HW220050   1.725   7.974   7.728
 6676SOL     OW20051   0.768   8.592   8.471
 6676SOL    HW120052   0.690   8.609   8.531
 6676SOL    HW220053   0.802   8.679   8.435
 6677SOL     OW20054   0.850   8.246   9.271
 6677SOL    HW120055   0.846   8.322   9.336
 6677SOL    HW220056   0.872   8.282   9.180
 6678SOL     OW20057   0.685   8.460   8.113
 6678SOL    HW120058   0.754   8.444   8.183
 6678SOL    HW220059   0.612   8.517   8.151
 6679SOL     OW20060   0.686   8.609   9.251
 6679SOL    HW120061   0.746   8.688   9.265
 6679SOL    HW220062   0.600   8.640   9.210
 6680SOL     OW20063   0.335   8.883   8.509
 6680SOL    HW120064   0.257   8.852   8.456
 6680SOL    HW220065   0.393   8.941   8.452
 6681SOL     OW20066   1.460   8.953   8.787
 6681SOL    HW120067   1.484   9.047   8.813
 6681SOL    HW220068   1.444   8.899   8.869
 6682SOL     OW20069   0.438   7.840   8.947
 6682SOL    HW120070   0.520   7.784   8.956
 6682SOL    HW220071   0.357   7.782   8.951
 6683SOL     OW20072   1.603   7.895   8.185
 6683SOL    HW120073   1.529   7.941   8.135
 6683SOL    HW220074   1.654   7.963   8.238
 6684SOL     OW20075   0.231   9.161   7.931
 6684SOL    HW120076   0.265   9.238   7.985
 6684SOL    HW220077   0.275   9.161   7.841
 6685SOL     OW20078   1.127   8.789   9.138
 6685SOL    HW120079   1.174   8.789   9.226
 6685SOL    HW220080   1.079   8.702   9.127
 6686SOL     OW20081   0.230   8.882   7.986
 6686SOL    HW120082   0.204   8.978   7.986
 6686SOL    HW220083   0.159   8.828   8.031
 6687SOL     OW20084   0.240   8.539   8.334
 6687SOL    HW120085   0.254   8.455   8.386
 6687SOL    HW220086   0.185   8.603   8.389
 6688SOL     OW20087   0.620   9.234   8.887
 6688SOL    HW120088   0.528   9.217   8.922
 6688SOL    HW220089   0.648   9.326   8.913
 6689SOL     OW20090   0.606   8.412   7.571
 6689SOL    HW120091   0.613   8.496   7.517
 6689SOL    HW220092   0.652   8.425   7.659
 6690SOL     OW20093   1.594   7.562   8.928
 6690SOL    HW120094   1.576   7.629   8.856
 6690SOL    HW220095   1.591   7.608   9.017
 6691SOL     OW20096   0.122   8.091   8.011
 6691SOL    HW120097   0.077   8.003   8.028
 6691SOL    HW220098   0.121   8.145   8.095
 6692SOL     OW20099   1.842   9.215   7.807
 6692SOL    HW120100   1.896   9.186   7.887
 6692SOL    HW220101   1.872   9.305   7.778
 6693SOL     OW20102   0.027   9.044   7.565
 6693SOL    HW120103   0.008   8.948   7.586
 6693SOL    HW220104  -0.006   9.102   7.640
 6694SOL     OW20105   1.689   8.370   8.060
 6694SOL    HW120106   1.784   8.341   8.068
 6694SOL    HW220107   1.681   8.435   7.985
 6695SOL     OW20108   1.641   8.556   7.880
 6695SOL    HW120109   1.727   8.558   7.828
 6695SOL    HW220110   1.655   8.603   7.968
 6696SOL     OW20111   0.113   8.185   9.045
 6696SOL    HW120112   0.201   8.172   9.090
 6696SOL    HW220113   0.100   8.282   9.023
 6697SOL     OW20114   0.613   8.813   8.174
 6697SOL    HW120115   0.564   8.726   8.183
 6697SOL    HW220116   0.590   8.856   8.087
 6698SOL     OW20117   1.293   8.676   8.871
 6698SOL    HW120118   1.330   8.603   8.813
 6698SOL    HW220119   1.345   8.681   8.956
 6699SOL     OW20120   0.809   7.452   7.950
 6699SOL    HW120121   0.849   7.543   7.941
 6699SOL    HW220122   0.709   7.460   7.956
 6700SOL     OW20123   0.197   8.424   8.712
 6700SOL    HW120124   0.286   8.379   8.698
 6700SOL    HW220125   0.124   8.359   8.693
 6701SOL     OW20126   1.525   8.447   7.638
 6701SOL    HW120127   1.462   8.371   7.651
 6701SOL    HW220128   1.573   8.465   7.724
 6702SOL     OW20129   1.187   9.240   9.064
 6702SOL    HW120130   1.211   9.300   8.988
 6702SOL    HW220131   1.194   9.145   9.034
 6703SOL     OW20132   0.317   7.699   9.249
 6703SOL    HW120133   0.388   7.770   9.255
 6703SOL    HW220134   0.229   7.738   9.277
 6704SOL     OW20135   1.466   8.865   8.401
 6704SOL    HW120136   1.407   8.871   8.481
 6704SOL    HW220137   1.451   8.777   8.355
 6705SOL     OW20138   1.667   9.162   8.020
 6705SOL    HW120139   1.626   9.139   7.932
 6705SOL    HW220140   1.649   9.088   8.085
 6706SOL     OW20141   0.598   8.177   7.718
 6706SOL    HW120142   0.622   8.246   7.650
 6706SOL    HW220143   0.520   8.210   7.772
 6707SOL     OW20144   1.281   7.793   8.392
 6707SOL    HW120145   1.195   7.743   8.379
 6707SOL    HW220146   1.343   7.739   8.448
 6708SOL     OW20147   1.576   9.110   7.755
 6708SOL    HW120148   1.665   9.156   7.758
 6708SOL    HW220149   1.555   9.086   7.660
 6709SOL     OW20150   0.807   8.053   8.913
 6709SOL    HW120151   0.760   8.050   9.002
 6709SOL    HW220152   0.756   7.998   8.847
 6710SOL     OW20153   1.394   7.917   9.122
 6710SOL    HW120154   1.374   7.960   9.210
 6710SOL    HW220155   1.472   7.855   9.131
 6711SOL     OW20156   0.973   8.338   9.020
 6711SOL    HW120157   1.019   8.254   8.991
 6711SOL    HW220158   0.917   8.372   8.945
 6712SOL     OW20159   0.991   7.858   8.690
 6712SOL    HW120160   0.914   7.892   8.744
 6712SOL    HW220161   0.957   7.807   8.611
 6713SOL     OW20162   1.041   8.149   7.877
 6713SOL    HW120163   1.067   8.145   7.973
 6713SOL    HW220164   0.956   8.098   7.863
 6714SOL     OW20165   0.076   8.259   8.237
 6714SOL    HW120166   0.175   8.247   8.246
 6714SOL    HW220167   0.052   8.354   8.258
 6715SOL     OW20168   0.130   9.269   9.019
 6715SOL    HW120169   0.120   9.254   9.118
 6715SOL    HW220170   0.044   9.305   8.983
 6716SOL     OW20171   0.865   7.796   7.643
 6716SOL    HW120172   0.924   7.859   7.594
 6716SOL    HW220173   0.884   7.702   7.614
 6717SOL     OW20174   1.719   8.033   9.279
 6717SOL    HW120175   1.693   8.122   9.243
 6717SOL    HW220176   1.717   7.965   9.206
 6718SOL     OW20177   1.362   8.592   7.993
 6718SOL    HW120178   1.445   8.563   7.945
 6718SOL    HW220179   1.313   8.659   7.937
 6719SOL     OW20180   0.550   7.644   8.333
 6719SOL    HW120181   0.545   7.639   8.433
 6719SOL    HW220182   0.552   7.740   8.304
 6720SOL     OW20183   1.008   8.904   7.925
 6720SOL    HW120184   0.962   8.976   7.873
 6720SOL    HW220185   1.004   8.924   8.023
 6721SOL     OW20186   0.351   9.249   8.301
 6721SOL    HW120187   0.401   9.163   8.307
 6721SOL    HW220188   0.416   9.326   8.298
 6722SOL     OW20189   1.795   8.514   8.321
 6722SOL    HW120190   1.733   8.499   8.245
 6722SOL    HW220191   1.743   8.525   8.406
 6723SOL     OW20192   1.227   8.998   8.954
 6723SOL    HW120193   1.233   8.921   9.018
 6723SOL    HW220194   1.175   8.972   8.874
 6724SOL     OW20195   0.321   8.391   7.690
 6724SOL    HW120196   0.403   8.430   7.648
 6724SOL    HW220197   0.294   8.309   7.641
 6725SOL     OW20198   1.458   8.183   8.176
 6725SOL    HW120199   1.453   8.118   8.251
 6725SOL    HW220200   1.538   8.242   8.189
 6726SOL     OW20201   0.461   8.714   9.175
 6726SOL    HW120202   0.411   8.715   9.089
 6726SOL    HW220203   0.398   8.696   9.251
 6727SOL     OW20204   1.111   9.224   7.685
 6727SOL    HW120205   1.051   9.162   7.735
 6727SOL    HW220206   1.142   9.180   7.600
 6728SOL     OW20207   0.202   7.733   8.946
 6728SOL    HW120208   0.122   7.793   8.933
 6728SOL    HW220209   0.192   7.684   9.032
 6729SOL     OW20210   1.632   8.825   7.529
 6729SOL    HW120211   1.600   8.919   7.519
 6729SOL    HW220212   1.556   8.762   7.517
 6730SOL     OW20213   0.464   9.191   7.771
 6730SOL    HW120214   0.497   9.230   7.857
 6730SOL    HW220215   0.540   9.184   7.706
 6731SOL     OW20216   1.400   7.555   7.874
 6731SOL    HW120217   1.376   7.518   7.784
 6731SOL    HW220218   1.499   7.571   7.878
 6732SOL     OW20219   0.249   9.233   8.689
 6732SOL    HW120220   0.306   9.168   8.739
 6732SOL    HW220221   0.233   9.200   8.596
 6733SOL     OW20222   0.940   9.146   8.352
 6733SOL    HW120223   1.020   9.089   8.373
 6733SOL    HW220224   0.891   9.106   8.275
 6734SOL     OW20225   0.382   8.148   7.928
 6734SOL    HW120226   0.427   8.058   7.925
 6734SOL    HW220227   0.288   8.137   7.961
 6735SOL     OW20228   1.547   7.670   9.177
 6735SOL    HW120229   1.542   7.707   9.269
 6735SOL    HW220230   1.475   7.601   9.165
 6736SOL     OW20231   0.614   7.570   7.565
 6736SOL    HW120232   0.712   7.548   7.572
 6736SOL    HW220233   0.583   7.553   7.472
 6737SOL     OW20234   0.781   7.712   9.197
 6737SOL    HW120235   0.848   7.651   9.240
 6737SOL    HW220236   0.708   7.731   9.262
 6738SOL     OW20237   0.888   8.962   8.643
 6738SOL    HW120238   0.865   8.937   8.549
 6738SOL    HW220239   0.949   8.893   8.682
 6739SOL     OW20240   1.351   8.038   8.881
 6739SOL    HW120241   1.379   7.995   8.966
 6739SOL    HW220242   1.376   8.134   8.882
 6740SOL     OW20243   0.803   8.850   8.372
 6740SOL    HW120244   0.893   8.864   8.330
 6740SOL    HW220245   0.732   8.852   8.301
 6741SOL     OW20246   0.922   7.951   8.347
 6741SOL    HW120247   0.897   7.942   8.251
 6741SOL    HW220248   0.970   7.869   8.378
 6742SOL     OW20249   0.539   7.512   7.960
 6742SOL    HW120250   0.458   7.513   8.018
 6742SOL    HW220251   0.542   7.595   7.905
 6743SOL     OW20252   1.434   8.636   7.489
 6743SOL    HW120253   1.466   8.560   7.546
 6743SOL    HW220254   1.342   8.663   7.519
 6744SOL     OW20255   0.297   7.483   7.619
 6744SOL    HW120256   0.346   7.567   7.598
 6744SOL    HW220257   0.359   7.418   7.664
 6745SOL     OW20258   0.935   7.684   7.928
 6745SOL    HW120259   0.887   7.725   7.850
 6745SOL    HW220260   1.034   7.682   7.909
 6746SOL     OW20261   1.076   8.131   8.912
 6746SOL    HW120262   0.996   8.070   8.915
 6746SOL    HW220263   1.157   8.078   8.888
 6747SOL     OW20264   1.227   9.018   8.241
 6747SOL    HW120265   1.248   9.092   8.176
 6747SOL    HW220266   1.295   9.018   8.314
 6748SOL     OW20267   0.459   8.600   8.189
 6748SOL    HW120268   0.388   8.573   8.254
 6748SOL    HW220269   0.433   8.572   8.096
 6749SOL     OW20270   1.271   9.245   8.039
 6749SOL    HW120271   1.315   9.309   7.975
 6749SOL    HW220272   1.221   9.297   8.109
 6750SOL     OW20273   1.032   7.997   7.464
 6750SOL    HW120274   0.991   8.079   7.425
 6750SOL    HW220275   1.096   8.023   7.537
 6751SOL     OW20276   0.078   8.004   8.834
 6751SOL    HW120277   0.170   8.003   8.793
 6751SOL    HW220278   0.072   8.078   8.901
 6752SOL     OW20279   0.561   7.670   8.595
 6752SOL    HW120280   0.599   7.586   8.632
 6752SOL    HW220281   0.473   7.689   8.639
 6753SOL     OW20282   0.866   7.902   8.090
 6753SOL    HW120283   0.834   7.974   8.028
 6753SOL    HW220284   0.890   7.821   8.037
 6754SOL     OW20285   1.017   7.487   8.201
 6754SOL    HW120286   0.945   7.492   8.132
 6754SOL    HW220287   0.993   7.418   8.270
 6755SOL     OW20288   1.429   8.621   8.315
 6755SOL    HW120289   1.374   8.537   8.308
 6755SOL    HW220290   1.455   8.650   8.223
 6756SOL     OW20291   1.466   8.038   8.440
 6756SOL    HW120292   1.436   7.943   8.447
 6756SOL    HW220293   1.539   8.054   8.506
 6757SOL     OW20294   1.857   8.281   7.825
 6757SOL    HW120295   1.899   8.217   7.889
 6757SOL    HW220296   1.819   8.230   7.747
 6758SOL     OW20297   0.488   8.833   7.622
 6758SOL    HW120298   0.401   8.818   7.669
 6758SOL    HW220299   0.471   8.859   7.527
 6759SOL     OW20300   1.664   8.728   8.105
 6759SOL    HW120301   1.763   8.736   8.119
 6759SOL    HW220302   1.619   8.812   8.136
 6760SOL     OW20303   1.390   8.023   7.526
 6760SOL    HW120304   1.336   8.002   7.607
 6760SOL    HW220305   1.481   7.982   7.535
 6761SOL     OW20306   0.527   7.704   7.776
 6761SOL    HW120307   0.554   7.645   7.701
 6761SOL    HW220308   0.527   7.799   7.745
 6762SOL     OW20309   1.754   8.671   9.036
 6762SOL    HW120310   1.845   8.632   9.023
 6762SOL    HW220311   1.762   8.767   9.060
 6763SOL     OW20312   1.064   8.795   8.788
 6763SOL    HW120313   0.984   8.772   8.843
 6763SOL    HW220314   1.147   8.769   8.837
 6764SOL     OW20315   1.592   9.077   9.073
 6764SOL    HW120316   1.619   9.111   8.983
 6764SOL    HW220317   1.671   9.039   9.119
 6765SOL     OW20318   1.111   8.643   8.548
 6765SOL    HW120319   1.071   8.687   8.629
 6765SOL    HW220320   1.070   8.680   8.465
 6766SOL     OW20321   1.638   8.547   8.527
 6766SOL    HW120322   1.643   8.628   8.586
 6766SOL    HW220323   1.552   8.549   8.476
 6767SOL     OW20324   0.915   7.537   8.850
 6767SOL    HW120325   0.940   7.517   8.755
 6767SOL    HW220326   0.987   7.593   8.892
 6768SOL     OW20327   0.980   8.564   9.167
 6768SOL    HW120328   0.881   8.570   9.177
 6768SOL    HW220329   1.003   8.484   9.111
 6769SOL     OW20330   0.705   8.498   7.816
 6769SOL    HW120331   0.691   8.505   7.915
 6769SOL    HW220332   0.789   8.447   7.798
 6770SOL     OW20333   0.410   8.261   8.699
 6770SOL    HW120334   0.496   8.273   8.749
 6770SOL    HW220335   0.368   8.174   8.726
 6771SOL     OW20336   1.274   7.834   8.710
 6771SOL    HW120337   1.295   7.908   8.774
 6771SOL    HW220338   1.185   7.851   8.667
 6772SOL     OW20339   0.064   9.012   8.779
 6772SOL    HW120340   0.018   9.094   8.745
 6772SOL    HW220341   0.162   9.031   8.788
 6773SOL     OW20342   0.367   8.548   7.949
 6773SOL    HW120343   0.360   8.631   7.893
 6773SOL    HW220344   0.371   8.468   7.889
 6774SOL     OW20345   0.566   7.985   8.313
 6774SOL    HW120346   0.578   8.051   8.239
 6774SOL    HW220347   0.612   8.019   8.396
 6775SOL     OW20348   1.252   8.796   7.836
 6775SOL    HW120349   1.302   8.873   7.876
 6775SOL    HW220350   1.157   8.798   7.868
 6776SOL     OW20351   1.272   8.893   8.590
 6776SOL    HW120352   1.319   8.906   8.677
 6776SOL    HW220353   1.206   8.819   8.599
 6777SOL     OW20354   1.582   8.087   7.920
 6777SOL    HW120355   1.551   8.148   7.993
 6777SOL    HW220356   1.632   8.139   7.851
 6778SOL     OW20357   0.354   8.958   8.777
 6778SOL    HW120358   0.333   8.914   8.690
 6778SOL    HW220359   0.451   8.984   8.780
 6779SOL     OW20360   0.402   8.199   9.046
 6779SOL    HW120361   0.470   8.254   8.999
 6779SOL    HW220362   0.442   8.111   9.073
 6780SOL     OW20363   1.587   8.227   9.118
 6780SOL    HW120364   1.495   8.265   9.113
 6780SOL    HW220365   1.647   8.274   9.053
 6781SOL     OW20366   1.013   7.553   9.218
 6781SOL    HW120367   1.019   7.638   9.166
 6781SOL    HW220368   1.045   7.477   9.161
 6782SOL     OW20369   0.504   7.498   9.188
 6782SOL    HW120370   0.462   7.441   9.118
 6782SOL    HW220371   0.438   7.567   9.220
 6783SOL     OW20372   0.573   8.318   8.477
 6783SOL    HW120373   0.617   8.407   8.468
 6783SOL    HW220374   0.510   8.318   8.554
 6784SOL     OW20375   1.360   8.310   8.493
 6784SOL    HW120376   1.285   8.310   8.427
 6784SOL    HW220377   1.397   8.218   8.502
 6785SOL     OW20378   1.209   7.973   7.723
 6785SOL    HW120379   1.222   7.889   7.777
 6785SOL    HW220380   1.180   8.047   7.783
 6786SOL     OW20381   0.307   7.661   8.679
 6786SOL    HW120382   0.284   7.698   8.769
 6786SOL    HW220383   0.277   7.566   8.673
 6787SOL     OW20384   0.037   8.758   8.730
 6787SOL    HW120385   0.090   8.709   8.798
 6787SOL    HW220386   0.059   8.856   8.735
 6788SOL     OW20387   0.732   8.082   8.512
 6788SOL    HW120388   0.791   8.056   8.436
 6788SOL    HW220389   0.704   8.178   8.501
 6789SOL     OW20390   1.728   8.383   9.302
 6789SOL    HW120391   1.682   8.376   9.213
 6789SOL    HW220392   1.666   8.427   9.368
 6790SOL     OW20393   0.307   7.511   8.066
 6790SOL    HW120394   0.296   7.605   8.099
 6790SOL    HW220395   0.302   7.448   8.143
 6791SOL     OW20396   1.622   7.815   7.822
 6791SOL    HW120397   1.624   7.739   7.886
 6791SOL    HW220398   1.574   7.892   7.862
 6792SOL     OW20399   1.023   8.214   8.414
 6792SOL    HW120400   1.038   8.235   8.510
 6792SOL    HW220401   0.993   8.119   8.405
 6793SOL     OW20402   0.980   9.021   9.148
 6793SOL    HW120403   0.960   9.065   9.060
 6793SOL    HW220404   1.019   8.930   9.132
 6794SOL     OW20405   1.859   8.966   9.053
 6794SOL    HW120406   1.873   8.993   8.958
 6794SOL    HW220407   1.942   8.988   9.106
 6795SOL     OW20408   0.350   8.346   9.252
 6795SOL    HW120409   0.426   8.390   9.300
 6795SOL    HW220410   0.385   8.299   9.170
 6796SOL     OW20411   1.540   7.722   7.573
 6796SOL    HW120412   1.479   7.647   7.596
 6796SOL    HW220413   1.562   7.774   7.656
 6797SOL     OW20414   1.303   8.286   7.490
 6797SOL    HW120415   1.337   8.193   7.505
 6797SOL    HW220416   1.321   8.313   7.395
 6798SOL     OW20417   1.068   8.781   8.297
 6798SOL    HW120418   1.075   8.697   8.242
 6798SOL    HW220419   1.130   8.850   8.261
 6799SOL     OW20420   0.319   8.258   8.397
 6799SOL    HW120421   0.412   8.294   8.402
 6799SOL    HW220422   0.313   8.173   8.449
 6800SOL     OW20423   0.339   7.957   8.454
 6800SOL    HW120424   0.287   7.874   8.437
 6800SOL    HW220425   0.416   7.962   8.390
 6801SOL     OW20426   1.138   7.828   9.126
 6801SOL    HW120427   1.093   7.891   9.190
 6801SOL    HW220428   1.231   7.859   9.109
 6802SOL     OW20429   1.160   7.655   8.925
 6802SOL    HW120430   1.160   7.719   9.002
 6802SOL    HW220431   1.188   7.703   8.842
 6803SOL     OW20432   0.008   8.774   7.648
 6803SOL    HW120433  -0.085   8.795   7.617
 6803SOL    HW220434   0.018   8.675   7.661
 6804SOL     OW20435   0.088   9.249   8.375
 6804SOL    HW120436   0.046   9.163   8.348
 6804SOL    HW220437   0.182   9.252   8.341
 6805SOL     OW20438   0.504   9.016   8.358
 6805SOL    HW120439   0.570   9.090   8.367
 6805SOL    HW220440   0.548   8.937   8.316
 6806SOL     OW20441   1.002   8.244   8.686
 6806SOL    HW120442   1.043   8.212   8.772
 6806SOL    HW220443   0.906   8.217   8.683
 6807SOL     OW20444   0.040   7.992   8.562
 6807SOL    HW120445   0.125   7.959   8.521
 6807SOL    HW220446   0.053   8.007   8.660
 6808SOL     OW20447   0.189   7.968   9.170
 6808SOL    HW120448   0.248   7.928   9.100
 6808SOL    HW220449   0.131   8.039   9.129
 6809SOL     OW20450   1.369   8.398   9.108
 6809SOL    HW120451   1.408   8.487   9.128
 6809SOL    HW220452   1.379   8.378   9.011
 6810SOL     OW20453   0.815   8.020   7.773
 6810SOL    HW120454   0.822   7.931   7.727
 6810SOL    HW220455   0.721   8.054   7.765
 6811SOL     OW20456   1.657   8.052   8.654
 6811SOL    HW120457   1.619   7.983   8.716
 6811SOL    HW220458   1.739   8.016   8.610
 6812SOL     OW20459   0.252   9.012   9.192
 6812SOL    HW120460   0.222   9.069   9.268
 6812SOL    HW220461   0.245   8.915   9.218
 6813SOL     OW20462   0.671   7.912   8.717
 6813SOL    HW120463   0.637   7.823   8.687
 6813SOL    HW220464   0.697   7.966   8.637
 6814SOL     OW20465   0.930   9.126   8.913
 6814SOL    HW120466   0.906   9.108   8.818
 6814SOL    HW220467   0.960   9.220   8.923
 6815SOL     OW20468   0.473   7.948   7.639
 6815SOL    HW120469   0.534   8.028   7.643
 6815SOL    HW220470   0.378   7.979   7.646
 6816SOL     OW20471   0.159   8.585   8.914
 6816SOL    HW120472   0.181   8.524   8.990
 6816SOL    HW220473   0.169   8.536   8.828
 6817SOL     OW20474   1.347   8.507   8.682
 6817SOL    HW120475   1.371   8.444   8.608
 6817SOL    HW220476   1.257   8.547   8.664
 6818SOL     OW20477   1.302   8.303   7.757
 6818SOL    HW120478   1.216   8.272   7.799
 6818SOL    HW220479   1.298   8.289   7.658
 6819SOL     OW20480   1.759   9.195   8.602
 6819SOL    HW120481   1.820   9.225   8.529
 6819SOL    HW220482   1.721   9.106   8.580
 6820SOL     OW20483   1.252   9.179   8.576
 6820SOL    HW120484   1.336   9.184   8.522
 6820SOL    HW220485   1.229   9.083   8.594
 6821SOL     OW20486   0.083   8.706   8.470
 6821SOL    HW120487   0.078   8.705   8.570
 6821SOL    HW220488   0.000   8.665   8.432
 6822SOL     OW20489   0.688   9.110   9.164
 6822SOL    HW120490   0.632   9.191   9.173
 6822SOL    HW220491   0.740   9.114   9.078
 6823SOL     OW20492   1.726   7.583   7.971
 6823SOL    HW120493   1.799   7.566   7.904
 6823SOL    HW220494   1.695   7.496   8.009
 6824SOL     OW20495   1.388   9.021   7.925
 6824SOL    HW120496   1.455   9.033   7.851
 6824SOL    HW220497   1.348   9.110   7.948
 6825SOL     OW20498   0.130   9.242   9.299
 6825SOL    HW120499   0.089   9.168   9.352
 6825SOL    HW220500   0.194   9.293   9.357
 6826SOL     OW20501   1.280   8.375   8.120
 6826SOL    HW120502   1.340   8.294   8.122
 6826SOL    HW220503   1.320   8.444   8.060
 6827SOL     OW20504   0.830   8.721   8.870
 6827SOL    HW120505   0.825   8.754   8.965
 6827SOL    HW220506   0.744   8.740   8.824
 6828SOL     OW20507   0.672   9.064   7.602
 6828SOL    HW120508   0.681   9.074   7.503
 6828SOL    HW220509   0.632   8.975   7.623
 6829SOL     OW20510   1.650   9.168   8.842
 6829SOL    HW120511   1.703   9.178   8.758
 6829SOL    HW220512   1.623   9.258   8.876
 6830SOL     OW20513   1.841   7.623   8.411
 6830SOL    HW120514   1.880   7.538   8.375
 6830SOL    HW220515   1.743   7.625   8.392
 6831SOL     OW20516   0.263   7.774   8.168
 6831SOL    HW120517   0.184   7.825   8.134
 6831SOL    HW220518   0.254   7.759   8.266
 6832SOL     OW20519   1.194   9.060   7.479
 6832SOL    HW120520   1.200   8.967   7.516
 6832SOL    HW220521   1.135   9.060   7.399
 6833SOL     OW20522   0.822   8.450   8.820
 6833SOL    HW120523   0.862   8.449   8.728
 6833SOL    HW220524   0.832   8.542   8.860
 6834SOL     OW20525   0.916   8.358   7.739
 6834SOL    HW120526   0.979   8.396   7.671
 6834SOL    HW220527   0.956   8.275   7.778
 6835SOL     OW20528   1.504   9.055   7.492
 6835SOL    HW120529   1.412   9.092   7.499
 6835SOL    HW220530   1.542   9.075   7.402
 6836SOL     OW20531   0.372   8.736   8.938
 6836SOL    HW120532   0.359   8.829   8.904
 6836SOL    HW220533   0.288   8.684   8.925
 6837SOL     OW20534   1.614   8.740   8.737
 6837SOL    HW120535   1.674   8.743   8.817
 6837SOL    HW220536   1.539   8.804   8.750
 6838SOL     OW20537   1.039   8.546   8.144
 6838SOL    HW120538   0.969   8.499   8.198
 6838SOL    HW220539   1.098   8.478   8.101
 6839SOL     OW20540   1.014   7.684   8.419
 6839SOL    HW120541   1.006   7.648   8.326
 6839SOL    HW220542   1.012   7.608   8.484
 6840SOL     OW20543   0.590   8.935   7.939
 6840SOL    HW120544   0.632   8.877   7.869
 6840SOL    HW220545   0.546   9.014   7.895
 6841SOL     OW20546   1.709   7.833   8.829
 6841SOL    HW120547   1.782   7.902   8.833
 6841SOL    HW220548   1.737   7.758   8.770
 6842SOL     OW20549   0.255   8.796   7.738
 6842SOL    HW120550   0.159   8.797   7.711
 6842SOL    HW220551   0.267   8.849   7.822
 6843SOL     OW20552   0.105   8.461   9.174
 6843SOL    HW120553   0.028   8.428   9.228
 6843SOL    HW220554   0.190   8.431   9.216
 6844SOL     OW20555   0.672   7.651   8.937
 6844SOL    HW120556   0.762   7.635   8.897
 6844SOL    HW220557   0.680   7.656   9.036
 6845SOL     OW20558   0.075   7.793   7.481
 6845SOL    HW120559  -0.017   7.765   7.452
 6845SOL    HW220560   0.106   7.870   7.425
 6846SOL     OW20561   1.440   8.304   8.846
 6846SOL    HW120562   1.383   8.356   8.783
 6846SOL    HW220563   1.536   8.316   8.822
 6847SOL     OW20564   0.072   7.614   7.766
 6847SOL    HW120565   0.055   7.697   7.712
 6847SOL    HW220566   0.162   7.577   7.744
 6848SOL     OW20567   1.183   8.783   7.567
 6848SOL    HW120568   1.084   8.772   7.569
 6848SOL    HW220569   1.217   8.798   7.660
 6849SOL     OW20570   0.613   8.290   8.879
 6849SOL    HW120571   0.669   8.371   8.862
 6849SOL    HW220572   0.672   8.210   8.882
 6850SOL     OW20573   1.493   9.215   8.407
 6850SOL    HW120574   1.526   9.279   8.338
 6850SOL    HW220575   1.559   9.209   8.482
 6851SOL     OW20576   0.716   8.013   9.156
 6851SOL    HW120577   0.735   8.078   9.230
 6851SOL    HW220578   0.776   7.933   9.165
 6852SOL     OW20579   1.450   8.668   9.081
 6852SOL    HW120580   1.441   8.658   9.180
 6852SOL    HW220581   1.546   8.661   9.055
 6853SOL     OW20582   0.390   9.189   9.008
 6853SOL    HW120583   0.299   9.230   9.006
 6853SOL    HW220584   0.383   9.095   9.040
 6854SOL     OW20585   1.674   8.331   8.702
 6854SOL    HW120586   1.647   8.242   8.665
 6854SOL    HW220587   1.675   8.399   8.629
 6855SOL     OW20588   1.225   7.773   7.897
 6855SOL    HW120589   1.290   7.699   7.886
 6855SOL    HW220590   1.245   7.823   7.981
 6856SOL     OW20591   0.594   8.193   8.100
 6856SOL    HW120592   0.644   8.278   8.081
 6856SOL    HW220593   0.506   8.195   8.052
 6857SOL     OW20594   1.777   7.790   9.090
 6857SOL    HW120595   1.760   7.821   8.996
 6857SOL    HW220596   1.693   7.753   9.128
 6858SOL     OW20597   1.730   8.382   8.965
 6858SOL    HW120598   1.768   8.473   8.980
 6858SOL    HW220599   1.722   8.365   8.866
 6859SOL     OW20600   0.859   8.822   7.464
 6859SOL    HW120601   0.813   8.837   7.552
 6859SOL    HW220602   0.903   8.907   7.434
 6860SOL     OW20603   0.661   9.238   8.401
 6860SOL    HW120604   0.615   9.326   8.388
 6860SOL    HW220605   0.760   9.250   8.394
 6861SOL     OW20606   0.859   8.404   8.309
 6861SOL    HW120607   0.913   8.335   8.357
 6861SOL    HW220608   0.827   8.473   8.375
 6862SOL     OW20609   1.083   8.432   7.535
 6862SOL    HW120610   1.060   8.485   7.453
 6862SOL    HW220611   1.164   8.376   7.516
 6863SOL     OW20612   1.861   9.017   8.299
 6863SOL    HW120613   1.790   9.005   8.229
 6863SOL    HW220614   1.862   8.938   8.359
 6864SOL     OW20615   0.221   8.762   9.292
 6864SOL    HW120616   0.156   8.689   9.271
 6864SOL    HW220617   0.225   8.776   9.390
 6865SOL     OW20618   0.079   8.688   8.101
 6865SOL    HW120619   0.078   8.641   8.189
 6865SOL    HW220620   0.161   8.660   8.050
 6866SOL     OW20621   0.672   8.839   9.072
 6866SOL    HW120622   0.594   8.789   9.110
 6866SOL    HW220623   0.669   8.934   9.103
 6867SOL     OW20624   1.824   7.640   8.675
 6867SOL    HW120625   1.820   7.550   8.719
 6867SOL    HW220626   1.827   7.629   8.576
 6868SOL     OW20627   0.428   7.872   7.968
 6868SOL    HW120628   0.458   7.800   7.906
 6868SOL    HW220629   0.389   7.832   8.051
 6869SOL     OW20630   1.705   8.935   8.552
 6869SOL    HW120631   1.612   8.910   8.525
 6869SOL    HW220632   1.731   8.885   8.634
 6870SOL     OW20633   0.317   7.995   8.728
 6870SOL    HW120634   0.355   7.936   8.800
 6870SOL    HW220635   0.357   7.969   8.640
 6871SOL     OW20636   0.812   9.034   8.135
 6871SOL    HW120637   0.844   9.044   8.041
 6871SOL    HW220638   0.733   8.972   8.137
 6872SOL     OW20639   1.424   7.662   8.560
 6872SOL    HW120640   1.476   7.597   8.615
 6872SOL    HW220641   1.375   7.725   8.621
 6873SOL     OW20642   1.001   7.482   8.602
 6873SOL    HW120643   0.938   7.410   8.571
 6873SOL    HW220644   1.094   7.446   8.602
 6874SOL     OW20645   0.770   8.778   7.749
 6874SOL    HW120646   0.724   8.691   7.766
 6874SOL    HW220647   0.861   8.775   7.790
 6875SOL     OW20648   0.618   9.015   8.732
 6875SOL    HW120649   0.613   9.097   8.789
 6875SOL    HW220650   0.707   9.012   8.687
 6876SOL     OW20651   1.352   7.500   7.616
 6876SOL    HW120652   1.387   7.459   7.532
 6876SOL    HW220653   1.262   7.462   7.636
 6877SOL     OW20654   1.300   7.901   8.139
 6877SOL    HW120655   1.241   7.981   8.143
 6877SOL    HW220656   1.315   7.866   8.232
 6878SOL     OW20657   1.593   7.669   8.330
 6878SOL    HW120658   1.509   7.668   8.384
 6878SOL    HW220659   1.595   7.752   8.274
 6879SOL     OW20660   0.039   8.525   7.748
 6879SOL    HW120661   0.138   8.514   7.739
 6879SOL    HW220662  -0.001   8.439   7.780
 6880SOL     OW20663   0.875   9.094   7.785
 6880SOL    HW120664   0.798   9.059   7.731
 6880SOL    HW220665   0.843   9.165   7.847
 6881SOL     OW20666   0.230   8.076   9.423
 6881SOL    HW120667   0.137   8.074   9.460
 6881SOL    HW220668   0.231   8.037   9.331
 6882SOL     OW20669   0.225   7.723  10.306
 6882SOL    HW120670   0.260   7.706  10.398
 6882SOL    HW220671   0.137   7.678  10.294
 6883SOL     OW20672   0.019   7.816   9.957
 6883SOL    HW120673  -0.063   7.859   9.996
 6883SOL    HW220674  -0.009   7.743   9.894
 6884SOL     OW20675   0.569   8.723  10.475
 6884SOL    HW120676   0.476   8.716  10.438
 6884SOL    HW220677   0.580   8.812  10.519
 6885SOL     OW20678   1.555   8.959  10.013
 6885SOL    HW120679   1.498   8.943  10.094
 6885SOL    HW220680   1.496   8.969   9.933
 6886SOL     OW20681   1.135   8.151  10.027
 6886SOL    HW120682   1.192   8.229  10.002
 6886SOL    HW220683   1.075   8.177  10.103
 6887SOL     OW20684   1.755   8.055   9.541
 6887SOL    HW120685   1.743   8.042   9.442
 6887SOL    HW220686   1.725   7.974   9.590
 6888SOL     OW20687   0.768   8.592  10.333
 6888SOL    HW120688   0.690   8.609  10.393
 6888SOL    HW220689   0.802   8.679  10.297
 6889SOL     OW20690   0.850   8.246  11.133
 6889SOL    HW120691   0.846   8.322  11.198
 6889SOL    HW220692   0.872   8.282  11.042
 6890SOL     OW20693   0.685   8.460   9.975
 6890SOL    HW120694   0.754   8.444  10.045
 6890SOL    HW220695   0.612   8.517  10.013
 6891SOL     OW20696   0.686   8.609  11.113
 6891SOL    HW120697   0.746   8.688  11.127
 6891SOL    HW220698   0.600   8.640  11.072
 6892SOL     OW20699   0.335   8.883  10.371
 6892SOL    HW120700   0.257   8.852  10.318
 6892SOL    HW220701   0.393   8.941  10.314
 6893SOL     OW20702   1.460   8.953  10.649
 6893SOL    HW120703   1.484   9.047  10.675
 6893SOL    HW220704   1.444   8.899  10.731
 6894SOL     OW20705   0.438   7.840  10.809
 6894SOL    HW120706   0.520   7.784  10.818
 6894SOL    HW220707   0.357   7.782  10.813
 6895SOL     OW20708   1.603   7.895  10.047
 6895SOL    HW120709   1.529   7.941   9.997
 6895SOL    HW220710   1.654   7.963  10.100
 6896SOL     OW20711   0.231   9.161   9.793
 6896SOL    HW120712   0.265   9.238   9.847
 6896SOL    HW220713   0.275   9.161   9.703
 6897SOL     OW20714   1.127   8.789  11.000
 6897SOL    HW120715   1.174   8.789  11.088
 6897SOL    HW220716   1.079   8.702  10.989
 6898SOL     OW20717   0.230   8.882   9.848
 6898SOL    HW120718   0.204   8.978   9.848
 6898SOL    HW220719   0.159   8.828   9.893
 6899SOL     OW20720   0.240   8.539  10.196
 6899SOL    HW120721   0.254   8.455  10.248
 6899SOL    HW220722   0.185   8.603  10.251
 6900SOL     OW20723   0.620   9.234  10.749
 6900SOL    HW120724   0.528   9.217  10.784
 6900SOL    HW220725   0.648   9.326  10.775
 6901SOL     OW20726   0.606   8.412   9.433
 6901SOL    HW120727   0.613   8.496   9.379
 6901SOL    HW220728   0.652   8.425   9.521
 6902SOL     OW20729   1.594   7.562  10.790
 6902SOL    HW120730   1.576   7.629  10.718
 6902SOL    HW220731   1.591   7.608  10.879
 6903SOL     OW20732   0.122   8.091   9.873
 6903SOL    HW120733   0.077   8.003   9.890
 6903SOL    HW220734   0.121   8.145   9.957
 6904SOL     OW20735   1.842   9.215   9.669
 6904SOL    HW120736   1.896   9.186   9.749
 6904SOL    HW220737   1.872   9.305   9.640
 6905SOL     OW20738   0.027   9.044   9.427
 6905SOL    HW120739   0.008   8.948   9.448
 6905SOL    HW220740  -0.006   9.102   9.502
 6906SOL     OW20741   1.689   8.370   9.922
 6906SOL    HW120742   1.784   8.341   9.930
 6906SOL    HW220743   1.681   8.435   9.847
 6907SOL     OW20744   1.641   8.556   9.742
 6907SOL    HW120745   1.727   8.558   9.690
 6907SOL    HW220746   1.655   8.603   9.830
 6908SOL     OW20747   0.113   8.185  10.907
 6908SOL    HW120748   0.201   8.172  10.952
 6908SOL    HW220749   0.100   8.282  10.885
 6909SOL     OW20750   0.613   8.813  10.036
 6909SOL    HW120751   0.564   8.726  10.045
 6909SOL    HW220752   0.590   8.856   9.949
 6910SOL     OW20753   1.293   8.676  10.733
 6910SOL    HW120754   1.330   8.603  10.675
 6910SOL    HW220755   1.345   8.681  10.818
 6911SOL     OW20756   0.809   7.452   9.812
 6911SOL    HW120757   0.849   7.543   9.803
 6911SOL    HW220758   0.709   7.460   9.818
 6912SOL     OW20759   0.197   8.424  10.574
 6912SOL    HW120760   0.286   8.379  10.560
 6912SOL    HW220761   0.124   8.359  10.555
 6913SOL     OW20762   1.525   8.447   9.500
 6913SOL    HW120763   1.462   8.371   9.513
 6913SOL    HW220764   1.573   8.465   9.586
 6914SOL     OW20765   1.187   9.240  10.926
 6914SOL    HW120766   1.211   9.300  10.850
 6914SOL    HW220767   1.194   9.145  10.896
 6915SOL     OW20768   0.317   7.699  11.111
 6915SOL    HW120769   0.388   7.770  11.117
 6915SOL    HW220770   0.229   7.738  11.139
 6916SOL     OW20771   1.466   8.865  10.263
 6916SOL    HW120772   1.407   8.871  10.343
 6916SOL    HW220773   1.451   8.777  10.217
 6917SOL     OW20774   1.667   9.162   9.882
 6917SOL    HW120775   1.626   9.139   9.794
 6917SOL    HW220776   1.649   9.088   9.947
 6918SOL     OW20777   0.598   8.177   9.580
 6918SOL    HW120778   0.622   8.246   9.512
 6918SOL    HW220779   0.520   8.210   9.634
 6919SOL     OW20780   1.281   7.793  10.254
 6919SOL    HW120781   1.195   7.743  10.241
 6919SOL    HW220782   1.343   7.739  10.310
 6920SOL     OW20783   1.576   9.110   9.617
 6920SOL    HW120784   1.665   9.156   9.620
 6920SOL    HW220785   1.555   9.086   9.522
 6921SOL     OW20786   0.807   8.053  10.775
 6921SOL    HW120787   0.760   8.050  10.864
 6921SOL    HW220788   0.756   7.998  10.709
 6922SOL     OW20789   1.394   7.917  10.984
 6922SOL    HW120790   1.374   7.960  11.072
 6922SOL    HW220791   1.472   7.855  10.993
 6923SOL     OW20792   0.973   8.338  10.882
 6923SOL    HW120793   1.019   8.254  10.853
 6923SOL    HW220794   0.917   8.372  10.807
 6924SOL     OW20795   0.991   7.858  10.552
 6924SOL    HW120796   0.914   7.892  10.606
 6924SOL    HW220797   0.957   7.807  10.473
 6925SOL     OW20798   1.041   8.149   9.739
 6925SOL    HW120799   1.067   8.145   9.835
 6925SOL    HW220800   0.956   8.098   9.725
 6926SOL     OW20801   0.076   8.259  10.099
 6926SOL    HW120802   0.175   8.247  10.108
 6926SOL    HW220803   0.052   8.354  10.120
 6927SOL     OW20804   0.130   9.269  10.881
 6927SOL    HW120805   0.120   9.254  10.980
 6927SOL    HW220806   0.044   9.305  10.845
 6928SOL     OW20807   0.865   7.796   9.505
 6928SOL    HW120808   0.924   7.859   9.456
 6928SOL    HW220809   0.884   7.702   9.476
 6929SOL     OW20810   1.719   8.033  11.141
 6929SOL    HW120811   1.693   8.122  11.105
 6929SOL    HW220812   1.717   7.965  11.068
 6930SOL     OW20813   1.362   8.592   9.855
 6930SOL    HW120814   1.445   8.563   9.807
 6930SOL    HW220815   1.313   8.659   9.799
 6931SOL     OW20816   0.550   7.644  10.195
 6931SOL    HW120817   0.545   7.639  10.295
 6931SOL    HW220818   0.552   7.740  10.166
 6932SOL     OW20819   1.008   8.904   9.787
 6932SOL    HW120820   0.962   8.976   9.735
 6932SOL    HW220821   1.004   8.924   9.885
 6933SOL     OW20822   0.351   9.249  10.163
 6933SOL    HW120823   0.401   9.163  10.169
 6933SOL    HW220824   0.416   9.326  10.160
 6934SOL     OW20825   1.795   8.514  10.183
 6934SOL    HW120826   1.733   8.499  10.107
 6934SOL    HW220827   1.743   8.525  10.268
 6935SOL     OW20828   1.227   8.998  10.816
 6935SOL    HW120829   1.233   8.921  10.880
 6935SOL    HW220830   1.175   8.972  10.736
 6936SOL     OW20831   0.321   8.391   9.552
 6936SOL    HW120832   0.403   8.430   9.510
 6936SOL    HW220833   0.294   8.309   9.503
 6937SOL     OW20834   1.458   8.183  10.038
 6937SOL    HW120835   1.453   8.118  10.113
 6937SOL    HW220836   1.538   8.242  10.051
 6938SOL     OW20837   0.461   8.714  11.037
 6938SOL    HW120838   0.411   8.715  10.951
 6938SOL    HW220839   0.398   8.696  11.113
 6939SOL     OW20840   1.111   9.224   9.547
 6939SOL    HW120841   1.051   9.162   9.597
 6939SOL    HW220842   1.142   9.180   9.462
 6940SOL     OW20843   0.202   7.733  10.808
 6940SOL    HW120844   0.122   7.793  10.795
 6940SOL    HW220845   0.192   7.684  10.894
 6941SOL     OW20846   1.632   8.825   9.391
 6941SOL    HW120847   1.600   8.919   9.381
 6941SOL    HW220848   1.556   8.762   9.379
 6942SOL     OW20849   0.464   9.191   9.633
 6942SOL    HW120850   0.497   9.230   9.719
 6942SOL    HW220851   0.540   9.184   9.568
 6943SOL     OW20852   1.400   7.555   9.736
 6943SOL    HW120853   1.376   7.518   9.646
 6943SOL    HW220854   1.499   7.571   9.740
 6944SOL     OW20855   0.249   9.233  10.551
 6944SOL    HW120856   0.306   9.168  10.601
 6944SOL    HW220857   0.233   9.200  10.458
 6945SOL     OW20858   0.940   9.146  10.214
 6945SOL    HW120859   1.020   9.089  10.235
 6945SOL    HW220860   0.891   9.106  10.137
 6946SOL     OW20861   0.382   8.148   9.790
 6946SOL    HW120862   0.427   8.058   9.787
 6946SOL    HW220863   0.288   8.137   9.823
 6947SOL     OW20864   1.547   7.670  11.039
 6947SOL    HW120865   1.542   7.707  11.131
 6947SOL    HW220866   1.475   7.601  11.027
 6948SOL     OW20867   0.614   7.570   9.427
 6948SOL    HW120868   0.712   7.548   9.434
 6948SOL    HW220869   0.583   7.553   9.334
 6949SOL     OW20870   0.781   7.712  11.059
 6949SOL    HW120871   0.848   7.651  11.102
 6949SOL    HW220872   0.708   7.731  11.124
 6950SOL     OW20873   0.888   8.962  10.505
 6950SOL    HW120874   0.865   8.937  10.411
 6950SOL    HW220875   0.949   8.893  10.544
 6951SOL     OW20876   1.351   8.038  10.743
 6951SOL    HW120877   1.379   7.995  10.828
 6951SOL    HW220878   1.376   8.134  10.744
 6952SOL     OW20879   0.803   8.850  10.234
 6952SOL    HW120880   0.893   8.864  10.192
 6952SOL    HW220881   0.732   8.852  10.163
 6953SOL     OW20882   0.922   7.951  10.209
 6953SOL    HW120883   0.897   7.942  10.113
 6953SOL    HW220884   0.970   7.869  10.240
 6954SOL     OW20885   0.539   7.512   9.822
 6954SOL    HW120886   0.458   7.513   9.880
 6954SOL    HW220887   0.542   7.595   9.767
 6955SOL     OW20888   1.434   8.636   9.351
 6955SOL    HW120889   1.466   8.560   9.408
 6955SOL    HW220890   1.342   8.663   9.381
 6956SOL     OW20891   0.297   7.483   9.481
 6956SOL    HW120892   0.346   7.567   9.460
 6956SOL    HW220893   0.359   7.418   9.526
 6957SOL     OW20894   0.935   7.684   9.790
 6957SOL    HW120895   0.887   7.725   9.712
 6957SOL    HW220896   1.034   7.682   9.771
 6958SOL     OW20897   1.076   8.131  10.774
 6958SOL    HW120898   0.996   8.070  10.777
 6958SOL    HW220899   1.157   8.078  10.750
 6959SOL     OW20900   1.227   9.018  10.103
 6959SOL    HW120901   1.248   9.092  10.038
 6959SOL    HW220902   1.295   9.018  10.176
 6960SOL     OW20903   0.459   8.600  10.051
 6960SOL    HW120904   0.388   8.573  10.116
 6960SOL    HW220905   0.433   8.572   9.958
 6961SOL     OW20906   1.271   9.245   9.901
 6961SOL    HW120907   1.315   9.309   9.837
 6961SOL    HW220908   1.221   9.297   9.971
 6962SOL     OW20909   1.032   7.997   9.326
 6962SOL    HW120910   0.991   8.079   9.287
 6962SOL    HW220911   1.096   8.023   9.399
 6963SOL     OW20912   0.078   8.004  10.696
 6963SOL    HW120913   0.170   8.003  10.655
 6963SOL    HW220914   0.072   8.078  10.763
 6964SOL     OW20915   0.561   7.670  10.457
 6964SOL    HW120916   0.599   7.586  10.494
 6964SOL    HW220917   0.473   7.689  10.501
 6965SOL     OW20918   0.866   7.902   9.952
 6965SOL    HW120919   0.834   7.974   9.890
 6965SOL    HW220920   0.890   7.821   9.899
 6966SOL     OW20921   1.017   7.487  10.063
 6966SOL    HW120922   0.945   7.492   9.994
 6966SOL    HW220923   0.993   7.418  10.132
 6967SOL     OW20924   1.429   8.621  10.177
 6967SOL    HW120925   1.374   8.537  10.170
 6967SOL    HW220926   1.455   8.650  10.085
 6968SOL     OW20927   1.466   8.038  10.302
 6968SOL    HW120928   1.436   7.943  10.309
 6968SOL    HW220929   1.539   8.054  10.368
 6969SOL     OW20930   1.857   8.281   9.687
 6969SOL    HW120931   1.899   8.217   9.751
 6969SOL    HW220932   1.819   8.230   9.609
 6970SOL     OW20933   0.488   8.833   9.484
 6970SOL    HW120934   0.401   8.818   9.531
 6970SOL    HW220935   0.471   8.859   9.389
 6971SOL     OW20936   1.664   8.728   9.967
 6971SOL    HW120937   1.763   8.736   9.981
 6971SOL    HW220938   1.619   8.812   9.998
 6972SOL     OW20939   1.390   8.023   9.388
 6972SOL    HW120940   1.336   8.002   9.469
 6972SOL    HW220941   1.481   7.982   9.397
 6973SOL     OW20942   0.527   7.704   9.638
 6973SOL    HW120943   0.554   7.645   9.563
 6973SOL    HW220944   0.527   7.799   9.607
 6974SOL     OW20945   1.754   8.671  10.898
 6974SOL    HW120946   1.845   8.632  10.885
 6974SOL    HW220947   1.762   8.767  10.922
 6975SOL     OW20948   1.064   8.795  10.650
 6975SOL    HW120949   0.984   8.772  10.705
 6975SOL    HW220950   1.147   8.769  10.699
 6976SOL     OW20951   1.592   9.077  10.935
 6976SOL    HW120952   1.619   9.111  10.845
 6976SOL    HW220953   1.671   9.039  10.981
 6977SOL     OW20954   1.111   8.643  10.410
 6977SOL    HW120955   1.071   8.687  10.491
 6977SOL    HW220956   1.070   8.680  10.327
 6978SOL     OW20957   1.638   8.547  10.389
 6978SOL    HW120958   1.643   8.628  10.448
 6978SOL    HW220959   1.552   8.549  10.338
 6979SOL     OW20960   0.915   7.537  10.712
 6979SOL    HW120961   0.940   7.517  10.617
 6979SOL    HW220962   0.987   7.593  10.754
 6980SOL     OW20963   0.980   8.564  11.029
 6980SOL    HW120964   0.881   8.570  11.039
 6980SOL    HW220965   1.003   8.484  10.973
 6981SOL     OW20966   0.705   8.498   9.678
 6981SOL    HW120967   0.691   8.505   9.777
 6981SOL    HW220968   0.789   8.447   9.660
 6982SOL     OW20969   0.410   8.261  10.561
 6982SOL    HW120970   0.496   8.273  10.611
 6982SOL    HW220971   0.368   8.174  10.588
 6983SOL     OW20972   1.274   7.834  10.572
 6983SOL    HW120973   1.295   7.908  10.636
 6983SOL    HW220974   1.185   7.851  10.529
 6984SOL     OW20975   0.064   9.012  10.641
 6984SOL    HW120976   0.018   9.094  10.607
 6984SOL    HW220977   0.162   9.031  10.650
 6985SOL     OW20978   0.367   8.548   9.811
 6985SOL    HW120979   0.360   8.631   9.755
 6985SOL    HW220980   0.371   8.468   9.751
 6986SOL     OW20981   0.566   7.985  10.175
 6986SOL    HW120982   0.578   8.051  10.101
 6986SOL    HW220983   0.612   8.019  10.258
 6987SOL     OW20984   1.252   8.796   9.698
 6987SOL    HW120985   1.302   8.873   9.738
 6987SOL    HW220986   1.157   8.798   9.730
 6988SOL     OW20987   1.272   8.893  10.452
 6988SOL    HW120988   1.319   8.906  10.539
 6988SOL    HW220989   1.206   8.819  10.461
 6989SOL     OW20990   1.582   8.087   9.782
 6989SOL    HW120991   1.551   8.148   9.855
 6989SOL    HW220992   1.632   8.139   9.713
 6990SOL     OW20993   0.354   8.958  10.639
 6990SOL    HW120994   0.333   8.914  10.552
 6990SOL    HW220995   0.451   8.984  10.642
 6991SOL     OW20996   0.402   8.199  10.908
 6991SOL    HW120997   0.470   8.254  10.861
 6991SOL    HW220998   0.442   8.111  10.935
 6992SOL     OW20999   1.587   8.227  10.980
 6992SOL    HW121000   1.495   8.265  10.975
 6992SOL    HW221001   1.647   8.274  10.915
 6993SOL     OW21002   1.013   7.553  11.080
 6993SOL    HW121003   1.019   7.638  11.028
 6993SOL    HW221004   1.045   7.477  11.023
 6994SOL     OW21005   0.504   7.498  11.050
 6994SOL    HW121006   0.462   7.441  10.980
 6994SOL    HW221007   0.438   7.567  11.082
 6995SOL     OW21008   0.573   8.318  10.339
 6995SOL    HW121009   0.617   8.407  10.330
 6995SOL    HW221010   0.510   8.318  10.416
 6996SOL     OW21011   1.360   8.310  10.355
 6996SOL    HW121012   1.285   8.310  10.289
 6996SOL    HW221013   1.397   8.218  10.364
 6997SOL     OW21014   1.209   7.973   9.585
 6997SOL    HW121015   1.222   7.889   9.639
 6997SOL    HW221016   1.180   8.047   9.645
 6998SOL     OW21017   0.307   7.661  10.541
 6998SOL    HW121018   0.284   7.698  10.631
 6998SOL    HW221019   0.277   7.566  10.535
 6999SOL     OW21020   0.037   8.758  10.592
 6999SOL    HW121021   0.090   8.709  10.660
 6999SOL    HW221022   0.059   8.856  10.597
 7000SOL     OW21023   0.732   8.082  10.374
 7000SOL    HW121024   0.791   8.056  10.298
 7000SOL    HW221025   0.704   8.178  10.363
 7001SOL     OW21026   1.728   8.383  11.164
 7001SOL    HW121027   1.682   8.376  11.075
 7001SOL    HW221028   1.666   8.427  11.230
 7002SOL     OW21029   0.307   7.511   9.928
 7002SOL    HW121030   0.296   7.605   9.961
 7002SOL    HW221031   0.302   7.448  10.005
 7003SOL     OW21032   1.622   7.815   9.684
 7003SOL    HW121033   1.624   7.739   9.748
 7003SOL    HW221034   1.574   7.892   9.724
 7004SOL     OW21035   1.023   8.214  10.276
 7004SOL    HW121036   1.038   8.235  10.372
 7004SOL    HW221037   0.993   8.119  10.267
 7005SOL     OW21038   0.980   9.021  11.010
 7005SOL    HW121039   0.960   9.065  10.922
 7005SOL    HW221040   1.019   8.930  10.994
 7006SOL     OW21041   1.859   8.966  10.915
 7006SOL    HW121042   1.873   8.993  10.820
 7006SOL    HW221043   1.942   8.988  10.968
 7007SOL     OW21044   0.350   8.346  11.114
 7007SOL    HW121045   0.426   8.390  11.162
 7007SOL    HW221046   0.385   8.299  11.032
 7008SOL     OW21047   1.540   7.722   9.435
 7008SOL    HW121048   1.479   7.647   9.458
 7008SOL    HW221049   1.562   7.774   9.518
 7009SOL     OW21050   1.303   8.286   9.352
 7009SOL    HW121051   1.337   8.193   9.367
 7009SOL    HW221052   1.321   8.313   9.257
 7010SOL     OW21053   1.068   8.781  10.159
 7010SOL    HW121054   1.075   8.697  10.104
 7010SOL    HW221055   1.130   8.850  10.123
 7011SOL     OW21056   0.319   8.258  10.259
 7011SOL    HW121057   0.412   8.294  10.264
 7011SOL    HW221058   0.313   8.173  10.311
 7012SOL     OW21059   0.339   7.957  10.316
 7012SOL    HW121060   0.287   7.874  10.299
 7012SOL    HW221061   0.416   7.962  10.252
 7013SOL     OW21062   1.138   7.828  10.988
 7013SOL    HW121063   1.093   7.891  11.052
 7013SOL    HW221064   1.231   7.859  10.971
 7014SOL     OW21065   1.160   7.655  10.787
 7014SOL    HW121066   1.160   7.719  10.864
 7014SOL    HW221067   1.188   7.703  10.704
 7015SOL     OW21068   0.008   8.774   9.510
 7015SOL    HW121069  -0.085   8.795   9.479
 7015SOL    HW221070   0.018   8.675   9.523
 7016SOL     OW21071   0.088   9.249  10.237
 7016SOL    HW121072   0.046   9.163  10.210
 7016SOL    HW221073   0.182   9.252  10.203
 7017SOL     OW21074   0.504   9.016  10.220
 7017SOL    HW121075   0.570   9.090  10.229
 7017SOL    HW221076   0.548   8.937  10.178
 7018SOL     OW21077   1.002   8.244  10.548
 7018SOL    HW121078   1.043   8.212  10.634
 7018SOL    HW221079   0.906   8.217  10.545
 7019SOL     OW21080   0.040   7.992  10.424
 7019SOL    HW121081   0.125   7.959  10.383
 7019SOL    HW221082   0.053   8.007  10.522
 7020SOL     OW21083   0.189   7.968  11.032
 7020SOL    HW121084   0.248   7.928  10.962
 7020SOL    HW221085   0.131   8.039  10.991
 7021SOL     OW21086   1.369   8.398  10.970
 7021SOL    HW121087   1.408   8.487  10.990
 7021SOL    HW221088   1.379   8.378  10.873
 7022SOL     OW21089   0.815   8.020   9.635
 7022SOL    HW121090   0.822   7.931   9.589
 7022SOL    HW221091   0.721   8.054   9.627
 7023SOL     OW21092   1.657   8.052  10.516
 7023SOL    HW121093   1.619   7.983  10.578
 7023SOL    HW221094   1.739   8.016  10.472
 7024SOL     OW21095   0.252   9.012  11.054
 7024SOL    HW121096   0.222   9.069  11.130
 7024SOL    HW221097   0.245   8.915  11.080
 7025SOL     OW21098   0.671   7.912  10.579
 7025SOL    HW121099   0.637   7.823  10.549
 7025SOL    HW221100   0.697   7.966  10.499
 7026SOL     OW21101   0.930   9.126  10.775
 7026SOL    HW121102   0.906   9.108  10.680
 7026SOL    HW221103   0.960   9.220  10.785
 7027SOL     OW21104   0.473   7.948   9.501
 7027SOL    HW121105   0.534   8.028   9.505
 7027SOL    HW221106   0.378   7.979   9.508
 7028SOL     OW21107   0.159   8.585  10.776
 7028SOL    HW121108   0.181   8.524  10.852
 7028SOL    HW221109   0.169   8.536  10.690
 7029SOL     OW21110   1.347   8.507  10.544
 7029SOL    HW121111   1.371   8.444  10.470
 7029SOL    HW221112   1.257   8.547  10.526
 7030SOL     OW21113   1.302   8.303   9.619
 7030SOL    HW121114   1.216   8.272   9.661
 7030SOL    HW221115   1.298   8.289   9.520
 7031SOL     OW21116   1.759   9.195  10.464
 7031SOL    HW121117   1.820   9.225  10.391
 7031SOL    HW221118   1.721   9.106  10.442
 7032SOL     OW21119   1.252   9.179  10.438
 7032SOL    HW121120   1.336   9.184  10.384
 7032SOL    HW221121   1.229   9.083  10.456
 7033SOL     OW21122   0.083   8.706  10.332
 7033SOL    HW121123   0.078   8.705  10.432
 7033SOL    HW221124   0.000   8.665  10.294
 7034SOL     OW21125   0.688   9.110  11.026
 7034SOL    HW121126   0.632   9.191  11.035
 7034SOL    HW221127   0.740   9.114  10.940
 7035SOL     OW21128   1.726   7.583   9.833
 7035SOL    HW121129   1.799   7.566   9.766
 7035SOL    HW221130   1.695   7.496   9.871
 7036SOL     OW21131   1.388   9.021   9.787
 7036SOL    HW121132   1.455   9.033   9.713
 7036SOL    HW221133   1.348   9.110   9.810
 7037SOL     OW21134   0.130   9.242  11.161
 7037SOL    HW121135   0.089   9.168  11.214
 7037SOL    HW221136   0.194   9.293  11.219
 7038SOL     OW21137   1.280   8.375   9.982
 7038SOL    HW121138   1.340   8.294   9.984
 7038SOL    HW221139   1.320   8.444   9.922
 7039SOL     OW21140   0.830   8.721  10.732
 7039SOL    HW121141   0.825   8.754  10.827
 7039SOL    HW221142   0.744   8.740  10.686
 7040SOL     OW21143   0.672   9.064   9.464
 7040SOL    HW121144   0.681   9.074   9.365
 7040SOL    HW221145   0.632   8.975   9.485
 7041SOL     OW21146   1.650   9.168  10.704
 7041SOL    HW121147   1.703   9.178  10.620
 7041SOL    HW221148   1.623   9.258  10.738
 7042SOL     OW21149   1.841   7.623  10.273
 7042SOL    HW121150   1.880   7.538  10.237
 7042SOL    HW221151   1.743   7.625  10.254
 7043SOL     OW21152   0.263   7.774  10.030
 7043SOL    HW121153   0.184   7.825   9.996
 7043SOL    HW221154   0.254   7.759  10.128
 7044SOL     OW21155   1.194   9.060   9.341
 7044SOL    HW121156   1.200   8.967   9.378
 7044SOL    HW221157   1.135   9.060   9.261
 7045SOL     OW21158   0.822   8.450  10.682
 7045SOL    HW121159   0.862   8.449  10.590
 7045SOL    HW221160   0.832   8.542  10.722
 7046SOL     OW21161   0.916   8.358   9.601
 7046SOL    HW121162   0.979   8.396   9.533
 7046SOL    HW221163   0.956   8.275   9.640
 7047SOL     OW21164   1.504   9.055   9.354
 7047SOL    HW121165   1.412   9.092   9.361
 7047SOL    HW221166   1.542   9.075   9.264
 7048SOL     OW21167   0.372   8.736  10.800
 7048SOL    HW121168   0.359   8.829  10.766
 7048SOL    HW221169   0.288   8.684  10.787
 7049SOL     OW21170   1.614   8.740  10.599
 7049SOL    HW121171   1.674   8.743  10.679
 7049SOL    HW221172   1.539   8.804  10.612
 7050SOL     OW21173   1.039   8.546  10.006
 7050SOL    HW121174   0.969   8.499  10.060
 7050SOL    HW221175   1.098   8.478   9.963
 7051SOL     OW21176   1.014   7.684  10.281
 7051SOL    HW121177   1.006   7.648  10.188
 7051SOL    HW221178   1.012   7.608  10.346
 7052SOL     OW21179   0.590   8.935   9.801
 7052SOL    HW121180   0.632   8.877   9.731
 7052SOL    HW221181   0.546   9.014   9.757
 7053SOL     OW21182   1.709   7.833  10.691
 7053SOL    HW121183   1.782   7.902  10.695
 7053SOL    HW221184   1.737   7.758  10.632
 7054SOL     OW21185   0.255   8.796   9.600
 7054SOL    HW121186   0.159   8.797   9.573
 7054SOL    HW221187   0.267   8.849   9.684
 7055SOL     OW21188   0.105   8.461  11.036
 7055SOL    HW121189   0.028   8.428  11.090
 7055SOL    HW221190   0.190   8.431  11.078
 7056SOL     OW21191   0.672   7.651  10.799
 7056SOL    HW121192   0.762   7.635  10.759
 7056SOL    HW221193   0.680   7.656  10.898
 7057SOL     OW21194   0.075   7.793   9.343
 7057SOL    HW121195  -0.017   7.765   9.314
 7057SOL    HW221196   0.106   7.870   9.287
 7058SOL     OW21197   1.440   8.304  10.708
 7058SOL    HW121198   1.383   8.356  10.645
 7058SOL    HW221199   1.536   8.316  10.684
 7059SOL     OW21200   0.072   7.614   9.628
 7059SOL    HW121201   0.055   7.697   9.574
 7059SOL    HW221202   0.162   7.577   9.606
 7060SOL     OW21203   1.183   8.783   9.429
 7060SOL    HW121204   1.084   8.772   9.431
 7060SOL    HW221205   1.217   8.798   9.522
 7061SOL     OW21206   0.613   8.290  10.741
 7061SOL    HW121207   0.669   8.371  10.724
 7061SOL    HW221208   0.672   8.210  10.744
 7062SOL     OW21209   1.493   9.215  10.269
 7062SOL    HW121210   1.526   9.279  10.200
 7062SOL    HW221211   1.559   9.209  10.344
 7063SOL     OW21212   0.716   8.013  11.018
 7063SOL    HW121213   0.735   8.078  11.092
 7063SOL    HW221214   0.776   7.933  11.027
 7064SOL     OW21215   1.450   8.668  10.943
 7064SOL    HW121216   1.441   8.658  11.042
 7064SOL    HW221217   1.546   8.661  10.917
 7065SOL     OW21218   0.390   9.189  10.870
 7065SOL    HW121219   0.299   9.230  10.868
 7065SOL    HW221220   0.383   9.095  10.902
 7066SOL     OW21221   1.674   8.331  10.564
 7066SOL    HW121222   1.647   8.242  10.527
 7066SOL    HW221223   1.675   8.399  10.491
 7067SOL     OW21224   1.225   7.773   9.759
 7067SOL    HW121225   1.290   7.699   9.748
 7067SOL    HW221226   1.245   7.823   9.843
 7068SOL     OW21227   0.594   8.193   9.962
 7068SOL    HW121228   0.644   8.278   9.943
 7068SOL    HW221229   0.506   8.195   9.914
 7069SOL     OW21230   1.777   7.790  10.952
 7069SOL    HW121231   1.760   7.821  10.858
 7069SOL    HW221232   1.693   7.753  10.990
 7070SOL     OW21233   1.730   8.382  10.827
 7070SOL    HW121234   1.768   8.473  10.842
 7070SOL    HW221235   1.722   8.365  10.728
 7071SOL     OW21236   0.859   8.822   9.326
 7071SOL    HW121237   0.813   8.837   9.414
 7071SOL    HW221238   0.903   8.907   9.296
 7072SOL     OW21239   0.661   9.238  10.263
 7072SOL    HW121240   0.615   9.326  10.250
 7072SOL    HW221241   0.760   9.250  10.256
 7073SOL     OW21242   0.859   8.404  10.171
 7073SOL    HW121243   0.913   8.335  10.219
 7073SOL    HW221244   0.827   8.473  10.237
 7074SOL     OW21245   1.083   8.432   9.397
 7074SOL    HW121246   1.060   8.485   9.315
 7074SOL    HW221247   1.164   8.376   9.378
 7075SOL     OW21248   1.861   9.017  10.161
 7075SOL    HW121249   1.790   9.005  10.091
 7075SOL    HW221250   1.862   8.938  10.221
 7076SOL     OW21251   0.221   8.762  11.154
 7076SOL    HW121252   0.156   8.689  11.133
 7076SOL    HW221253   0.225   8.776  11.252
 7077SOL     OW21254   0.079   8.688   9.963
 7077SOL    HW121255   0.078   8.641  10.051
 7077SOL    HW221256   0.161   8.660   9.912
 7078SOL     OW21257   0.672   8.839  10.934
 7078SOL    HW121258   0.594   8.789  10.972
 7078SOL    HW221259   0.669   8.934  10.965
 7079SOL     OW21260   1.824   7.640  10.537
 7079SOL    HW121261   1.820   7.550  10.581
 7079SOL    HW221262   1.827   7.629  10.438
 7080SOL     OW21263   0.428   7.872   9.830
 7080SOL    HW121264   0.458   7.800   9.768
 7080SOL    HW221265   0.389   7.832   9.913
 7081SOL     OW21266   1.705   8.935  10.414
 7081SOL    HW121267   1.612   8.910  10.387
 7081SOL    HW221268   1.731   8.885  10.496
 7082SOL     OW21269   0.317   7.995  10.590
 7082SOL    HW121270   0.355   7.936  10.662
 7082SOL    HW221271   0.357   7.969  10.502
 7083SOL     OW21272   0.812   9.034   9.997
 7083SOL    HW121273   0.844   9.044   9.903
 7083SOL    HW221274   0.733   8.972   9.999
 7084SOL     OW21275   1.424   7.662  10.422
 7084SOL    HW121276   1.476   7.597  10.477
 7084SOL    HW221277   1.375   7.725  10.483
 7085SOL     OW21278   1.001   7.482  10.464
 7085SOL    HW121279   0.938   7.410  10.433
 7085SOL    HW221280   1.094   7.446  10.464
 7086SOL     OW21281   0.770   8.778   9.611
 7086SOL    HW121282   0.724   8.691   9.628
 7086SOL    HW221283   0.861   8.775   9.652
 7087SOL     OW21284   0.618   9.015  10.594
 7087SOL    HW121285   0.613   9.097  10.651
 7087SOL    HW221286   0.707   9.012  10.549
 7088SOL     OW21287   1.352   7.500   9.478
 7088SOL    HW121288   1.387   7.459   9.394
 7088SOL    HW221289   1.262   7.462   9.498
 7089SOL     OW21290   1.300   7.901  10.001
 7089SOL    HW121291   1.241   7.981  10.005
 7089SOL    HW221292   1.315   7.866  10.094
 7090SOL     OW21293   1.593   7.669  10.192
 7090SOL    HW121294   1.509   7.668  10.246
 7090SOL    HW221295   1.595   7.752  10.136
 7091SOL     OW21296   0.039   8.525   9.610
 7091SOL    HW121297   0.138   8.514   9.601
 7091SOL    HW221298  -0.001   8.439   9.642
 7092SOL     OW21299   0.875   9.094   9.647
 7092SOL    HW121300   0.798   9.059   9.593
 7092SOL    HW221301   0.843   9.165   9.709
 7093SOL     OW21302   0.230   8.076  11.285
 7093SOL    HW121303   0.137   8.074  11.322
 7093SOL    HW221304   0.231   8.037  11.193
 7094SOL     OW21305   0.225   7.723  12.168
 7094SOL    HW121306   0.260   7.706  12.260
 7094SOL    HW221307   0.137   7.678  12.156
 7095SOL     OW21308   0.019   7.816  11.819
 7095SOL    HW121309  -0.063   7.859  11.858
 7095SOL    HW221310  -0.009   7.743  11.756
 7096SOL     OW21311   0.569   8.723  12.337
 7096SOL    HW121312   0.476   8.716  12.300
 7096SOL    HW221313   0.580   8.812  12.381
 7097SOL     OW21314   1.555   8.959  11.875
 7097SOL    HW121315   1.498   8.943  11.956
 7097SOL    HW221316   1.496   8.969  11.795
 7098SOL     OW21317   1.135   8.151  11.889
 7098SOL    HW121318   1.192   8.229  11.864
 7098SOL    HW221319   1.075   8.177  11.965
 7099SOL     OW21320   1.755   8.055  11.403
 7099SOL    HW121321   1.743   8.042  11.304
 7099SOL    HW221322   1.725   7.974  11.452
 7100SOL     OW21323   0.768   8.592  12.195
 7100SOL    HW121324   0.690   8.609  12.255
 7100SOL    HW221325   0.802   8.679  12.159
 7101SOL     OW21326   0.685   8.460  11.837
 7101SOL    HW121327   0.754   8.444  11.907
 7101SOL    HW221328   0.612   8.517  11.875
 7102SOL     OW21329   0.335   8.883  12.233
 7102SOL    HW121330   0.257   8.852  12.180
 7102SOL    HW221331   0.393   8.941  12.176
 7103SOL     OW21332   1.460   8.953  12.511
 7103SOL    HW121333   1.484   9.047  12.537
 7103SOL    HW221334   1.444   8.899  12.593
 7104SOL     OW21335   0.438   7.840  12.671
 7104SOL    HW121336   0.520   7.784  12.680
 7104SOL    HW221337   0.357   7.782  12.675
 7105SOL     OW21338   1.603   7.895  11.909
 7105SOL    HW121339   1.529   7.941  11.859
 7105SOL    HW221340   1.654   7.963  11.962
 7106SOL     OW21341   0.231   9.161  11.655
 7106SOL    HW121342   0.265   9.238  11.709
 7106SOL    HW221343   0.275   9.161  11.565
 7107SOL     OW21344   0.230   8.882  11.710
 7107SOL    HW121345   0.204   8.978  11.710
 7107SOL    HW221346   0.159   8.828  11.755
 7108SOL     OW21347   0.240   8.539  12.058
 7108SOL    HW121348   0.254   8.455  12.110
 7108SOL    HW221349   0.185   8.603  12.113
 7109SOL     OW21350   0.620   9.234  12.611
 7109SOL    HW121351   0.528   9.217  12.646
 7109SOL    HW221352   0.648   9.326  12.637
 7110SOL     OW21353   0.606   8.412  11.295
 7110SOL    HW121354   0.613   8.496  11.241
 7110SOL    HW221355   0.652   8.425  11.383
 7111SOL     OW21356   1.594   7.562  12.652
 7111SOL    HW121357   1.576   7.629  12.580
 7111SOL    HW221358   1.591   7.608  12.741
 7112SOL     OW21359   0.122   8.091  11.735
 7112SOL    HW121360   0.077   8.003  11.752
 7112SOL    HW221361   0.121   8.145  11.819
 7113SOL     OW21362   1.842   9.215  11.531
 7113SOL    HW121363   1.896   9.186  11.611
 7113SOL    HW221364   1.872   9.305  11.502
 7114SOL     OW21365   0.027   9.044  11.289
 7114SOL    HW121366   0.008   8.948  11.310
 7114SOL    HW221367  -0.006   9.102  11.364
 7115SOL     OW21368   1.689   8.370  11.784
 7115SOL    HW121369   1.784   8.341  11.792
 7115SOL    HW221370   1.681   8.435  11.709
 7116SOL     OW21371   1.641   8.556  11.604
 7116SOL    HW121372   1.727   8.558  11.552
 7116SOL    HW221373   1.655   8.603  11.692
 7117SOL     OW21374   0.113   8.185  12.769
 7117SOL    HW121375   0.201   8.172  12.814
 7117SOL    HW221376   0.100   8.282  12.747
 7118SOL     OW21377   0.613   8.813  11.898
 7118SOL    HW121378   0.564   8.726  11.907
 7118SOL    HW221379   0.590   8.856  11.811
 7119SOL     OW21380   1.293   8.676  12.595
 7119SOL    HW121381   1.330   8.603  12.537
 7119SOL    HW221382   1.345   8.681  12.680
 7120SOL     OW21383   0.809   7.452  11.674
 7120SOL    HW121384   0.849   7.543  11.665
 7120SOL    HW221385   0.709   7.460  11.680
 7121SOL     OW21386   0.197   8.424  12.436
 7121SOL    HW121387   0.286   8.379  12.422
 7121SOL    HW221388   0.124   8.359  12.417
 7122SOL     OW21389   1.525   8.447  11.362
 7122SOL    HW121390   1.462   8.371  11.375
 7122SOL    HW221391   1.573   8.465  11.448
 7123SOL     OW21392   1.466   8.865  12.125
 7123SOL    HW121393   1.407   8.871  12.205
 7123SOL    HW221394   1.451   8.777  12.079
 7124SOL     OW21395   1.667   9.162  11.744
 7124SOL    HW121396   1.626   9.139  11.656
 7124SOL    HW221397   1.649   9.088  11.809
 7125SOL     OW21398   0.598   8.177  11.442
 7125SOL    HW121399   0.622   8.246  11.374
 7125SOL    HW221400   0.520   8.210  11.496
 7126SOL     OW21401   1.281   7.793  12.116
 7126SOL    HW121402   1.195   7.743  12.103
 7126SOL    HW221403   1.343   7.739  12.172
 7127SOL     OW21404   1.576   9.110  11.479
 7127SOL    HW121405   1.665   9.156  11.482
 7127SOL    HW221406   1.555   9.086  11.384
 7128SOL     OW21407   0.807   8.053  12.637
 7128SOL    HW121408   0.760   8.050  12.726
 7128SOL    HW221409   0.756   7.998  12.571
 7129SOL     OW21410   0.973   8.338  12.744
 7129SOL    HW121411   1.019   8.254  12.715
 7129SOL    HW221412   0.917   8.372  12.669
 7130SOL     OW21413   0.991   7.858  12.414
 7130SOL    HW121414   0.914   7.892  12.468
 7130SOL    HW221415   0.957   7.807  12.335
 7131SOL     OW21416   1.041   8.149  11.601
 7131SOL    HW121417   1.067   8.145  11.697
 7131SOL    HW221418   0.956   8.098  11.587
 7132SOL     OW21419   0.076   8.259  11.961
 7132SOL    HW121420   0.175   8.247  11.970
 7132SOL    HW221421   0.052   8.354  11.982
 7133SOL     OW21422   0.130   9.269  12.743
 7133SOL    HW121423   0.120   9.254  12.842
 7133SOL    HW221424   0.044   9.305  12.707
 7134SOL     OW21425   0.865   7.796  11.367
 7134SOL    HW121426   0.924   7.859  11.318
 7134SOL    HW221427   0.884   7.702  11.338
 7135SOL     OW21428   1.362   8.592  11.717
 7135SOL    HW121429   1.445   8.563  11.669
 7135SOL    HW221430   1.313   8.659  11.661
 7136SOL     OW21431   0.550   7.644  12.057
 7136SOL    HW121432   0.545   7.639  12.157
 7136SOL    HW221433   0.552   7.740  12.028
 7137SOL     OW21434   1.008   8.904  11.649
 7137SOL    HW121435   0.962   8.976  11.597
 7137SOL    HW221436   1.004   8.924  11.747
 7138SOL     OW21437   0.351   9.249  12.025
 7138SOL    HW121438   0.401   9.163  12.031
 7138SOL    HW221439   0.416   9.326  12.022
 7139SOL     OW21440   1.795   8.514  12.045
 7139SOL    HW121441   1.733   8.499  11.969
 7139SOL    HW221442   1.743   8.525  12.130
 7140SOL     OW21443   1.227   8.998  12.678
 7140SOL    HW121444   1.233   8.921  12.742
 7140SOL    HW221445   1.175   8.972  12.598
 7141SOL     OW21446   0.321   8.391  11.414
 7141SOL    HW121447   0.403   8.430  11.372
 7141SOL    HW221448   0.294   8.309  11.365
 7142SOL     OW21449   1.458   8.183  11.900
 7142SOL    HW121450   1.453   8.118  11.975
 7142SOL    HW221451   1.538   8.242  11.913
 7143SOL     OW21452   1.111   9.224  11.409
 7143SOL    HW121453   1.051   9.162  11.459
 7143SOL    HW221454   1.142   9.180  11.324
 7144SOL     OW21455   0.202   7.733  12.670
 7144SOL    HW121456   0.122   7.793  12.657
 7144SOL    HW221457   0.192   7.684  12.756
 7145SOL     OW21458   1.632   8.825  11.253
 7145SOL    HW121459   1.600   8.919  11.243
 7145SOL    HW221460   1.556   8.762  11.241
 7146SOL     OW21461   0.464   9.191  11.495
 7146SOL    HW121462   0.497   9.230  11.581
 7146SOL    HW221463   0.540   9.184  11.430
 7147SOL     OW21464   1.400   7.555  11.598
 7147SOL    HW121465   1.376   7.518  11.508
 7147SOL    HW221466   1.499   7.571  11.602
 7148SOL     OW21467   0.249   9.233  12.413
 7148SOL    HW121468   0.306   9.168  12.463
 7148SOL    HW221469   0.233   9.200  12.320
 7149SOL     OW21470   0.940   9.146  12.076
 7149SOL    HW121471   1.020   9.089  12.097
 7149SOL    HW221472   0.891   9.106  11.999
 7150SOL     OW21473   0.382   8.148  11.652
 7150SOL    HW121474   0.427   8.058  11.649
 7150SOL    HW221475   0.288   8.137  11.685
 7151SOL     OW21476   0.614   7.570  11.289
 7151SOL    HW121477   0.712   7.548  11.296
 7151SOL    HW221478   0.583   7.553  11.196
 7152SOL     OW21479   0.888   8.962  12.367
 7152SOL    HW121480   0.865   8.937  12.273
 7152SOL    HW221481   0.949   8.893  12.406
 7153SOL     OW21482   1.351   8.038  12.605
 7153SOL    HW121483   1.379   7.995  12.690
 7153SOL    HW221484   1.376   8.134  12.606
 7154SOL     OW21485   0.803   8.850  12.096
 7154SOL    HW121486   0.893   8.864  12.054
 7154SOL    HW221487   0.732   8.852  12.025
 7155SOL     OW21488   0.922   7.951  12.071
 7155SOL    HW121489   0.897   7.942  11.975
 7155SOL    HW221490   0.970   7.869  12.102
 7156SOL     OW21491   0.539   7.512  11.684
 7156SOL    HW121492   0.458   7.513  11.742
 7156SOL    HW221493   0.542   7.595  11.629
 7157SOL     OW21494   1.434   8.636  11.213
 7157SOL    HW121495   1.466   8.560  11.270
 7157SOL    HW221496   1.342   8.663  11.243
 7158SOL     OW21497   0.297   7.483  11.343
 7158SOL    HW121498   0.346   7.567  11.322
 7158SOL    HW221499   0.359   7.418  11.388
 7159SOL     OW21500   0.935   7.684  11.652
 7159SOL    HW121501   0.887   7.725  11.574
 7159SOL    HW221502   1.034   7.682  11.633
 7160SOL     OW21503   1.076   8.131  12.636
 7160SOL    HW121504   0.996   8.070  12.639
 7160SOL    HW221505   1.157   8.078  12.612
 7161SOL     OW21506   1.227   9.018  11.965
 7161SOL    HW121507   1.248   9.092  11.900
 7161SOL    HW221508   1.295   9.018  12.038
 7162SOL     OW21509   0.459   8.600  11.913
 7162SOL    HW121510   0.388   8.573  11.978
 7162SOL    HW221511   0.433   8.572  11.820
 7163SOL     OW21512   1.271   9.245  11.763
 7163SOL    HW121513   1.315   9.309  11.699
 7163SOL    HW221514   1.221   9.297  11.833
 7164SOL     OW21515   1.032   7.997  11.188
 7164SOL    HW121516   0.991   8.079  11.149
 7164SOL    HW221517   1.096   8.023  11.261
 7165SOL     OW21518   0.078   8.004  12.558
 7165SOL    HW121519   0.170   8.003  12.517
 7165SOL    HW221520   0.072   8.078  12.625
 7166SOL     OW21521   0.561   7.670  12.319
 7166SOL    HW121522   0.599   7.586  12.356
 7166SOL    HW221523   0.473   7.689  12.363
 7167SOL     OW21524   0.866   7.902  11.814
 7167SOL    HW121525   0.834   7.974  11.752
 7167SOL    HW221526   0.890   7.821  11.761
 7168SOL     OW21527   1.017   7.487  11.925
 7168SOL    HW121528   0.945   7.492  11.856
 7168SOL    HW221529   0.993   7.418  11.994
 7169SOL     OW21530   1.429   8.621  12.039
 7169SOL    HW121531   1.374   8.537  12.032
 7169SOL    HW221532   1.455   8.650  11.947
 7170SOL     OW21533   1.466   8.038  12.164
 7170SOL    HW121534   1.436   7.943  12.171
 7170SOL    HW221535   1.539   8.054  12.230
 7171SOL     OW21536   1.857   8.281  11.549
 7171SOL    HW121537   1.899   8.217  11.613
 7171SOL    HW221538   1.819   8.230  11.471
 7172SOL     OW21539   0.488   8.833  11.346
 7172SOL    HW121540   0.401   8.818  11.393
 7172SOL    HW221541   0.471   8.859  11.251
 7173SOL     OW21542   1.664   8.728  11.829
 7173SOL    HW121543   1.763   8.736  11.843
 7173SOL    HW221544   1.619   8.812  11.860
 7174SOL     OW21545   1.390   8.023  11.250
 7174SOL    HW121546   1.336   8.002  11.331
 7174SOL    HW221547   1.481   7.982  11.259
 7175SOL     OW21548   0.527   7.704  11.500
 7175SOL    HW121549   0.554   7.645  11.425
 7175SOL    HW221550   0.527   7.799  11.469
 7176SOL     OW21551   1.754   8.671  12.760
 7176SOL    HW121552   1.845   8.632  12.747
 7176SOL    HW221553   1.762   8.767  12.784
 7177SOL     OW21554   1.064   8.795  12.512
 7177SOL    HW121555   0.984   8.772  12.567
 7177SOL    HW221556   1.147   8.769  12.561
 7178SOL     OW21557   1.111   8.643  12.272
 7178SOL    HW121558   1.071   8.687  12.353
 7178SOL    HW221559   1.070   8.680  12.189
 7179SOL     OW21560   1.638   8.547  12.251
 7179SOL    HW121561   1.643   8.628  12.310
 7179SOL    HW221562   1.552   8.549  12.200
 7180SOL     OW21563   0.915   7.537  12.574
 7180SOL    HW121564   0.940   7.517  12.479
 7180SOL    HW221565   0.987   7.593  12.616
 7181SOL     OW21566   0.705   8.498  11.540
 7181SOL    HW121567   0.691   8.505  11.639
 7181SOL    HW221568   0.789   8.447  11.522
 7182SOL     OW21569   0.410   8.261  12.423
 7182SOL    HW121570   0.496   8.273  12.473
 7182SOL    HW221571   0.368   8.174  12.450
 7183SOL     OW21572   1.274   7.834  12.434
 7183SOL    HW121573   1.295   7.908  12.498
 7183SOL    HW221574   1.185   7.851  12.391
 7184SOL     OW21575   0.064   9.012  12.503
 7184SOL    HW121576   0.018   9.094  12.469
 7184SOL    HW221577   0.162   9.031  12.512
 7185SOL     OW21578   0.367   8.548  11.673
 7185SOL    HW121579   0.360   8.631  11.617
 7185SOL    HW221580   0.371   8.468  11.613
 7186SOL     OW21581   0.566   7.985  12.037
 7186SOL    HW121582   0.578   8.051  11.963
 7186SOL    HW221583   0.612   8.019  12.120
 7187SOL     OW21584   1.252   8.796  11.560
 7187SOL    HW121585   1.302   8.873  11.600
 7187SOL    HW221586   1.157   8.798  11.592
 7188SOL     OW21587   1.272   8.893  12.314
 7188SOL    HW121588   1.319   8.906  12.401
 7188SOL    HW221589   1.206   8.819  12.323
 7189SOL     OW21590   1.582   8.087  11.644
 7189SOL    HW121591   1.551   8.148  11.717
 7189SOL    HW221592   1.632   8.139  11.575
 7190SOL     OW21593   0.354   8.958  12.501
 7190SOL    HW121594   0.333   8.914  12.414
 7190SOL    HW221595   0.451   8.984  12.504
 7191SOL     OW21596   0.402   8.199  12.770
 7191SOL    HW121597   0.470   8.254  12.723
 7191SOL    HW221598   0.442   8.111  12.797
 7192SOL     OW21599   1.587   8.227  12.842
 7192SOL    HW121600   1.495   8.265  12.837
 7192SOL    HW221601   1.647   8.274  12.777
 7193SOL     OW21602   0.573   8.318  12.201
 7193SOL    HW121603   0.617   8.407  12.192
 7193SOL    HW221604   0.510   8.318  12.278
 7194SOL     OW21605   1.360   8.310  12.217
 7194SOL    HW121606   1.285   8.310  12.151
 7194SOL    HW221607   1.397   8.218  12.226
 7195SOL     OW21608   1.209   7.973  11.447
 7195SOL    HW121609   1.222   7.889  11.501
 7195SOL    HW221610   1.180   8.047  11.507
 7196SOL     OW21611   0.307   7.661  12.403
 7196SOL    HW121612   0.284   7.698  12.493
 7196SOL    HW221613   0.277   7.566  12.397
 7197SOL     OW21614   0.037   8.758  12.454
 7197SOL    HW121615   0.090   8.709  12.522
 7197SOL    HW221616   0.059   8.856  12.459
 7198SOL     OW21617   0.732   8.082  12.236
 7198SOL    HW121618   0.791   8.056  12.160
 7198SOL    HW221619   0.704   8.178  12.225
 7199SOL     OW21620   0.307   7.511  11.790
 7199SOL    HW121621   0.296   7.605  11.823
 7199SOL    HW221622   0.302   7.448  11.867
 7200SOL     OW21623   1.622   7.815  11.546
 7200SOL    HW121624   1.624   7.739  11.610
 7200SOL    HW221625   1.574   7.892  11.586
 7201SOL     OW21626   1.023   8.214  12.138
 7201SOL    HW121627   1.038   8.235  12.234
 7201SOL    HW221628   0.993   8.119  12.129
 7202SOL     OW21629   1.540   7.722  11.297
 7202SOL    HW121630   1.479   7.647  11.320
 7202SOL    HW221631   1.562   7.774  11.380
 7203SOL     OW21632   1.303   8.286  11.214
 7203SOL    HW121633   1.337   8.193  11.229
 7203SOL    HW221634   1.321   8.313  11.119
 7204SOL     OW21635   1.068   8.781  12.021
 7204SOL    HW121636   1.075   8.697  11.966
 7204SOL    HW221637   1.130   8.850  11.985
 7205SOL     OW21638   0.319   8.258  12.121
 7205SOL    HW121639   0.412   8.294  12.126
 7205SOL    HW221640   0.313   8.173  12.173
 7206SOL     OW21641   0.339   7.957  12.178
 7206SOL    HW121642   0.287   7.874  12.161
 7206SOL    HW221643   0.416   7.962  12.114
 7207SOL     OW21644   1.160   7.655  12.649
 7207SOL    HW121645   1.160   7.719  12.726
 7207SOL    HW221646   1.188   7.703  12.566
 7208SOL     OW21647   0.008   8.774  11.372
 7208SOL    HW121648  -0.085   8.795  11.341
 7208SOL    HW221649   0.018   8.675  11.385
 7209SOL     OW21650   0.088   9.249  12.099
 7209SOL    HW121651   0.046   9.163  12.072
 7209SOL    HW221652   0.182   9.252  12.065
 7210SOL     OW21653   0.504   9.016  12.082
 7210SOL    HW121654   0.570   9.090  12.091
 7210SOL    HW221655   0.548   8.937  12.040
 7211SOL     OW21656   1.002   8.244  12.410
 7211SOL    HW121657   1.043   8.212  12.496
 7211SOL    HW221658   0.906   8.217  12.407
 7212SOL     OW21659   0.040   7.992  12.286
 7212SOL    HW121660   0.125   7.959  12.245
 7212SOL    HW221661   0.053   8.007  12.384
 7213SOL     OW21662   0.815   8.020  11.497
 7213SOL    HW121663   0.822   7.931  11.451
 7213SOL    HW221664   0.721   8.054  11.489
 7214SOL     OW21665   1.657   8.052  12.378
 7214SOL    HW121666   1.619   7.983  12.440
 7214SOL    HW221667   1.739   8.016  12.334
 7215SOL     OW21668   0.252   9.012  12.916
 7215SOL    HW121669   0.222   9.069  12.992
 7215SOL    HW221670   0.245   8.915  12.942
 7216SOL     OW21671   0.671   7.912  12.441
 7216SOL    HW121672   0.637   7.823  12.411
 7216SOL    HW221673   0.697   7.966  12.361
 7217SOL     OW21674   0.930   9.126  12.637
 7217SOL    HW121675   0.906   9.108  12.542
 7217SOL    HW221676   0.960   9.220  12.647
 7218SOL     OW21677   0.473   7.948  11.363
 7218SOL    HW121678   0.534   8.028  11.367
 7218SOL    HW221679   0.378   7.979  11.370
 7219SOL     OW21680   0.159   8.585  12.638
 7219SOL    HW121681   0.181   8.524  12.714
 7219SOL    HW221682   0.169   8.536  12.552
 7220SOL     OW21683   1.347   8.507  12.406
 7220SOL    HW121684   1.371   8.444  12.332
 7220SOL    HW221685   1.257   8.547  12.388
 7221SOL     OW21686   1.302   8.303  11.481
 7221SOL    HW121687   1.216   8.272  11.523
 7221SOL    HW221688   1.298   8.289  11.382
 7222SOL     OW21689   1.759   9.195  12.326
 7222SOL    HW121690   1.820   9.225  12.253
 7222SOL    HW221691   1.721   9.106  12.304
 7223SOL     OW21692   1.252   9.179  12.300
 7223SOL    HW121693   1.336   9.184  12.246
 7223SOL    HW221694   1.229   9.083  12.318
 7224SOL     OW21695   0.083   8.706  12.194
 7224SOL    HW121696   0.078   8.705  12.294
 7224SOL    HW221697   0.000   8.665  12.156
 7225SOL     OW21698   1.726   7.583  11.695
 7225SOL    HW121699   1.799   7.566  11.628
 7225SOL    HW221700   1.695   7.496  11.733
 7226SOL     OW21701   1.388   9.021  11.649
 7226SOL    HW121702   1.455   9.033  11.575
 7226SOL    HW221703   1.348   9.110  11.672
 7227SOL     OW21704   1.280   8.375  11.844
 7227SOL    HW121705   1.340   8.294  11.846
 7227SOL    HW221706   1.320   8.444  11.784
 7228SOL     OW21707   0.830   8.721  12.594
 7228SOL    HW121708   0.825   8.754  12.689
 7228SOL    HW221709   0.744   8.740  12.548
 7229SOL     OW21710   0.672   9.064  11.326
 7229SOL    HW121711   0.681   9.074  11.227
 7229SOL    HW221712   0.632   8.975  11.347
 7230SOL     OW21713   1.650   9.168  12.566
 7230SOL    HW121714   1.703   9.178  12.482
 7230SOL    HW221715   1.623   9.258  12.600
 7231SOL     OW21716   1.841   7.623  12.135
 7231SOL    HW121717   1.880   7.538  12.099
 7231SOL    HW221718   1.743   7.625  12.116
 7232SOL     OW21719   0.263   7.774  11.892
 7232SOL    HW121720   0.184   7.825  11.858
 7232SOL    HW221721   0.254   7.759  11.990
 7233SOL     OW21722   1.194   9.060  11.203
 7233SOL    HW121723   1.200   8.967  11.240
 7233SOL    HW221724   1.135   9.060  11.123
 7234SOL     OW21725   0.822   8.450  12.544
 7234SOL    HW121726   0.862   8.449  12.452
 7234SOL    HW221727   0.832   8.542  12.584
 7235SOL     OW21728   0.916   8.358  11.463
 7235SOL    HW121729   0.979   8.396  11.395
 7235SOL    HW221730   0.956   8.275  11.502
 7236SOL     OW21731   1.504   9.055  11.216
 7236SOL    HW121732   1.412   9.092  11.223
 7236SOL    HW221733   1.542   9.075  11.126
 7237SOL     OW21734   0.372   8.736  12.662
 7237SOL    HW121735   0.359   8.829  12.628
 7237SOL    HW221736   0.288   8.684  12.649
 7238SOL     OW21737   1.614   8.740  12.461
 7238SOL    HW121738   1.674   8.743  12.541
 7238SOL    HW221739   1.539   8.804  12.474
 7239SOL     OW21740   1.039   8.546  11.868
 7239SOL    HW121741   0.969   8.499  11.922
 7239SOL    HW221742   1.098   8.478  11.825
 7240SOL     OW21743   1.014   7.684  12.143
 7240SOL    HW121744   1.006   7.648  12.050
 7240SOL    HW221745   1.012   7.608  12.208
 7241SOL     OW21746   0.590   8.935  11.663
 7241SOL    HW121747   0.632   8.877  11.593
 7241SOL    HW221748   0.546   9.014  11.619
 7242SOL     OW21749   1.709   7.833  12.553
 7242SOL    HW121750   1.782   7.902  12.557
 7242SOL    HW221751   1.737   7.758  12.494
 7243SOL     OW21752   0.255   8.796  11.462
 7243SOL    HW121753   0.159   8.797  11.435
 7243SOL    HW221754   0.267   8.849  11.546
 7244SOL     OW21755   0.105   8.461  12.898
 7244SOL    HW121756   0.028   8.428  12.952
 7244SOL    HW221757   0.190   8.431  12.940
 7245SOL     OW21758   0.672   7.651  12.661
 7245SOL    HW121759   0.762   7.635  12.621
 7245SOL    HW221760   0.680   7.656  12.760
 7246SOL     OW21761   0.075   7.793  11.205
 7246SOL    HW121762  -0.017   7.765  11.176
 7246SOL    HW221763   0.106   7.870  11.149
 7247SOL     OW21764   1.440   8.304  12.570
 7247SOL    HW121765   1.383   8.356  12.507
 7247SOL    HW221766   1.536   8.316  12.546
 7248SOL     OW21767   0.072   7.614  11.490
 7248SOL    HW121768   0.055   7.697  11.436
 7248SOL    HW221769   0.162   7.577  11.468
 7249SOL     OW21770   1.183   8.783  11.291
 7249SOL    HW121771   1.084   8.772  11.293
 7249SOL    HW221772   1.217   8.798  11.384
 7250SOL     OW21773   0.613   8.290  12.603
 7250SOL    HW121774   0.669   8.371  12.586
 7250SOL    HW221775   0.672   8.210  12.606
 7251SOL     OW21776   1.493   9.215  12.131
 7251SOL    HW121777   1.526   9.279  12.062
 7251SOL    HW221778   1.559   9.209  12.206
 7252SOL     OW21779   0.716   8.013  12.880
 7252SOL    HW121780   0.735   8.078  12.954
 7252SOL    HW221781   0.776   7.933  12.889
 7253SOL     OW21782   0.390   9.189  12.732
 7253SOL    HW121783   0.299   9.230  12.730
 7253SOL    HW221784   0.383   9.095  12.764
 7254SOL     OW21785   1.674   8.331  12.426
 7254SOL    HW121786   1.647   8.242  12.389
 7254SOL    HW221787   1.675   8.399  12.353
 7255SOL     OW21788   1.225   7.773  11.621
 7255SOL    HW121789   1.290   7.699  11.610
 7255SOL    HW221790   1.245   7.823  11.705
 7256SOL     OW21791   0.594   8.193  11.824
 7256SOL    HW121792   0.644   8.278  11.805
 7256SOL    HW221793   0.506   8.195  11.776
 7257SOL     OW21794   1.777   7.790  12.814
 7257SOL    HW121795   1.760   7.821  12.720
 7257SOL    HW221796   1.693   7.753  12.852
 7258SOL     OW21797   1.730   8.382  12.689
 7258SOL    HW121798   1.768   8.473  12.704
 7258SOL    HW221799   1.722   8.365  12.590
 7259SOL     OW21800   0.859   8.822  11.188
 7259SOL    HW121801   0.813   8.837  11.276
 7259SOL    HW221802   0.903   8.907  11.158
 7260SOL     OW21803   0.661   9.238  12.125
 7260SOL    HW121804   0.615   9.326  12.112
 7260SOL    HW221805   0.760   9.250  12.118
 7261SOL     OW21806   0.859   8.404  12.033
 7261SOL    HW121807   0.913   8.335  12.081
 7261SOL    HW221808   0.827   8.473  12.099
 7262SOL     OW21809   1.083   8.432  11.259
 7262SOL    HW121810   1.060   8.485  11.177
 7262SOL    HW221811   1.164   8.376  11.240
 7263SOL     OW21812   1.861   9.017  12.023
 7263SOL    HW121813   1.790   9.005  11.953
 7263SOL    HW221814   1.862   8.938  12.083
 7264SOL     OW21815   0.079   8.688  11.825
 7264SOL    HW121816   0.078   8.641  11.913
 7264SOL    HW221817   0.161   8.660  11.774
 7265SOL     OW21818   0.672   8.839  12.796
 7265SOL    HW121819   0.594   8.789  12.834
 7265SOL    HW221820   0.669   8.934  12.827
 7266SOL     OW21821   1.824   7.640  12.399
 7266SOL    HW121822   1.820   7.550  12.443
 7266SOL    HW221823   1.827   7.629  12.300
 7267SOL     OW21824   0.428   7.872  11.692
 7267SOL    HW121825   0.458   7.800  11.630
 7267SOL    HW221826   0.389   7.832  11.775
 7268SOL     OW21827   1.705   8.935  12.276
 7268SOL    HW121828   1.612   8.910  12.249
 7268SOL    HW221829   1.731   8.885  12.358
 7269SOL     OW21830   0.317   7.995  12.452
 7269SOL    HW121831   0.355   7.936  12.524
 7269SOL    HW221832   0.357   7.969  12.364
 7270SOL     OW21833   0.812   9.034  11.859
 7270SOL    HW121834   0.844   9.044  11.765
 7270SOL    HW221835   0.733   8.972  11.861
 7271SOL     OW21836   1.424   7.662  12.284
 7271SOL    HW121837   1.476   7.597  12.339
 7271SOL    HW221838   1.375   7.725  12.345
 7272SOL     OW21839   1.001   7.482  12.326
 7272SOL    HW121840   0.938   7.410  12.295
 7272SOL    HW221841   1.094   7.446  12.326
 7273SOL     OW21842   0.770   8.778  11.473
 7273SOL    HW121843   0.724   8.691  11.490
 7273SOL    HW221844   0.861   8.775  11.514
 7274SOL     OW21845   0.618   9.015  12.456
 7274SOL    HW121846   0.613   9.097  12.513
 7274SOL    HW221847   0.707   9.012  12.411
 7275SOL     OW21848   1.352   7.500  11.340
 7275SOL    HW121849   1.387   7.459  11.256
 7275SOL    HW221850   1.262   7.462  11.360
 7276SOL     OW21851   1.300   7.901  11.863
 7276SOL    HW121852   1.241   7.981  11.867
 7276SOL    HW221853   1.315   7.866  11.956
 7277SOL     OW21854   1.593   7.669  12.054
 7277SOL    HW121855   1.509   7.668  12.108
 7277SOL    HW221856   1.595   7.752  11.998
 7278SOL     OW21857   0.039   8.525  11.472
 7278SOL    HW121858   0.138   8.514  11.463
 7278SOL    HW221859  -0.001   8.439  11.504
 7279SOL     OW21860   0.875   9.094  11.509
 7279SOL    HW121861   0.798   9.059  11.455
 7279SOL    HW221862   0.843   9.165  11.571
 7280SOL     OW21863   0.230   9.938   0.113
 7280SOL    HW121864   0.137   9.936   0.150
 7280SOL    HW221865   0.231   9.899   0.021
 7281SOL     OW21866   0.225   9.585   0.996
 7281SOL    HW121867   0.260   9.568   1.088
 7281SOL    HW221868   0.137   9.540   0.984
 7282SOL     OW21869   0.019   9.678   0.647
 7282SOL    HW121870  -0.063   9.721   0.686
 7282SOL    HW221871  -0.009   9.605   0.584
 7283SOL     OW21872   0.569  10.585   1.165
 7283SOL    HW121873   0.476  10.578   1.128
 7283SOL    HW221874   0.580  10.674   1.209
 7284SOL     OW21875   1.555  10.821   0.703
 7284SOL    HW121876   1.498  10.805   0.784
 7284SOL    HW221877   1.496  10.831   0.623
 7285SOL     OW21878   1.135  10.013   0.717
 7285SOL    HW121879   1.192  10.091   0.692
 7285SOL    HW221880   1.075  10.039   0.793
 7286SOL     OW21881   1.755   9.917   0.231
 7286SOL    HW121882   1.743   9.904   0.132
 7286SOL    HW221883   1.725   9.836   0.280
 7287SOL     OW21884   0.768  10.454   1.023
 7287SOL    HW121885   0.690  10.471   1.083
 7287SOL    HW221886   0.802  10.541   0.987
 7288SOL     OW21887   0.850  10.108   1.823
 7288SOL    HW121888   0.846  10.184   1.888
 7288SOL    HW221889   0.872  10.144   1.732
 7289SOL     OW21890   0.685  10.322   0.665
 7289SOL    HW121891   0.754  10.306   0.735
 7289SOL    HW221892   0.612  10.379   0.703
 7290SOL     OW21893   0.686  10.471   1.803
 7290SOL    HW121894   0.746  10.550   1.817
 7290SOL    HW221895   0.600  10.502   1.762
 7291SOL     OW21896   0.335  10.745   1.061
 7291SOL    HW121897   0.257  10.714   1.008
 7291SOL    HW221898   0.393  10.803   1.004
 7292SOL     OW21899   1.460  10.815   1.339
 7292SOL    HW121900   1.484  10.909   1.365
 7292SOL    HW221901   1.444  10.761   1.421
 7293SOL     OW21902   0.438   9.702   1.499
 7293SOL    HW121903   0.520   9.646   1.508
 7293SOL    HW221904   0.357   9.644   1.503
 7294SOL     OW21905   1.603   9.757   0.737
 7294SOL    HW121906   1.529   9.803   0.687
 7294SOL    HW221907   1.654   9.825   0.790
 7295SOL     OW21908   0.231  11.023   0.483
 7295SOL    HW121909   0.265  11.100   0.537
 7295SOL    HW221910   0.275  11.023   0.393
 7296SOL     OW21911   1.127  10.651   1.690
 7296SOL    HW121912   1.174  10.651   1.778
 7296SOL    HW221913   1.079  10.564   1.679
 7297SOL     OW21914   0.230  10.744   0.538
 7297SOL    HW121915   0.204  10.840   0.538
 7297SOL    HW221916   0.159  10.690   0.583
 7298SOL     OW21917   0.240  10.401   0.886
 7298SOL    HW121918   0.254  10.317   0.938
 7298SOL    HW221919   0.185  10.465   0.941
 7299SOL     OW21920   0.620  11.096   1.439
 7299SOL    HW121921   0.528  11.079   1.474
 7299SOL    HW221922   0.648  11.188   1.465
 7300SOL     OW21923   0.606  10.274   0.123
 7300SOL    HW121924   0.613  10.358   0.069
 7300SOL    HW221925   0.652  10.287   0.211
 7301SOL     OW21926   1.594   9.424   1.480
 7301SOL    HW121927   1.576   9.491   1.408
 7301SOL    HW221928   1.591   9.470   1.569
 7302SOL     OW21929   0.122   9.953   0.563
 7302SOL    HW121930   0.077   9.865   0.580
 7302SOL    HW221931   0.121  10.007   0.647
 7303SOL     OW21932   1.842  11.077   0.359
 7303SOL    HW121933   1.896  11.048   0.439
 7303SOL    HW221934   1.872  11.167   0.330
 7304SOL     OW21935   0.027  10.906   0.117
 7304SOL    HW121936   0.008  10.810   0.138
 7304SOL    HW221937  -0.006  10.964   0.192
 7305SOL     OW21938   1.689  10.232   0.612
 7305SOL    HW121939   1.784  10.203   0.620
 7305SOL    HW221940   1.681  10.297   0.537
 7306SOL     OW21941   1.641  10.418   0.432
 7306SOL    HW121942   1.727  10.420   0.380
 7306SOL    HW221943   1.655  10.465   0.520
 7307SOL     OW21944   0.113  10.047   1.597
 7307SOL    HW121945   0.201  10.034   1.642
 7307SOL    HW221946   0.100  10.144   1.575
 7308SOL     OW21947   0.613  10.675   0.726
 7308SOL    HW121948   0.564  10.588   0.735
 7308SOL    HW221949   0.590  10.718   0.639
 7309SOL     OW21950   1.293  10.538   1.423
 7309SOL    HW121951   1.330  10.465   1.365
 7309SOL    HW221952   1.345  10.543   1.508
 7310SOL     OW21953   0.809   9.314   0.502
 7310SOL    HW121954   0.849   9.405   0.493
 7310SOL    HW221955   0.709   9.322   0.508
 7311SOL     OW21956   0.197  10.286   1.264
 7311SOL    HW121957   0.286  10.241   1.250
 7311SOL    HW221958   0.124  10.221   1.245
 7312SOL     OW21959   1.525  10.309   0.190
 7312SOL    HW121960   1.462  10.233   0.203
 7312SOL    HW221961   1.573  10.327   0.276
 7313SOL     OW21962   1.187  11.102   1.616
 7313SOL    HW121963   1.211  11.162   1.540
 7313SOL    HW221964   1.194  11.007   1.586
 7314SOL     OW21965   0.317   9.561   1.801
 7314SOL    HW121966   0.388   9.632   1.807
 7314SOL    HW221967   0.229   9.600   1.829
 7315SOL     OW21968   1.466  10.727   0.953
 7315SOL    HW121969   1.407  10.733   1.033
 7315SOL    HW221970   1.451  10.639   0.907
 7316SOL     OW21971   1.667  11.024   0.572
 7316SOL    HW121972   1.626  11.001   0.484
 7316SOL    HW221973   1.649  10.950   0.637
 7317SOL     OW21974   0.598  10.039   0.270
 7317SOL    HW121975   0.622  10.108   0.202
 7317SOL    HW221976   0.520  10.072   0.324
 7318SOL     OW21977   1.281   9.655   0.944
 7318SOL    HW121978   1.195   9.605   0.931
 7318SOL    HW221979   1.343   9.601   1.000
 7319SOL     OW21980   1.576  10.972   0.307
 7319SOL    HW121981   1.665  11.018   0.310
 7319SOL    HW221982   1.555  10.948   0.212
 7320SOL     OW21983   0.807   9.915   1.465
 7320SOL    HW121984   0.760   9.912   1.554
 7320SOL    HW221985   0.756   9.860   1.399
 7321SOL     OW21986   1.394   9.779   1.674
 7321SOL    HW121987   1.374   9.822   1.762
 7321SOL    HW221988   1.472   9.717   1.683
 7322SOL     OW21989   0.973  10.200   1.572
 7322SOL    HW121990   1.019  10.116   1.543
 7322SOL    HW221991   0.917  10.234   1.497
 7323SOL     OW21992   0.991   9.720   1.242
 7323SOL    HW121993   0.914   9.754   1.296
 7323SOL    HW221994   0.957   9.669   1.163
 7324SOL     OW21995   1.041  10.011   0.429
 7324SOL    HW121996   1.067  10.007   0.525
 7324SOL    HW221997   0.956   9.960   0.415
 7325SOL     OW21998   0.076  10.121   0.789
 7325SOL    HW121999   0.175  10.109   0.798
 7325SOL    HW222000   0.052  10.216   0.810
 7326SOL     OW22001   0.130  11.131   1.571
 7326SOL    HW122002   0.120  11.116   1.670
 7326SOL    HW222003   0.044  11.167   1.535
 7327SOL     OW22004   0.865   9.658   0.195
 7327SOL    HW122005   0.924   9.721   0.146
 7327SOL    HW222006   0.884   9.564   0.166
 7328SOL     OW22007   1.719   9.895   1.831
 7328SOL    HW122008   1.693   9.984   1.795
 7328SOL    HW222009   1.717   9.827   1.758
 7329SOL     OW22010   1.362  10.454   0.545
 7329SOL    HW122011   1.445  10.425   0.497
 7329SOL    HW222012   1.313  10.521   0.489
 7330SOL     OW22013   0.550   9.506   0.885
 7330SOL    HW122014   0.545   9.501   0.985
 7330SOL    HW222015   0.552   9.602   0.856
 7331SOL     OW22016   1.008  10.766   0.477
 7331SOL    HW122017   0.962  10.838   0.425
 7331SOL    HW222018   1.004  10.786   0.575
 7332SOL     OW22019   0.351  11.111   0.853
 7332SOL    HW122020   0.401  11.025   0.859
 7332SOL    HW222021   0.416  11.188   0.850
 7333SOL     OW22022   1.795  10.376   0.873
 7333SOL    HW122023   1.733  10.361   0.797
 7333SOL    HW222024   1.743  10.387   0.958
 7334SOL     OW22025   1.227  10.860   1.506
 7334SOL    HW122026   1.233  10.783   1.570
 7334SOL    HW222027   1.175  10.834   1.426
 7335SOL     OW22028   0.321  10.253   0.242
 7335SOL    HW122029   0.403  10.292   0.200
 7335SOL    HW222030   0.294  10.171   0.193
 7336SOL     OW22031   1.458  10.045   0.728
 7336SOL    HW122032   1.453   9.980   0.803
 7336SOL    HW222033   1.538  10.104   0.741
 7337SOL     OW22034   0.461  10.576   1.727
 7337SOL    HW122035   0.411  10.577   1.641
 7337SOL    HW222036   0.398  10.558   1.803
 7338SOL     OW22037   1.111  11.086   0.237
 7338SOL    HW122038   1.051  11.024   0.287
 7338SOL    HW222039   1.142  11.042   0.152
 7339SOL     OW22040   0.202   9.595   1.498
 7339SOL    HW122041   0.122   9.655   1.485
 7339SOL    HW222042   0.192   9.546   1.584
 7340SOL     OW22043   1.632  10.687   0.081
 7340SOL    HW122044   1.600  10.781   0.071
 7340SOL    HW222045   1.556  10.624   0.069
 7341SOL     OW22046   0.464  11.053   0.323
 7341SOL    HW122047   0.497  11.092   0.409
 7341SOL    HW222048   0.540  11.046   0.258
 7342SOL     OW22049   1.400   9.417   0.426
 7342SOL    HW122050   1.376   9.380   0.336
 7342SOL    HW222051   1.499   9.433   0.430
 7343SOL     OW22052   0.249  11.095   1.241
 7343SOL    HW122053   0.306  11.030   1.291
 7343SOL    HW222054   0.233  11.062   1.148
 7344SOL     OW22055   0.940  11.008   0.904
 7344SOL    HW122056   1.020  10.951   0.925
 7344SOL    HW222057   0.891  10.968   0.827
 7345SOL     OW22058   0.382  10.010   0.480
 7345SOL    HW122059   0.427   9.920   0.477
 7345SOL    HW222060   0.288   9.999   0.513
 7346SOL     OW22061   1.547   9.532   1.729
 7346SOL    HW122062   1.542   9.569   1.821
 7346SOL    HW222063   1.475   9.463   1.717
 7347SOL     OW22064   0.614   9.432   0.117
 7347SOL    HW122065   0.712   9.410   0.124
 7347SOL    HW222066   0.583   9.415   0.024
 7348SOL     OW22067   0.781   9.574   1.749
 7348SOL    HW122068   0.848   9.513   1.792
 7348SOL    HW222069   0.708   9.593   1.814
 7349SOL     OW22070   0.888  10.824   1.195
 7349SOL    HW122071   0.865  10.799   1.101
 7349SOL    HW222072   0.949  10.755   1.234
 7350SOL     OW22073   1.351   9.900   1.433
 7350SOL    HW122074   1.379   9.857   1.518
 7350SOL    HW222075   1.376   9.996   1.434
 7351SOL     OW22076   0.803  10.712   0.924
 7351SOL    HW122077   0.893  10.726   0.882
 7351SOL    HW222078   0.732  10.714   0.853
 7352SOL     OW22079   0.922   9.813   0.899
 7352SOL    HW122080   0.897   9.804   0.803
 7352SOL    HW222081   0.970   9.731   0.930
 7353SOL     OW22082   0.539   9.374   0.512
 7353SOL    HW122083   0.458   9.375   0.570
 7353SOL    HW222084   0.542   9.457   0.457
 7354SOL     OW22085   1.434  10.498   0.041
 7354SOL    HW122086   1.466  10.422   0.098
 7354SOL    HW222087   1.342  10.525   0.071
 7355SOL     OW22088   0.297   9.345   0.171
 7355SOL    HW122089   0.346   9.429   0.150
 7355SOL    HW222090   0.359   9.280   0.216
 7356SOL     OW22091   0.935   9.546   0.480
 7356SOL    HW122092   0.887   9.587   0.402
 7356SOL    HW222093   1.034   9.544   0.461
 7357SOL     OW22094   1.076   9.993   1.464
 7357SOL    HW122095   0.996   9.932   1.467
 7357SOL    HW222096   1.157   9.940   1.440
 7358SOL     OW22097   1.227  10.880   0.793
 7358SOL    HW122098   1.248  10.954   0.728
 7358SOL    HW222099   1.295  10.880   0.866
 7359SOL     OW22100   0.459  10.462   0.741
 7359SOL    HW122101   0.388  10.435   0.806
 7359SOL    HW222102   0.433  10.434   0.648
 7360SOL     OW22103   1.271  11.107   0.591
 7360SOL    HW122104   1.315  11.171   0.527
 7360SOL    HW222105   1.221  11.159   0.661
 7361SOL     OW22106   1.032   9.859   0.016
 7361SOL    HW122107   0.991   9.941  -0.023
 7361SOL    HW222108   1.096   9.885   0.089
 7362SOL     OW22109   0.078   9.866   1.386
 7362SOL    HW122110   0.170   9.865   1.345
 7362SOL    HW222111   0.072   9.940   1.453
 7363SOL     OW22112   0.561   9.532   1.147
 7363SOL    HW122113   0.599   9.448   1.184
 7363SOL    HW222114   0.473   9.551   1.191
 7364SOL     OW22115   0.866   9.764   0.642
 7364SOL    HW122116   0.834   9.836   0.580
 7364SOL    HW222117   0.890   9.683   0.589
 7365SOL     OW22118   1.017   9.349   0.753
 7365SOL    HW122119   0.945   9.354   0.684
 7365SOL    HW222120   0.993   9.280   0.822
 7366SOL     OW22121   1.429  10.483   0.867
 7366SOL    HW122122   1.374  10.399   0.860
 7366SOL    HW222123   1.455  10.512   0.775
 7367SOL     OW22124   1.466   9.900   0.992
 7367SOL    HW122125   1.436   9.805   0.999
 7367SOL    HW222126   1.539   9.916   1.058
 7368SOL     OW22127   1.857  10.143   0.377
 7368SOL    HW122128   1.899  10.079   0.441
 7368SOL    HW222129   1.819  10.092   0.299
 7369SOL     OW22130   0.488  10.695   0.174
 7369SOL    HW122131   0.401  10.680   0.221
 7369SOL    HW222132   0.471  10.721   0.079
 7370SOL     OW22133   1.664  10.590   0.657
 7370SOL    HW122134   1.763  10.598   0.671
 7370SOL    HW222135   1.619  10.674   0.688
 7371SOL     OW22136   1.390   9.885   0.078
 7371SOL    HW122137   1.336   9.864   0.159
 7371SOL    HW222138   1.481   9.844   0.087
 7372SOL     OW22139   0.527   9.566   0.328
 7372SOL    HW122140   0.554   9.507   0.253
 7372SOL    HW222141   0.527   9.661   0.297
 7373SOL     OW22142   1.754  10.533   1.588
 7373SOL    HW122143   1.845  10.494   1.575
 7373SOL    HW222144   1.762  10.629   1.612
 7374SOL     OW22145   1.064  10.657   1.340
 7374SOL    HW122146   0.984  10.634   1.395
 7374SOL    HW222147   1.147  10.631   1.389
 7375SOL     OW22148   1.592  10.939   1.625
 7375SOL    HW122149   1.619  10.973   1.535
 7375SOL    HW222150   1.671  10.901   1.671
 7376SOL     OW22151   1.111  10.505   1.100
 7376SOL    HW122152   1.071  10.549   1.181
 7376SOL    HW222153   1.070  10.542   1.017
 7377SOL     OW22154   1.638  10.409   1.079
 7377SOL    HW122155   1.643  10.490   1.138
 7377SOL    HW222156   1.552  10.411   1.028
 7378SOL     OW22157   0.915   9.399   1.402
 7378SOL    HW122158   0.940   9.379   1.307
 7378SOL    HW222159   0.987   9.455   1.444
 7379SOL     OW22160   0.980  10.426   1.719
 7379SOL    HW122161   0.881  10.432   1.729
 7379SOL    HW222162   1.003  10.346   1.663
 7380SOL     OW22163   0.705  10.360   0.368
 7380SOL    HW122164   0.691  10.367   0.467
 7380SOL    HW222165   0.789  10.309   0.350
 7381SOL     OW22166   0.410  10.123   1.251
 7381SOL    HW122167   0.496  10.135   1.301
 7381SOL    HW222168   0.368  10.036   1.278
 7382SOL     OW22169   1.274   9.696   1.262
 7382SOL    HW122170   1.295   9.770   1.326
 7382SOL    HW222171   1.185   9.713   1.219
 7383SOL     OW22172   0.064  10.874   1.331
 7383SOL    HW122173   0.018  10.956   1.297
 7383SOL    HW222174   0.162  10.893   1.340
 7384SOL     OW22175   0.367  10.410   0.501
 7384SOL    HW122176   0.360  10.493   0.445
 7384SOL    HW222177   0.371  10.330   0.441
 7385SOL     OW22178   0.566   9.847   0.865
 7385SOL    HW122179   0.578   9.913   0.791
 7385SOL    HW222180   0.612   9.881   0.948
 7386SOL     OW22181   1.252  10.658   0.388
 7386SOL    HW122182   1.302  10.735   0.428
 7386SOL    HW222183   1.157  10.660   0.420
 7387SOL     OW22184   1.272  10.755   1.142
 7387SOL    HW122185   1.319  10.768   1.229
 7387SOL    HW222186   1.206  10.681   1.151
 7388SOL     OW22187   1.582   9.949   0.472
 7388SOL    HW122188   1.551  10.010   0.545
 7388SOL    HW222189   1.632  10.001   0.403
 7389SOL     OW22190   0.354  10.820   1.329
 7389SOL    HW122191   0.333  10.776   1.242
 7389SOL    HW222192   0.451  10.846   1.332
 7390SOL     OW22193   0.402  10.061   1.598
 7390SOL    HW122194   0.470  10.116   1.551
 7390SOL    HW222195   0.442   9.973   1.625
 7391SOL     OW22196   1.587  10.089   1.670
 7391SOL    HW122197   1.495  10.127   1.665
 7391SOL    HW222198   1.647  10.136   1.605
 7392SOL     OW22199   1.013   9.415   1.770
 7392SOL    HW122200   1.019   9.500   1.718
 7392SOL    HW222201   1.045   9.339   1.713
 7393SOL     OW22202   0.504   9.360   1.740
 7393SOL    HW122203   0.462   9.303   1.670
 7393SOL    HW222204   0.438   9.429   1.772
 7394SOL     OW22205   0.573  10.180   1.029
 7394SOL    HW122206   0.617  10.269   1.020
 7394SOL    HW222207   0.510  10.180   1.106
 7395SOL     OW22208   1.360  10.172   1.045
 7395SOL    HW122209   1.285  10.172   0.979
 7395SOL    HW222210   1.397  10.080   1.054
 7396SOL     OW22211   1.209   9.835   0.275
 7396SOL    HW122212   1.222   9.751   0.329
 7396SOL    HW222213   1.180   9.909   0.335
 7397SOL     OW22214   0.307   9.523   1.231
 7397SOL    HW122215   0.284   9.560   1.321
 7397SOL    HW222216   0.277   9.428   1.225
 7398SOL     OW22217   0.037  10.620   1.282
 7398SOL    HW122218   0.090  10.571   1.350
 7398SOL    HW222219   0.059  10.718   1.287
 7399SOL     OW22220   0.732   9.944   1.064
 7399SOL    HW122221   0.791   9.918   0.988
 7399SOL    HW222222   0.704  10.040   1.053
 7400SOL     OW22223   1.728  10.245   1.854
 7400SOL    HW122224   1.682  10.238   1.765
 7400SOL    HW222225   1.666  10.289   1.920
 7401SOL     OW22226   0.307   9.373   0.618
 7401SOL    HW122227   0.296   9.467   0.651
 7401SOL    HW222228   0.302   9.310   0.695
 7402SOL     OW22229   1.622   9.677   0.374
 7402SOL    HW122230   1.624   9.601   0.438
 7402SOL    HW222231   1.574   9.754   0.414
 7403SOL     OW22232   1.023  10.076   0.966
 7403SOL    HW122233   1.038  10.097   1.062
 7403SOL    HW222234   0.993   9.981   0.957
 7404SOL     OW22235   0.980  10.883   1.700
 7404SOL    HW122236   0.960  10.927   1.612
 7404SOL    HW222237   1.019  10.792   1.684
 7405SOL     OW22238   1.859  10.828   1.605
 7405SOL    HW122239   1.873  10.855   1.510
 7405SOL    HW222240   1.942  10.850   1.658
 7406SOL     OW22241   0.350  10.208   1.804
 7406SOL    HW122242   0.426  10.252   1.852
 7406SOL    HW222243   0.385  10.161   1.722
 7407SOL     OW22244   1.540   9.584   0.125
 7407SOL    HW122245   1.479   9.509   0.148
 7407SOL    HW222246   1.562   9.636   0.208
 7408SOL     OW22247   1.303  10.148   0.042
 7408SOL    HW122248   1.337  10.055   0.057
 7408SOL    HW222249   1.321  10.175  -0.053
 7409SOL     OW22250   1.068  10.643   0.849
 7409SOL    HW122251   1.075  10.559   0.794
 7409SOL    HW222252   1.130  10.712   0.813
 7410SOL     OW22253   0.319  10.120   0.949
 7410SOL    HW122254   0.412  10.156   0.954
 7410SOL    HW222255   0.313  10.035   1.001
 7411SOL     OW22256   0.339   9.819   1.006
 7411SOL    HW122257   0.287   9.736   0.989
 7411SOL    HW222258   0.416   9.824   0.942
 7412SOL     OW22259   1.138   9.690   1.678
 7412SOL    HW122260   1.093   9.753   1.742
 7412SOL    HW222261   1.231   9.721   1.661
 7413SOL     OW22262   1.160   9.517   1.477
 7413SOL    HW122263   1.160   9.581   1.554
 7413SOL    HW222264   1.188   9.565   1.394
 7414SOL     OW22265   0.008  10.636   0.200
 7414SOL    HW122266  -0.085  10.657   0.169
 7414SOL    HW222267   0.018  10.537   0.213
 7415SOL     OW22268   0.088  11.111   0.927
 7415SOL    HW122269   0.046  11.025   0.900
 7415SOL    HW222270   0.182  11.114   0.893
 7416SOL     OW22271   0.504  10.878   0.910
 7416SOL    HW122272   0.570  10.952   0.919
 7416SOL    HW222273   0.548  10.799   0.868
 7417SOL     OW22274   1.002  10.106   1.238
 7417SOL    HW122275   1.043  10.074   1.324
 7417SOL    HW222276   0.906  10.079   1.235
 7418SOL     OW22277   0.040   9.854   1.114
 7418SOL    HW122278   0.125   9.821   1.073
 7418SOL    HW222279   0.053   9.869   1.212
 7419SOL     OW22280   0.189   9.830   1.722
 7419SOL    HW122281   0.248   9.790   1.652
 7419SOL    HW222282   0.131   9.901   1.681
 7420SOL     OW22283   1.369  10.260   1.660
 7420SOL    HW122284   1.408  10.349   1.680
 7420SOL    HW222285   1.379  10.240   1.563
 7421SOL     OW22286   0.815   9.882   0.325
 7421SOL    HW122287   0.822   9.793   0.279
 7421SOL    HW222288   0.721   9.916   0.317
 7422SOL     OW22289   1.657   9.914   1.206
 7422SOL    HW122290   1.619   9.845   1.268
 7422SOL    HW222291   1.739   9.878   1.162
 7423SOL     OW22292   0.252  10.874   1.744
 7423SOL    HW122293   0.222  10.931   1.820
 7423SOL    HW222294   0.245  10.777   1.770
 7424SOL     OW22295   0.671   9.774   1.269
 7424SOL    HW122296   0.637   9.685   1.239
 7424SOL    HW222297   0.697   9.828   1.189
 7425SOL     OW22298   0.930  10.988   1.465
 7425SOL    HW122299   0.906  10.970   1.370
 7425SOL    HW222300   0.960  11.082   1.475
 7426SOL     OW22301   0.473   9.810   0.191
 7426SOL    HW122302   0.534   9.890   0.195
 7426SOL    HW222303   0.378   9.841   0.198
 7427SOL     OW22304   0.159  10.447   1.466
 7427SOL    HW122305   0.181  10.386   1.542
 7427SOL    HW222306   0.169  10.398   1.380
 7428SOL     OW22307   1.347  10.369   1.234
 7428SOL    HW122308   1.371  10.306   1.160
 7428SOL    HW222309   1.257  10.409   1.216
 7429SOL     OW22310   1.302  10.165   0.309
 7429SOL    HW122311   1.216  10.134   0.351
 7429SOL    HW222312   1.298  10.151   0.210
 7430SOL     OW22313   1.759  11.057   1.154
 7430SOL    HW122314   1.820  11.087   1.081
 7430SOL    HW222315   1.721  10.968   1.132
 7431SOL     OW22316   1.252  11.041   1.128
 7431SOL    HW122317   1.336  11.046   1.074
 7431SOL    HW222318   1.229  10.945   1.146
 7432SOL     OW22319   0.083  10.568   1.022
 7432SOL    HW122320   0.078  10.567   1.122
 7432SOL    HW222321   0.000  10.527   0.984
 7433SOL     OW22322   0.688  10.972   1.716
 7433SOL    HW122323   0.632  11.053   1.725
 7433SOL    HW222324   0.740  10.976   1.630
 7434SOL     OW22325   0.903   9.396   0.133
 7434SOL    HW122326   0.954   9.397   0.047
 7434SOL    HW222327   0.959   9.354   0.204
 7435SOL     OW22328   1.726   9.445   0.523
 7435SOL    HW122329   1.799   9.428   0.456
 7435SOL    HW222330   1.695   9.358   0.561
 7436SOL     OW22331   1.388  10.883   0.477
 7436SOL    HW122332   1.455  10.895   0.403
 7436SOL    HW222333   1.348  10.972   0.500
 7437SOL     OW22334   0.130  11.104   1.851
 7437SOL    HW122335   0.089  11.030   1.904
 7437SOL    HW222336   0.194  11.155   1.909
 7438SOL     OW22337   1.280  10.237   0.672
 7438SOL    HW122338   1.340  10.156   0.674
 7438SOL    HW222339   1.320  10.306   0.612
 7439SOL     OW22340   0.830  10.583   1.422
 7439SOL    HW122341   0.825  10.616   1.517
 7439SOL    HW222342   0.744  10.602   1.376
 7440SOL     OW22343   0.672  10.926   0.154
 7440SOL    HW122344   0.681  10.936   0.055
 7440SOL    HW222345   0.632  10.837   0.175
 7441SOL     OW22346   1.650  11.030   1.394
 7441SOL    HW122347   1.703  11.040   1.310
 7441SOL    HW222348   1.623  11.120   1.428
 7442SOL     OW22349   1.841   9.485   0.963
 7442SOL    HW122350   1.880   9.400   0.927
 7442SOL    HW222351   1.743   9.487   0.944
 7443SOL     OW22352   0.263   9.636   0.720
 7443SOL    HW122353   0.184   9.687   0.686
 7443SOL    HW222354   0.254   9.621   0.818
 7444SOL     OW22355   1.194  10.922   0.031
 7444SOL    HW122356   1.200  10.829   0.068
 7444SOL    HW222357   1.135  10.922  -0.049
 7445SOL     OW22358   0.822  10.312   1.372
 7445SOL    HW122359   0.862  10.311   1.280
 7445SOL    HW222360   0.832  10.404   1.412
 7446SOL     OW22361   0.916  10.220   0.291
 7446SOL    HW122362   0.979  10.258   0.223
 7446SOL    HW222363   0.956  10.137   0.330
 7447SOL     OW22364   1.504  10.917   0.044
 7447SOL    HW122365   1.412  10.954   0.051
 7447SOL    HW222366   1.542  10.937  -0.046
 7448SOL     OW22367   0.372  10.598   1.490
 7448SOL    HW122368   0.359  10.691   1.456
 7448SOL    HW222369   0.288  10.546   1.477
 7449SOL     OW22370   1.614  10.602   1.289
 7449SOL    HW122371   1.674  10.605   1.369
 7449SOL    HW222372   1.539  10.666   1.302
 7450SOL     OW22373   1.039  10.408   0.696
 7450SOL    HW122374   0.969  10.361   0.750
 7450SOL    HW222375   1.098  10.340   0.653
 7451SOL     OW22376   1.014   9.546   0.971
 7451SOL    HW122377   1.006   9.510   0.878
 7451SOL    HW222378   1.012   9.470   1.036
 7452SOL     OW22379   0.590  10.797   0.491
 7452SOL    HW122380   0.632  10.739   0.421
 7452SOL    HW222381   0.546  10.876   0.447
 7453SOL     OW22382   1.709   9.695   1.381
 7453SOL    HW122383   1.782   9.764   1.385
 7453SOL    HW222384   1.737   9.620   1.322
 7454SOL     OW22385   0.255  10.658   0.290
 7454SOL    HW122386   0.159  10.659   0.263
 7454SOL    HW222387   0.267  10.711   0.374
 7455SOL     OW22388   0.105  10.323   1.726
 7455SOL    HW122389   0.028  10.290   1.780
 7455SOL    HW222390   0.190  10.293   1.768
 7456SOL     OW22391   0.672   9.513   1.489
 7456SOL    HW122392   0.762   9.497   1.449
 7456SOL    HW222393   0.680   9.518   1.588
 7457SOL     OW22394   0.075   9.655   0.033
 7457SOL    HW122395  -0.017   9.627   0.004
 7457SOL    HW222396   0.106   9.732  -0.023
 7458SOL     OW22397   1.440  10.166   1.398
 7458SOL    HW122398   1.383  10.218   1.335
 7458SOL    HW222399   1.536  10.178   1.374
 7459SOL     OW22400   0.072   9.476   0.318
 7459SOL    HW122401   0.055   9.559   0.264
 7459SOL    HW222402   0.162   9.439   0.296
 7460SOL     OW22403   1.183  10.645   0.119
 7460SOL    HW122404   1.084  10.634   0.121
 7460SOL    HW222405   1.217  10.660   0.212
 7461SOL     OW22406   0.613  10.152   1.431
 7461SOL    HW122407   0.669  10.233   1.414
 7461SOL    HW222408   0.672  10.072   1.434
 7462SOL     OW22409   1.493  11.077   0.959
 7462SOL    HW122410   1.526  11.141   0.890
 7462SOL    HW222411   1.559  11.071   1.034
 7463SOL     OW22412   0.716   9.875   1.708
 7463SOL    HW122413   0.735   9.940   1.782
 7463SOL    HW222414   0.776   9.795   1.717
 7464SOL     OW22415   1.450  10.530   1.633
 7464SOL    HW122416   1.441  10.520   1.732
 7464SOL    HW222417   1.546  10.523   1.607
 7465SOL     OW22418   0.390  11.051   1.560
 7465SOL    HW122419   0.299  11.092   1.558
 7465SOL    HW222420   0.383  10.957   1.592
 7466SOL     OW22421   1.674  10.193   1.254
 7466SOL    HW122422   1.647  10.104   1.217
 7466SOL    HW222423   1.675  10.261   1.181
 7467SOL     OW22424   1.225   9.635   0.449
 7467SOL    HW122425   1.290   9.561   0.438
 7467SOL    HW222426   1.245   9.685   0.533
 7468SOL     OW22427   0.594  10.055   0.652
 7468SOL    HW122428   0.644  10.140   0.633
 7468SOL    HW222429   0.506  10.057   0.604
 7469SOL     OW22430   1.777   9.652   1.642
 7469SOL    HW122431   1.760   9.683   1.548
 7469SOL    HW222432   1.693   9.615   1.680
 7470SOL     OW22433   1.730  10.244   1.517
 7470SOL    HW122434   1.768  10.335   1.532
 7470SOL    HW222435   1.722  10.227   1.418
 7471SOL     OW22436   0.859  10.684   0.016
 7471SOL    HW122437   0.813  10.699   0.104
 7471SOL    HW222438   0.903  10.769  -0.014
 7472SOL     OW22439   0.661  11.100   0.953
 7472SOL    HW122440   0.615  11.188   0.940
 7472SOL    HW222441   0.760  11.112   0.946
 7473SOL     OW22442   0.859  10.266   0.861
 7473SOL    HW122443   0.913  10.197   0.909
 7473SOL    HW222444   0.827  10.335   0.927
 7474SOL     OW22445   1.083  10.294   0.087
 7474SOL    HW122446   1.060  10.347   0.005
 7474SOL    HW222447   1.164  10.238   0.068
 7475SOL     OW22448   1.861  10.879   0.851
 7475SOL    HW122449   1.790  10.867   0.781
 7475SOL    HW222450   1.862  10.800   0.911
 7476SOL     OW22451   0.221  10.624   1.844
 7476SOL    HW122452   0.156  10.551   1.823
 7476SOL    HW222453   0.225  10.638   1.942
 7477SOL     OW22454   0.079  10.550   0.653
 7477SOL    HW122455   0.078  10.503   0.741
 7477SOL    HW222456   0.161  10.522   0.602
 7478SOL     OW22457   0.672  10.701   1.624
 7478SOL    HW122458   0.594  10.651   1.662
 7478SOL    HW222459   0.669  10.796   1.655
 7479SOL     OW22460   1.824   9.502   1.227
 7479SOL    HW122461   1.820   9.412   1.271
 7479SOL    HW222462   1.827   9.491   1.128
 7480SOL     OW22463   0.428   9.734   0.520
 7480SOL    HW122464   0.458   9.662   0.458
 7480SOL    HW222465   0.389   9.694   0.603
 7481SOL     OW22466   1.705  10.797   1.104
 7481SOL    HW122467   1.612  10.772   1.077
 7481SOL    HW222468   1.731  10.747   1.186
 7482SOL     OW22469   0.317   9.857   1.280
 7482SOL    HW122470   0.355   9.798   1.352
 7482SOL    HW222471   0.357   9.831   1.192
 7483SOL     OW22472   0.812  10.896   0.687
 7483SOL    HW122473   0.844  10.906   0.593
 7483SOL    HW222474   0.733  10.834   0.689
 7484SOL     OW22475   1.424   9.524   1.112
 7484SOL    HW122476   1.476   9.459   1.167
 7484SOL    HW222477   1.375   9.587   1.173
 7485SOL     OW22478   1.001   9.344   1.154
 7485SOL    HW122479   0.938   9.272   1.123
 7485SOL    HW222480   1.094   9.308   1.154
 7486SOL     OW22481   0.770  10.640   0.301
 7486SOL    HW122482   0.724  10.553   0.318
 7486SOL    HW222483   0.861  10.637   0.342
 7487SOL     OW22484   0.618  10.877   1.284
 7487SOL    HW122485   0.613  10.959   1.341
 7487SOL    HW222486   0.707  10.874   1.239
 7488SOL     OW22487   1.352   9.362   0.168
 7488SOL    HW122488   1.387   9.321   0.084
 7488SOL    HW222489   1.262   9.324   0.188
 7489SOL     OW22490   1.300   9.763   0.691
 7489SOL    HW122491   1.241   9.843   0.695
 7489SOL    HW222492   1.315   9.728   0.784
 7490SOL     OW22493   1.593   9.531   0.882
 7490SOL    HW122494   1.509   9.530   0.936
 7490SOL    HW222495   1.595   9.614   0.826
 7491SOL     OW22496   0.039  10.387   0.300
 7491SOL    HW122497   0.138  10.376   0.291
 7491SOL    HW222498  -0.001  10.301   0.332
 7492SOL     OW22499   0.875  10.956   0.337
 7492SOL    HW122500   0.798  10.921   0.283
 7492SOL    HW222501   0.843  11.027   0.399
 7493SOL     OW22502   0.230   9.938   1.975
 7493SOL    HW122503   0.137   9.936   2.012
 7493SOL    HW222504   0.231   9.899   1.883
 7494SOL     OW22505   0.225   9.585   2.858
 7494SOL    HW122506   0.260   9.568   2.950
 7494SOL    HW222507   0.137   9.540   2.846
 7495SOL     OW22508   0.019   9.678   2.509
 7495SOL    HW122509  -0.063   9.721   2.548
 7495SOL    HW222510  -0.009   9.605   2.446
 7496SOL     OW22511   0.569  10.585   3.027
 7496SOL    HW122512   0.476  10.578   2.990
 7496SOL    HW222513   0.580  10.674   3.071
 7497SOL     OW22514   1.555  10.821   2.565
 7497SOL    HW122515   1.498  10.805   2.646
 7497SOL    HW222516   1.496  10.831   2.485
 7498SOL     OW22517   1.135  10.013   2.579
 7498SOL    HW122518   1.192  10.091   2.554
 7498SOL    HW222519   1.075  10.039   2.655
 7499SOL     OW22520   1.755   9.917   2.093
 7499SOL    HW122521   1.743   9.904   1.994
 7499SOL    HW222522   1.725   9.836   2.142
 7500SOL     OW22523   0.768  10.454   2.885
 7500SOL    HW122524   0.690  10.471   2.945
 7500SOL    HW222525   0.802  10.541   2.849
 7501SOL     OW22526   0.850  10.108   3.685
 7501SOL    HW122527   0.846  10.184   3.750
 7501SOL    HW222528   0.872  10.144   3.594
 7502SOL     OW22529   0.685  10.322   2.527
 7502SOL    HW122530   0.754  10.306   2.597
 7502SOL    HW222531   0.612  10.379   2.565
 7503SOL     OW22532   0.686  10.471   3.665
 7503SOL    HW122533   0.746  10.550   3.679
 7503SOL    HW222534   0.600  10.502   3.624
 7504SOL     OW22535   0.335  10.745   2.923
 7504SOL    HW122536   0.257  10.714   2.870
 7504SOL    HW222537   0.393  10.803   2.866
 7505SOL     OW22538   1.460  10.815   3.201
 7505SOL    HW122539   1.484  10.909   3.227
 7505SOL    HW222540   1.444  10.761   3.283
 7506SOL     OW22541   0.438   9.702   3.361
 7506SOL    HW122542   0.520   9.646   3.370
 7506SOL    HW222543   0.357   9.644   3.365
 7507SOL     OW22544   1.603   9.757   2.599
 7507SOL    HW122545   1.529   9.803   2.549
 7507SOL    HW222546   1.654   9.825   2.652
 7508SOL     OW22547   0.231  11.023   2.345
 7508SOL    HW122548   0.265  11.100   2.399
 7508SOL    HW222549   0.275  11.023   2.255
 7509SOL     OW22550   1.127  10.651   3.552
 7509SOL    HW122551   1.174  10.651   3.640
 7509SOL    HW222552   1.079  10.564   3.541
 7510SOL     OW22553   0.230  10.744   2.400
 7510SOL    HW122554   0.204  10.840   2.400
 7510SOL    HW222555   0.159  10.690   2.445
 7511SOL     OW22556   0.240  10.401   2.748
 7511SOL    HW122557   0.254  10.317   2.800
 7511SOL    HW222558   0.185  10.465   2.803
 7512SOL     OW22559   0.620  11.096   3.301
 7512SOL    HW122560   0.528  11.079   3.336
 7512SOL    HW222561   0.648  11.188   3.327
 7513SOL     OW22562   0.606  10.274   1.985
 7513SOL    HW122563   0.613  10.358   1.931
 7513SOL    HW222564   0.652  10.287   2.073
 7514SOL     OW22565   1.594   9.424   3.342
 7514SOL    HW122566   1.576   9.491   3.270
 7514SOL    HW222567   1.591   9.470   3.431
 7515SOL     OW22568   0.122   9.953   2.425
 7515SOL    HW122569   0.077   9.865   2.442
 7515SOL    HW222570   0.121  10.007   2.509
 7516SOL     OW22571   1.842  11.077   2.221
 7516SOL    HW122572   1.896  11.048   2.301
 7516SOL    HW222573   1.872  11.167   2.192
 7517SOL     OW22574   0.027  10.906   1.979
 7517SOL    HW122575   0.008  10.810   2.000
 7517SOL    HW222576  -0.006  10.964   2.054
 7518SOL     OW22577   1.689  10.232   2.474
 7518SOL    HW122578   1.784  10.203   2.482
 7518SOL    HW222579   1.681  10.297   2.399
 7519SOL     OW22580   1.641  10.418   2.294
 7519SOL    HW122581   1.727  10.420   2.242
 7519SOL    HW222582   1.655  10.465   2.382
 7520SOL     OW22583   0.113  10.047   3.459
 7520SOL    HW122584   0.201  10.034   3.504
 7520SOL    HW222585   0.100  10.144   3.437
 7521SOL     OW22586   0.613  10.675   2.588
 7521SOL    HW122587   0.564  10.588   2.597
 7521SOL    HW222588   0.590  10.718   2.501
 7522SOL     OW22589   1.293  10.538   3.285
 7522SOL    HW122590   1.330  10.465   3.227
 7522SOL    HW222591   1.345  10.543   3.370
 7523SOL     OW22592   0.809   9.314   2.364
 7523SOL    HW122593   0.849   9.405   2.355
 7523SOL    HW222594   0.709   9.322   2.370
 7524SOL     OW22595   0.197  10.286   3.126
 7524SOL    HW122596   0.286  10.241   3.112
 7524SOL    HW222597   0.124  10.221   3.107
 7525SOL     OW22598   1.525  10.309   2.052
 7525SOL    HW122599   1.462  10.233   2.065
 7525SOL    HW222600   1.573  10.327   2.138
 7526SOL     OW22601   1.187  11.102   3.478
 7526SOL    HW122602   1.211  11.162   3.402
 7526SOL    HW222603   1.194  11.007   3.448
 7527SOL     OW22604   0.317   9.561   3.663
 7527SOL    HW122605   0.388   9.632   3.669
 7527SOL    HW222606   0.229   9.600   3.691
 7528SOL     OW22607   1.466  10.727   2.815
 7528SOL    HW122608   1.407  10.733   2.895
 7528SOL    HW222609   1.451  10.639   2.769
 7529SOL     OW22610   1.667  11.024   2.434
 7529SOL    HW122611   1.626  11.001   2.346
 7529SOL    HW222612   1.649  10.950   2.499
 7530SOL     OW22613   0.598  10.039   2.132
 7530SOL    HW122614   0.622  10.108   2.064
 7530SOL    HW222615   0.520  10.072   2.186
 7531SOL     OW22616   1.281   9.655   2.806
 7531SOL    HW122617   1.195   9.605   2.793
 7531SOL    HW222618   1.343   9.601   2.862
 7532SOL     OW22619   1.576  10.972   2.169
 7532SOL    HW122620   1.665  11.018   2.172
 7532SOL    HW222621   1.555  10.948   2.074
 7533SOL     OW22622   0.807   9.915   3.327
 7533SOL    HW122623   0.760   9.912   3.416
 7533SOL    HW222624   0.756   9.860   3.261
 7534SOL     OW22625   1.394   9.779   3.536
 7534SOL    HW122626   1.374   9.822   3.624
 7534SOL    HW222627   1.472   9.717   3.545
 7535SOL     OW22628   0.973  10.200   3.434
 7535SOL    HW122629   1.019  10.116   3.405
 7535SOL    HW222630   0.917  10.234   3.359
 7536SOL     OW22631   0.991   9.720   3.104
 7536SOL    HW122632   0.914   9.754   3.158
 7536SOL    HW222633   0.957   9.669   3.025
 7537SOL     OW22634   1.041  10.011   2.291
 7537SOL    HW122635   1.067  10.007   2.387
 7537SOL    HW222636   0.956   9.960   2.277
 7538SOL     OW22637   0.130  11.131   3.433
 7538SOL    HW122638   0.120  11.116   3.532
 7538SOL    HW222639   0.044  11.167   3.397
 7539SOL     OW22640   0.865   9.658   2.057
 7539SOL    HW122641   0.924   9.721   2.008
 7539SOL    HW222642   0.884   9.564   2.028
 7540SOL     OW22643   1.719   9.895   3.693
 7540SOL    HW122644   1.693   9.984   3.657
 7540SOL    HW222645   1.717   9.827   3.620
 7541SOL     OW22646   1.362  10.454   2.407
 7541SOL    HW122647   1.445  10.425   2.359
 7541SOL    HW222648   1.313  10.521   2.351
 7542SOL     OW22649   0.550   9.506   2.747
 7542SOL    HW122650   0.545   9.501   2.847
 7542SOL    HW222651   0.552   9.602   2.718
 7543SOL     OW22652   1.008  10.766   2.339
 7543SOL    HW122653   0.962  10.838   2.287
 7543SOL    HW222654   1.004  10.786   2.437
 7544SOL     OW22655   0.351  11.111   2.715
 7544SOL    HW122656   0.401  11.025   2.721
 7544SOL    HW222657   0.416  11.188   2.712
 7545SOL     OW22658   1.795  10.376   2.735
 7545SOL    HW122659   1.733  10.361   2.659
 7545SOL    HW222660   1.743  10.387   2.820
 7546SOL     OW22661   1.227  10.860   3.368
 7546SOL    HW122662   1.233  10.783   3.432
 7546SOL    HW222663   1.175  10.834   3.288
 7547SOL     OW22664   0.321  10.253   2.104
 7547SOL    HW122665   0.403  10.292   2.062
 7547SOL    HW222666   0.294  10.171   2.055
 7548SOL     OW22667   1.458  10.045   2.590
 7548SOL    HW122668   1.453   9.980   2.665
 7548SOL    HW222669   1.538  10.104   2.603
 7549SOL     OW22670   0.461  10.576   3.589
 7549SOL    HW122671   0.411  10.577   3.503
 7549SOL    HW222672   0.398  10.558   3.665
 7550SOL     OW22673   1.111  11.086   2.099
 7550SOL    HW122674   1.051  11.024   2.149
 7550SOL    HW222675   1.142  11.042   2.014
 7551SOL     OW22676   0.202   9.595   3.360
 7551SOL    HW122677   0.122   9.655   3.347
 7551SOL    HW222678   0.192   9.546   3.446
 7552SOL     OW22679   1.632  10.687   1.943
 7552SOL    HW122680   1.600  10.781   1.933
 7552SOL    HW222681   1.556  10.624   1.931
 7553SOL     OW22682   0.464  11.053   2.185
 7553SOL    HW122683   0.497  11.092   2.271
 7553SOL    HW222684   0.540  11.046   2.120
 7554SOL     OW22685   1.400   9.417   2.288
 7554SOL    HW122686   1.376   9.380   2.198
 7554SOL    HW222687   1.499   9.433   2.292
 7555SOL     OW22688   0.249  11.095   3.103
 7555SOL    HW122689   0.306  11.030   3.153
 7555SOL    HW222690   0.233  11.062   3.010
 7556SOL     OW22691   0.940  11.008   2.766
 7556SOL    HW122692   1.020  10.951   2.787
 7556SOL    HW222693   0.891  10.968   2.689
 7557SOL     OW22694   0.382  10.010   2.342
 7557SOL    HW122695   0.427   9.920   2.339
 7557SOL    HW222696   0.288   9.999   2.375
 7558SOL     OW22697   1.547   9.532   3.591
 7558SOL    HW122698   1.542   9.569   3.683
 7558SOL    HW222699   1.475   9.463   3.579
 7559SOL     OW22700   0.614   9.432   1.979
 7559SOL    HW122701   0.712   9.410   1.986
 7559SOL    HW222702   0.583   9.415   1.886
 7560SOL     OW22703   0.781   9.574   3.611
 7560SOL    HW122704   0.848   9.513   3.654
 7560SOL    HW222705   0.708   9.593   3.676
 7561SOL     OW22706   0.888  10.824   3.057
 7561SOL    HW122707   0.865  10.799   2.963
 7561SOL    HW222708   0.949  10.755   3.096
 7562SOL     OW22709   1.351   9.900   3.295
 7562SOL    HW122710   1.379   9.857   3.380
 7562SOL    HW222711   1.376   9.996   3.296
 7563SOL     OW22712   0.803  10.712   2.786
 7563SOL    HW122713   0.893  10.726   2.744
 7563SOL    HW222714   0.732  10.714   2.715
 7564SOL     OW22715   0.922   9.813   2.761
 7564SOL    HW122716   0.897   9.804   2.665
 7564SOL    HW222717   0.970   9.731   2.792
 7565SOL     OW22718   0.539   9.374   2.374
 7565SOL    HW122719   0.458   9.375   2.432
 7565SOL    HW222720   0.542   9.457   2.319
 7566SOL     OW22721   1.434  10.498   1.903
 7566SOL    HW122722   1.466  10.422   1.960
 7566SOL    HW222723   1.342  10.525   1.933
 7567SOL     OW22724   0.297   9.345   2.033
 7567SOL    HW122725   0.346   9.429   2.012
 7567SOL    HW222726   0.359   9.280   2.078
 7568SOL     OW22727   0.935   9.546   2.342
 7568SOL    HW122728   0.887   9.587   2.264
 7568SOL    HW222729   1.034   9.544   2.323
 7569SOL     OW22730   1.076   9.993   3.326
 7569SOL    HW122731   0.996   9.932   3.329
 7569SOL    HW222732   1.157   9.940   3.302
 7570SOL     OW22733   1.227  10.880   2.655
 7570SOL    HW122734   1.248  10.954   2.590
 7570SOL    HW222735   1.295  10.880   2.728
 7571SOL     OW22736   0.459  10.462   2.603
 7571SOL    HW122737   0.388  10.435   2.668
 7571SOL    HW222738   0.433  10.434   2.510
 7572SOL     OW22739   1.271  11.107   2.453
 7572SOL    HW122740   1.315  11.171   2.389
 7572SOL    HW222741   1.221  11.159   2.523
 7573SOL     OW22742   1.032   9.859   1.878
 7573SOL    HW122743   0.991   9.941   1.839
 7573SOL    HW222744   1.096   9.885   1.951
 7574SOL     OW22745   0.078   9.866   3.248
 7574SOL    HW122746   0.170   9.865   3.207
 7574SOL    HW222747   0.072   9.940   3.315
 7575SOL     OW22748   0.561   9.532   3.009
 7575SOL    HW122749   0.599   9.448   3.046
 7575SOL    HW222750   0.473   9.551   3.053
 7576SOL     OW22751   0.866   9.764   2.504
 7576SOL    HW122752   0.834   9.836   2.442
 7576SOL    HW222753   0.890   9.683   2.451
 7577SOL     OW22754   1.017   9.349   2.615
 7577SOL    HW122755   0.945   9.354   2.546
 7577SOL    HW222756   0.993   9.280   2.684
 7578SOL     OW22757   1.429  10.483   2.729
 7578SOL    HW122758   1.374  10.399   2.722
 7578SOL    HW222759   1.455  10.512   2.637
 7579SOL     OW22760   1.466   9.900   2.854
 7579SOL    HW122761   1.436   9.805   2.861
 7579SOL    HW222762   1.539   9.916   2.920
 7580SOL     OW22763   1.857  10.143   2.239
 7580SOL    HW122764   1.899  10.079   2.303
 7580SOL    HW222765   1.819  10.092   2.161
 7581SOL     OW22766   0.488  10.695   2.036
 7581SOL    HW122767   0.401  10.680   2.083
 7581SOL    HW222768   0.471  10.721   1.941
 7582SOL     OW22769   1.664  10.590   2.519
 7582SOL    HW122770   1.763  10.598   2.533
 7582SOL    HW222771   1.619  10.674   2.550
 7583SOL     OW22772   1.390   9.885   1.940
 7583SOL    HW122773   1.336   9.864   2.021
 7583SOL    HW222774   1.481   9.844   1.949
 7584SOL     OW22775   0.527   9.566   2.190
 7584SOL    HW122776   0.554   9.507   2.115
 7584SOL    HW222777   0.527   9.661   2.159
 7585SOL     OW22778   1.754  10.533   3.450
 7585SOL    HW122779   1.845  10.494   3.437
 7585SOL    HW222780   1.762  10.629   3.474
 7586SOL     OW22781   1.064  10.657   3.202
 7586SOL    HW122782   0.984  10.634   3.257
 7586SOL    HW222783   1.147  10.631   3.251
 7587SOL     OW22784   1.592  10.939   3.487
 7587SOL    HW122785   1.619  10.973   3.397
 7587SOL    HW222786   1.671  10.901   3.533
 7588SOL     OW22787   1.111  10.505   2.962
 7588SOL    HW122788   1.071  10.549   3.043
 7588SOL    HW222789   1.070  10.542   2.879
 7589SOL     OW22790   1.638  10.409   2.941
 7589SOL    HW122791   1.643  10.490   3.000
 7589SOL    HW222792   1.552  10.411   2.890
 7590SOL     OW22793   0.915   9.399   3.264
 7590SOL    HW122794   0.940   9.379   3.169
 7590SOL    HW222795   0.987   9.455   3.306
 7591SOL     OW22796   0.980  10.426   3.581
 7591SOL    HW122797   0.881  10.432   3.591
 7591SOL    HW222798   1.003  10.346   3.525
 7592SOL     OW22799   0.705  10.360   2.230
 7592SOL    HW122800   0.691  10.367   2.329
 7592SOL    HW222801   0.789  10.309   2.212
 7593SOL     OW22802   0.410  10.123   3.113
 7593SOL    HW122803   0.496  10.135   3.163
 7593SOL    HW222804   0.368  10.036   3.140
 7594SOL     OW22805   1.274   9.696   3.124
 7594SOL    HW122806   1.295   9.770   3.188
 7594SOL    HW222807   1.185   9.713   3.081
 7595SOL     OW22808   0.064  10.874   3.193
 7595SOL    HW122809   0.018  10.956   3.159
 7595SOL    HW222810   0.162  10.893   3.202
 7596SOL     OW22811   0.367  10.410   2.363
 7596SOL    HW122812   0.360  10.493   2.307
 7596SOL    HW222813   0.371  10.330   2.303
 7597SOL     OW22814   0.566   9.847   2.727
 7597SOL    HW122815   0.578   9.913   2.653
 7597SOL    HW222816   0.612   9.881   2.810
 7598SOL     OW22817   1.252  10.658   2.250
 7598SOL    HW122818   1.302  10.735   2.290
 7598SOL    HW222819   1.157  10.660   2.282
 7599SOL     OW22820   1.272  10.755   3.004
 7599SOL    HW122821   1.319  10.768   3.091
 7599SOL    HW222822   1.206  10.681   3.013
 7600SOL     OW22823   1.582   9.949   2.334
 7600SOL    HW122824   1.551  10.010   2.407
 7600SOL    HW222825   1.632  10.001   2.265
 7601SOL     OW22826   0.354  10.820   3.191
 7601SOL    HW122827   0.333  10.776   3.104
 7601SOL    HW222828   0.451  10.846   3.194
 7602SOL     OW22829   0.402  10.061   3.460
 7602SOL    HW122830   0.470  10.116   3.413
 7602SOL    HW222831   0.442   9.973   3.487
 7603SOL     OW22832   1.587  10.089   3.532
 7603SOL    HW122833   1.495  10.127   3.527
 7603SOL    HW222834   1.647  10.136   3.467
 7604SOL     OW22835   1.013   9.415   3.632
 7604SOL    HW122836   1.019   9.500   3.580
 7604SOL    HW222837   1.045   9.339   3.575
 7605SOL     OW22838   0.504   9.360   3.602
 7605SOL    HW122839   0.462   9.303   3.532
 7605SOL    HW222840   0.438   9.429   3.634
 7606SOL     OW22841   0.573  10.180   2.891
 7606SOL    HW122842   0.617  10.269   2.882
 7606SOL    HW222843   0.510  10.180   2.968
 7607SOL     OW22844   1.360  10.172   2.907
 7607SOL    HW122845   1.285  10.172   2.841
 7607SOL    HW222846   1.397  10.080   2.916
 7608SOL     OW22847   1.209   9.835   2.137
 7608SOL    HW122848   1.222   9.751   2.191
 7608SOL    HW222849   1.180   9.909   2.197
 7609SOL     OW22850   0.307   9.523   3.093
 7609SOL    HW122851   0.284   9.560   3.183
 7609SOL    HW222852   0.277   9.428   3.087
 7610SOL     OW22853   0.037  10.620   3.144
 7610SOL    HW122854   0.090  10.571   3.212
 7610SOL    HW222855   0.059  10.718   3.149
 7611SOL     OW22856   0.732   9.944   2.926
 7611SOL    HW122857   0.791   9.918   2.850
 7611SOL    HW222858   0.704  10.040   2.915
 7612SOL     OW22859   1.728  10.245   3.716
 7612SOL    HW122860   1.682  10.238   3.627
 7612SOL    HW222861   1.666  10.289   3.782
 7613SOL     OW22862   0.307   9.373   2.480
 7613SOL    HW122863   0.296   9.467   2.513
 7613SOL    HW222864   0.302   9.310   2.557
 7614SOL     OW22865   1.622   9.677   2.236
 7614SOL    HW122866   1.624   9.601   2.300
 7614SOL    HW222867   1.574   9.754   2.276
 7615SOL     OW22868   1.023  10.076   2.828
 7615SOL    HW122869   1.038  10.097   2.924
 7615SOL    HW222870   0.993   9.981   2.819
 7616SOL     OW22871   0.980  10.883   3.562
 7616SOL    HW122872   0.960  10.927   3.474
 7616SOL    HW222873   1.019  10.792   3.546
 7617SOL     OW22874   1.859  10.828   3.467
 7617SOL    HW122875   1.873  10.855   3.372
 7617SOL    HW222876   1.942  10.850   3.520
 7618SOL     OW22877   0.350  10.208   3.666
 7618SOL    HW122878   0.426  10.252   3.714
 7618SOL    HW222879   0.385  10.161   3.584
 7619SOL     OW22880   1.540   9.584   1.987
 7619SOL    HW122881   1.479   9.509   2.010
 7619SOL    HW222882   1.562   9.636   2.070
 7620SOL     OW22883   1.303  10.148   1.904
 7620SOL    HW122884   1.337  10.055   1.919
 7620SOL    HW222885   1.321  10.175   1.809
 7621SOL     OW22886   1.068  10.643   2.711
 7621SOL    HW122887   1.075  10.559   2.656
 7621SOL    HW222888   1.130  10.712   2.675
 7622SOL     OW22889   0.319  10.120   2.811
 7622SOL    HW122890   0.412  10.156   2.816
 7622SOL    HW222891   0.313  10.035   2.863
 7623SOL     OW22892   0.339   9.819   2.868
 7623SOL    HW122893   0.287   9.736   2.851
 7623SOL    HW222894   0.416   9.824   2.804
 7624SOL     OW22895   1.138   9.690   3.540
 7624SOL    HW122896   1.093   9.753   3.604
 7624SOL    HW222897   1.231   9.721   3.523
 7625SOL     OW22898   1.160   9.517   3.339
 7625SOL    HW122899   1.160   9.581   3.416
 7625SOL    HW222900   1.188   9.565   3.256
 7626SOL     OW22901   0.008  10.636   2.062
 7626SOL    HW122902  -0.085  10.657   2.031
 7626SOL    HW222903   0.018  10.537   2.075
 7627SOL     OW22904   0.088  11.111   2.789
 7627SOL    HW122905   0.046  11.025   2.762
 7627SOL    HW222906   0.182  11.114   2.755
 7628SOL     OW22907   0.504  10.878   2.772
 7628SOL    HW122908   0.570  10.952   2.781
 7628SOL    HW222909   0.548  10.799   2.730
 7629SOL     OW22910   1.002  10.106   3.100
 7629SOL    HW122911   1.043  10.074   3.186
 7629SOL    HW222912   0.906  10.079   3.097
 7630SOL     OW22913   0.040   9.854   2.976
 7630SOL    HW122914   0.125   9.821   2.935
 7630SOL    HW222915   0.053   9.869   3.074
 7631SOL     OW22916   0.189   9.830   3.584
 7631SOL    HW122917   0.248   9.790   3.514
 7631SOL    HW222918   0.131   9.901   3.543
 7632SOL     OW22919   1.369  10.260   3.522
 7632SOL    HW122920   1.408  10.349   3.542
 7632SOL    HW222921   1.379  10.240   3.425
 7633SOL     OW22922   0.815   9.882   2.187
 7633SOL    HW122923   0.822   9.793   2.141
 7633SOL    HW222924   0.721   9.916   2.179
 7634SOL     OW22925   1.657   9.914   3.068
 7634SOL    HW122926   1.619   9.845   3.130
 7634SOL    HW222927   1.739   9.878   3.024
 7635SOL     OW22928   0.252  10.874   3.606
 7635SOL    HW122929   0.222  10.931   3.682
 7635SOL    HW222930   0.245  10.777   3.632
 7636SOL     OW22931   0.671   9.774   3.131
 7636SOL    HW122932   0.637   9.685   3.101
 7636SOL    HW222933   0.697   9.828   3.051
 7637SOL     OW22934   0.930  10.988   3.327
 7637SOL    HW122935   0.906  10.970   3.232
 7637SOL    HW222936   0.960  11.082   3.337
 7638SOL     OW22937   0.473   9.810   2.053
 7638SOL    HW122938   0.534   9.890   2.057
 7638SOL    HW222939   0.378   9.841   2.060
 7639SOL     OW22940   1.347  10.369   3.096
 7639SOL    HW122941   1.371  10.306   3.022
 7639SOL    HW222942   1.257  10.409   3.078
 7640SOL     OW22943   1.302  10.165   2.171
 7640SOL    HW122944   1.216  10.134   2.213
 7640SOL    HW222945   1.298  10.151   2.072
 7641SOL     OW22946   1.759  11.057   3.016
 7641SOL    HW122947   1.820  11.087   2.943
 7641SOL    HW222948   1.721  10.968   2.994
 7642SOL     OW22949   1.252  11.041   2.990
 7642SOL    HW122950   1.336  11.046   2.936
 7642SOL    HW222951   1.229  10.945   3.008
 7643SOL     OW22952   0.083  10.568   2.884
 7643SOL    HW122953   0.078  10.567   2.984
 7643SOL    HW222954   0.000  10.527   2.846
 7644SOL     OW22955   0.688  10.972   3.578
 7644SOL    HW122956   0.632  11.053   3.587
 7644SOL    HW222957   0.740  10.976   3.492
 7645SOL     OW22958   1.726   9.445   2.385
 7645SOL    HW122959   1.799   9.428   2.318
 7645SOL    HW222960   1.695   9.358   2.423
 7646SOL     OW22961   1.388  10.883   2.339
 7646SOL    HW122962   1.455  10.895   2.265
 7646SOL    HW222963   1.348  10.972   2.362
 7647SOL     OW22964   0.130  11.104   3.713
 7647SOL    HW122965   0.089  11.030   3.766
 7647SOL    HW222966   0.194  11.155   3.771
 7648SOL     OW22967   1.280  10.237   2.534
 7648SOL    HW122968   1.340  10.156   2.536
 7648SOL    HW222969   1.320  10.306   2.474
 7649SOL     OW22970   0.830  10.583   3.284
 7649SOL    HW122971   0.825  10.616   3.379
 7649SOL    HW222972   0.744  10.602   3.238
 7650SOL     OW22973   0.672  10.926   2.016
 7650SOL    HW122974   0.681  10.936   1.917
 7650SOL    HW222975   0.632  10.837   2.037
 7651SOL     OW22976   1.650  11.030   3.256
 7651SOL    HW122977   1.703  11.040   3.172
 7651SOL    HW222978   1.623  11.120   3.290
 7652SOL     OW22979   1.841   9.485   2.825
 7652SOL    HW122980   1.880   9.400   2.789
 7652SOL    HW222981   1.743   9.487   2.806
 7653SOL     OW22982   0.263   9.636   2.582
 7653SOL    HW122983   0.184   9.687   2.548
 7653SOL    HW222984   0.254   9.621   2.680
 7654SOL     OW22985   1.194  10.922   1.893
 7654SOL    HW122986   1.200  10.829   1.930
 7654SOL    HW222987   1.135  10.922   1.813
 7655SOL     OW22988   0.822  10.312   3.234
 7655SOL    HW122989   0.862  10.311   3.142
 7655SOL    HW222990   0.832  10.404   3.274
 7656SOL     OW22991   0.916  10.220   2.153
 7656SOL    HW122992   0.979  10.258   2.085
 7656SOL    HW222993   0.956  10.137   2.192
 7657SOL     OW22994   1.504  10.917   1.906
 7657SOL    HW122995   1.412  10.954   1.913
 7657SOL    HW222996   1.542  10.937   1.816
 7658SOL     OW22997   0.372  10.598   3.352
 7658SOL    HW122998   0.359  10.691   3.318
 7658SOL    HW222999   0.288  10.546   3.339
 7659SOL     OW23000   1.614  10.602   3.151
 7659SOL    HW123001   1.674  10.605   3.231
 7659SOL    HW223002   1.539  10.666   3.164
 7660SOL     OW23003   1.039  10.408   2.558
 7660SOL    HW123004   0.969  10.361   2.612
 7660SOL    HW223005   1.098  10.340   2.515
 7661SOL     OW23006   1.014   9.546   2.833
 7661SOL    HW123007   1.006   9.510   2.740
 7661SOL    HW223008   1.012   9.470   2.898
 7662SOL     OW23009   0.590  10.797   2.353
 7662SOL    HW123010   0.632  10.739   2.283
 7662SOL    HW223011   0.546  10.876   2.309
 7663SOL     OW23012   1.709   9.695   3.243
 7663SOL    HW123013   1.782   9.764   3.247
 7663SOL    HW223014   1.737   9.620   3.184
 7664SOL     OW23015   0.255  10.658   2.152
 7664SOL    HW123016   0.159  10.659   2.125
 7664SOL    HW223017   0.267  10.711   2.236
 7665SOL     OW23018   0.105  10.323   3.588
 7665SOL    HW123019   0.028  10.290   3.642
 7665SOL    HW223020   0.190  10.293   3.630
 7666SOL     OW23021   0.672   9.513   3.351
 7666SOL    HW123022   0.762   9.497   3.311
 7666SOL    HW223023   0.680   9.518   3.450
 7667SOL     OW23024   0.075   9.655   1.895
 7667SOL    HW123025  -0.017   9.627   1.866
 7667SOL    HW223026   0.106   9.732   1.839
 7668SOL     OW23027   1.440  10.166   3.260
 7668SOL    HW123028   1.383  10.218   3.197
 7668SOL    HW223029   1.536  10.178   3.236
 7669SOL     OW23030   0.072   9.476   2.180
 7669SOL    HW123031   0.055   9.559   2.126
 7669SOL    HW223032   0.162   9.439   2.158
 7670SOL     OW23033   1.183  10.645   1.981
 7670SOL    HW123034   1.084  10.634   1.983
 7670SOL    HW223035   1.217  10.660   2.074
 7671SOL     OW23036   0.613  10.152   3.293
 7671SOL    HW123037   0.669  10.233   3.276
 7671SOL    HW223038   0.672  10.072   3.296
 7672SOL     OW23039   1.493  11.077   2.821
 7672SOL    HW123040   1.526  11.141   2.752
 7672SOL    HW223041   1.559  11.071   2.896
 7673SOL     OW23042   0.716   9.875   3.570
 7673SOL    HW123043   0.735   9.940   3.644
 7673SOL    HW223044   0.776   9.795   3.579
 7674SOL     OW23045   1.450  10.530   3.495
 7674SOL    HW123046   1.441  10.520   3.594
 7674SOL    HW223047   1.546  10.523   3.469
 7675SOL     OW23048   0.390  11.051   3.422
 7675SOL    HW123049   0.299  11.092   3.420
 7675SOL    HW223050   0.383  10.957   3.454
 7676SOL     OW23051   1.674  10.193   3.116
 7676SOL    HW123052   1.647  10.104   3.079
 7676SOL    HW223053   1.675  10.261   3.043
 7677SOL     OW23054   1.225   9.635   2.311
 7677SOL    HW123055   1.290   9.561   2.300
 7677SOL    HW223056   1.245   9.685   2.395
 7678SOL     OW23057   0.594  10.055   2.514
 7678SOL    HW123058   0.644  10.140   2.495
 7678SOL    HW223059   0.506  10.057   2.466
 7679SOL     OW23060   1.777   9.652   3.504
 7679SOL    HW123061   1.760   9.683   3.410
 7679SOL    HW223062   1.693   9.615   3.542
 7680SOL     OW23063   1.730  10.244   3.379
 7680SOL    HW123064   1.768  10.335   3.394
 7680SOL    HW223065   1.722  10.227   3.280
 7681SOL     OW23066   0.859  10.684   1.878
 7681SOL    HW123067   0.813  10.699   1.966
 7681SOL    HW223068   0.903  10.769   1.848
 7682SOL     OW23069   0.661  11.100   2.815
 7682SOL    HW123070   0.615  11.188   2.802
 7682SOL    HW223071   0.760  11.112   2.808
 7683SOL     OW23072   0.859  10.266   2.723
 7683SOL    HW123073   0.913  10.197   2.771
 7683SOL    HW223074   0.827  10.335   2.789
 7684SOL     OW23075   1.083  10.294   1.949
 7684SOL    HW123076   1.060  10.347   1.867
 7684SOL    HW223077   1.164  10.238   1.930
 7685SOL     OW23078   1.861  10.879   2.713
 7685SOL    HW123079   1.790  10.867   2.643
 7685SOL    HW223080   1.862  10.800   2.773
 7686SOL     OW23081   0.221  10.624   3.706
 7686SOL    HW123082   0.156  10.551   3.685
 7686SOL    HW223083   0.225  10.638   3.804
 7687SOL     OW23084   0.079  10.550   2.515
 7687SOL    HW123085   0.078  10.503   2.603
 7687SOL    HW223086   0.161  10.522   2.464
 7688SOL     OW23087   0.672  10.701   3.486
 7688SOL    HW123088   0.594  10.651   3.524
 7688SOL    HW223089   0.669  10.796   3.517
 7689SOL     OW23090   1.824   9.502   3.089
 7689SOL    HW123091   1.820   9.412   3.133
 7689SOL    HW223092   1.827   9.491   2.990
 7690SOL     OW23093   0.428   9.734   2.382
 7690SOL    HW123094   0.458   9.662   2.320
 7690SOL    HW223095   0.389   9.694   2.465
 7691SOL     OW23096   1.705  10.797   2.966
 7691SOL    HW123097   1.612  10.772   2.939
 7691SOL    HW223098   1.731  10.747   3.048
 7692SOL     OW23099   0.317   9.857   3.142
 7692SOL    HW123100   0.355   9.798   3.214
 7692SOL    HW223101   0.357   9.831   3.054
 7693SOL     OW23102   0.812  10.896   2.549
 7693SOL    HW123103   0.844  10.906   2.455
 7693SOL    HW223104   0.733  10.834   2.551
 7694SOL     OW23105   1.424   9.524   2.974
 7694SOL    HW123106   1.476   9.459   3.029
 7694SOL    HW223107   1.375   9.587   3.035
 7695SOL     OW23108   1.001   9.344   3.016
 7695SOL    HW123109   0.938   9.272   2.985
 7695SOL    HW223110   1.094   9.308   3.016
 7696SOL     OW23111   0.770  10.640   2.163
 7696SOL    HW123112   0.724  10.553   2.180
 7696SOL    HW223113   0.861  10.637   2.204
 7697SOL     OW23114   0.618  10.877   3.146
 7697SOL    HW123115   0.613  10.959   3.203
 7697SOL    HW223116   0.707  10.874   3.101
 7698SOL     OW23117   1.352   9.362   2.030
 7698SOL    HW123118   1.387   9.321   1.946
 7698SOL    HW223119   1.262   9.324   2.050
 7699SOL     OW23120   1.300   9.763   2.553
 7699SOL    HW123121   1.241   9.843   2.557
 7699SOL    HW223122   1.315   9.728   2.646
 7700SOL     OW23123   1.593   9.531   2.744
 7700SOL    HW123124   1.509   9.530   2.798
 7700SOL    HW223125   1.595   9.614   2.688
 7701SOL     OW23126   0.039  10.387   2.162
 7701SOL    HW123127   0.138  10.376   2.153
 7701SOL    HW223128  -0.001  10.301   2.194
 7702SOL     OW23129   0.875  10.956   2.199
 7702SOL    HW123130   0.798  10.921   2.145
 7702SOL    HW223131   0.843  11.027   2.261
 7703SOL     OW23132   0.230   9.938   3.837
 7703SOL    HW123133   0.137   9.936   3.874
 7703SOL    HW223134   0.231   9.899   3.745
 7704SOL     OW23135   0.225   9.585   4.720
 7704SOL    HW123136   0.260   9.568   4.812
 7704SOL    HW223137   0.137   9.540   4.708
 7705SOL     OW23138   0.019   9.678   4.371
 7705SOL    HW123139  -0.063   9.721   4.410
 7705SOL    HW223140  -0.009   9.605   4.308
 7706SOL     OW23141   0.569  10.585   4.889
 7706SOL    HW123142   0.476  10.578   4.852
 7706SOL    HW223143   0.580  10.674   4.933
 7707SOL     OW23144   1.555  10.821   4.427
 7707SOL    HW123145   1.498  10.805   4.508
 7707SOL    HW223146   1.496  10.831   4.347
 7708SOL     OW23147   1.135  10.013   4.441
 7708SOL    HW123148   1.192  10.091   4.416
 7708SOL    HW223149   1.075  10.039   4.517
 7709SOL     OW23150   1.755   9.917   3.955
 7709SOL    HW123151   1.743   9.904   3.856
 7709SOL    HW223152   1.725   9.836   4.004
 7710SOL     OW23153   0.768  10.454   4.747
 7710SOL    HW123154   0.690  10.471   4.807
 7710SOL    HW223155   0.802  10.541   4.711
 7711SOL     OW23156   0.850  10.108   5.547
 7711SOL    HW123157   0.846  10.184   5.612
 7711SOL    HW223158   0.872  10.144   5.456
 7712SOL     OW23159   0.685  10.322   4.389
 7712SOL    HW123160   0.754  10.306   4.459
 7712SOL    HW223161   0.612  10.379   4.427
 7713SOL     OW23162   0.686  10.471   5.527
 7713SOL    HW123163   0.746  10.550   5.541
 7713SOL    HW223164   0.600  10.502   5.486
 7714SOL     OW23165   0.335  10.745   4.785
 7714SOL    HW123166   0.257  10.714   4.732
 7714SOL    HW223167   0.393  10.803   4.728
 7715SOL     OW23168   1.460  10.815   5.063
 7715SOL    HW123169   1.484  10.909   5.089
 7715SOL    HW223170   1.444  10.761   5.145
 7716SOL     OW23171   0.438   9.702   5.223
 7716SOL    HW123172   0.520   9.646   5.232
 7716SOL    HW223173   0.357   9.644   5.227
 7717SOL     OW23174   1.603   9.757   4.461
 7717SOL    HW123175   1.529   9.803   4.411
 7717SOL    HW223176   1.654   9.825   4.514
 7718SOL     OW23177   0.231  11.023   4.207
 7718SOL    HW123178   0.265  11.100   4.261
 7718SOL    HW223179   0.275  11.023   4.117
 7719SOL     OW23180   1.127  10.651   5.414
 7719SOL    HW123181   1.174  10.651   5.502
 7719SOL    HW223182   1.079  10.564   5.403
 7720SOL     OW23183   0.230  10.744   4.262
 7720SOL    HW123184   0.204  10.840   4.262
 7720SOL    HW223185   0.159  10.690   4.307
 7721SOL     OW23186   0.240  10.401   4.610
 7721SOL    HW123187   0.254  10.317   4.662
 7721SOL    HW223188   0.185  10.465   4.665
 7722SOL     OW23189   0.620  11.096   5.163
 7722SOL    HW123190   0.528  11.079   5.198
 7722SOL    HW223191   0.648  11.188   5.189
 7723SOL     OW23192   0.606  10.274   3.847
 7723SOL    HW123193   0.613  10.358   3.793
 7723SOL    HW223194   0.652  10.287   3.935
 7724SOL     OW23195   1.594   9.424   5.204
 7724SOL    HW123196   1.576   9.491   5.132
 7724SOL    HW223197   1.591   9.470   5.293
 7725SOL     OW23198   0.122   9.953   4.287
 7725SOL    HW123199   0.077   9.865   4.304
 7725SOL    HW223200   0.121  10.007   4.371
 7726SOL     OW23201   1.842  11.077   4.083
 7726SOL    HW123202   1.896  11.048   4.163
 7726SOL    HW223203   1.872  11.167   4.054
 7727SOL     OW23204   0.027  10.906   3.841
 7727SOL    HW123205   0.008  10.810   3.862
 7727SOL    HW223206  -0.006  10.964   3.916
 7728SOL     OW23207   1.689  10.232   4.336
 7728SOL    HW123208   1.784  10.203   4.344
 7728SOL    HW223209   1.681  10.297   4.261
 7729SOL     OW23210   1.641  10.418   4.156
 7729SOL    HW123211   1.727  10.420   4.104
 7729SOL    HW223212   1.655  10.465   4.244
 7730SOL     OW23213   0.113  10.047   5.321
 7730SOL    HW123214   0.201  10.034   5.366
 7730SOL    HW223215   0.100  10.144   5.299
 7731SOL     OW23216   0.613  10.675   4.450
 7731SOL    HW123217   0.564  10.588   4.459
 7731SOL    HW223218   0.590  10.718   4.363
 7732SOL     OW23219   1.293  10.538   5.147
 7732SOL    HW123220   1.330  10.465   5.089
 7732SOL    HW223221   1.345  10.543   5.232
 7733SOL     OW23222   0.809   9.314   4.226
 7733SOL    HW123223   0.849   9.405   4.217
 7733SOL    HW223224   0.709   9.322   4.232
 7734SOL     OW23225   0.197  10.286   4.988
 7734SOL    HW123226   0.286  10.241   4.974
 7734SOL    HW223227   0.124  10.221   4.969
 7735SOL     OW23228   1.525  10.309   3.914
 7735SOL    HW123229   1.462  10.233   3.927
 7735SOL    HW223230   1.573  10.327   4.000
 7736SOL     OW23231   1.187  11.102   5.340
 7736SOL    HW123232   1.211  11.162   5.264
 7736SOL    HW223233   1.194  11.007   5.310
 7737SOL     OW23234   0.317   9.561   5.525
 7737SOL    HW123235   0.388   9.632   5.531
 7737SOL    HW223236   0.229   9.600   5.553
 7738SOL     OW23237   1.466  10.727   4.677
 7738SOL    HW123238   1.407  10.733   4.757
 7738SOL    HW223239   1.451  10.639   4.631
 7739SOL     OW23240   1.667  11.024   4.296
 7739SOL    HW123241   1.626  11.001   4.208
 7739SOL    HW223242   1.649  10.950   4.361
 7740SOL     OW23243   0.598  10.039   3.994
 7740SOL    HW123244   0.622  10.108   3.926
 7740SOL    HW223245   0.520  10.072   4.048
 7741SOL     OW23246   1.281   9.655   4.668
 7741SOL    HW123247   1.195   9.605   4.655
 7741SOL    HW223248   1.343   9.601   4.724
 7742SOL     OW23249   1.576  10.972   4.031
 7742SOL    HW123250   1.665  11.018   4.034
 7742SOL    HW223251   1.555  10.948   3.936
 7743SOL     OW23252   0.807   9.915   5.189
 7743SOL    HW123253   0.760   9.912   5.278
 7743SOL    HW223254   0.756   9.860   5.123
 7744SOL     OW23255   1.394   9.779   5.398
 7744SOL    HW123256   1.374   9.822   5.486
 7744SOL    HW223257   1.472   9.717   5.407
 7745SOL     OW23258   0.973  10.200   5.296
 7745SOL    HW123259   1.019  10.116   5.267
 7745SOL    HW223260   0.917  10.234   5.221
 7746SOL     OW23261   0.991   9.720   4.966
 7746SOL    HW123262   0.914   9.754   5.020
 7746SOL    HW223263   0.957   9.669   4.887
 7747SOL     OW23264   1.041  10.011   4.153
 7747SOL    HW123265   1.067  10.007   4.249
 7747SOL    HW223266   0.956   9.960   4.139
 7748SOL     OW23267   0.076  10.121   4.513
 7748SOL    HW123268   0.175  10.109   4.522
 7748SOL    HW223269   0.052  10.216   4.534
 7749SOL     OW23270   0.130  11.131   5.295
 7749SOL    HW123271   0.120  11.116   5.394
 7749SOL    HW223272   0.044  11.167   5.259
 7750SOL     OW23273   1.719   9.895   5.555
 7750SOL    HW123274   1.693   9.984   5.519
 7750SOL    HW223275   1.717   9.827   5.482
 7751SOL     OW23276   1.362  10.454   4.269
 7751SOL    HW123277   1.445  10.425   4.221
 7751SOL    HW223278   1.313  10.521   4.213
 7752SOL     OW23279   0.550   9.506   4.609
 7752SOL    HW123280   0.545   9.501   4.709
 7752SOL    HW223281   0.552   9.602   4.580
 7753SOL     OW23282   1.008  10.766   4.201
 7753SOL    HW123283   0.962  10.838   4.149
 7753SOL    HW223284   1.004  10.786   4.299
 7754SOL     OW23285   0.351  11.111   4.577
 7754SOL    HW123286   0.401  11.025   4.583
 7754SOL    HW223287   0.416  11.188   4.574
 7755SOL     OW23288   1.795  10.376   4.597
 7755SOL    HW123289   1.733  10.361   4.521
 7755SOL    HW223290   1.743  10.387   4.682
 7756SOL     OW23291   1.227  10.860   5.230
 7756SOL    HW123292   1.233  10.783   5.294
 7756SOL    HW223293   1.175  10.834   5.150
 7757SOL     OW23294   0.321  10.253   3.966
 7757SOL    HW123295   0.403  10.292   3.924
 7757SOL    HW223296   0.294  10.171   3.917
 7758SOL     OW23297   1.458  10.045   4.452
 7758SOL    HW123298   1.453   9.980   4.527
 7758SOL    HW223299   1.538  10.104   4.465
 7759SOL     OW23300   0.461  10.576   5.451
 7759SOL    HW123301   0.411  10.577   5.365
 7759SOL    HW223302   0.398  10.558   5.527
 7760SOL     OW23303   1.111  11.086   3.961
 7760SOL    HW123304   1.051  11.024   4.011
 7760SOL    HW223305   1.142  11.042   3.876
 7761SOL     OW23306   0.202   9.595   5.222
 7761SOL    HW123307   0.122   9.655   5.209
 7761SOL    HW223308   0.192   9.546   5.308
 7762SOL     OW23309   1.632  10.687   3.805
 7762SOL    HW123310   1.600  10.781   3.795
 7762SOL    HW223311   1.556  10.624   3.793
 7763SOL     OW23312   0.464  11.053   4.047
 7763SOL    HW123313   0.497  11.092   4.133
 7763SOL    HW223314   0.540  11.046   3.982
 7764SOL     OW23315   1.400   9.417   4.150
 7764SOL    HW123316   1.376   9.380   4.060
 7764SOL    HW223317   1.499   9.433   4.154
 7765SOL     OW23318   0.249  11.095   4.965
 7765SOL    HW123319   0.306  11.030   5.015
 7765SOL    HW223320   0.233  11.062   4.872
 7766SOL     OW23321   0.940  11.008   4.628
 7766SOL    HW123322   1.020  10.951   4.649
 7766SOL    HW223323   0.891  10.968   4.551
 7767SOL     OW23324   0.382  10.010   4.204
 7767SOL    HW123325   0.427   9.920   4.201
 7767SOL    HW223326   0.288   9.999   4.237
 7768SOL     OW23327   1.547   9.532   5.453
 7768SOL    HW123328   1.542   9.569   5.545
 7768SOL    HW223329   1.475   9.463   5.441
 7769SOL     OW23330   0.614   9.432   3.841
 7769SOL    HW123331   0.712   9.410   3.848
 7769SOL    HW223332   0.583   9.415   3.748
 7770SOL     OW23333   0.781   9.574   5.473
 7770SOL    HW123334   0.848   9.513   5.516
 7770SOL    HW223335   0.708   9.593   5.538
 7771SOL     OW23336   0.888  10.824   4.919
 7771SOL    HW123337   0.865  10.799   4.825
 7771SOL    HW223338   0.949  10.755   4.958
 7772SOL     OW23339   1.351   9.900   5.157
 7772SOL    HW123340   1.379   9.857   5.242
 7772SOL    HW223341   1.376   9.996   5.158
 7773SOL     OW23342   0.803  10.712   4.648
 7773SOL    HW123343   0.893  10.726   4.606
 7773SOL    HW223344   0.732  10.714   4.577
 7774SOL     OW23345   0.922   9.813   4.623
 7774SOL    HW123346   0.897   9.804   4.527
 7774SOL    HW223347   0.970   9.731   4.654
 7775SOL     OW23348   0.539   9.374   4.236
 7775SOL    HW123349   0.458   9.375   4.294
 7775SOL    HW223350   0.542   9.457   4.181
 7776SOL     OW23351   1.434  10.498   3.765
 7776SOL    HW123352   1.466  10.422   3.822
 7776SOL    HW223353   1.342  10.525   3.795
 7777SOL     OW23354   0.297   9.345   3.895
 7777SOL    HW123355   0.346   9.429   3.874
 7777SOL    HW223356   0.359   9.280   3.940
 7778SOL     OW23357   0.935   9.546   4.204
 7778SOL    HW123358   0.887   9.587   4.126
 7778SOL    HW223359   1.034   9.544   4.185
 7779SOL     OW23360   1.076   9.993   5.188
 7779SOL    HW123361   0.996   9.932   5.191
 7779SOL    HW223362   1.157   9.940   5.164
 7780SOL     OW23363   1.227  10.880   4.517
 7780SOL    HW123364   1.248  10.954   4.452
 7780SOL    HW223365   1.295  10.880   4.590
 7781SOL     OW23366   0.459  10.462   4.465
 7781SOL    HW123367   0.388  10.435   4.530
 7781SOL    HW223368   0.433  10.434   4.372
 7782SOL     OW23369   1.271  11.107   4.315
 7782SOL    HW123370   1.315  11.171   4.251
 7782SOL    HW223371   1.221  11.159   4.385
 7783SOL     OW23372   1.032   9.859   3.740
 7783SOL    HW123373   0.991   9.941   3.701
 7783SOL    HW223374   1.096   9.885   3.813
 7784SOL     OW23375   0.078   9.866   5.110
 7784SOL    HW123376   0.170   9.865   5.069
 7784SOL    HW223377   0.072   9.940   5.177
 7785SOL     OW23378   0.561   9.532   4.871
 7785SOL    HW123379   0.599   9.448   4.908
 7785SOL    HW223380   0.473   9.551   4.915
 7786SOL     OW23381   0.866   9.764   4.366
 7786SOL    HW123382   0.834   9.836   4.304
 7786SOL    HW223383   0.890   9.683   4.313
 7787SOL     OW23384   1.017   9.349   4.477
 7787SOL    HW123385   0.945   9.354   4.408
 7787SOL    HW223386   0.993   9.280   4.546
 7788SOL     OW23387   1.429  10.483   4.591
 7788SOL    HW123388   1.374  10.399   4.584
 7788SOL    HW223389   1.455  10.512   4.499
 7789SOL     OW23390   1.466   9.900   4.716
 7789SOL    HW123391   1.436   9.805   4.723
 7789SOL    HW223392   1.539   9.916   4.782
 7790SOL     OW23393   1.857  10.143   4.101
 7790SOL    HW123394   1.899  10.079   4.165
 7790SOL    HW223395   1.819  10.092   4.023
 7791SOL     OW23396   0.488  10.695   3.898
 7791SOL    HW123397   0.401  10.680   3.945
 7791SOL    HW223398   0.471  10.721   3.803
 7792SOL     OW23399   1.664  10.590   4.381
 7792SOL    HW123400   1.763  10.598   4.395
 7792SOL    HW223401   1.619  10.674   4.412
 7793SOL     OW23402   1.390   9.885   3.802
 7793SOL    HW123403   1.336   9.864   3.883
 7793SOL    HW223404   1.481   9.844   3.811
 7794SOL     OW23405   0.527   9.566   4.052
 7794SOL    HW123406   0.554   9.507   3.977
 7794SOL    HW223407   0.527   9.661   4.021
 7795SOL     OW23408   1.754  10.533   5.312
 7795SOL    HW123409   1.845  10.494   5.299
 7795SOL    HW223410   1.762  10.629   5.336
 7796SOL     OW23411   1.064  10.657   5.064
 7796SOL    HW123412   0.984  10.634   5.119
 7796SOL    HW223413   1.147  10.631   5.113
 7797SOL     OW23414   1.592  10.939   5.349
 7797SOL    HW123415   1.619  10.973   5.259
 7797SOL    HW223416   1.671  10.901   5.395
 7798SOL     OW23417   1.111  10.505   4.824
 7798SOL    HW123418   1.071  10.549   4.905
 7798SOL    HW223419   1.070  10.542   4.741
 7799SOL     OW23420   1.638  10.409   4.803
 7799SOL    HW123421   1.643  10.490   4.862
 7799SOL    HW223422   1.552  10.411   4.752
 7800SOL     OW23423   0.915   9.399   5.126
 7800SOL    HW123424   0.940   9.379   5.031
 7800SOL    HW223425   0.987   9.455   5.168
 7801SOL     OW23426   0.980  10.426   5.443
 7801SOL    HW123427   0.881  10.432   5.453
 7801SOL    HW223428   1.003  10.346   5.387
 7802SOL     OW23429   0.705  10.360   4.092
 7802SOL    HW123430   0.691  10.367   4.191
 7802SOL    HW223431   0.789  10.309   4.074
 7803SOL     OW23432   0.410  10.123   4.975
 7803SOL    HW123433   0.496  10.135   5.025
 7803SOL    HW223434   0.368  10.036   5.002
 7804SOL     OW23435   1.274   9.696   4.986
 7804SOL    HW123436   1.295   9.770   5.050
 7804SOL    HW223437   1.185   9.713   4.943
 7805SOL     OW23438   0.064  10.874   5.055
 7805SOL    HW123439   0.018  10.956   5.021
 7805SOL    HW223440   0.162  10.893   5.064
 7806SOL     OW23441   0.367  10.410   4.225
 7806SOL    HW123442   0.360  10.493   4.169
 7806SOL    HW223443   0.371  10.330   4.165
 7807SOL     OW23444   0.566   9.847   4.589
 7807SOL    HW123445   0.578   9.913   4.515
 7807SOL    HW223446   0.612   9.881   4.672
 7808SOL     OW23447   1.252  10.658   4.112
 7808SOL    HW123448   1.302  10.735   4.152
 7808SOL    HW223449   1.157  10.660   4.144
 7809SOL     OW23450   1.272  10.755   4.866
 7809SOL    HW123451   1.319  10.768   4.953
 7809SOL    HW223452   1.206  10.681   4.875
 7810SOL     OW23453   1.582   9.949   4.196
 7810SOL    HW123454   1.551  10.010   4.269
 7810SOL    HW223455   1.632  10.001   4.127
 7811SOL     OW23456   0.354  10.820   5.053
 7811SOL    HW123457   0.333  10.776   4.966
 7811SOL    HW223458   0.451  10.846   5.056
 7812SOL     OW23459   0.402  10.061   5.322
 7812SOL    HW123460   0.470  10.116   5.275
 7812SOL    HW223461   0.442   9.973   5.349
 7813SOL     OW23462   1.587  10.089   5.394
 7813SOL    HW123463   1.495  10.127   5.389
 7813SOL    HW223464   1.647  10.136   5.329
 7814SOL     OW23465   1.013   9.415   5.494
 7814SOL    HW123466   1.019   9.500   5.442
 7814SOL    HW223467   1.045   9.339   5.437
 7815SOL     OW23468   0.504   9.360   5.464
 7815SOL    HW123469   0.462   9.303   5.394
 7815SOL    HW223470   0.438   9.429   5.496
 7816SOL     OW23471   0.573  10.180   4.753
 7816SOL    HW123472   0.617  10.269   4.744
 7816SOL    HW223473   0.510  10.180   4.830
 7817SOL     OW23474   1.360  10.172   4.769
 7817SOL    HW123475   1.285  10.172   4.703
 7817SOL    HW223476   1.397  10.080   4.778
 7818SOL     OW23477   1.209   9.835   3.999
 7818SOL    HW123478   1.222   9.751   4.053
 7818SOL    HW223479   1.180   9.909   4.059
 7819SOL     OW23480   0.307   9.523   4.955
 7819SOL    HW123481   0.284   9.560   5.045
 7819SOL    HW223482   0.277   9.428   4.949
 7820SOL     OW23483   0.037  10.620   5.006
 7820SOL    HW123484   0.090  10.571   5.074
 7820SOL    HW223485   0.059  10.718   5.011
 7821SOL     OW23486   0.732   9.944   4.788
 7821SOL    HW123487   0.791   9.918   4.712
 7821SOL    HW223488   0.704  10.040   4.777
 7822SOL     OW23489   1.728  10.245   5.578
 7822SOL    HW123490   1.682  10.238   5.489
 7822SOL    HW223491   1.666  10.289   5.644
 7823SOL     OW23492   0.307   9.373   4.342
 7823SOL    HW123493   0.296   9.467   4.375
 7823SOL    HW223494   0.302   9.310   4.419
 7824SOL     OW23495   1.622   9.677   4.098
 7824SOL    HW123496   1.624   9.601   4.162
 7824SOL    HW223497   1.574   9.754   4.138
 7825SOL     OW23498   1.023  10.076   4.690
 7825SOL    HW123499   1.038  10.097   4.786
 7825SOL    HW223500   0.993   9.981   4.681
 7826SOL     OW23501   0.980  10.883   5.424
 7826SOL    HW123502   0.960  10.927   5.336
 7826SOL    HW223503   1.019  10.792   5.408
 7827SOL     OW23504   1.859  10.828   5.329
 7827SOL    HW123505   1.873  10.855   5.234
 7827SOL    HW223506   1.942  10.850   5.382
 7828SOL     OW23507   0.350  10.208   5.528
 7828SOL    HW123508   0.426  10.252   5.576
 7828SOL    HW223509   0.385  10.161   5.446
 7829SOL     OW23510   1.540   9.584   3.849
 7829SOL    HW123511   1.479   9.509   3.872
 7829SOL    HW223512   1.562   9.636   3.932
 7830SOL     OW23513   1.303  10.148   3.766
 7830SOL    HW123514   1.337  10.055   3.781
 7830SOL    HW223515   1.321  10.175   3.671
 7831SOL     OW23516   1.068  10.643   4.573
 7831SOL    HW123517   1.075  10.559   4.518
 7831SOL    HW223518   1.130  10.712   4.537
 7832SOL     OW23519   0.319  10.120   4.673
 7832SOL    HW123520   0.412  10.156   4.678
 7832SOL    HW223521   0.313  10.035   4.725
 7833SOL     OW23522   0.339   9.819   4.730
 7833SOL    HW123523   0.287   9.736   4.713
 7833SOL    HW223524   0.416   9.824   4.666
 7834SOL     OW23525   1.138   9.690   5.402
 7834SOL    HW123526   1.093   9.753   5.466
 7834SOL    HW223527   1.231   9.721   5.385
 7835SOL     OW23528   1.160   9.517   5.201
 7835SOL    HW123529   1.160   9.581   5.278
 7835SOL    HW223530   1.188   9.565   5.118
 7836SOL     OW23531   0.008  10.636   3.924
 7836SOL    HW123532  -0.085  10.657   3.893
 7836SOL    HW223533   0.018  10.537   3.937
 7837SOL     OW23534   0.088  11.111   4.651
 7837SOL    HW123535   0.046  11.025   4.624
 7837SOL    HW223536   0.182  11.114   4.617
 7838SOL     OW23537   0.504  10.878   4.634
 7838SOL    HW123538   0.570  10.952   4.643
 7838SOL    HW223539   0.548  10.799   4.592
 7839SOL     OW23540   1.002  10.106   4.962
 7839SOL    HW123541   1.043  10.074   5.048
 7839SOL    HW223542   0.906  10.079   4.959
 7840SOL     OW23543   0.040   9.854   4.838
 7840SOL    HW123544   0.125   9.821   4.797
 7840SOL    HW223545   0.053   9.869   4.936
 7841SOL     OW23546   0.189   9.830   5.446
 7841SOL    HW123547   0.248   9.790   5.376
 7841SOL    HW223548   0.131   9.901   5.405
 7842SOL     OW23549   1.369  10.260   5.384
 7842SOL    HW123550   1.408  10.349   5.404
 7842SOL    HW223551   1.379  10.240   5.287
 7843SOL     OW23552   0.815   9.882   4.049
 7843SOL    HW123553   0.822   9.793   4.003
 7843SOL    HW223554   0.721   9.916   4.041
 7844SOL     OW23555   1.657   9.914   4.930
 7844SOL    HW123556   1.619   9.845   4.992
 7844SOL    HW223557   1.739   9.878   4.886
 7845SOL     OW23558   0.252  10.874   5.468
 7845SOL    HW123559   0.222  10.931   5.544
 7845SOL    HW223560   0.245  10.777   5.494
 7846SOL     OW23561   0.671   9.774   4.993
 7846SOL    HW123562   0.637   9.685   4.963
 7846SOL    HW223563   0.697   9.828   4.913
 7847SOL     OW23564   0.930  10.988   5.189
 7847SOL    HW123565   0.906  10.970   5.094
 7847SOL    HW223566   0.960  11.082   5.199
 7848SOL     OW23567   0.473   9.810   3.915
 7848SOL    HW123568   0.534   9.890   3.919
 7848SOL    HW223569   0.378   9.841   3.922
 7849SOL     OW23570   0.159  10.447   5.190
 7849SOL    HW123571   0.181  10.386   5.266
 7849SOL    HW223572   0.169  10.398   5.104
 7850SOL     OW23573   1.347  10.369   4.958
 7850SOL    HW123574   1.371  10.306   4.884
 7850SOL    HW223575   1.257  10.409   4.940
 7851SOL     OW23576   1.302  10.165   4.033
 7851SOL    HW123577   1.216  10.134   4.075
 7851SOL    HW223578   1.298  10.151   3.934
 7852SOL     OW23579   1.759  11.057   4.878
 7852SOL    HW123580   1.820  11.087   4.805
 7852SOL    HW223581   1.721  10.968   4.856
 7853SOL     OW23582   1.252  11.041   4.852
 7853SOL    HW123583   1.336  11.046   4.798
 7853SOL    HW223584   1.229  10.945   4.870
 7854SOL     OW23585   0.083  10.568   4.746
 7854SOL    HW123586   0.078  10.567   4.846
 7854SOL    HW223587   0.000  10.527   4.708
 7855SOL     OW23588   0.688  10.972   5.440
 7855SOL    HW123589   0.632  11.053   5.449
 7855SOL    HW223590   0.740  10.976   5.354
 7856SOL     OW23591   1.726   9.445   4.247
 7856SOL    HW123592   1.799   9.428   4.180
 7856SOL    HW223593   1.695   9.358   4.285
 7857SOL     OW23594   1.388  10.883   4.201
 7857SOL    HW123595   1.455  10.895   4.127
 7857SOL    HW223596   1.348  10.972   4.224
 7858SOL     OW23597   0.130  11.104   5.575
 7858SOL    HW123598   0.089  11.030   5.628
 7858SOL    HW223599   0.194  11.155   5.633
 7859SOL     OW23600   1.280  10.237   4.396
 7859SOL    HW123601   1.340  10.156   4.398
 7859SOL    HW223602   1.320  10.306   4.336
 7860SOL     OW23603   0.830  10.583   5.146
 7860SOL    HW123604   0.825  10.616   5.241
 7860SOL    HW223605   0.744  10.602   5.100
 7861SOL     OW23606   0.672  10.926   3.878
 7861SOL    HW123607   0.681  10.936   3.779
 7861SOL    HW223608   0.632  10.837   3.899
 7862SOL     OW23609   1.650  11.030   5.118
 7862SOL    HW123610   1.703  11.040   5.034
 7862SOL    HW223611   1.623  11.120   5.152
 7863SOL     OW23612   1.841   9.485   4.687
 7863SOL    HW123613   1.880   9.400   4.651
 7863SOL    HW223614   1.743   9.487   4.668
 7864SOL     OW23615   0.263   9.636   4.444
 7864SOL    HW123616   0.184   9.687   4.410
 7864SOL    HW223617   0.254   9.621   4.542
 7865SOL     OW23618   1.194  10.922   3.755
 7865SOL    HW123619   1.200  10.829   3.792
 7865SOL    HW223620   1.135  10.922   3.675
 7866SOL     OW23621   0.822  10.312   5.096
 7866SOL    HW123622   0.862  10.311   5.004
 7866SOL    HW223623   0.832  10.404   5.136
 7867SOL     OW23624   0.916  10.220   4.015
 7867SOL    HW123625   0.979  10.258   3.947
 7867SOL    HW223626   0.956  10.137   4.054
 7868SOL     OW23627   1.504  10.917   3.768
 7868SOL    HW123628   1.412  10.954   3.775
 7868SOL    HW223629   1.542  10.937   3.678
 7869SOL     OW23630   0.372  10.598   5.214
 7869SOL    HW123631   0.359  10.691   5.180
 7869SOL    HW223632   0.288  10.546   5.201
 7870SOL     OW23633   1.614  10.602   5.013
 7870SOL    HW123634   1.674  10.605   5.093
 7870SOL    HW223635   1.539  10.666   5.026
 7871SOL     OW23636   1.039  10.408   4.420
 7871SOL    HW123637   0.969  10.361   4.474
 7871SOL    HW223638   1.098  10.340   4.377
 7872SOL     OW23639   1.014   9.546   4.695
 7872SOL    HW123640   1.006   9.510   4.602
 7872SOL    HW223641   1.012   9.470   4.760
 7873SOL     OW23642   0.590  10.797   4.215
 7873SOL    HW123643   0.632  10.739   4.145
 7873SOL    HW223644   0.546  10.876   4.171
 7874SOL     OW23645   1.709   9.695   5.105
 7874SOL    HW123646   1.782   9.764   5.109
 7874SOL    HW223647   1.737   9.620   5.046
 7875SOL     OW23648   0.255  10.658   4.014
 7875SOL    HW123649   0.159  10.659   3.987
 7875SOL    HW223650   0.267  10.711   4.098
 7876SOL     OW23651   0.105  10.323   5.450
 7876SOL    HW123652   0.028  10.290   5.504
 7876SOL    HW223653   0.190  10.293   5.492
 7877SOL     OW23654   0.672   9.513   5.213
 7877SOL    HW123655   0.762   9.497   5.173
 7877SOL    HW223656   0.680   9.518   5.312
 7878SOL     OW23657   0.075   9.655   3.757
 7878SOL    HW123658  -0.017   9.627   3.728
 7878SOL    HW223659   0.106   9.732   3.701
 7879SOL     OW23660   1.440  10.166   5.122
 7879SOL    HW123661   1.383  10.218   5.059
 7879SOL    HW223662   1.536  10.178   5.098
 7880SOL     OW23663   0.072   9.476   4.042
 7880SOL    HW123664   0.055   9.559   3.988
 7880SOL    HW223665   0.162   9.439   4.020
 7881SOL     OW23666   1.183  10.645   3.843
 7881SOL    HW123667   1.084  10.634   3.845
 7881SOL    HW223668   1.217  10.660   3.936
 7882SOL     OW23669   0.613  10.152   5.155
 7882SOL    HW123670   0.669  10.233   5.138
 7882SOL    HW223671   0.672  10.072   5.158
 7883SOL     OW23672   1.493  11.077   4.683
 7883SOL    HW123673   1.526  11.141   4.614
 7883SOL    HW223674   1.559  11.071   4.758
 7884SOL     OW23675   0.716   9.875   5.432
 7884SOL    HW123676   0.735   9.940   5.506
 7884SOL    HW223677   0.776   9.795   5.441
 7885SOL     OW23678   1.450  10.530   5.357
 7885SOL    HW123679   1.441  10.520   5.456
 7885SOL    HW223680   1.546  10.523   5.331
 7886SOL     OW23681   0.390  11.051   5.284
 7886SOL    HW123682   0.299  11.092   5.282
 7886SOL    HW223683   0.383  10.957   5.316
 7887SOL     OW23684   1.674  10.193   4.978
 7887SOL    HW123685   1.647  10.104   4.941
 7887SOL    HW223686   1.675  10.261   4.905
 7888SOL     OW23687   1.225   9.635   4.173
 7888SOL    HW123688   1.290   9.561   4.162
 7888SOL    HW223689   1.245   9.685   4.257
 7889SOL     OW23690   0.594  10.055   4.376
 7889SOL    HW123691   0.644  10.140   4.357
 7889SOL    HW223692   0.506  10.057   4.328
 7890SOL     OW23693   1.730  10.244   5.241
 7890SOL    HW123694   1.768  10.335   5.256
 7890SOL    HW223695   1.722  10.227   5.142
 7891SOL     OW23696   0.859  10.684   3.740
 7891SOL    HW123697   0.813  10.699   3.828
 7891SOL    HW223698   0.903  10.769   3.710
 7892SOL     OW23699   0.661  11.100   4.677
 7892SOL    HW123700   0.615  11.188   4.664
 7892SOL    HW223701   0.760  11.112   4.670
 7893SOL     OW23702   0.859  10.266   4.585
 7893SOL    HW123703   0.913  10.197   4.633
 7893SOL    HW223704   0.827  10.335   4.651
 7894SOL     OW23705   1.083  10.294   3.811
 7894SOL    HW123706   1.060  10.347   3.729
 7894SOL    HW223707   1.164  10.238   3.792
 7895SOL     OW23708   1.861  10.879   4.575
 7895SOL    HW123709   1.790  10.867   4.505
 7895SOL    HW223710   1.862  10.800   4.635
 7896SOL     OW23711   0.221  10.624   5.568
 7896SOL    HW123712   0.156  10.551   5.547
 7896SOL    HW223713   0.225  10.638   5.666
 7897SOL     OW23714   0.079  10.550   4.377
 7897SOL    HW123715   0.078  10.503   4.465
 7897SOL    HW223716   0.161  10.522   4.326
 7898SOL     OW23717   0.672  10.701   5.348
 7898SOL    HW123718   0.594  10.651   5.386
 7898SOL    HW223719   0.669  10.796   5.379
 7899SOL     OW23720   1.824   9.502   4.951
 7899SOL    HW123721   1.820   9.412   4.995
 7899SOL    HW223722   1.827   9.491   4.852
 7900SOL     OW23723   0.428   9.734   4.244
 7900SOL    HW123724   0.458   9.662   4.182
 7900SOL    HW223725   0.389   9.694   4.327
 7901SOL     OW23726   1.705  10.797   4.828
 7901SOL    HW123727   1.612  10.772   4.801
 7901SOL    HW223728   1.731  10.747   4.910
 7902SOL     OW23729   0.317   9.857   5.004
 7902SOL    HW123730   0.355   9.798   5.076
 7902SOL    HW223731   0.357   9.831   4.916
 7903SOL     OW23732   0.812  10.896   4.411
 7903SOL    HW123733   0.844  10.906   4.317
 7903SOL    HW223734   0.733  10.834   4.413
 7904SOL     OW23735   1.424   9.524   4.836
 7904SOL    HW123736   1.476   9.459   4.891
 7904SOL    HW223737   1.375   9.587   4.897
 7905SOL     OW23738   1.001   9.344   4.878
 7905SOL    HW123739   0.938   9.272   4.847
 7905SOL    HW223740   1.094   9.308   4.878
 7906SOL     OW23741   0.770  10.640   4.025
 7906SOL    HW123742   0.724  10.553   4.042
 7906SOL    HW223743   0.861  10.637   4.066
 7907SOL     OW23744   0.618  10.877   5.008
 7907SOL    HW123745   0.613  10.959   5.065
 7907SOL    HW223746   0.707  10.874   4.963
 7908SOL     OW23747   1.352   9.362   3.892
 7908SOL    HW123748   1.387   9.321   3.808
 7908SOL    HW223749   1.262   9.324   3.912
 7909SOL     OW23750   1.300   9.763   4.415
 7909SOL    HW123751   1.241   9.843   4.419
 7909SOL    HW223752   1.315   9.728   4.508
 7910SOL     OW23753   1.593   9.531   4.606
 7910SOL    HW123754   1.509   9.530   4.660
 7910SOL    HW223755   1.595   9.614   4.550
 7911SOL     OW23756   0.039  10.387   4.024
 7911SOL    HW123757   0.138  10.376   4.015
 7911SOL    HW223758  -0.001  10.301   4.056
 7912SOL     OW23759   0.875  10.956   4.061
 7912SOL    HW123760   0.798  10.921   4.007
 7912SOL    HW223761   0.843  11.027   4.123
 7913SOL     OW23762   0.230   9.938   5.699
 7913SOL    HW123763   0.137   9.936   5.736
 7913SOL    HW223764   0.231   9.899   5.607
 7914SOL     OW23765   0.225   9.585   6.582
 7914SOL    HW123766   0.260   9.568   6.674
 7914SOL    HW223767   0.137   9.540   6.570
 7915SOL     OW23768   0.019   9.678   6.233
 7915SOL    HW123769  -0.063   9.721   6.272
 7915SOL    HW223770  -0.009   9.605   6.170
 7916SOL     OW23771   0.569  10.585   6.751
 7916SOL    HW123772   0.476  10.578   6.714
 7916SOL    HW223773   0.580  10.674   6.795
 7917SOL     OW23774   1.555  10.821   6.289
 7917SOL    HW123775   1.498  10.805   6.370
 7917SOL    HW223776   1.496  10.831   6.209
 7918SOL     OW23777   1.135  10.013   6.303
 7918SOL    HW123778   1.192  10.091   6.278
 7918SOL    HW223779   1.075  10.039   6.379
 7919SOL     OW23780   1.755   9.917   5.817
 7919SOL    HW123781   1.743   9.904   5.718
 7919SOL    HW223782   1.725   9.836   5.866
 7920SOL     OW23783   0.768  10.454   6.609
 7920SOL    HW123784   0.690  10.471   6.669
 7920SOL    HW223785   0.802  10.541   6.573
 7921SOL     OW23786   0.850  10.108   7.409
 7921SOL    HW123787   0.846  10.184   7.474
 7921SOL    HW223788   0.872  10.144   7.318
 7922SOL     OW23789   0.685  10.322   6.251
 7922SOL    HW123790   0.754  10.306   6.321
 7922SOL    HW223791   0.612  10.379   6.289
 7923SOL     OW23792   0.686  10.471   7.389
 7923SOL    HW123793   0.746  10.550   7.403
 7923SOL    HW223794   0.600  10.502   7.348
 7924SOL     OW23795   0.335  10.745   6.647
 7924SOL    HW123796   0.257  10.714   6.594
 7924SOL    HW223797   0.393  10.803   6.590
 7925SOL     OW23798   1.460  10.815   6.925
 7925SOL    HW123799   1.484  10.909   6.951
 7925SOL    HW223800   1.444  10.761   7.007
 7926SOL     OW23801   0.438   9.702   7.085
 7926SOL    HW123802   0.520   9.646   7.094
 7926SOL    HW223803   0.357   9.644   7.089
 7927SOL     OW23804   1.603   9.757   6.323
 7927SOL    HW123805   1.529   9.803   6.273
 7927SOL    HW223806   1.654   9.825   6.376
 7928SOL     OW23807   0.231  11.023   6.069
 7928SOL    HW123808   0.265  11.100   6.123
 7928SOL    HW223809   0.275  11.023   5.979
 7929SOL     OW23810   1.127  10.651   7.276
 7929SOL    HW123811   1.174  10.651   7.364
 7929SOL    HW223812   1.079  10.564   7.265
 7930SOL     OW23813   0.230  10.744   6.124
 7930SOL    HW123814   0.204  10.840   6.124
 7930SOL    HW223815   0.159  10.690   6.169
 7931SOL     OW23816   0.240  10.401   6.472
 7931SOL    HW123817   0.254  10.317   6.524
 7931SOL    HW223818   0.185  10.465   6.527
 7932SOL     OW23819   0.620  11.096   7.025
 7932SOL    HW123820   0.528  11.079   7.060
 7932SOL    HW223821   0.648  11.188   7.051
 7933SOL     OW23822   0.606  10.274   5.709
 7933SOL    HW123823   0.613  10.358   5.655
 7933SOL    HW223824   0.652  10.287   5.797
 7934SOL     OW23825   1.594   9.424   7.066
 7934SOL    HW123826   1.576   9.491   6.994
 7934SOL    HW223827   1.591   9.470   7.155
 7935SOL     OW23828   0.122   9.953   6.149
 7935SOL    HW123829   0.077   9.865   6.166
 7935SOL    HW223830   0.121  10.007   6.233
 7936SOL     OW23831   1.842  11.077   5.945
 7936SOL    HW123832   1.896  11.048   6.025
 7936SOL    HW223833   1.872  11.167   5.916
 7937SOL     OW23834   0.027  10.906   5.703
 7937SOL    HW123835   0.008  10.810   5.724
 7937SOL    HW223836  -0.006  10.964   5.778
 7938SOL     OW23837   1.689  10.232   6.198
 7938SOL    HW123838   1.784  10.203   6.206
 7938SOL    HW223839   1.681  10.297   6.123
 7939SOL     OW23840   1.641  10.418   6.018
 7939SOL    HW123841   1.727  10.420   5.966
 7939SOL    HW223842   1.655  10.465   6.106
 7940SOL     OW23843   0.113  10.047   7.183
 7940SOL    HW123844   0.201  10.034   7.228
 7940SOL    HW223845   0.100  10.144   7.161
 7941SOL     OW23846   0.613  10.675   6.312
 7941SOL    HW123847   0.564  10.588   6.321
 7941SOL    HW223848   0.590  10.718   6.225
 7942SOL     OW23849   1.293  10.538   7.009
 7942SOL    HW123850   1.330  10.465   6.951
 7942SOL    HW223851   1.345  10.543   7.094
 7943SOL     OW23852   0.809   9.314   6.088
 7943SOL    HW123853   0.849   9.405   6.079
 7943SOL    HW223854   0.709   9.322   6.094
 7944SOL     OW23855   0.197  10.286   6.850
 7944SOL    HW123856   0.286  10.241   6.836
 7944SOL    HW223857   0.124  10.221   6.831
 7945SOL     OW23858   1.525  10.309   5.776
 7945SOL    HW123859   1.462  10.233   5.789
 7945SOL    HW223860   1.573  10.327   5.862
 7946SOL     OW23861   1.187  11.102   7.202
 7946SOL    HW123862   1.211  11.162   7.126
 7946SOL    HW223863   1.194  11.007   7.172
 7947SOL     OW23864   0.317   9.561   7.387
 7947SOL    HW123865   0.388   9.632   7.393
 7947SOL    HW223866   0.229   9.600   7.415
 7948SOL     OW23867   1.466  10.727   6.539
 7948SOL    HW123868   1.407  10.733   6.619
 7948SOL    HW223869   1.451  10.639   6.493
 7949SOL     OW23870   1.667  11.024   6.158
 7949SOL    HW123871   1.626  11.001   6.070
 7949SOL    HW223872   1.649  10.950   6.223
 7950SOL     OW23873   0.598  10.039   5.856
 7950SOL    HW123874   0.622  10.108   5.788
 7950SOL    HW223875   0.520  10.072   5.910
 7951SOL     OW23876   1.281   9.655   6.530
 7951SOL    HW123877   1.195   9.605   6.517
 7951SOL    HW223878   1.343   9.601   6.586
 7952SOL     OW23879   1.576  10.972   5.893
 7952SOL    HW123880   1.665  11.018   5.896
 7952SOL    HW223881   1.555  10.948   5.798
 7953SOL     OW23882   0.807   9.915   7.051
 7953SOL    HW123883   0.760   9.912   7.140
 7953SOL    HW223884   0.756   9.860   6.985
 7954SOL     OW23885   1.394   9.779   7.260
 7954SOL    HW123886   1.374   9.822   7.348
 7954SOL    HW223887   1.472   9.717   7.269
 7955SOL     OW23888   0.973  10.200   7.158
 7955SOL    HW123889   1.019  10.116   7.129
 7955SOL    HW223890   0.917  10.234   7.083
 7956SOL     OW23891   0.991   9.720   6.828
 7956SOL    HW123892   0.914   9.754   6.882
 7956SOL    HW223893   0.957   9.669   6.749
 7957SOL     OW23894   1.041  10.011   6.015
 7957SOL    HW123895   1.067  10.007   6.111
 7957SOL    HW223896   0.956   9.960   6.001
 7958SOL     OW23897   0.076  10.121   6.375
 7958SOL    HW123898   0.175  10.109   6.384
 7958SOL    HW223899   0.052  10.216   6.396
 7959SOL     OW23900   0.130  11.131   7.157
 7959SOL    HW123901   0.120  11.116   7.256
 7959SOL    HW223902   0.044  11.167   7.121
 7960SOL     OW23903   0.865   9.658   5.781
 7960SOL    HW123904   0.924   9.721   5.732
 7960SOL    HW223905   0.884   9.564   5.752
 7961SOL     OW23906   1.719   9.895   7.417
 7961SOL    HW123907   1.693   9.984   7.381
 7961SOL    HW223908   1.717   9.827   7.344
 7962SOL     OW23909   1.362  10.454   6.131
 7962SOL    HW123910   1.445  10.425   6.083
 7962SOL    HW223911   1.313  10.521   6.075
 7963SOL     OW23912   0.550   9.506   6.471
 7963SOL    HW123913   0.545   9.501   6.571
 7963SOL    HW223914   0.552   9.602   6.442
 7964SOL     OW23915   1.008  10.766   6.063
 7964SOL    HW123916   0.962  10.838   6.011
 7964SOL    HW223917   1.004  10.786   6.161
 7965SOL     OW23918   0.351  11.111   6.439
 7965SOL    HW123919   0.401  11.025   6.445
 7965SOL    HW223920   0.416  11.188   6.436
 7966SOL     OW23921   1.795  10.376   6.459
 7966SOL    HW123922   1.733  10.361   6.383
 7966SOL    HW223923   1.743  10.387   6.544
 7967SOL     OW23924   1.227  10.860   7.092
 7967SOL    HW123925   1.233  10.783   7.156
 7967SOL    HW223926   1.175  10.834   7.012
 7968SOL     OW23927   0.321  10.253   5.828
 7968SOL    HW123928   0.403  10.292   5.786
 7968SOL    HW223929   0.294  10.171   5.779
 7969SOL     OW23930   1.458  10.045   6.314
 7969SOL    HW123931   1.453   9.980   6.389
 7969SOL    HW223932   1.538  10.104   6.327
 7970SOL     OW23933   0.461  10.576   7.313
 7970SOL    HW123934   0.411  10.577   7.227
 7970SOL    HW223935   0.398  10.558   7.389
 7971SOL     OW23936   1.111  11.086   5.823
 7971SOL    HW123937   1.051  11.024   5.873
 7971SOL    HW223938   1.142  11.042   5.738
 7972SOL     OW23939   0.202   9.595   7.084
 7972SOL    HW123940   0.122   9.655   7.071
 7972SOL    HW223941   0.192   9.546   7.170
 7973SOL     OW23942   1.632  10.687   5.667
 7973SOL    HW123943   1.600  10.781   5.657
 7973SOL    HW223944   1.556  10.624   5.655
 7974SOL     OW23945   0.464  11.053   5.909
 7974SOL    HW123946   0.497  11.092   5.995
 7974SOL    HW223947   0.540  11.046   5.844
 7975SOL     OW23948   1.400   9.417   6.012
 7975SOL    HW123949   1.376   9.380   5.922
 7975SOL    HW223950   1.499   9.433   6.016
 7976SOL     OW23951   0.249  11.095   6.827
 7976SOL    HW123952   0.306  11.030   6.877
 7976SOL    HW223953   0.233  11.062   6.734
 7977SOL     OW23954   0.940  11.008   6.490
 7977SOL    HW123955   1.020  10.951   6.511
 7977SOL    HW223956   0.891  10.968   6.413
 7978SOL     OW23957   0.382  10.010   6.066
 7978SOL    HW123958   0.427   9.920   6.063
 7978SOL    HW223959   0.288   9.999   6.099
 7979SOL     OW23960   1.547   9.532   7.315
 7979SOL    HW123961   1.542   9.569   7.407
 7979SOL    HW223962   1.475   9.463   7.303
 7980SOL     OW23963   0.614   9.432   5.703
 7980SOL    HW123964   0.712   9.410   5.710
 7980SOL    HW223965   0.583   9.415   5.610
 7981SOL     OW23966   0.781   9.574   7.335
 7981SOL    HW123967   0.848   9.513   7.378
 7981SOL    HW223968   0.708   9.593   7.400
 7982SOL     OW23969   0.888  10.824   6.781
 7982SOL    HW123970   0.865  10.799   6.687
 7982SOL    HW223971   0.949  10.755   6.820
 7983SOL     OW23972   1.351   9.900   7.019
 7983SOL    HW123973   1.379   9.857   7.104
 7983SOL    HW223974   1.376   9.996   7.020
 7984SOL     OW23975   0.803  10.712   6.510
 7984SOL    HW123976   0.893  10.726   6.468
 7984SOL    HW223977   0.732  10.714   6.439
 7985SOL     OW23978   0.922   9.813   6.485
 7985SOL    HW123979   0.897   9.804   6.389
 7985SOL    HW223980   0.970   9.731   6.516
 7986SOL     OW23981   0.539   9.374   6.098
 7986SOL    HW123982   0.458   9.375   6.156
 7986SOL    HW223983   0.542   9.457   6.043
 7987SOL     OW23984   1.434  10.498   5.627
 7987SOL    HW123985   1.466  10.422   5.684
 7987SOL    HW223986   1.342  10.525   5.657
 7988SOL     OW23987   0.297   9.345   5.757
 7988SOL    HW123988   0.346   9.429   5.736
 7988SOL    HW223989   0.359   9.280   5.802
 7989SOL     OW23990   0.935   9.546   6.066
 7989SOL    HW123991   0.887   9.587   5.988
 7989SOL    HW223992   1.034   9.544   6.047
 7990SOL     OW23993   1.227  10.880   6.379
 7990SOL    HW123994   1.248  10.954   6.314
 7990SOL    HW223995   1.295  10.880   6.452
 7991SOL     OW23996   0.459  10.462   6.327
 7991SOL    HW123997   0.388  10.435   6.392
 7991SOL    HW223998   0.433  10.434   6.234
 7992SOL     OW23999   1.271  11.107   6.177
 7992SOL    HW124000   1.315  11.171   6.113
 7992SOL    HW224001   1.221  11.159   6.247
 7993SOL     OW24002   1.032   9.859   5.602
 7993SOL    HW124003   0.991   9.941   5.563
 7993SOL    HW224004   1.096   9.885   5.675
 7994SOL     OW24005   0.561   9.532   6.733
 7994SOL    HW124006   0.599   9.448   6.770
 7994SOL    HW224007   0.473   9.551   6.777
 7995SOL     OW24008   0.866   9.764   6.228
 7995SOL    HW124009   0.834   9.836   6.166
 7995SOL    HW224010   0.890   9.683   6.175
 7996SOL     OW24011   1.017   9.349   6.339
 7996SOL    HW124012   0.945   9.354   6.270
 7996SOL    HW224013   0.993   9.280   6.408
 7997SOL     OW24014   1.429  10.483   6.453
 7997SOL    HW124015   1.374  10.399   6.446
 7997SOL    HW224016   1.455  10.512   6.361
 7998SOL     OW24017   1.466   9.900   6.578
 7998SOL    HW124018   1.436   9.805   6.585
 7998SOL    HW224019   1.539   9.916   6.644
 7999SOL     OW24020   1.857  10.143   5.963
 7999SOL    HW124021   1.899  10.079   6.027
 7999SOL    HW224022   1.819  10.092   5.885
 8000SOL     OW24023   0.488  10.695   5.760
 8000SOL    HW124024   0.401  10.680   5.807
 8000SOL    HW224025   0.471  10.721   5.665
 8001SOL     OW24026   1.664  10.590   6.243
 8001SOL    HW124027   1.763  10.598   6.257
 8001SOL    HW224028   1.619  10.674   6.274
 8002SOL     OW24029   1.390   9.885   5.664
 8002SOL    HW124030   1.336   9.864   5.745
 8002SOL    HW224031   1.481   9.844   5.673
 8003SOL     OW24032   0.527   9.566   5.914
 8003SOL    HW124033   0.554   9.507   5.839
 8003SOL    HW224034   0.527   9.661   5.883
 8004SOL     OW24035   1.754  10.533   7.174
 8004SOL    HW124036   1.845  10.494   7.161
 8004SOL    HW224037   1.762  10.629   7.198
 8005SOL     OW24038   1.064  10.657   6.926
 8005SOL    HW124039   0.984  10.634   6.981
 8005SOL    HW224040   1.147  10.631   6.975
 8006SOL     OW24041   1.592  10.939   7.211
 8006SOL    HW124042   1.619  10.973   7.121
 8006SOL    HW224043   1.671  10.901   7.257
 8007SOL     OW24044   1.111  10.505   6.686
 8007SOL    HW124045   1.071  10.549   6.767
 8007SOL    HW224046   1.070  10.542   6.603
 8008SOL     OW24047   1.638  10.409   6.665
 8008SOL    HW124048   1.643  10.490   6.724
 8008SOL    HW224049   1.552  10.411   6.614
 8009SOL     OW24050   0.915   9.399   6.988
 8009SOL    HW124051   0.940   9.379   6.893
 8009SOL    HW224052   0.987   9.455   7.030
 8010SOL     OW24053   0.980  10.426   7.305
 8010SOL    HW124054   0.881  10.432   7.315
 8010SOL    HW224055   1.003  10.346   7.249
 8011SOL     OW24056   0.705  10.360   5.954
 8011SOL    HW124057   0.691  10.367   6.053
 8011SOL    HW224058   0.789  10.309   5.936
 8012SOL     OW24059   0.410  10.123   6.837
 8012SOL    HW124060   0.496  10.135   6.887
 8012SOL    HW224061   0.368  10.036   6.864
 8013SOL     OW24062   1.274   9.696   6.848
 8013SOL    HW124063   1.295   9.770   6.912
 8013SOL    HW224064   1.185   9.713   6.805
 8014SOL     OW24065   0.064  10.874   6.917
 8014SOL    HW124066   0.018  10.956   6.883
 8014SOL    HW224067   0.162  10.893   6.926
 8015SOL     OW24068   0.367  10.410   6.087
 8015SOL    HW124069   0.360  10.493   6.031
 8015SOL    HW224070   0.371  10.330   6.027
 8016SOL     OW24071   0.566   9.847   6.451
 8016SOL    HW124072   0.578   9.913   6.377
 8016SOL    HW224073   0.612   9.881   6.534
 8017SOL     OW24074   1.252  10.658   5.974
 8017SOL    HW124075   1.302  10.735   6.014
 8017SOL    HW224076   1.157  10.660   6.006
 8018SOL     OW24077   1.272  10.755   6.728
 8018SOL    HW124078   1.319  10.768   6.815
 8018SOL    HW224079   1.206  10.681   6.737
 8019SOL     OW24080   1.582   9.949   6.058
 8019SOL    HW124081   1.551  10.010   6.131
 8019SOL    HW224082   1.632  10.001   5.989
 8020SOL     OW24083   0.354  10.820   6.915
 8020SOL    HW124084   0.333  10.776   6.828
 8020SOL    HW224085   0.451  10.846   6.918
 8021SOL     OW24086   0.402  10.061   7.184
 8021SOL    HW124087   0.470  10.116   7.137
 8021SOL    HW224088   0.442   9.973   7.211
 8022SOL     OW24089   1.587  10.089   7.256
 8022SOL    HW124090   1.495  10.127   7.251
 8022SOL    HW224091   1.647  10.136   7.191
 8023SOL     OW24092   1.013   9.415   7.356
 8023SOL    HW124093   1.019   9.500   7.304
 8023SOL    HW224094   1.045   9.339   7.299
 8024SOL     OW24095   0.504   9.360   7.326
 8024SOL    HW124096   0.462   9.303   7.256
 8024SOL    HW224097   0.438   9.429   7.358
 8025SOL     OW24098   0.573  10.180   6.615
 8025SOL    HW124099   0.617  10.269   6.606
 8025SOL    HW224100   0.510  10.180   6.692
 8026SOL     OW24101   1.360  10.172   6.631
 8026SOL    HW124102   1.285  10.172   6.565
 8026SOL    HW224103   1.397  10.080   6.640
 8027SOL     OW24104   1.209   9.835   5.861
 8027SOL    HW124105   1.222   9.751   5.915
 8027SOL    HW224106   1.180   9.909   5.921
 8028SOL     OW24107   0.307   9.523   6.817
 8028SOL    HW124108   0.284   9.560   6.907
 8028SOL    HW224109   0.277   9.428   6.811
 8029SOL     OW24110   0.037  10.620   6.868
 8029SOL    HW124111   0.090  10.571   6.936
 8029SOL    HW224112   0.059  10.718   6.873
 8030SOL     OW24113   0.732   9.944   6.650
 8030SOL    HW124114   0.791   9.918   6.574
 8030SOL    HW224115   0.704  10.040   6.639
 8031SOL     OW24116   1.728  10.245   7.440
 8031SOL    HW124117   1.682  10.238   7.351
 8031SOL    HW224118   1.666  10.289   7.506
 8032SOL     OW24119   0.307   9.373   6.204
 8032SOL    HW124120   0.296   9.467   6.237
 8032SOL    HW224121   0.302   9.310   6.281
 8033SOL     OW24122   1.622   9.677   5.960
 8033SOL    HW124123   1.624   9.601   6.024
 8033SOL    HW224124   1.574   9.754   6.000
 8034SOL     OW24125   1.023  10.076   6.552
 8034SOL    HW124126   1.038  10.097   6.648
 8034SOL    HW224127   0.993   9.981   6.543
 8035SOL     OW24128   0.980  10.883   7.286
 8035SOL    HW124129   0.960  10.927   7.198
 8035SOL    HW224130   1.019  10.792   7.270
 8036SOL     OW24131   1.859  10.828   7.191
 8036SOL    HW124132   1.873  10.855   7.096
 8036SOL    HW224133   1.942  10.850   7.244
 8037SOL     OW24134   0.350  10.208   7.390
 8037SOL    HW124135   0.426  10.252   7.438
 8037SOL    HW224136   0.385  10.161   7.308
 8038SOL     OW24137   1.540   9.584   5.711
 8038SOL    HW124138   1.479   9.509   5.734
 8038SOL    HW224139   1.562   9.636   5.794
 8039SOL     OW24140   1.303  10.148   5.628
 8039SOL    HW124141   1.337  10.055   5.643
 8039SOL    HW224142   1.321  10.175   5.533
 8040SOL     OW24143   1.068  10.643   6.435
 8040SOL    HW124144   1.075  10.559   6.380
 8040SOL    HW224145   1.130  10.712   6.399
 8041SOL     OW24146   0.319  10.120   6.535
 8041SOL    HW124147   0.412  10.156   6.540
 8041SOL    HW224148   0.313  10.035   6.587
 8042SOL     OW24149   0.339   9.819   6.592
 8042SOL    HW124150   0.287   9.736   6.575
 8042SOL    HW224151   0.416   9.824   6.528
 8043SOL     OW24152   1.138   9.690   7.264
 8043SOL    HW124153   1.093   9.753   7.328
 8043SOL    HW224154   1.231   9.721   7.247
 8044SOL     OW24155   1.160   9.517   7.063
 8044SOL    HW124156   1.160   9.581   7.140
 8044SOL    HW224157   1.188   9.565   6.980
 8045SOL     OW24158   0.008  10.636   5.786
 8045SOL    HW124159  -0.085  10.657   5.755
 8045SOL    HW224160   0.018  10.537   5.799
 8046SOL     OW24161   0.088  11.111   6.513
 8046SOL    HW124162   0.046  11.025   6.486
 8046SOL    HW224163   0.182  11.114   6.479
 8047SOL     OW24164   0.504  10.878   6.496
 8047SOL    HW124165   0.570  10.952   6.505
 8047SOL    HW224166   0.548  10.799   6.454
 8048SOL     OW24167   1.002  10.106   6.824
 8048SOL    HW124168   1.043  10.074   6.910
 8048SOL    HW224169   0.906  10.079   6.821
 8049SOL     OW24170   0.040   9.854   6.700
 8049SOL    HW124171   0.125   9.821   6.659
 8049SOL    HW224172   0.053   9.869   6.798
 8050SOL     OW24173   0.189   9.830   7.308
 8050SOL    HW124174   0.248   9.790   7.238
 8050SOL    HW224175   0.131   9.901   7.267
 8051SOL     OW24176   1.369  10.260   7.246
 8051SOL    HW124177   1.408  10.349   7.266
 8051SOL    HW224178   1.379  10.240   7.149
 8052SOL     OW24179   0.815   9.882   5.911
 8052SOL    HW124180   0.822   9.793   5.865
 8052SOL    HW224181   0.721   9.916   5.903
 8053SOL     OW24182   1.657   9.914   6.792
 8053SOL    HW124183   1.619   9.845   6.854
 8053SOL    HW224184   1.739   9.878   6.748
 8054SOL     OW24185   0.252  10.874   7.330
 8054SOL    HW124186   0.222  10.931   7.406
 8054SOL    HW224187   0.245  10.777   7.356
 8055SOL     OW24188   0.671   9.774   6.855
 8055SOL    HW124189   0.637   9.685   6.825
 8055SOL    HW224190   0.697   9.828   6.775
 8056SOL     OW24191   0.930  10.988   7.051
 8056SOL    HW124192   0.906  10.970   6.956
 8056SOL    HW224193   0.960  11.082   7.061
 8057SOL     OW24194   0.473   9.810   5.777
 8057SOL    HW124195   0.534   9.890   5.781
 8057SOL    HW224196   0.378   9.841   5.784
 8058SOL     OW24197   0.159  10.447   7.052
 8058SOL    HW124198   0.181  10.386   7.128
 8058SOL    HW224199   0.169  10.398   6.966
 8059SOL     OW24200   1.347  10.369   6.820
 8059SOL    HW124201   1.371  10.306   6.746
 8059SOL    HW224202   1.257  10.409   6.802
 8060SOL     OW24203   1.302  10.165   5.895
 8060SOL    HW124204   1.216  10.134   5.937
 8060SOL    HW224205   1.298  10.151   5.796
 8061SOL     OW24206   1.759  11.057   6.740
 8061SOL    HW124207   1.820  11.087   6.667
 8061SOL    HW224208   1.721  10.968   6.718
 8062SOL     OW24209   1.252  11.041   6.714
 8062SOL    HW124210   1.336  11.046   6.660
 8062SOL    HW224211   1.229  10.945   6.732
 8063SOL     OW24212   0.083  10.568   6.608
 8063SOL    HW124213   0.078  10.567   6.708
 8063SOL    HW224214   0.000  10.527   6.570
 8064SOL     OW24215   0.688  10.972   7.302
 8064SOL    HW124216   0.632  11.053   7.311
 8064SOL    HW224217   0.740  10.976   7.216
 8065SOL     OW24218   1.726   9.445   6.109
 8065SOL    HW124219   1.799   9.428   6.042
 8065SOL    HW224220   1.695   9.358   6.147
 8066SOL     OW24221   1.388  10.883   6.063
 8066SOL    HW124222   1.455  10.895   5.989
 8066SOL    HW224223   1.348  10.972   6.086
 8067SOL     OW24224   0.130  11.104   7.437
 8067SOL    HW124225   0.089  11.030   7.490
 8067SOL    HW224226   0.194  11.155   7.495
 8068SOL     OW24227   1.280  10.237   6.258
 8068SOL    HW124228   1.340  10.156   6.260
 8068SOL    HW224229   1.320  10.306   6.198
 8069SOL     OW24230   0.830  10.583   7.008
 8069SOL    HW124231   0.825  10.616   7.103
 8069SOL    HW224232   0.744  10.602   6.962
 8070SOL     OW24233   0.672  10.926   5.740
 8070SOL    HW124234   0.681  10.936   5.641
 8070SOL    HW224235   0.632  10.837   5.761
 8071SOL     OW24236   1.650  11.030   6.980
 8071SOL    HW124237   1.703  11.040   6.896
 8071SOL    HW224238   1.623  11.120   7.014
 8072SOL     OW24239   1.841   9.485   6.549
 8072SOL    HW124240   1.880   9.400   6.513
 8072SOL    HW224241   1.743   9.487   6.530
 8073SOL     OW24242   0.263   9.636   6.306
 8073SOL    HW124243   0.184   9.687   6.272
 8073SOL    HW224244   0.254   9.621   6.404
 8074SOL     OW24245   1.194  10.922   5.617
 8074SOL    HW124246   1.200  10.829   5.654
 8074SOL    HW224247   1.135  10.922   5.537
 8075SOL     OW24248   0.822  10.312   6.958
 8075SOL    HW124249   0.862  10.311   6.866
 8075SOL    HW224250   0.832  10.404   6.998
 8076SOL     OW24251   0.916  10.220   5.877
 8076SOL    HW124252   0.979  10.258   5.809
 8076SOL    HW224253   0.956  10.137   5.916
 8077SOL     OW24254   1.504  10.917   5.630
 8077SOL    HW124255   1.412  10.954   5.637
 8077SOL    HW224256   1.542  10.937   5.540
 8078SOL     OW24257   0.372  10.598   7.076
 8078SOL    HW124258   0.359  10.691   7.042
 8078SOL    HW224259   0.288  10.546   7.063
 8079SOL     OW24260   1.614  10.602   6.875
 8079SOL    HW124261   1.674  10.605   6.955
 8079SOL    HW224262   1.539  10.666   6.888
 8080SOL     OW24263   1.039  10.408   6.282
 8080SOL    HW124264   0.969  10.361   6.336
 8080SOL    HW224265   1.098  10.340   6.239
 8081SOL     OW24266   1.014   9.546   6.557
 8081SOL    HW124267   1.006   9.510   6.464
 8081SOL    HW224268   1.012   9.470   6.622
 8082SOL     OW24269   0.590  10.797   6.077
 8082SOL    HW124270   0.632  10.739   6.007
 8082SOL    HW224271   0.546  10.876   6.033
 8083SOL     OW24272   1.709   9.695   6.967
 8083SOL    HW124273   1.782   9.764   6.971
 8083SOL    HW224274   1.737   9.620   6.908
 8084SOL     OW24275   0.255  10.658   5.876
 8084SOL    HW124276   0.159  10.659   5.849
 8084SOL    HW224277   0.267  10.711   5.960
 8085SOL     OW24278   0.105  10.323   7.312
 8085SOL    HW124279   0.028  10.290   7.366
 8085SOL    HW224280   0.190  10.293   7.354
 8086SOL     OW24281   0.672   9.513   7.075
 8086SOL    HW124282   0.762   9.497   7.035
 8086SOL    HW224283   0.680   9.518   7.174
 8087SOL     OW24284   0.075   9.655   5.619
 8087SOL    HW124285  -0.017   9.627   5.590
 8087SOL    HW224286   0.106   9.732   5.563
 8088SOL     OW24287   1.440  10.166   6.984
 8088SOL    HW124288   1.383  10.218   6.921
 8088SOL    HW224289   1.536  10.178   6.960
 8089SOL     OW24290   0.072   9.476   5.904
 8089SOL    HW124291   0.055   9.559   5.850
 8089SOL    HW224292   0.162   9.439   5.882
 8090SOL     OW24293   1.183  10.645   5.705
 8090SOL    HW124294   1.084  10.634   5.707
 8090SOL    HW224295   1.217  10.660   5.798
 8091SOL     OW24296   0.613  10.152   7.017
 8091SOL    HW124297   0.669  10.233   7.000
 8091SOL    HW224298   0.672  10.072   7.020
 8092SOL     OW24299   1.493  11.077   6.545
 8092SOL    HW124300   1.526  11.141   6.476
 8092SOL    HW224301   1.559  11.071   6.620
 8093SOL     OW24302   0.716   9.875   7.294
 8093SOL    HW124303   0.735   9.940   7.368
 8093SOL    HW224304   0.776   9.795   7.303
 8094SOL     OW24305   1.450  10.530   7.219
 8094SOL    HW124306   1.441  10.520   7.318
 8094SOL    HW224307   1.546  10.523   7.193
 8095SOL     OW24308   0.390  11.051   7.146
 8095SOL    HW124309   0.299  11.092   7.144
 8095SOL    HW224310   0.383  10.957   7.178
 8096SOL     OW24311   1.674  10.193   6.840
 8096SOL    HW124312   1.647  10.104   6.803
 8096SOL    HW224313   1.675  10.261   6.767
 8097SOL     OW24314   1.225   9.635   6.035
 8097SOL    HW124315   1.290   9.561   6.024
 8097SOL    HW224316   1.245   9.685   6.119
 8098SOL     OW24317   0.594  10.055   6.238
 8098SOL    HW124318   0.644  10.140   6.219
 8098SOL    HW224319   0.506  10.057   6.190
 8099SOL     OW24320   1.777   9.652   7.228
 8099SOL    HW124321   1.760   9.683   7.134
 8099SOL    HW224322   1.693   9.615   7.266
 8100SOL     OW24323   1.730  10.244   7.103
 8100SOL    HW124324   1.768  10.335   7.118
 8100SOL    HW224325   1.722  10.227   7.004
 8101SOL     OW24326   0.859  10.684   5.602
 8101SOL    HW124327   0.813  10.699   5.690
 8101SOL    HW224328   0.903  10.769   5.572
 8102SOL     OW24329   0.661  11.100   6.539
 8102SOL    HW124330   0.615  11.188   6.526
 8102SOL    HW224331   0.760  11.112   6.532
 8103SOL     OW24332   0.859  10.266   6.447
 8103SOL    HW124333   0.913  10.197   6.495
 8103SOL    HW224334   0.827  10.335   6.513
 8104SOL     OW24335   1.083  10.294   5.673
 8104SOL    HW124336   1.060  10.347   5.591
 8104SOL    HW224337   1.164  10.238   5.654
 8105SOL     OW24338   1.861  10.879   6.437
 8105SOL    HW124339   1.790  10.867   6.367
 8105SOL    HW224340   1.862  10.800   6.497
 8106SOL     OW24341   0.221  10.624   7.430
 8106SOL    HW124342   0.156  10.551   7.409
 8106SOL    HW224343   0.225  10.638   7.528
 8107SOL     OW24344   0.079  10.550   6.239
 8107SOL    HW124345   0.078  10.503   6.327
 8107SOL    HW224346   0.161  10.522   6.188
 8108SOL     OW24347   0.672  10.701   7.210
 8108SOL    HW124348   0.594  10.651   7.248
 8108SOL    HW224349   0.669  10.796   7.241
 8109SOL     OW24350   1.824   9.502   6.813
 8109SOL    HW124351   1.820   9.412   6.857
 8109SOL    HW224352   1.827   9.491   6.714
 8110SOL     OW24353   0.428   9.734   6.106
 8110SOL    HW124354   0.458   9.662   6.044
 8110SOL    HW224355   0.389   9.694   6.189
 8111SOL     OW24356   1.705  10.797   6.690
 8111SOL    HW124357   1.612  10.772   6.663
 8111SOL    HW224358   1.731  10.747   6.772
 8112SOL     OW24359   0.317   9.857   6.866
 8112SOL    HW124360   0.355   9.798   6.938
 8112SOL    HW224361   0.357   9.831   6.778
 8113SOL     OW24362   0.812  10.896   6.273
 8113SOL    HW124363   0.844  10.906   6.179
 8113SOL    HW224364   0.733  10.834   6.275
 8114SOL     OW24365   1.424   9.524   6.698
 8114SOL    HW124366   1.476   9.459   6.753
 8114SOL    HW224367   1.375   9.587   6.759
 8115SOL     OW24368   1.001   9.344   6.740
 8115SOL    HW124369   0.938   9.272   6.709
 8115SOL    HW224370   1.094   9.308   6.740
 8116SOL     OW24371   0.770  10.640   5.887
 8116SOL    HW124372   0.724  10.553   5.904
 8116SOL    HW224373   0.861  10.637   5.928
 8117SOL     OW24374   0.618  10.877   6.870
 8117SOL    HW124375   0.613  10.959   6.927
 8117SOL    HW224376   0.707  10.874   6.825
 8118SOL     OW24377   1.352   9.362   5.754
 8118SOL    HW124378   1.387   9.321   5.670
 8118SOL    HW224379   1.262   9.324   5.774
 8119SOL     OW24380   1.300   9.763   6.277
 8119SOL    HW124381   1.241   9.843   6.281
 8119SOL    HW224382   1.315   9.728   6.370
 8120SOL     OW24383   1.593   9.531   6.468
 8120SOL    HW124384   1.509   9.530   6.522
 8120SOL    HW224385   1.595   9.614   6.412
 8121SOL     OW24386   0.039  10.387   5.886
 8121SOL    HW124387   0.138  10.376   5.877
 8121SOL    HW224388  -0.001  10.301   5.918
 8122SOL     OW24389   0.875  10.956   5.923
 8122SOL    HW124390   0.798  10.921   5.869
 8122SOL    HW224391   0.843  11.027   5.985
 8123SOL     OW24392   0.230   9.938   7.561
 8123SOL    HW124393   0.137   9.936   7.598
 8123SOL    HW224394   0.231   9.899   7.469
 8124SOL     OW24395   0.225   9.585   8.444
 8124SOL    HW124396   0.260   9.568   8.536
 8124SOL    HW224397   0.137   9.540   8.432
 8125SOL     OW24398   0.019   9.678   8.095
 8125SOL    HW124399  -0.063   9.721   8.134
 8125SOL    HW224400  -0.009   9.605   8.032
 8126SOL     OW24401   0.569  10.585   8.613
 8126SOL    HW124402   0.476  10.578   8.576
 8126SOL    HW224403   0.580  10.674   8.657
 8127SOL     OW24404   1.555  10.821   8.151
 8127SOL    HW124405   1.498  10.805   8.232
 8127SOL    HW224406   1.496  10.831   8.071
 8128SOL     OW24407   1.135  10.013   8.165
 8128SOL    HW124408   1.192  10.091   8.140
 8128SOL    HW224409   1.075  10.039   8.241
 8129SOL     OW24410   1.755   9.917   7.679
 8129SOL    HW124411   1.743   9.904   7.580
 8129SOL    HW224412   1.725   9.836   7.728
 8130SOL     OW24413   0.768  10.454   8.471
 8130SOL    HW124414   0.690  10.471   8.531
 8130SOL    HW224415   0.802  10.541   8.435
 8131SOL     OW24416   0.850  10.108   9.271
 8131SOL    HW124417   0.846  10.184   9.336
 8131SOL    HW224418   0.872  10.144   9.180
 8132SOL     OW24419   0.685  10.322   8.113
 8132SOL    HW124420   0.754  10.306   8.183
 8132SOL    HW224421   0.612  10.379   8.151
 8133SOL     OW24422   0.686  10.471   9.251
 8133SOL    HW124423   0.746  10.550   9.265
 8133SOL    HW224424   0.600  10.502   9.210
 8134SOL     OW24425   0.335  10.745   8.509
 8134SOL    HW124426   0.257  10.714   8.456
 8134SOL    HW224427   0.393  10.803   8.452
 8135SOL     OW24428   1.460  10.815   8.787
 8135SOL    HW124429   1.484  10.909   8.813
 8135SOL    HW224430   1.444  10.761   8.869
 8136SOL     OW24431   0.438   9.702   8.947
 8136SOL    HW124432   0.520   9.646   8.956
 8136SOL    HW224433   0.357   9.644   8.951
 8137SOL     OW24434   1.603   9.757   8.185
 8137SOL    HW124435   1.529   9.803   8.135
 8137SOL    HW224436   1.654   9.825   8.238
 8138SOL     OW24437   0.231  11.023   7.931
 8138SOL    HW124438   0.265  11.100   7.985
 8138SOL    HW224439   0.275  11.023   7.841
 8139SOL     OW24440   1.127  10.651   9.138
 8139SOL    HW124441   1.174  10.651   9.226
 8139SOL    HW224442   1.079  10.564   9.127
 8140SOL     OW24443   0.230  10.744   7.986
 8140SOL    HW124444   0.204  10.840   7.986
 8140SOL    HW224445   0.159  10.690   8.031
 8141SOL     OW24446   0.240  10.401   8.334
 8141SOL    HW124447   0.254  10.317   8.386
 8141SOL    HW224448   0.185  10.465   8.389
 8142SOL     OW24449   0.620  11.096   8.887
 8142SOL    HW124450   0.528  11.079   8.922
 8142SOL    HW224451   0.648  11.188   8.913
 8143SOL     OW24452   0.606  10.274   7.571
 8143SOL    HW124453   0.613  10.358   7.517
 8143SOL    HW224454   0.652  10.287   7.659
 8144SOL     OW24455   1.594   9.424   8.928
 8144SOL    HW124456   1.576   9.491   8.856
 8144SOL    HW224457   1.591   9.470   9.017
 8145SOL     OW24458   0.122   9.953   8.011
 8145SOL    HW124459   0.077   9.865   8.028
 8145SOL    HW224460   0.121  10.007   8.095
 8146SOL     OW24461   1.842  11.077   7.807
 8146SOL    HW124462   1.896  11.048   7.887
 8146SOL    HW224463   1.872  11.167   7.778
 8147SOL     OW24464   0.027  10.906   7.565
 8147SOL    HW124465   0.008  10.810   7.586
 8147SOL    HW224466  -0.006  10.964   7.640
 8148SOL     OW24467   1.689  10.232   8.060
 8148SOL    HW124468   1.784  10.203   8.068
 8148SOL    HW224469   1.681  10.297   7.985
 8149SOL     OW24470   1.641  10.418   7.880
 8149SOL    HW124471   1.727  10.420   7.828
 8149SOL    HW224472   1.655  10.465   7.968
 8150SOL     OW24473   0.113  10.047   9.045
 8150SOL    HW124474   0.201  10.034   9.090
 8150SOL    HW224475   0.100  10.144   9.023
 8151SOL     OW24476   0.613  10.675   8.174
 8151SOL    HW124477   0.564  10.588   8.183
 8151SOL    HW224478   0.590  10.718   8.087
 8152SOL     OW24479   1.293  10.538   8.871
 8152SOL    HW124480   1.330  10.465   8.813
 8152SOL    HW224481   1.345  10.543   8.956
 8153SOL     OW24482   0.809   9.314   7.950
 8153SOL    HW124483   0.849   9.405   7.941
 8153SOL    HW224484   0.709   9.322   7.956
 8154SOL     OW24485   0.197  10.286   8.712
 8154SOL    HW124486   0.286  10.241   8.698
 8154SOL    HW224487   0.124  10.221   8.693
 8155SOL     OW24488   1.525  10.309   7.638
 8155SOL    HW124489   1.462  10.233   7.651
 8155SOL    HW224490   1.573  10.327   7.724
 8156SOL     OW24491   1.187  11.102   9.064
 8156SOL    HW124492   1.211  11.162   8.988
 8156SOL    HW224493   1.194  11.007   9.034
 8157SOL     OW24494   0.317   9.561   9.249
 8157SOL    HW124495   0.388   9.632   9.255
 8157SOL    HW224496   0.229   9.600   9.277
 8158SOL     OW24497   1.466  10.727   8.401
 8158SOL    HW124498   1.407  10.733   8.481
 8158SOL    HW224499   1.451  10.639   8.355
 8159SOL     OW24500   1.667  11.024   8.020
 8159SOL    HW124501   1.626  11.001   7.932
 8159SOL    HW224502   1.649  10.950   8.085
 8160SOL     OW24503   0.598  10.039   7.718
 8160SOL    HW124504   0.622  10.108   7.650
 8160SOL    HW224505   0.520  10.072   7.772
 8161SOL     OW24506   1.281   9.655   8.392
 8161SOL    HW124507   1.195   9.605   8.379
 8161SOL    HW224508   1.343   9.601   8.448
 8162SOL     OW24509   1.576  10.972   7.755
 8162SOL    HW124510   1.665  11.018   7.758
 8162SOL    HW224511   1.555  10.948   7.660
 8163SOL     OW24512   0.807   9.915   8.913
 8163SOL    HW124513   0.760   9.912   9.002
 8163SOL    HW224514   0.756   9.860   8.847
 8164SOL     OW24515   1.394   9.779   9.122
 8164SOL    HW124516   1.374   9.822   9.210
 8164SOL    HW224517   1.472   9.717   9.131
 8165SOL     OW24518   0.973  10.200   9.020
 8165SOL    HW124519   1.019  10.116   8.991
 8165SOL    HW224520   0.917  10.234   8.945
 8166SOL     OW24521   0.991   9.720   8.690
 8166SOL    HW124522   0.914   9.754   8.744
 8166SOL    HW224523   0.957   9.669   8.611
 8167SOL     OW24524   1.041  10.011   7.877
 8167SOL    HW124525   1.067  10.007   7.973
 8167SOL    HW224526   0.956   9.960   7.863
 8168SOL     OW24527   0.076  10.121   8.237
 8168SOL    HW124528   0.175  10.109   8.246
 8168SOL    HW224529   0.052  10.216   8.258
 8169SOL     OW24530   0.130  11.131   9.019
 8169SOL    HW124531   0.120  11.116   9.118
 8169SOL    HW224532   0.044  11.167   8.983
 8170SOL     OW24533   0.865   9.658   7.643
 8170SOL    HW124534   0.924   9.721   7.594
 8170SOL    HW224535   0.884   9.564   7.614
 8171SOL     OW24536   1.719   9.895   9.279
 8171SOL    HW124537   1.693   9.984   9.243
 8171SOL    HW224538   1.717   9.827   9.206
 8172SOL     OW24539   1.362  10.454   7.993
 8172SOL    HW124540   1.445  10.425   7.945
 8172SOL    HW224541   1.313  10.521   7.937
 8173SOL     OW24542   0.550   9.506   8.333
 8173SOL    HW124543   0.545   9.501   8.433
 8173SOL    HW224544   0.552   9.602   8.304
 8174SOL     OW24545   1.008  10.766   7.925
 8174SOL    HW124546   0.962  10.838   7.873
 8174SOL    HW224547   1.004  10.786   8.023
 8175SOL     OW24548   0.351  11.111   8.301
 8175SOL    HW124549   0.401  11.025   8.307
 8175SOL    HW224550   0.416  11.188   8.298
 8176SOL     OW24551   1.795  10.376   8.321
 8176SOL    HW124552   1.733  10.361   8.245
 8176SOL    HW224553   1.743  10.387   8.406
 8177SOL     OW24554   1.227  10.860   8.954
 8177SOL    HW124555   1.233  10.783   9.018
 8177SOL    HW224556   1.175  10.834   8.874
 8178SOL     OW24557   0.321  10.253   7.690
 8178SOL    HW124558   0.403  10.292   7.648
 8178SOL    HW224559   0.294  10.171   7.641
 8179SOL     OW24560   1.458  10.045   8.176
 8179SOL    HW124561   1.453   9.980   8.251
 8179SOL    HW224562   1.538  10.104   8.189
 8180SOL     OW24563   0.461  10.576   9.175
 8180SOL    HW124564   0.411  10.577   9.089
 8180SOL    HW224565   0.398  10.558   9.251
 8181SOL     OW24566   1.111  11.086   7.685
 8181SOL    HW124567   1.051  11.024   7.735
 8181SOL    HW224568   1.142  11.042   7.600
 8182SOL     OW24569   0.202   9.595   8.946
 8182SOL    HW124570   0.122   9.655   8.933
 8182SOL    HW224571   0.192   9.546   9.032
 8183SOL     OW24572   1.632  10.687   7.529
 8183SOL    HW124573   1.600  10.781   7.519
 8183SOL    HW224574   1.556  10.624   7.517
 8184SOL     OW24575   0.464  11.053   7.771
 8184SOL    HW124576   0.497  11.092   7.857
 8184SOL    HW224577   0.540  11.046   7.706
 8185SOL     OW24578   1.400   9.417   7.874
 8185SOL    HW124579   1.376   9.380   7.784
 8185SOL    HW224580   1.499   9.433   7.878
 8186SOL     OW24581   0.249  11.095   8.689
 8186SOL    HW124582   0.306  11.030   8.739
 8186SOL    HW224583   0.233  11.062   8.596
 8187SOL     OW24584   0.940  11.008   8.352
 8187SOL    HW124585   1.020  10.951   8.373
 8187SOL    HW224586   0.891  10.968   8.275
 8188SOL     OW24587   0.382  10.010   7.928
 8188SOL    HW124588   0.427   9.920   7.925
 8188SOL    HW224589   0.288   9.999   7.961
 8189SOL     OW24590   1.547   9.532   9.177
 8189SOL    HW124591   1.542   9.569   9.269
 8189SOL    HW224592   1.475   9.463   9.165
 8190SOL     OW24593   0.614   9.432   7.565
 8190SOL    HW124594   0.712   9.410   7.572
 8190SOL    HW224595   0.583   9.415   7.472
 8191SOL     OW24596   0.781   9.574   9.197
 8191SOL    HW124597   0.848   9.513   9.240
 8191SOL    HW224598   0.708   9.593   9.262
 8192SOL     OW24599   0.888  10.824   8.643
 8192SOL    HW124600   0.865  10.799   8.549
 8192SOL    HW224601   0.949  10.755   8.682
 8193SOL     OW24602   1.351   9.900   8.881
 8193SOL    HW124603   1.379   9.857   8.966
 8193SOL    HW224604   1.376   9.996   8.882
 8194SOL     OW24605   0.803  10.712   8.372
 8194SOL    HW124606   0.893  10.726   8.330
 8194SOL    HW224607   0.732  10.714   8.301
 8195SOL     OW24608   0.922   9.813   8.347
 8195SOL    HW124609   0.897   9.804   8.251
 8195SOL    HW224610   0.970   9.731   8.378
 8196SOL     OW24611   0.539   9.374   7.960
 8196SOL    HW124612   0.458   9.375   8.018
 8196SOL    HW224613   0.542   9.457   7.905
 8197SOL     OW24614   1.434  10.498   7.489
 8197SOL    HW124615   1.466  10.422   7.546
 8197SOL    HW224616   1.342  10.525   7.519
 8198SOL     OW24617   0.297   9.345   7.619
 8198SOL    HW124618   0.346   9.429   7.598
 8198SOL    HW224619   0.359   9.280   7.664
 8199SOL     OW24620   0.935   9.546   7.928
 8199SOL    HW124621   0.887   9.587   7.850
 8199SOL    HW224622   1.034   9.544   7.909
 8200SOL     OW24623   1.076   9.993   8.912
 8200SOL    HW124624   0.996   9.932   8.915
 8200SOL    HW224625   1.157   9.940   8.888
 8201SOL     OW24626   1.227  10.880   8.241
 8201SOL    HW124627   1.248  10.954   8.176
 8201SOL    HW224628   1.295  10.880   8.314
 8202SOL     OW24629   0.459  10.462   8.189
 8202SOL    HW124630   0.388  10.435   8.254
 8202SOL    HW224631   0.433  10.434   8.096
 8203SOL     OW24632   1.271  11.107   8.039
 8203SOL    HW124633   1.315  11.171   7.975
 8203SOL    HW224634   1.221  11.159   8.109
 8204SOL     OW24635   1.032   9.859   7.464
 8204SOL    HW124636   0.991   9.941   7.425
 8204SOL    HW224637   1.096   9.885   7.537
 8205SOL     OW24638   0.078   9.866   8.834
 8205SOL    HW124639   0.170   9.865   8.793
 8205SOL    HW224640   0.072   9.940   8.901
 8206SOL     OW24641   0.561   9.532   8.595
 8206SOL    HW124642   0.599   9.448   8.632
 8206SOL    HW224643   0.473   9.551   8.639
 8207SOL     OW24644   0.866   9.764   8.090
 8207SOL    HW124645   0.834   9.836   8.028
 8207SOL    HW224646   0.890   9.683   8.037
 8208SOL     OW24647   1.017   9.349   8.201
 8208SOL    HW124648   0.945   9.354   8.132
 8208SOL    HW224649   0.993   9.280   8.270
 8209SOL     OW24650   1.429  10.483   8.315
 8209SOL    HW124651   1.374  10.399   8.308
 8209SOL    HW224652   1.455  10.512   8.223
 8210SOL     OW24653   1.466   9.900   8.440
 8210SOL    HW124654   1.436   9.805   8.447
 8210SOL    HW224655   1.539   9.916   8.506
 8211SOL     OW24656   1.857  10.143   7.825
 8211SOL    HW124657   1.899  10.079   7.889
 8211SOL    HW224658   1.819  10.092   7.747
 8212SOL     OW24659   0.488  10.695   7.622
 8212SOL    HW124660   0.401  10.680   7.669
 8212SOL    HW224661   0.471  10.721   7.527
 8213SOL     OW24662   1.664  10.590   8.105
 8213SOL    HW124663   1.763  10.598   8.119
 8213SOL    HW224664   1.619  10.674   8.136
 8214SOL     OW24665   1.390   9.885   7.526
 8214SOL    HW124666   1.336   9.864   7.607
 8214SOL    HW224667   1.481   9.844   7.535
 8215SOL     OW24668   0.527   9.566   7.776
 8215SOL    HW124669   0.554   9.507   7.701
 8215SOL    HW224670   0.527   9.661   7.745
 8216SOL     OW24671   1.754  10.533   9.036
 8216SOL    HW124672   1.845  10.494   9.023
 8216SOL    HW224673   1.762  10.629   9.060
 8217SOL     OW24674   1.064  10.657   8.788
 8217SOL    HW124675   0.984  10.634   8.843
 8217SOL    HW224676   1.147  10.631   8.837
 8218SOL     OW24677   1.592  10.939   9.073
 8218SOL    HW124678   1.619  10.973   8.983
 8218SOL    HW224679   1.671  10.901   9.119
 8219SOL     OW24680   1.111  10.505   8.548
 8219SOL    HW124681   1.071  10.549   8.629
 8219SOL    HW224682   1.070  10.542   8.465
 8220SOL     OW24683   1.638  10.409   8.527
 8220SOL    HW124684   1.643  10.490   8.586
 8220SOL    HW224685   1.552  10.411   8.476
 8221SOL     OW24686   0.915   9.399   8.850
 8221SOL    HW124687   0.940   9.379   8.755
 8221SOL    HW224688   0.987   9.455   8.892
 8222SOL     OW24689   0.980  10.426   9.167
 8222SOL    HW124690   0.881  10.432   9.177
 8222SOL    HW224691   1.003  10.346   9.111
 8223SOL     OW24692   0.705  10.360   7.816
 8223SOL    HW124693   0.691  10.367   7.915
 8223SOL    HW224694   0.789  10.309   7.798
 8224SOL     OW24695   0.410  10.123   8.699
 8224SOL    HW124696   0.496  10.135   8.749
 8224SOL    HW224697   0.368  10.036   8.726
 8225SOL     OW24698   1.274   9.696   8.710
 8225SOL    HW124699   1.295   9.770   8.774
 8225SOL    HW224700   1.185   9.713   8.667
 8226SOL     OW24701   0.064  10.874   8.779
 8226SOL    HW124702   0.018  10.956   8.745
 8226SOL    HW224703   0.162  10.893   8.788
 8227SOL     OW24704   0.367  10.410   7.949
 8227SOL    HW124705   0.360  10.493   7.893
 8227SOL    HW224706   0.371  10.330   7.889
 8228SOL     OW24707   0.566   9.847   8.313
 8228SOL    HW124708   0.578   9.913   8.239
 8228SOL    HW224709   0.612   9.881   8.396
 8229SOL     OW24710   1.252  10.658   7.836
 8229SOL    HW124711   1.302  10.735   7.876
 8229SOL    HW224712   1.157  10.660   7.868
 8230SOL     OW24713   1.272  10.755   8.590
 8230SOL    HW124714   1.319  10.768   8.677
 8230SOL    HW224715   1.206  10.681   8.599
 8231SOL     OW24716   1.582   9.949   7.920
 8231SOL    HW124717   1.551  10.010   7.993
 8231SOL    HW224718   1.632  10.001   7.851
 8232SOL     OW24719   0.354  10.820   8.777
 8232SOL    HW124720   0.333  10.776   8.690
 8232SOL    HW224721   0.451  10.846   8.780
 8233SOL     OW24722   0.402  10.061   9.046
 8233SOL    HW124723   0.470  10.116   8.999
 8233SOL    HW224724   0.442   9.973   9.073
 8234SOL     OW24725   1.587  10.089   9.118
 8234SOL    HW124726   1.495  10.127   9.113
 8234SOL    HW224727   1.647  10.136   9.053
 8235SOL     OW24728   1.013   9.415   9.218
 8235SOL    HW124729   1.019   9.500   9.166
 8235SOL    HW224730   1.045   9.339   9.161
 8236SOL     OW24731   0.504   9.360   9.188
 8236SOL    HW124732   0.462   9.303   9.118
 8236SOL    HW224733   0.438   9.429   9.220
 8237SOL     OW24734   0.573  10.180   8.477
 8237SOL    HW124735   0.617  10.269   8.468
 8237SOL    HW224736   0.510  10.180   8.554
 8238SOL     OW24737   1.360  10.172   8.493
 8238SOL    HW124738   1.285  10.172   8.427
 8238SOL    HW224739   1.397  10.080   8.502
 8239SOL     OW24740   1.209   9.835   7.723
 8239SOL    HW124741   1.222   9.751   7.777
 8239SOL    HW224742   1.180   9.909   7.783
 8240SOL     OW24743   0.307   9.523   8.679
 8240SOL    HW124744   0.284   9.560   8.769
 8240SOL    HW224745   0.277   9.428   8.673
 8241SOL     OW24746   0.037  10.620   8.730
 8241SOL    HW124747   0.090  10.571   8.798
 8241SOL    HW224748   0.059  10.718   8.735
 8242SOL     OW24749   0.732   9.944   8.512
 8242SOL    HW124750   0.791   9.918   8.436
 8242SOL    HW224751   0.704  10.040   8.501
 8243SOL     OW24752   1.728  10.245   9.302
 8243SOL    HW124753   1.682  10.238   9.213
 8243SOL    HW224754   1.666  10.289   9.368
 8244SOL     OW24755   0.307   9.373   8.066
 8244SOL    HW124756   0.296   9.467   8.099
 8244SOL    HW224757   0.302   9.310   8.143
 8245SOL     OW24758   1.622   9.677   7.822
 8245SOL    HW124759   1.624   9.601   7.886
 8245SOL    HW224760   1.574   9.754   7.862
 8246SOL     OW24761   1.023  10.076   8.414
 8246SOL    HW124762   1.038  10.097   8.510
 8246SOL    HW224763   0.993   9.981   8.405
 8247SOL     OW24764   0.980  10.883   9.148
 8247SOL    HW124765   0.960  10.927   9.060
 8247SOL    HW224766   1.019  10.792   9.132
 8248SOL     OW24767   1.859  10.828   9.053
 8248SOL    HW124768   1.873  10.855   8.958
 8248SOL    HW224769   1.942  10.850   9.106
 8249SOL     OW24770   0.350  10.208   9.252
 8249SOL    HW124771   0.426  10.252   9.300
 8249SOL    HW224772   0.385  10.161   9.170
 8250SOL     OW24773   1.540   9.584   7.573
 8250SOL    HW124774   1.479   9.509   7.596
 8250SOL    HW224775   1.562   9.636   7.656
 8251SOL     OW24776   1.303  10.148   7.490
 8251SOL    HW124777   1.337  10.055   7.505
 8251SOL    HW224778   1.321  10.175   7.395
 8252SOL     OW24779   1.068  10.643   8.297
 8252SOL    HW124780   1.075  10.559   8.242
 8252SOL    HW224781   1.130  10.712   8.261
 8253SOL     OW24782   0.319  10.120   8.397
 8253SOL    HW124783   0.412  10.156   8.402
 8253SOL    HW224784   0.313  10.035   8.449
 8254SOL     OW24785   0.339   9.819   8.454
 8254SOL    HW124786   0.287   9.736   8.437
 8254SOL    HW224787   0.416   9.824   8.390
 8255SOL     OW24788   1.138   9.690   9.126
 8255SOL    HW124789   1.093   9.753   9.190
 8255SOL    HW224790   1.231   9.721   9.109
 8256SOL     OW24791   1.160   9.517   8.925
 8256SOL    HW124792   1.160   9.581   9.002
 8256SOL    HW224793   1.188   9.565   8.842
 8257SOL     OW24794   0.008  10.636   7.648
 8257SOL    HW124795  -0.085  10.657   7.617
 8257SOL    HW224796   0.018  10.537   7.661
 8258SOL     OW24797   0.088  11.111   8.375
 8258SOL    HW124798   0.046  11.025   8.348
 8258SOL    HW224799   0.182  11.114   8.341
 8259SOL     OW24800   0.504  10.878   8.358
 8259SOL    HW124801   0.570  10.952   8.367
 8259SOL    HW224802   0.548  10.799   8.316
 8260SOL     OW24803   1.002  10.106   8.686
 8260SOL    HW124804   1.043  10.074   8.772
 8260SOL    HW224805   0.906  10.079   8.683
 8261SOL     OW24806   0.040   9.854   8.562
 8261SOL    HW124807   0.125   9.821   8.521
 8261SOL    HW224808   0.053   9.869   8.660
 8262SOL     OW24809   0.189   9.830   9.170
 8262SOL    HW124810   0.248   9.790   9.100
 8262SOL    HW224811   0.131   9.901   9.129
 8263SOL     OW24812   1.369  10.260   9.108
 8263SOL    HW124813   1.408  10.349   9.128
 8263SOL    HW224814   1.379  10.240   9.011
 8264SOL     OW24815   0.815   9.882   7.773
 8264SOL    HW124816   0.822   9.793   7.727
 8264SOL    HW224817   0.721   9.916   7.765
 8265SOL     OW24818   1.657   9.914   8.654
 8265SOL    HW124819   1.619   9.845   8.716
 8265SOL    HW224820   1.739   9.878   8.610
 8266SOL     OW24821   0.252  10.874   9.192
 8266SOL    HW124822   0.222  10.931   9.268
 8266SOL    HW224823   0.245  10.777   9.218
 8267SOL     OW24824   0.671   9.774   8.717
 8267SOL    HW124825   0.637   9.685   8.687
 8267SOL    HW224826   0.697   9.828   8.637
 8268SOL     OW24827   0.930  10.988   8.913
 8268SOL    HW124828   0.906  10.970   8.818
 8268SOL    HW224829   0.960  11.082   8.923
 8269SOL     OW24830   0.473   9.810   7.639
 8269SOL    HW124831   0.534   9.890   7.643
 8269SOL    HW224832   0.378   9.841   7.646
 8270SOL     OW24833   0.159  10.447   8.914
 8270SOL    HW124834   0.181  10.386   8.990
 8270SOL    HW224835   0.169  10.398   8.828
 8271SOL     OW24836   1.347  10.369   8.682
 8271SOL    HW124837   1.371  10.306   8.608
 8271SOL    HW224838   1.257  10.409   8.664
 8272SOL     OW24839   1.302  10.165   7.757
 8272SOL    HW124840   1.216  10.134   7.799
 8272SOL    HW224841   1.298  10.151   7.658
 8273SOL     OW24842   1.759  11.057   8.602
 8273SOL    HW124843   1.820  11.087   8.529
 8273SOL    HW224844   1.721  10.968   8.580
 8274SOL     OW24845   1.252  11.041   8.576
 8274SOL    HW124846   1.336  11.046   8.522
 8274SOL    HW224847   1.229  10.945   8.594
 8275SOL     OW24848   0.083  10.568   8.470
 8275SOL    HW124849   0.078  10.567   8.570
 8275SOL    HW224850   0.000  10.527   8.432
 8276SOL     OW24851   0.688  10.972   9.164
 8276SOL    HW124852   0.632  11.053   9.173
 8276SOL    HW224853   0.740  10.976   9.078
 8277SOL     OW24854   1.726   9.445   7.971
 8277SOL    HW124855   1.799   9.428   7.904
 8277SOL    HW224856   1.695   9.358   8.009
 8278SOL     OW24857   1.388  10.883   7.925
 8278SOL    HW124858   1.455  10.895   7.851
 8278SOL    HW224859   1.348  10.972   7.948
 8279SOL     OW24860   0.130  11.104   9.299
 8279SOL    HW124861   0.089  11.030   9.352
 8279SOL    HW224862   0.194  11.155   9.357
 8280SOL     OW24863   1.280  10.237   8.120
 8280SOL    HW124864   1.340  10.156   8.122
 8280SOL    HW224865   1.320  10.306   8.060
 8281SOL     OW24866   0.830  10.583   8.870
 8281SOL    HW124867   0.825  10.616   8.965
 8281SOL    HW224868   0.744  10.602   8.824
 8282SOL     OW24869   0.672  10.926   7.602
 8282SOL    HW124870   0.681  10.936   7.503
 8282SOL    HW224871   0.632  10.837   7.623
 8283SOL     OW24872   1.650  11.030   8.842
 8283SOL    HW124873   1.703  11.040   8.758
 8283SOL    HW224874   1.623  11.120   8.876
 8284SOL     OW24875   1.841   9.485   8.411
 8284SOL    HW124876   1.880   9.400   8.375
 8284SOL    HW224877   1.743   9.487   8.392
 8285SOL     OW24878   0.263   9.636   8.168
 8285SOL    HW124879   0.184   9.687   8.134
 8285SOL    HW224880   0.254   9.621   8.266
 8286SOL     OW24881   1.194  10.922   7.479
 8286SOL    HW124882   1.200  10.829   7.516
 8286SOL    HW224883   1.135  10.922   7.399
 8287SOL     OW24884   0.822  10.312   8.820
 8287SOL    HW124885   0.862  10.311   8.728
 8287SOL    HW224886   0.832  10.404   8.860
 8288SOL     OW24887   0.916  10.220   7.739
 8288SOL    HW124888   0.979  10.258   7.671
 8288SOL    HW224889   0.956  10.137   7.778
 8289SOL     OW24890   1.504  10.917   7.492
 8289SOL    HW124891   1.412  10.954   7.499
 8289SOL    HW224892   1.542  10.937   7.402
 8290SOL     OW24893   0.372  10.598   8.938
 8290SOL    HW124894   0.359  10.691   8.904
 8290SOL    HW224895   0.288  10.546   8.925
 8291SOL     OW24896   1.614  10.602   8.737
 8291SOL    HW124897   1.674  10.605   8.817
 8291SOL    HW224898   1.539  10.666   8.750
 8292SOL     OW24899   1.039  10.408   8.144
 8292SOL    HW124900   0.969  10.361   8.198
 8292SOL    HW224901   1.098  10.340   8.101
 8293SOL     OW24902   1.014   9.546   8.419
 8293SOL    HW124903   1.006   9.510   8.326
 8293SOL    HW224904   1.012   9.470   8.484
 8294SOL     OW24905   0.590  10.797   7.939
 8294SOL    HW124906   0.632  10.739   7.869
 8294SOL    HW224907   0.546  10.876   7.895
 8295SOL     OW24908   1.709   9.695   8.829
 8295SOL    HW124909   1.782   9.764   8.833
 8295SOL    HW224910   1.737   9.620   8.770
 8296SOL     OW24911   0.255  10.658   7.738
 8296SOL    HW124912   0.159  10.659   7.711
 8296SOL    HW224913   0.267  10.711   7.822
 8297SOL     OW24914   0.105  10.323   9.174
 8297SOL    HW124915   0.028  10.290   9.228
 8297SOL    HW224916   0.190  10.293   9.216
 8298SOL     OW24917   0.672   9.513   8.937
 8298SOL    HW124918   0.762   9.497   8.897
 8298SOL    HW224919   0.680   9.518   9.036
 8299SOL     OW24920   0.075   9.655   7.481
 8299SOL    HW124921  -0.017   9.627   7.452
 8299SOL    HW224922   0.106   9.732   7.425
 8300SOL     OW24923   1.440  10.166   8.846
 8300SOL    HW124924   1.383  10.218   8.783
 8300SOL    HW224925   1.536  10.178   8.822
 8301SOL     OW24926   0.072   9.476   7.766
 8301SOL    HW124927   0.055   9.559   7.712
 8301SOL    HW224928   0.162   9.439   7.744
 8302SOL     OW24929   1.183  10.645   7.567
 8302SOL    HW124930   1.084  10.634   7.569
 8302SOL    HW224931   1.217  10.660   7.660
 8303SOL     OW24932   0.613  10.152   8.879
 8303SOL    HW124933   0.669  10.233   8.862
 8303SOL    HW224934   0.672  10.072   8.882
 8304SOL     OW24935   1.493  11.077   8.407
 8304SOL    HW124936   1.526  11.141   8.338
 8304SOL    HW224937   1.559  11.071   8.482
 8305SOL     OW24938   0.716   9.875   9.156
 8305SOL    HW124939   0.735   9.940   9.230
 8305SOL    HW224940   0.776   9.795   9.165
 8306SOL     OW24941   1.450  10.530   9.081
 8306SOL    HW124942   1.441  10.520   9.180
 8306SOL    HW224943   1.546  10.523   9.055
 8307SOL     OW24944   0.390  11.051   9.008
 8307SOL    HW124945   0.299  11.092   9.006
 8307SOL    HW224946   0.383  10.957   9.040
 8308SOL     OW24947   1.674  10.193   8.702
 8308SOL    HW124948   1.647  10.104   8.665
 8308SOL    HW224949   1.675  10.261   8.629
 8309SOL     OW24950   1.225   9.635   7.897
 8309SOL    HW124951   1.290   9.561   7.886
 8309SOL    HW224952   1.245   9.685   7.981
 8310SOL     OW24953   0.594  10.055   8.100
 8310SOL    HW124954   0.644  10.140   8.081
 8310SOL    HW224955   0.506  10.057   8.052
 8311SOL     OW24956   1.777   9.652   9.090
 8311SOL    HW124957   1.760   9.683   8.996
 8311SOL    HW224958   1.693   9.615   9.128
 8312SOL     OW24959   1.730  10.244   8.965
 8312SOL    HW124960   1.768  10.335   8.980
 8312SOL    HW224961   1.722  10.227   8.866
 8313SOL     OW24962   0.859  10.684   7.464
 8313SOL    HW124963   0.813  10.699   7.552
 8313SOL    HW224964   0.903  10.769   7.434
 8314SOL     OW24965   0.661  11.100   8.401
 8314SOL    HW124966   0.615  11.188   8.388
 8314SOL    HW224967   0.760  11.112   8.394
 8315SOL     OW24968   0.859  10.266   8.309
 8315SOL    HW124969   0.913  10.197   8.357
 8315SOL    HW224970   0.827  10.335   8.375
 8316SOL     OW24971   1.083  10.294   7.535
 8316SOL    HW124972   1.060  10.347   7.453
 8316SOL    HW224973   1.164  10.238   7.516
 8317SOL     OW24974   1.861  10.879   8.299
 8317SOL    HW124975   1.790  10.867   8.229
 8317SOL    HW224976   1.862  10.800   8.359
 8318SOL     OW24977   0.221  10.624   9.292
 8318SOL    HW124978   0.156  10.551   9.271
 8318SOL    HW224979   0.225  10.638   9.390
 8319SOL     OW24980   0.079  10.550   8.101
 8319SOL    HW124981   0.078  10.503   8.189
 8319SOL    HW224982   0.161  10.522   8.050
 8320SOL     OW24983   0.672  10.701   9.072
 8320SOL    HW124984   0.594  10.651   9.110
 8320SOL    HW224985   0.669  10.796   9.103
 8321SOL     OW24986   1.824   9.502   8.675
 8321SOL    HW124987   1.820   9.412   8.719
 8321SOL    HW224988   1.827   9.491   8.576
 8322SOL     OW24989   0.428   9.734   7.968
 8322SOL    HW124990   0.458   9.662   7.906
 8322SOL    HW224991   0.389   9.694   8.051
 8323SOL     OW24992   1.705  10.797   8.552
 8323SOL    HW124993   1.612  10.772   8.525
 8323SOL    HW224994   1.731  10.747   8.634
 8324SOL     OW24995   0.317   9.857   8.728
 8324SOL    HW124996   0.355   9.798   8.800
 8324SOL    HW224997   0.357   9.831   8.640
 8325SOL     OW24998   0.812  10.896   8.135
 8325SOL    HW124999   0.844  10.906   8.041
 8325SOL    HW225000   0.733  10.834   8.137
 8326SOL     OW25001   1.424   9.524   8.560
 8326SOL    HW125002   1.476   9.459   8.615
 8326SOL    HW225003   1.375   9.587   8.621
 8327SOL     OW25004   1.001   9.344   8.602
 8327SOL    HW125005   0.938   9.272   8.571
 8327SOL    HW225006   1.094   9.308   8.602
 8328SOL     OW25007   0.770  10.640   7.749
 8328SOL    HW125008   0.724  10.553   7.766
 8328SOL    HW225009   0.861  10.637   7.790
 8329SOL     OW25010   0.618  10.877   8.732
 8329SOL    HW125011   0.613  10.959   8.789
 8329SOL    HW225012   0.707  10.874   8.687
 8330SOL     OW25013   1.352   9.362   7.616
 8330SOL    HW125014   1.387   9.321   7.532
 8330SOL    HW225015   1.262   9.324   7.636
 8331SOL     OW25016   1.300   9.763   8.139
 8331SOL    HW125017   1.241   9.843   8.143
 8331SOL    HW225018   1.315   9.728   8.232
 8332SOL     OW25019   1.593   9.531   8.330
 8332SOL    HW125020   1.509   9.530   8.384
 8332SOL    HW225021   1.595   9.614   8.274
 8333SOL     OW25022   0.039  10.387   7.748
 8333SOL    HW125023   0.138  10.376   7.739
 8333SOL    HW225024  -0.001  10.301   7.780
 8334SOL     OW25025   0.875  10.956   7.785
 8334SOL    HW125026   0.798  10.921   7.731
 8334SOL    HW225027   0.843  11.027   7.847
 8335SOL     OW25028   0.230   9.938   9.423
 8335SOL    HW125029   0.137   9.936   9.460
 8335SOL    HW225030   0.231   9.899   9.331
 8336SOL     OW25031   0.225   9.585  10.306
 8336SOL    HW125032   0.260   9.568  10.398
 8336SOL    HW225033   0.137   9.540  10.294
 8337SOL     OW25034   0.019   9.678   9.957
 8337SOL    HW125035  -0.063   9.721   9.996
 8337SOL    HW225036  -0.009   9.605   9.894
 8338SOL     OW25037   0.569  10.585  10.475
 8338SOL    HW125038   0.476  10.578  10.438
 8338SOL    HW225039   0.580  10.674  10.519
 8339SOL     OW25040   1.555  10.821  10.013
 8339SOL    HW125041   1.498  10.805  10.094
 8339SOL    HW225042   1.496  10.831   9.933
 8340SOL     OW25043   1.135  10.013  10.027
 8340SOL    HW125044   1.192  10.091  10.002
 8340SOL    HW225045   1.075  10.039  10.103
 8341SOL     OW25046   1.755   9.917   9.541
 8341SOL    HW125047   1.743   9.904   9.442
 8341SOL    HW225048   1.725   9.836   9.590
 8342SOL     OW25049   0.768  10.454  10.333
 8342SOL    HW125050   0.690  10.471  10.393
 8342SOL    HW225051   0.802  10.541  10.297
 8343SOL     OW25052   0.850  10.108  11.133
 8343SOL    HW125053   0.846  10.184  11.198
 8343SOL    HW225054   0.872  10.144  11.042
 8344SOL     OW25055   0.685  10.322   9.975
 8344SOL    HW125056   0.754  10.306  10.045
 8344SOL    HW225057   0.612  10.379  10.013
 8345SOL     OW25058   0.686  10.471  11.113
 8345SOL    HW125059   0.746  10.550  11.127
 8345SOL    HW225060   0.600  10.502  11.072
 8346SOL     OW25061   0.335  10.745  10.371
 8346SOL    HW125062   0.257  10.714  10.318
 8346SOL    HW225063   0.393  10.803  10.314
 8347SOL     OW25064   1.460  10.815  10.649
 8347SOL    HW125065   1.484  10.909  10.675
 8347SOL    HW225066   1.444  10.761  10.731
 8348SOL     OW25067   0.438   9.702  10.809
 8348SOL    HW125068   0.520   9.646  10.818
 8348SOL    HW225069   0.357   9.644  10.813
 8349SOL     OW25070   1.603   9.757  10.047
 8349SOL    HW125071   1.529   9.803   9.997
 8349SOL    HW225072   1.654   9.825  10.100
 8350SOL     OW25073   0.231  11.023   9.793
 8350SOL    HW125074   0.265  11.100   9.847
 8350SOL    HW225075   0.275  11.023   9.703
 8351SOL     OW25076   1.127  10.651  11.000
 8351SOL    HW125077   1.174  10.651  11.088
 8351SOL    HW225078   1.079  10.564  10.989
 8352SOL     OW25079   0.230  10.744   9.848
 8352SOL    HW125080   0.204  10.840   9.848
 8352SOL    HW225081   0.159  10.690   9.893
 8353SOL     OW25082   0.240  10.401  10.196
 8353SOL    HW125083   0.254  10.317  10.248
 8353SOL    HW225084   0.185  10.465  10.251
 8354SOL     OW25085   0.620  11.096  10.749
 8354SOL    HW125086   0.528  11.079  10.784
 8354SOL    HW225087   0.648  11.188  10.775
 8355SOL     OW25088   0.606  10.274   9.433
 8355SOL    HW125089   0.613  10.358   9.379
 8355SOL    HW225090   0.652  10.287   9.521
 8356SOL     OW25091   1.594   9.424  10.790
 8356SOL    HW125092   1.576   9.491  10.718
 8356SOL    HW225093   1.591   9.470  10.879
 8357SOL     OW25094   0.122   9.953   9.873
 8357SOL    HW125095   0.077   9.865   9.890
 8357SOL    HW225096   0.121  10.007   9.957
 8358SOL     OW25097   1.842  11.077   9.669
 8358SOL    HW125098   1.896  11.048   9.749
 8358SOL    HW225099   1.872  11.167   9.640
 8359SOL     OW25100   0.027  10.906   9.427
 8359SOL    HW125101   0.008  10.810   9.448
 8359SOL    HW225102  -0.006  10.964   9.502
 8360SOL     OW25103   1.689  10.232   9.922
 8360SOL    HW125104   1.784  10.203   9.930
 8360SOL    HW225105   1.681  10.297   9.847
 8361SOL     OW25106   1.641  10.418   9.742
 8361SOL    HW125107   1.727  10.420   9.690
 8361SOL    HW225108   1.655  10.465   9.830
 8362SOL     OW25109   0.113  10.047  10.907
 8362SOL    HW125110   0.201  10.034  10.952
 8362SOL    HW225111   0.100  10.144  10.885
 8363SOL     OW25112   0.613  10.675  10.036
 8363SOL    HW125113   0.564  10.588  10.045
 8363SOL    HW225114   0.590  10.718   9.949
 8364SOL     OW25115   1.293  10.538  10.733
 8364SOL    HW125116   1.330  10.465  10.675
 8364SOL    HW225117   1.345  10.543  10.818
 8365SOL     OW25118   0.809   9.314   9.812
 8365SOL    HW125119   0.849   9.405   9.803
 8365SOL    HW225120   0.709   9.322   9.818
 8366SOL     OW25121   0.197  10.286  10.574
 8366SOL    HW125122   0.286  10.241  10.560
 8366SOL    HW225123   0.124  10.221  10.555
 8367SOL     OW25124   1.525  10.309   9.500
 8367SOL    HW125125   1.462  10.233   9.513
 8367SOL    HW225126   1.573  10.327   9.586
 8368SOL     OW25127   1.187  11.102  10.926
 8368SOL    HW125128   1.211  11.162  10.850
 8368SOL    HW225129   1.194  11.007  10.896
 8369SOL     OW25130   0.317   9.561  11.111
 8369SOL    HW125131   0.388   9.632  11.117
 8369SOL    HW225132   0.229   9.600  11.139
 8370SOL     OW25133   1.466  10.727  10.263
 8370SOL    HW125134   1.407  10.733  10.343
 8370SOL    HW225135   1.451  10.639  10.217
 8371SOL     OW25136   1.667  11.024   9.882
 8371SOL    HW125137   1.626  11.001   9.794
 8371SOL    HW225138   1.649  10.950   9.947
 8372SOL     OW25139   0.598  10.039   9.580
 8372SOL    HW125140   0.622  10.108   9.512
 8372SOL    HW225141   0.520  10.072   9.634
 8373SOL     OW25142   1.281   9.655  10.254
 8373SOL    HW125143   1.195   9.605  10.241
 8373SOL    HW225144   1.343   9.601  10.310
 8374SOL     OW25145   1.576  10.972   9.617
 8374SOL    HW125146   1.665  11.018   9.620
 8374SOL    HW225147   1.555  10.948   9.522
 8375SOL     OW25148   0.807   9.915  10.775
 8375SOL    HW125149   0.760   9.912  10.864
 8375SOL    HW225150   0.756   9.860  10.709
 8376SOL     OW25151   1.394   9.779  10.984
 8376SOL    HW125152   1.374   9.822  11.072
 8376SOL    HW225153   1.472   9.717  10.993
 8377SOL     OW25154   0.973  10.200  10.882
 8377SOL    HW125155   1.019  10.116  10.853
 8377SOL    HW225156   0.917  10.234  10.807
 8378SOL     OW25157   0.991   9.720  10.552
 8378SOL    HW125158   0.914   9.754  10.606
 8378SOL    HW225159   0.957   9.669  10.473
 8379SOL     OW25160   1.041  10.011   9.739
 8379SOL    HW125161   1.067  10.007   9.835
 8379SOL    HW225162   0.956   9.960   9.725
 8380SOL     OW25163   0.076  10.121  10.099
 8380SOL    HW125164   0.175  10.109  10.108
 8380SOL    HW225165   0.052  10.216  10.120
 8381SOL     OW25166   0.130  11.131  10.881
 8381SOL    HW125167   0.120  11.116  10.980
 8381SOL    HW225168   0.044  11.167  10.845
 8382SOL     OW25169   0.865   9.658   9.505
 8382SOL    HW125170   0.924   9.721   9.456
 8382SOL    HW225171   0.884   9.564   9.476
 8383SOL     OW25172   1.719   9.895  11.141
 8383SOL    HW125173   1.693   9.984  11.105
 8383SOL    HW225174   1.717   9.827  11.068
 8384SOL     OW25175   1.362  10.454   9.855
 8384SOL    HW125176   1.445  10.425   9.807
 8384SOL    HW225177   1.313  10.521   9.799
 8385SOL     OW25178   0.550   9.506  10.195
 8385SOL    HW125179   0.545   9.501  10.295
 8385SOL    HW225180   0.552   9.602  10.166
 8386SOL     OW25181   1.008  10.766   9.787
 8386SOL    HW125182   0.962  10.838   9.735
 8386SOL    HW225183   1.004  10.786   9.885
 8387SOL     OW25184   0.351  11.111  10.163
 8387SOL    HW125185   0.401  11.025  10.169
 8387SOL    HW225186   0.416  11.188  10.160
 8388SOL     OW25187   1.795  10.376  10.183
 8388SOL    HW125188   1.733  10.361  10.107
 8388SOL    HW225189   1.743  10.387  10.268
 8389SOL     OW25190   1.227  10.860  10.816
 8389SOL    HW125191   1.233  10.783  10.880
 8389SOL    HW225192   1.175  10.834  10.736
 8390SOL     OW25193   0.321  10.253   9.552
 8390SOL    HW125194   0.403  10.292   9.510
 8390SOL    HW225195   0.294  10.171   9.503
 8391SOL     OW25196   1.458  10.045  10.038
 8391SOL    HW125197   1.453   9.980  10.113
 8391SOL    HW225198   1.538  10.104  10.051
 8392SOL     OW25199   0.461  10.576  11.037
 8392SOL    HW125200   0.411  10.577  10.951
 8392SOL    HW225201   0.398  10.558  11.113
 8393SOL     OW25202   1.111  11.086   9.547
 8393SOL    HW125203   1.051  11.024   9.597
 8393SOL    HW225204   1.142  11.042   9.462
 8394SOL     OW25205   0.202   9.595  10.808
 8394SOL    HW125206   0.122   9.655  10.795
 8394SOL    HW225207   0.192   9.546  10.894
 8395SOL     OW25208   1.632  10.687   9.391
 8395SOL    HW125209   1.600  10.781   9.381
 8395SOL    HW225210   1.556  10.624   9.379
 8396SOL     OW25211   0.464  11.053   9.633
 8396SOL    HW125212   0.497  11.092   9.719
 8396SOL    HW225213   0.540  11.046   9.568
 8397SOL     OW25214   1.400   9.417   9.736
 8397SOL    HW125215   1.376   9.380   9.646
 8397SOL    HW225216   1.499   9.433   9.740
 8398SOL     OW25217   0.249  11.095  10.551
 8398SOL    HW125218   0.306  11.030  10.601
 8398SOL    HW225219   0.233  11.062  10.458
 8399SOL     OW25220   0.940  11.008  10.214
 8399SOL    HW125221   1.020  10.951  10.235
 8399SOL    HW225222   0.891  10.968  10.137
 8400SOL     OW25223   0.382  10.010   9.790
 8400SOL    HW125224   0.427   9.920   9.787
 8400SOL    HW225225   0.288   9.999   9.823
 8401SOL     OW25226   1.547   9.532  11.039
 8401SOL    HW125227   1.542   9.569  11.131
 8401SOL    HW225228   1.475   9.463  11.027
 8402SOL     OW25229   0.614   9.432   9.427
 8402SOL    HW125230   0.712   9.410   9.434
 8402SOL    HW225231   0.583   9.415   9.334
 8403SOL     OW25232   0.781   9.574  11.059
 8403SOL    HW125233   0.848   9.513  11.102
 8403SOL    HW225234   0.708   9.593  11.124
 8404SOL     OW25235   0.888  10.824  10.505
 8404SOL    HW125236   0.865  10.799  10.411
 8404SOL    HW225237   0.949  10.755  10.544
 8405SOL     OW25238   1.351   9.900  10.743
 8405SOL    HW125239   1.379   9.857  10.828
 8405SOL    HW225240   1.376   9.996  10.744
 8406SOL     OW25241   0.803  10.712  10.234
 8406SOL    HW125242   0.893  10.726  10.192
 8406SOL    HW225243   0.732  10.714  10.163
 8407SOL     OW25244   0.922   9.813  10.209
 8407SOL    HW125245   0.897   9.804  10.113
 8407SOL    HW225246   0.970   9.731  10.240
 8408SOL     OW25247   0.539   9.374   9.822
 8408SOL    HW125248   0.458   9.375   9.880
 8408SOL    HW225249   0.542   9.457   9.767
 8409SOL     OW25250   1.434  10.498   9.351
 8409SOL    HW125251   1.466  10.422   9.408
 8409SOL    HW225252   1.342  10.525   9.381
 8410SOL     OW25253   0.297   9.345   9.481
 8410SOL    HW125254   0.346   9.429   9.460
 8410SOL    HW225255   0.359   9.280   9.526
 8411SOL     OW25256   0.935   9.546   9.790
 8411SOL    HW125257   0.887   9.587   9.712
 8411SOL    HW225258   1.034   9.544   9.771
 8412SOL     OW25259   1.076   9.993  10.774
 8412SOL    HW125260   0.996   9.932  10.777
 8412SOL    HW225261   1.157   9.940  10.750
 8413SOL     OW25262   1.227  10.880  10.103
 8413SOL    HW125263   1.248  10.954  10.038
 8413SOL    HW225264   1.295  10.880  10.176
 8414SOL     OW25265   0.459  10.462  10.051
 8414SOL    HW125266   0.388  10.435  10.116
 8414SOL    HW225267   0.433  10.434   9.958
 8415SOL     OW25268   1.271  11.107   9.901
 8415SOL    HW125269   1.315  11.171   9.837
 8415SOL    HW225270   1.221  11.159   9.971
 8416SOL     OW25271   1.032   9.859   9.326
 8416SOL    HW125272   0.991   9.941   9.287
 8416SOL    HW225273   1.096   9.885   9.399
 8417SOL     OW25274   0.078   9.866  10.696
 8417SOL    HW125275   0.170   9.865  10.655
 8417SOL    HW225276   0.072   9.940  10.763
 8418SOL     OW25277   0.561   9.532  10.457
 8418SOL    HW125278   0.599   9.448  10.494
 8418SOL    HW225279   0.473   9.551  10.501
 8419SOL     OW25280   0.866   9.764   9.952
 8419SOL    HW125281   0.834   9.836   9.890
 8419SOL    HW225282   0.890   9.683   9.899
 8420SOL     OW25283   1.017   9.349  10.063
 8420SOL    HW125284   0.945   9.354   9.994
 8420SOL    HW225285   0.993   9.280  10.132
 8421SOL     OW25286   1.429  10.483  10.177
 8421SOL    HW125287   1.374  10.399  10.170
 8421SOL    HW225288   1.455  10.512  10.085
 8422SOL     OW25289   1.466   9.900  10.302
 8422SOL    HW125290   1.436   9.805  10.309
 8422SOL    HW225291   1.539   9.916  10.368
 8423SOL     OW25292   1.857  10.143   9.687
 8423SOL    HW125293   1.899  10.079   9.751
 8423SOL    HW225294   1.819  10.092   9.609
 8424SOL     OW25295   0.488  10.695   9.484
 8424SOL    HW125296   0.401  10.680   9.531
 8424SOL    HW225297   0.471  10.721   9.389
 8425SOL     OW25298   1.664  10.590   9.967
 8425SOL    HW125299   1.763  10.598   9.981
 8425SOL    HW225300   1.619  10.674   9.998
 8426SOL     OW25301   1.390   9.885   9.388
 8426SOL    HW125302   1.336   9.864   9.469
 8426SOL    HW225303   1.481   9.844   9.397
 8427SOL     OW25304   0.527   9.566   9.638
 8427SOL    HW125305   0.554   9.507   9.563
 8427SOL    HW225306   0.527   9.661   9.607
 8428SOL     OW25307   1.754  10.533  10.898
 8428SOL    HW125308   1.845  10.494  10.885
 8428SOL    HW225309   1.762  10.629  10.922
 8429SOL     OW25310   1.064  10.657  10.650
 8429SOL    HW125311   0.984  10.634  10.705
 8429SOL    HW225312   1.147  10.631  10.699
 8430SOL     OW25313   1.592  10.939  10.935
 8430SOL    HW125314   1.619  10.973  10.845
 8430SOL    HW225315   1.671  10.901  10.981
 8431SOL     OW25316   1.111  10.505  10.410
 8431SOL    HW125317   1.071  10.549  10.491
 8431SOL    HW225318   1.070  10.542  10.327
 8432SOL     OW25319   1.638  10.409  10.389
 8432SOL    HW125320   1.643  10.490  10.448
 8432SOL    HW225321   1.552  10.411  10.338
 8433SOL     OW25322   0.915   9.399  10.712
 8433SOL    HW125323   0.940   9.379  10.617
 8433SOL    HW225324   0.987   9.455  10.754
 8434SOL     OW25325   0.980  10.426  11.029
 8434SOL    HW125326   0.881  10.432  11.039
 8434SOL    HW225327   1.003  10.346  10.973
 8435SOL     OW25328   0.705  10.360   9.678
 8435SOL    HW125329   0.691  10.367   9.777
 8435SOL    HW225330   0.789  10.309   9.660
 8436SOL     OW25331   0.410  10.123  10.561
 8436SOL    HW125332   0.496  10.135  10.611
 8436SOL    HW225333   0.368  10.036  10.588
 8437SOL     OW25334   1.274   9.696  10.572
 8437SOL    HW125335   1.295   9.770  10.636
 8437SOL    HW225336   1.185   9.713  10.529
 8438SOL     OW25337   0.064  10.874  10.641
 8438SOL    HW125338   0.018  10.956  10.607
 8438SOL    HW225339   0.162  10.893  10.650
 8439SOL     OW25340   0.367  10.410   9.811
 8439SOL    HW125341   0.360  10.493   9.755
 8439SOL    HW225342   0.371  10.330   9.751
 8440SOL     OW25343   0.566   9.847  10.175
 8440SOL    HW125344   0.578   9.913  10.101
 8440SOL    HW225345   0.612   9.881  10.258
 8441SOL     OW25346   1.252  10.658   9.698
 8441SOL    HW125347   1.302  10.735   9.738
 8441SOL    HW225348   1.157  10.660   9.730
 8442SOL     OW25349   1.272  10.755  10.452
 8442SOL    HW125350   1.319  10.768  10.539
 8442SOL    HW225351   1.206  10.681  10.461
 8443SOL     OW25352   1.582   9.949   9.782
 8443SOL    HW125353   1.551  10.010   9.855
 8443SOL    HW225354   1.632  10.001   9.713
 8444SOL     OW25355   0.354  10.820  10.639
 8444SOL    HW125356   0.333  10.776  10.552
 8444SOL    HW225357   0.451  10.846  10.642
 8445SOL     OW25358   0.402  10.061  10.908
 8445SOL    HW125359   0.470  10.116  10.861
 8445SOL    HW225360   0.442   9.973  10.935
 8446SOL     OW25361   1.587  10.089  10.980
 8446SOL    HW125362   1.495  10.127  10.975
 8446SOL    HW225363   1.647  10.136  10.915
 8447SOL     OW25364   1.013   9.415  11.080
 8447SOL    HW125365   1.019   9.500  11.028
 8447SOL    HW225366   1.045   9.339  11.023
 8448SOL     OW25367   0.504   9.360  11.050
 8448SOL    HW125368   0.462   9.303  10.980
 8448SOL    HW225369   0.438   9.429  11.082
 8449SOL     OW25370   0.573  10.180  10.339
 8449SOL    HW125371   0.617  10.269  10.330
 8449SOL    HW225372   0.510  10.180  10.416
 8450SOL     OW25373   1.360  10.172  10.355
 8450SOL    HW125374   1.285  10.172  10.289
 8450SOL    HW225375   1.397  10.080  10.364
 8451SOL     OW25376   1.209   9.835   9.585
 8451SOL    HW125377   1.222   9.751   9.639
 8451SOL    HW225378   1.180   9.909   9.645
 8452SOL     OW25379   0.307   9.523  10.541
 8452SOL    HW125380   0.284   9.560  10.631
 8452SOL    HW225381   0.277   9.428  10.535
 8453SOL     OW25382   0.732   9.944  10.374
 8453SOL    HW125383   0.791   9.918  10.298
 8453SOL    HW225384   0.704  10.040  10.363
 8454SOL     OW25385   1.728  10.245  11.164
 8454SOL    HW125386   1.682  10.238  11.075
 8454SOL    HW225387   1.666  10.289  11.230
 8455SOL     OW25388   0.307   9.373   9.928
 8455SOL    HW125389   0.296   9.467   9.961
 8455SOL    HW225390   0.302   9.310  10.005
 8456SOL     OW25391   1.622   9.677   9.684
 8456SOL    HW125392   1.624   9.601   9.748
 8456SOL    HW225393   1.574   9.754   9.724
 8457SOL     OW25394   1.023  10.076  10.276
 8457SOL    HW125395   1.038  10.097  10.372
 8457SOL    HW225396   0.993   9.981  10.267
 8458SOL     OW25397   0.980  10.883  11.010
 8458SOL    HW125398   0.960  10.927  10.922
 8458SOL    HW225399   1.019  10.792  10.994
 8459SOL     OW25400   1.859  10.828  10.915
 8459SOL    HW125401   1.873  10.855  10.820
 8459SOL    HW225402   1.942  10.850  10.968
 8460SOL     OW25403   0.350  10.208  11.114
 8460SOL    HW125404   0.426  10.252  11.162
 8460SOL    HW225405   0.385  10.161  11.032
 8461SOL     OW25406   1.540   9.584   9.435
 8461SOL    HW125407   1.479   9.509   9.458
 8461SOL    HW225408   1.562   9.636   9.518
 8462SOL     OW25409   1.303  10.148   9.352
 8462SOL    HW125410   1.337  10.055   9.367
 8462SOL    HW225411   1.321  10.175   9.257
 8463SOL     OW25412   1.068  10.643  10.159
 8463SOL    HW125413   1.075  10.559  10.104
 8463SOL    HW225414   1.130  10.712  10.123
 8464SOL     OW25415   0.319  10.120  10.259
 8464SOL    HW125416   0.412  10.156  10.264
 8464SOL    HW225417   0.313  10.035  10.311
 8465SOL     OW25418   0.339   9.819  10.316
 8465SOL    HW125419   0.287   9.736  10.299
 8465SOL    HW225420   0.416   9.824  10.252
 8466SOL     OW25421   1.138   9.690  10.988
 8466SOL    HW125422   1.093   9.753  11.052
 8466SOL    HW225423   1.231   9.721  10.971
 8467SOL     OW25424   1.160   9.517  10.787
 8467SOL    HW125425   1.160   9.581  10.864
 8467SOL    HW225426   1.188   9.565  10.704
 8468SOL     OW25427   0.008  10.636   9.510
 8468SOL    HW125428  -0.085  10.657   9.479
 8468SOL    HW225429   0.018  10.537   9.523
 8469SOL     OW25430   0.088  11.111  10.237
 8469SOL    HW125431   0.046  11.025  10.210
 8469SOL    HW225432   0.182  11.114  10.203
 8470SOL     OW25433   0.504  10.878  10.220
 8470SOL    HW125434   0.570  10.952  10.229
 8470SOL    HW225435   0.548  10.799  10.178
 8471SOL     OW25436   1.002  10.106  10.548
 8471SOL    HW125437   1.043  10.074  10.634
 8471SOL    HW225438   0.906  10.079  10.545
 8472SOL     OW25439   0.040   9.854  10.424
 8472SOL    HW125440   0.125   9.821  10.383
 8472SOL    HW225441   0.053   9.869  10.522
 8473SOL     OW25442   0.189   9.830  11.032
 8473SOL    HW125443   0.248   9.790  10.962
 8473SOL    HW225444   0.131   9.901  10.991
 8474SOL     OW25445   1.369  10.260  10.970
 8474SOL    HW125446   1.408  10.349  10.990
 8474SOL    HW225447   1.379  10.240  10.873
 8475SOL     OW25448   0.815   9.882   9.635
 8475SOL    HW125449   0.822   9.793   9.589
 8475SOL    HW225450   0.721   9.916   9.627
 8476SOL     OW25451   1.657   9.914  10.516
 8476SOL    HW125452   1.619   9.845  10.578
 8476SOL    HW225453   1.739   9.878  10.472
 8477SOL     OW25454   0.252  10.874  11.054
 8477SOL    HW125455   0.222  10.931  11.130
 8477SOL    HW225456   0.245  10.777  11.080
 8478SOL     OW25457   0.671   9.774  10.579
 8478SOL    HW125458   0.637   9.685  10.549
 8478SOL    HW225459   0.697   9.828  10.499
 8479SOL     OW25460   0.930  10.988  10.775
 8479SOL    HW125461   0.906  10.970  10.680
 8479SOL    HW225462   0.960  11.082  10.785
 8480SOL     OW25463   0.473   9.810   9.501
 8480SOL    HW125464   0.534   9.890   9.505
 8480SOL    HW225465   0.378   9.841   9.508
 8481SOL     OW25466   0.159  10.447  10.776
 8481SOL    HW125467   0.181  10.386  10.852
 8481SOL    HW225468   0.169  10.398  10.690
 8482SOL     OW25469   1.347  10.369  10.544
 8482SOL    HW125470   1.371  10.306  10.470
 8482SOL    HW225471   1.257  10.409  10.526
 8483SOL     OW25472   1.302  10.165   9.619
 8483SOL    HW125473   1.216  10.134   9.661
 8483SOL    HW225474   1.298  10.151   9.520
 8484SOL     OW25475   1.759  11.057  10.464
 8484SOL    HW125476   1.820  11.087  10.391
 8484SOL    HW225477   1.721  10.968  10.442
 8485SOL     OW25478   1.252  11.041  10.438
 8485SOL    HW125479   1.336  11.046  10.384
 8485SOL    HW225480   1.229  10.945  10.456
 8486SOL     OW25481   0.083  10.568  10.332
 8486SOL    HW125482   0.078  10.567  10.432
 8486SOL    HW225483   0.000  10.527  10.294
 8487SOL     OW25484   0.688  10.972  11.026
 8487SOL    HW125485   0.632  11.053  11.035
 8487SOL    HW225486   0.740  10.976  10.940
 8488SOL     OW25487   1.726   9.445   9.833
 8488SOL    HW125488   1.799   9.428   9.766
 8488SOL    HW225489   1.695   9.358   9.871
 8489SOL     OW25490   1.388  10.883   9.787
 8489SOL    HW125491   1.455  10.895   9.713
 8489SOL    HW225492   1.348  10.972   9.810
 8490SOL     OW25493   0.130  11.104  11.161
 8490SOL    HW125494   0.089  11.030  11.214
 8490SOL    HW225495   0.194  11.155  11.219
 8491SOL     OW25496   1.280  10.237   9.982
 8491SOL    HW125497   1.340  10.156   9.984
 8491SOL    HW225498   1.320  10.306   9.922
 8492SOL     OW25499   0.830  10.583  10.732
 8492SOL    HW125500   0.825  10.616  10.827
 8492SOL    HW225501   0.744  10.602  10.686
 8493SOL     OW25502   0.672  10.926   9.464
 8493SOL    HW125503   0.681  10.936   9.365
 8493SOL    HW225504   0.632  10.837   9.485
 8494SOL     OW25505   1.650  11.030  10.704
 8494SOL    HW125506   1.703  11.040  10.620
 8494SOL    HW225507   1.623  11.120  10.738
 8495SOL     OW25508   1.841   9.485  10.273
 8495SOL    HW125509   1.880   9.400  10.237
 8495SOL    HW225510   1.743   9.487  10.254
 8496SOL     OW25511   0.263   9.636  10.030
 8496SOL    HW125512   0.184   9.687   9.996
 8496SOL    HW225513   0.254   9.621  10.128
 8497SOL     OW25514   1.194  10.922   9.341
 8497SOL    HW125515   1.200  10.829   9.378
 8497SOL    HW225516   1.135  10.922   9.261
 8498SOL     OW25517   0.822  10.312  10.682
 8498SOL    HW125518   0.862  10.311  10.590
 8498SOL    HW225519   0.832  10.404  10.722
 8499SOL     OW25520   0.916  10.220   9.601
 8499SOL    HW125521   0.979  10.258   9.533
 8499SOL    HW225522   0.956  10.137   9.640
 8500SOL     OW25523   1.504  10.917   9.354
 8500SOL    HW125524   1.412  10.954   9.361
 8500SOL    HW225525   1.542  10.937   9.264
 8501SOL     OW25526   0.372  10.598  10.800
 8501SOL    HW125527   0.359  10.691  10.766
 8501SOL    HW225528   0.288  10.546  10.787
 8502SOL     OW25529   1.614  10.602  10.599
 8502SOL    HW125530   1.674  10.605  10.679
 8502SOL    HW225531   1.539  10.666  10.612
 8503SOL     OW25532   1.039  10.408  10.006
 8503SOL    HW125533   0.969  10.361  10.060
 8503SOL    HW225534   1.098  10.340   9.963
 8504SOL     OW25535   1.014   9.546  10.281
 8504SOL    HW125536   1.006   9.510  10.188
 8504SOL    HW225537   1.012   9.470  10.346
 8505SOL     OW25538   0.590  10.797   9.801
 8505SOL    HW125539   0.632  10.739   9.731
 8505SOL    HW225540   0.546  10.876   9.757
 8506SOL     OW25541   1.709   9.695  10.691
 8506SOL    HW125542   1.782   9.764  10.695
 8506SOL    HW225543   1.737   9.620  10.632
 8507SOL     OW25544   0.255  10.658   9.600
 8507SOL    HW125545   0.159  10.659   9.573
 8507SOL    HW225546   0.267  10.711   9.684
 8508SOL     OW25547   0.105  10.323  11.036
 8508SOL    HW125548   0.028  10.290  11.090
 8508SOL    HW225549   0.190  10.293  11.078
 8509SOL     OW25550   0.672   9.513  10.799
 8509SOL    HW125551   0.762   9.497  10.759
 8509SOL    HW225552   0.680   9.518  10.898
 8510SOL     OW25553   0.075   9.655   9.343
 8510SOL    HW125554  -0.017   9.627   9.314
 8510SOL    HW225555   0.106   9.732   9.287
 8511SOL     OW25556   1.440  10.166  10.708
 8511SOL    HW125557   1.383  10.218  10.645
 8511SOL    HW225558   1.536  10.178  10.684
 8512SOL     OW25559   0.072   9.476   9.628
 8512SOL    HW125560   0.055   9.559   9.574
 8512SOL    HW225561   0.162   9.439   9.606
 8513SOL     OW25562   1.183  10.645   9.429
 8513SOL    HW125563   1.084  10.634   9.431
 8513SOL    HW225564   1.217  10.660   9.522
 8514SOL     OW25565   0.613  10.152  10.741
 8514SOL    HW125566   0.669  10.233  10.724
 8514SOL    HW225567   0.672  10.072  10.744
 8515SOL     OW25568   1.493  11.077  10.269
 8515SOL    HW125569   1.526  11.141  10.200
 8515SOL    HW225570   1.559  11.071  10.344
 8516SOL     OW25571   0.716   9.875  11.018
 8516SOL    HW125572   0.735   9.940  11.092
 8516SOL    HW225573   0.776   9.795  11.027
 8517SOL     OW25574   1.450  10.530  10.943
 8517SOL    HW125575   1.441  10.520  11.042
 8517SOL    HW225576   1.546  10.523  10.917
 8518SOL     OW25577   0.390  11.051  10.870
 8518SOL    HW125578   0.299  11.092  10.868
 8518SOL    HW225579   0.383  10.957  10.902
 8519SOL     OW25580   1.674  10.193  10.564
 8519SOL    HW125581   1.647  10.104  10.527
 8519SOL    HW225582   1.675  10.261  10.491
 8520SOL     OW25583   1.225   9.635   9.759
 8520SOL    HW125584   1.290   9.561   9.748
 8520SOL    HW225585   1.245   9.685   9.843
 8521SOL     OW25586   0.594  10.055   9.962
 8521SOL    HW125587   0.644  10.140   9.943
 8521SOL    HW225588   0.506  10.057   9.914
 8522SOL     OW25589   1.777   9.652  10.952
 8522SOL    HW125590   1.760   9.683  10.858
 8522SOL    HW225591   1.693   9.615  10.990
 8523SOL     OW25592   1.730  10.244  10.827
 8523SOL    HW125593   1.768  10.335  10.842
 8523SOL    HW225594   1.722  10.227  10.728
 8524SOL     OW25595   0.859  10.684   9.326
 8524SOL    HW125596   0.813  10.699   9.414
 8524SOL    HW225597   0.903  10.769   9.296
 8525SOL     OW25598   0.661  11.100  10.263
 8525SOL    HW125599   0.615  11.188  10.250
 8525SOL    HW225600   0.760  11.112  10.256
 8526SOL     OW25601   0.859  10.266  10.171
 8526SOL    HW125602   0.913  10.197  10.219
 8526SOL    HW225603   0.827  10.335  10.237
 8527SOL     OW25604   1.083  10.294   9.397
 8527SOL    HW125605   1.060  10.347   9.315
 8527SOL    HW225606   1.164  10.238   9.378
 8528SOL     OW25607   1.861  10.879  10.161
 8528SOL    HW125608   1.790  10.867  10.091
 8528SOL    HW225609   1.862  10.800  10.221
 8529SOL     OW25610   0.221  10.624  11.154
 8529SOL    HW125611   0.156  10.551  11.133
 8529SOL    HW225612   0.225  10.638  11.252
 8530SOL     OW25613   0.079  10.550   9.963
 8530SOL    HW125614   0.078  10.503  10.051
 8530SOL    HW225615   0.161  10.522   9.912
 8531SOL     OW25616   0.672  10.701  10.934
 8531SOL    HW125617   0.594  10.651  10.972
 8531SOL    HW225618   0.669  10.796  10.965
 8532SOL     OW25619   1.824   9.502  10.537
 8532SOL    HW125620   1.820   9.412  10.581
 8532SOL    HW225621   1.827   9.491  10.438
 8533SOL     OW25622   0.428   9.734   9.830
 8533SOL    HW125623   0.458   9.662   9.768
 8533SOL    HW225624   0.389   9.694   9.913
 8534SOL     OW25625   1.705  10.797  10.414
 8534SOL    HW125626   1.612  10.772  10.387
 8534SOL    HW225627   1.731  10.747  10.496
 8535SOL     OW25628   0.317   9.857  10.590
 8535SOL    HW125629   0.355   9.798  10.662
 8535SOL    HW225630   0.357   9.831  10.502
 8536SOL     OW25631   0.812  10.896   9.997
 8536SOL    HW125632   0.844  10.906   9.903
 8536SOL    HW225633   0.733  10.834   9.999
 8537SOL     OW25634   1.424   9.524  10.422
 8537SOL    HW125635   1.476   9.459  10.477
 8537SOL    HW225636   1.375   9.587  10.483
 8538SOL     OW25637   1.001   9.344  10.464
 8538SOL    HW125638   0.938   9.272  10.433
 8538SOL    HW225639   1.094   9.308  10.464
 8539SOL     OW25640   0.770  10.640   9.611
 8539SOL    HW125641   0.724  10.553   9.628
 8539SOL    HW225642   0.861  10.637   9.652
 8540SOL     OW25643   0.618  10.877  10.594
 8540SOL    HW125644   0.613  10.959  10.651
 8540SOL    HW225645   0.707  10.874  10.549
 8541SOL     OW25646   1.352   9.362   9.478
 8541SOL    HW125647   1.387   9.321   9.394
 8541SOL    HW225648   1.262   9.324   9.498
 8542SOL     OW25649   1.300   9.763  10.001
 8542SOL    HW125650   1.241   9.843  10.005
 8542SOL    HW225651   1.315   9.728  10.094
 8543SOL     OW25652   1.593   9.531  10.192
 8543SOL    HW125653   1.509   9.530  10.246
 8543SOL    HW225654   1.595   9.614  10.136
 8544SOL     OW25655   0.039  10.387   9.610
 8544SOL    HW125656   0.138  10.376   9.601
 8544SOL    HW225657  -0.001  10.301   9.642
 8545SOL     OW25658   0.875  10.956   9.647
 8545SOL    HW125659   0.798  10.921   9.593
 8545SOL    HW225660   0.843  11.027   9.709
 8546SOL     OW25661   0.230   9.938  11.285
 8546SOL    HW125662   0.137   9.936  11.322
 8546SOL    HW225663   0.231   9.899  11.193
 8547SOL     OW25664   0.225   9.585  12.168
 8547SOL    HW125665   0.260   9.568  12.260
 8547SOL    HW225666   0.137   9.540  12.156
 8548SOL     OW25667   0.019   9.678  11.819
 8548SOL    HW125668  -0.063   9.721  11.858
 8548SOL    HW225669  -0.009   9.605  11.756
 8549SOL     OW25670   0.569  10.585  12.337
 8549SOL    HW125671   0.476  10.578  12.300
 8549SOL    HW225672   0.580  10.674  12.381
 8550SOL     OW25673   1.555  10.821  11.875
 8550SOL    HW125674   1.498  10.805  11.956
 8550SOL    HW225675   1.496  10.831  11.795
 8551SOL     OW25676   1.135  10.013  11.889
 8551SOL    HW125677   1.192  10.091  11.864
 8551SOL    HW225678   1.075  10.039  11.965
 8552SOL     OW25679   1.755   9.917  11.403
 8552SOL    HW125680   1.743   9.904  11.304
 8552SOL    HW225681   1.725   9.836  11.452
 8553SOL     OW25682   0.768  10.454  12.195
 8553SOL    HW125683   0.690  10.471  12.255
 8553SOL    HW225684   0.802  10.541  12.159
 8554SOL     OW25685   0.685  10.322  11.837
 8554SOL    HW125686   0.754  10.306  11.907
 8554SOL    HW225687   0.612  10.379  11.875
 8555SOL     OW25688   0.335  10.745  12.233
 8555SOL    HW125689   0.257  10.714  12.180
 8555SOL    HW225690   0.393  10.803  12.176
 8556SOL     OW25691   1.460  10.815  12.511
 8556SOL    HW125692   1.484  10.909  12.537
 8556SOL    HW225693   1.444  10.761  12.593
 8557SOL     OW25694   0.438   9.702  12.671
 8557SOL    HW125695   0.520   9.646  12.680
 8557SOL    HW225696   0.357   9.644  12.675
 8558SOL     OW25697   1.603   9.757  11.909
 8558SOL    HW125698   1.529   9.803  11.859
 8558SOL    HW225699   1.654   9.825  11.962
 8559SOL     OW25700   0.231  11.023  11.655
 8559SOL    HW125701   0.265  11.100  11.709
 8559SOL    HW225702   0.275  11.023  11.565
 8560SOL     OW25703   0.230  10.744  11.710
 8560SOL    HW125704   0.204  10.840  11.710
 8560SOL    HW225705   0.159  10.690  11.755
 8561SOL     OW25706   0.240  10.401  12.058
 8561SOL    HW125707   0.254  10.317  12.110
 8561SOL    HW225708   0.185  10.465  12.113
 8562SOL     OW25709   0.620  11.096  12.611
 8562SOL    HW125710   0.528  11.079  12.646
 8562SOL    HW225711   0.648  11.188  12.637
 8563SOL     OW25712   0.606  10.274  11.295
 8563SOL    HW125713   0.613  10.358  11.241
 8563SOL    HW225714   0.652  10.287  11.383
 8564SOL     OW25715   1.594   9.424  12.652
 8564SOL    HW125716   1.576   9.491  12.580
 8564SOL    HW225717   1.591   9.470  12.741
 8565SOL     OW25718   0.122   9.953  11.735
 8565SOL    HW125719   0.077   9.865  11.752
 8565SOL    HW225720   0.121  10.007  11.819
 8566SOL     OW25721   1.842  11.077  11.531
 8566SOL    HW125722   1.896  11.048  11.611
 8566SOL    HW225723   1.872  11.167  11.502
 8567SOL     OW25724   0.027  10.906  11.289
 8567SOL    HW125725   0.008  10.810  11.310
 8567SOL    HW225726  -0.006  10.964  11.364
 8568SOL     OW25727   1.689  10.232  11.784
 8568SOL    HW125728   1.784  10.203  11.792
 8568SOL    HW225729   1.681  10.297  11.709
 8569SOL     OW25730   1.641  10.418  11.604
 8569SOL    HW125731   1.727  10.420  11.552
 8569SOL    HW225732   1.655  10.465  11.692
 8570SOL     OW25733   0.113  10.047  12.769
 8570SOL    HW125734   0.201  10.034  12.814
 8570SOL    HW225735   0.100  10.144  12.747
 8571SOL     OW25736   0.613  10.675  11.898
 8571SOL    HW125737   0.564  10.588  11.907
 8571SOL    HW225738   0.590  10.718  11.811
 8572SOL     OW25739   1.293  10.538  12.595
 8572SOL    HW125740   1.330  10.465  12.537
 8572SOL    HW225741   1.345  10.543  12.680
 8573SOL     OW25742   0.809   9.314  11.674
 8573SOL    HW125743   0.849   9.405  11.665
 8573SOL    HW225744   0.709   9.322  11.680
 8574SOL     OW25745   0.197  10.286  12.436
 8574SOL    HW125746   0.286  10.241  12.422
 8574SOL    HW225747   0.124  10.221  12.417
 8575SOL     OW25748   1.525  10.309  11.362
 8575SOL    HW125749   1.462  10.233  11.375
 8575SOL    HW225750   1.573  10.327  11.448
 8576SOL     OW25751   1.466  10.727  12.125
 8576SOL    HW125752   1.407  10.733  12.205
 8576SOL    HW225753   1.451  10.639  12.079
 8577SOL     OW25754   1.667  11.024  11.744
 8577SOL    HW125755   1.626  11.001  11.656
 8577SOL    HW225756   1.649  10.950  11.809
 8578SOL     OW25757   0.598  10.039  11.442
 8578SOL    HW125758   0.622  10.108  11.374
 8578SOL    HW225759   0.520  10.072  11.496
 8579SOL     OW25760   1.281   9.655  12.116
 8579SOL    HW125761   1.195   9.605  12.103
 8579SOL    HW225762   1.343   9.601  12.172
 8580SOL     OW25763   1.576  10.972  11.479
 8580SOL    HW125764   1.665  11.018  11.482
 8580SOL    HW225765   1.555  10.948  11.384
 8581SOL     OW25766   0.807   9.915  12.637
 8581SOL    HW125767   0.760   9.912  12.726
 8581SOL    HW225768   0.756   9.860  12.571
 8582SOL     OW25769   0.973  10.200  12.744
 8582SOL    HW125770   1.019  10.116  12.715
 8582SOL    HW225771   0.917  10.234  12.669
 8583SOL     OW25772   0.991   9.720  12.414
 8583SOL    HW125773   0.914   9.754  12.468
 8583SOL    HW225774   0.957   9.669  12.335
 8584SOL     OW25775   1.041  10.011  11.601
 8584SOL    HW125776   1.067  10.007  11.697
 8584SOL    HW225777   0.956   9.960  11.587
 8585SOL     OW25778   0.076  10.121  11.961
 8585SOL    HW125779   0.175  10.109  11.970
 8585SOL    HW225780   0.052  10.216  11.982
 8586SOL     OW25781   0.130  11.131  12.743
 8586SOL    HW125782   0.120  11.116  12.842
 8586SOL    HW225783   0.044  11.167  12.707
 8587SOL     OW25784   0.865   9.658  11.367
 8587SOL    HW125785   0.924   9.721  11.318
 8587SOL    HW225786   0.884   9.564  11.338
 8588SOL     OW25787   1.362  10.454  11.717
 8588SOL    HW125788   1.445  10.425  11.669
 8588SOL    HW225789   1.313  10.521  11.661
 8589SOL     OW25790   0.550   9.506  12.057
 8589SOL    HW125791   0.545   9.501  12.157
 8589SOL    HW225792   0.552   9.602  12.028
 8590SOL     OW25793   1.008  10.766  11.649
 8590SOL    HW125794   0.962  10.838  11.597
 8590SOL    HW225795   1.004  10.786  11.747
 8591SOL     OW25796   0.351  11.111  12.025
 8591SOL    HW125797   0.401  11.025  12.031
 8591SOL    HW225798   0.416  11.188  12.022
 8592SOL     OW25799   1.795  10.376  12.045
 8592SOL    HW125800   1.733  10.361  11.969
 8592SOL    HW225801   1.743  10.387  12.130
 8593SOL     OW25802   1.227  10.860  12.678
 8593SOL    HW125803   1.233  10.783  12.742
 8593SOL    HW225804   1.175  10.834  12.598
 8594SOL     OW25805   0.321  10.253  11.414
 8594SOL    HW125806   0.403  10.292  11.372
 8594SOL    HW225807   0.294  10.171  11.365
 8595SOL     OW25808   1.458  10.045  11.900
 8595SOL    HW125809   1.453   9.980  11.975
 8595SOL    HW225810   1.538  10.104  11.913
 8596SOL     OW25811   1.111  11.086  11.409
 8596SOL    HW125812   1.051  11.024  11.459
 8596SOL    HW225813   1.142  11.042  11.324
 8597SOL     OW25814   0.202   9.595  12.670
 8597SOL    HW125815   0.122   9.655  12.657
 8597SOL    HW225816   0.192   9.546  12.756
 8598SOL     OW25817   1.632  10.687  11.253
 8598SOL    HW125818   1.600  10.781  11.243
 8598SOL    HW225819   1.556  10.624  11.241
 8599SOL     OW25820   0.464  11.053  11.495
 8599SOL    HW125821   0.497  11.092  11.581
 8599SOL    HW225822   0.540  11.046  11.430
 8600SOL     OW25823   1.400   9.417  11.598
 8600SOL    HW125824   1.376   9.380  11.508
 8600SOL    HW225825   1.499   9.433  11.602
 8601SOL     OW25826   0.249  11.095  12.413
 8601SOL    HW125827   0.306  11.030  12.463
 8601SOL    HW225828   0.233  11.062  12.320
 8602SOL     OW25829   0.940  11.008  12.076
 8602SOL    HW125830   1.020  10.951  12.097
 8602SOL    HW225831   0.891  10.968  11.999
 8603SOL     OW25832   0.382  10.010  11.652
 8603SOL    HW125833   0.427   9.920  11.649
 8603SOL    HW225834   0.288   9.999  11.685
 8604SOL     OW25835   0.614   9.432  11.289
 8604SOL    HW125836   0.712   9.410  11.296
 8604SOL    HW225837   0.583   9.415  11.196
 8605SOL     OW25838   0.888  10.824  12.367
 8605SOL    HW125839   0.865  10.799  12.273
 8605SOL    HW225840   0.949  10.755  12.406
 8606SOL     OW25841   1.351   9.900  12.605
 8606SOL    HW125842   1.379   9.857  12.690
 8606SOL    HW225843   1.376   9.996  12.606
 8607SOL     OW25844   0.803  10.712  12.096
 8607SOL    HW125845   0.893  10.726  12.054
 8607SOL    HW225846   0.732  10.714  12.025
 8608SOL     OW25847   0.922   9.813  12.071
 8608SOL    HW125848   0.897   9.804  11.975
 8608SOL    HW225849   0.970   9.731  12.102
 8609SOL     OW25850   0.539   9.374  11.684
 8609SOL    HW125851   0.458   9.375  11.742
 8609SOL    HW225852   0.542   9.457  11.629
 8610SOL     OW25853   1.434  10.498  11.213
 8610SOL    HW125854   1.466  10.422  11.270
 8610SOL    HW225855   1.342  10.525  11.243
 8611SOL     OW25856   0.297   9.345  11.343
 8611SOL    HW125857   0.346   9.429  11.322
 8611SOL    HW225858   0.359   9.280  11.388
 8612SOL     OW25859   0.935   9.546  11.652
 8612SOL    HW125860   0.887   9.587  11.574
 8612SOL    HW225861   1.034   9.544  11.633
 8613SOL     OW25862   1.076   9.993  12.636
 8613SOL    HW125863   0.996   9.932  12.639
 8613SOL    HW225864   1.157   9.940  12.612
 8614SOL     OW25865   1.227  10.880  11.965
 8614SOL    HW125866   1.248  10.954  11.900
 8614SOL    HW225867   1.295  10.880  12.038
 8615SOL     OW25868   0.459  10.462  11.913
 8615SOL    HW125869   0.388  10.435  11.978
 8615SOL    HW225870   0.433  10.434  11.820
 8616SOL     OW25871   1.271  11.107  11.763
 8616SOL    HW125872   1.315  11.171  11.699
 8616SOL    HW225873   1.221  11.159  11.833
 8617SOL     OW25874   1.032   9.859  11.188
 8617SOL    HW125875   0.991   9.941  11.149
 8617SOL    HW225876   1.096   9.885  11.261
 8618SOL     OW25877   0.078   9.866  12.558
 8618SOL    HW125878   0.170   9.865  12.517
 8618SOL    HW225879   0.072   9.940  12.625
 8619SOL     OW25880   0.561   9.532  12.319
 8619SOL    HW125881   0.599   9.448  12.356
 8619SOL    HW225882   0.473   9.551  12.363
 8620SOL     OW25883   0.866   9.764  11.814
 8620SOL    HW125884   0.834   9.836  11.752
 8620SOL    HW225885   0.890   9.683  11.761
 8621SOL     OW25886   1.017   9.349  11.925
 8621SOL    HW125887   0.945   9.354  11.856
 8621SOL    HW225888   0.993   9.280  11.994
 8622SOL     OW25889   1.429  10.483  12.039
 8622SOL    HW125890   1.374  10.399  12.032
 8622SOL    HW225891   1.455  10.512  11.947
 8623SOL     OW25892   1.466   9.900  12.164
 8623SOL    HW125893   1.436   9.805  12.171
 8623SOL    HW225894   1.539   9.916  12.230
 8624SOL     OW25895   1.857  10.143  11.549
 8624SOL    HW125896   1.899  10.079  11.613
 8624SOL    HW225897   1.819  10.092  11.471
 8625SOL     OW25898   0.488  10.695  11.346
 8625SOL    HW125899   0.401  10.680  11.393
 8625SOL    HW225900   0.471  10.721  11.251
 8626SOL     OW25901   1.664  10.590  11.829
 8626SOL    HW125902   1.763  10.598  11.843
 8626SOL    HW225903   1.619  10.674  11.860
 8627SOL     OW25904   1.390   9.885  11.250
 8627SOL    HW125905   1.336   9.864  11.331
 8627SOL    HW225906   1.481   9.844  11.259
 8628SOL     OW25907   0.527   9.566  11.500
 8628SOL    HW125908   0.554   9.507  11.425
 8628SOL    HW225909   0.527   9.661  11.469
 8629SOL     OW25910   1.754  10.533  12.760
 8629SOL    HW125911   1.845  10.494  12.747
 8629SOL    HW225912   1.762  10.629  12.784
 8630SOL     OW25913   1.064  10.657  12.512
 8630SOL    HW125914   0.984  10.634  12.567
 8630SOL    HW225915   1.147  10.631  12.561
 8631SOL     OW25916   1.111  10.505  12.272
 8631SOL    HW125917   1.071  10.549  12.353
 8631SOL    HW225918   1.070  10.542  12.189
 8632SOL     OW25919   1.638  10.409  12.251
 8632SOL    HW125920   1.643  10.490  12.310
 8632SOL    HW225921   1.552  10.411  12.200
 8633SOL     OW25922   0.915   9.399  12.574
 8633SOL    HW125923   0.940   9.379  12.479
 8633SOL    HW225924   0.987   9.455  12.616
 8634SOL     OW25925   0.705  10.360  11.540
 8634SOL    HW125926   0.691  10.367  11.639
 8634SOL    HW225927   0.789  10.309  11.522
 8635SOL     OW25928   0.410  10.123  12.423
 8635SOL    HW125929   0.496  10.135  12.473
 8635SOL    HW225930   0.368  10.036  12.450
 8636SOL     OW25931   1.274   9.696  12.434
 8636SOL    HW125932   1.295   9.770  12.498
 8636SOL    HW225933   1.185   9.713  12.391
 8637SOL     OW25934   0.064  10.874  12.503
 8637SOL    HW125935   0.018  10.956  12.469
 8637SOL    HW225936   0.162  10.893  12.512
 8638SOL     OW25937   0.367  10.410  11.673
 8638SOL    HW125938   0.360  10.493  11.617
 8638SOL    HW225939   0.371  10.330  11.613
 8639SOL     OW25940   0.566   9.847  12.037
 8639SOL    HW125941   0.578   9.913  11.963
 8639SOL    HW225942   0.612   9.881  12.120
 8640SOL     OW25943   1.252  10.658  11.560
 8640SOL    HW125944   1.302  10.735  11.600
 8640SOL    HW225945   1.157  10.660  11.592
 8641SOL     OW25946   1.272  10.755  12.314
 8641SOL    HW125947   1.319  10.768  12.401
 8641SOL    HW225948   1.206  10.681  12.323
 8642SOL     OW25949   1.582   9.949  11.644
 8642SOL    HW125950   1.551  10.010  11.717
 8642SOL    HW225951   1.632  10.001  11.575
 8643SOL     OW25952   0.354  10.820  12.501
 8643SOL    HW125953   0.333  10.776  12.414
 8643SOL    HW225954   0.451  10.846  12.504
 8644SOL     OW25955   0.402  10.061  12.770
 8644SOL    HW125956   0.470  10.116  12.723
 8644SOL    HW225957   0.442   9.973  12.797
 8645SOL     OW25958   1.587  10.089  12.842
 8645SOL    HW125959   1.495  10.127  12.837
 8645SOL    HW225960   1.647  10.136  12.777
 8646SOL     OW25961   0.573  10.180  12.201
 8646SOL    HW125962   0.617  10.269  12.192
 8646SOL    HW225963   0.510  10.180  12.278
 8647SOL     OW25964   1.360  10.172  12.217
 8647SOL    HW125965   1.285  10.172  12.151
 8647SOL    HW225966   1.397  10.080  12.226
 8648SOL     OW25967   1.209   9.835  11.447
 8648SOL    HW125968   1.222   9.751  11.501
 8648SOL    HW225969   1.180   9.909  11.507
 8649SOL     OW25970   0.307   9.523  12.403
 8649SOL    HW125971   0.284   9.560  12.493
 8649SOL    HW225972   0.277   9.428  12.397
 8650SOL     OW25973   0.037  10.620  12.454
 8650SOL    HW125974   0.090  10.571  12.522
 8650SOL    HW225975   0.059  10.718  12.459
 8651SOL     OW25976   0.732   9.944  12.236
 8651SOL    HW125977   0.791   9.918  12.160
 8651SOL    HW225978   0.704  10.040  12.225
 8652SOL     OW25979   0.307   9.373  11.790
 8652SOL    HW125980   0.296   9.467  11.823
 8652SOL    HW225981   0.302   9.310  11.867
 8653SOL     OW25982   1.622   9.677  11.546
 8653SOL    HW125983   1.624   9.601  11.610
 8653SOL    HW225984   1.574   9.754  11.586
 8654SOL     OW25985   1.023  10.076  12.138
 8654SOL    HW125986   1.038  10.097  12.234
 8654SOL    HW225987   0.993   9.981  12.129
 8655SOL     OW25988   1.540   9.584  11.297
 8655SOL    HW125989   1.479   9.509  11.320
 8655SOL    HW225990   1.562   9.636  11.380
 8656SOL     OW25991   1.303  10.148  11.214
 8656SOL    HW125992   1.337  10.055  11.229
 8656SOL    HW225993   1.321  10.175  11.119
 8657SOL     OW25994   1.068  10.643  12.021
 8657SOL    HW125995   1.075  10.559  11.966
 8657SOL    HW225996   1.130  10.712  11.985
 8658SOL     OW25997   0.319  10.120  12.121
 8658SOL    HW125998   0.412  10.156  12.126
 8658SOL    HW225999   0.313  10.035  12.173
 8659SOL     OW26000   0.339   9.819  12.178
 8659SOL    HW126001   0.287   9.736  12.161
 8659SOL    HW226002   0.416   9.824  12.114
 8660SOL     OW26003   1.160   9.517  12.649
 8660SOL    HW126004   1.160   9.581  12.726
 8660SOL    HW226005   1.188   9.565  12.566
 8661SOL     OW26006   0.008  10.636  11.372
 8661SOL    HW126007  -0.085  10.657  11.341
 8661SOL    HW226008   0.018  10.537  11.385
 8662SOL     OW26009   0.088  11.111  12.099
 8662SOL    HW126010   0.046  11.025  12.072
 8662SOL    HW226011   0.182  11.114  12.065
 8663SOL     OW26012   0.504  10.878  12.082
 8663SOL    HW126013   0.570  10.952  12.091
 8663SOL    HW226014   0.548  10.799  12.040
 8664SOL     OW26015   1.002  10.106  12.410
 8664SOL    HW126016   1.043  10.074  12.496
 8664SOL    HW226017   0.906  10.079  12.407
 8665SOL     OW26018   0.040   9.854  12.286
 8665SOL    HW126019   0.125   9.821  12.245
 8665SOL    HW226020   0.053   9.869  12.384
 8666SOL     OW26021   0.815   9.882  11.497
 8666SOL    HW126022   0.822   9.793  11.451
 8666SOL    HW226023   0.721   9.916  11.489
 8667SOL     OW26024   1.657   9.914  12.378
 8667SOL    HW126025   1.619   9.845  12.440
 8667SOL    HW226026   1.739   9.878  12.334
 8668SOL     OW26027   0.252  10.874  12.916
 8668SOL    HW126028   0.222  10.931  12.992
 8668SOL    HW226029   0.245  10.777  12.942
 8669SOL     OW26030   0.671   9.774  12.441
 8669SOL    HW126031   0.637   9.685  12.411
 8669SOL    HW226032   0.697   9.828  12.361
 8670SOL     OW26033   0.930  10.988  12.637
 8670SOL    HW126034   0.906  10.970  12.542
 8670SOL    HW226035   0.960  11.082  12.647
 8671SOL     OW26036   0.473   9.810  11.363
 8671SOL    HW126037   0.534   9.890  11.367
 8671SOL    HW226038   0.378   9.841  11.370
 8672SOL     OW26039   0.159  10.447  12.638
 8672SOL    HW126040   0.181  10.386  12.714
 8672SOL    HW226041   0.169  10.398  12.552
 8673SOL     OW26042   1.347  10.369  12.406
 8673SOL    HW126043   1.371  10.306  12.332
 8673SOL    HW226044   1.257  10.409  12.388
 8674SOL     OW26045   1.302  10.165  11.481
 8674SOL    HW126046   1.216  10.134  11.523
 8674SOL    HW226047   1.298  10.151  11.382
 8675SOL     OW26048   1.759  11.057  12.326
 8675SOL    HW126049   1.820  11.087  12.253
 8675SOL    HW226050   1.721  10.968  12.304
 8676SOL     OW26051   1.252  11.041  12.300
 8676SOL    HW126052   1.336  11.046  12.246
 8676SOL    HW226053   1.229  10.945  12.318
 8677SOL     OW26054   0.083  10.568  12.194
 8677SOL    HW126055   0.078  10.567  12.294
 8677SOL    HW226056   0.000  10.527  12.156
 8678SOL     OW26057   1.726   9.445  11.695
 8678SOL    HW126058   1.799   9.428  11.628
 8678SOL    HW226059   1.695   9.358  11.733
 8679SOL     OW26060   1.388  10.883  11.649
 8679SOL    HW126061   1.455  10.895  11.575
 8679SOL    HW226062   1.348  10.972  11.672
 8680SOL     OW26063   1.280  10.237  11.844
 8680SOL    HW126064   1.340  10.156  11.846
 8680SOL    HW226065   1.320  10.306  11.784
 8681SOL     OW26066   0.830  10.583  12.594
 8681SOL    HW126067   0.825  10.616  12.689
 8681SOL    HW226068   0.744  10.602  12.548
 8682SOL     OW26069   0.672  10.926  11.326
 8682SOL    HW126070   0.681  10.936  11.227
 8682SOL    HW226071   0.632  10.837  11.347
 8683SOL     OW26072   1.650  11.030  12.566
 8683SOL    HW126073   1.703  11.040  12.482
 8683SOL    HW226074   1.623  11.120  12.600
 8684SOL     OW26075   1.841   9.485  12.135
 8684SOL    HW126076   1.880   9.400  12.099
 8684SOL    HW226077   1.743   9.487  12.116
 8685SOL     OW26078   0.263   9.636  11.892
 8685SOL    HW126079   0.184   9.687  11.858
 8685SOL    HW226080   0.254   9.621  11.990
 8686SOL     OW26081   1.194  10.922  11.203
 8686SOL    HW126082   1.200  10.829  11.240
 8686SOL    HW226083   1.135  10.922  11.123
 8687SOL     OW26084   0.822  10.312  12.544
 8687SOL    HW126085   0.862  10.311  12.452
 8687SOL    HW226086   0.832  10.404  12.584
 8688SOL     OW26087   0.916  10.220  11.463
 8688SOL    HW126088   0.979  10.258  11.395
 8688SOL    HW226089   0.956  10.137  11.502
 8689SOL     OW26090   1.504  10.917  11.216
 8689SOL    HW126091   1.412  10.954  11.223
 8689SOL    HW226092   1.542  10.937  11.126
 8690SOL     OW26093   0.372  10.598  12.662
 8690SOL    HW126094   0.359  10.691  12.628
 8690SOL    HW226095   0.288  10.546  12.649
 8691SOL     OW26096   1.614  10.602  12.461
 8691SOL    HW126097   1.674  10.605  12.541
 8691SOL    HW226098   1.539  10.666  12.474
 8692SOL     OW26099   1.039  10.408  11.868
 8692SOL    HW126100   0.969  10.361  11.922
 8692SOL    HW226101   1.098  10.340  11.825
 8693SOL     OW26102   1.014   9.546  12.143
 8693SOL    HW126103   1.006   9.510  12.050
 8693SOL    HW226104   1.012   9.470  12.208
 8694SOL     OW26105   0.590  10.797  11.663
 8694SOL    HW126106   0.632  10.739  11.593
 8694SOL    HW226107   0.546  10.876  11.619
 8695SOL     OW26108   1.709   9.695  12.553
 8695SOL    HW126109   1.782   9.764  12.557
 8695SOL    HW226110   1.737   9.620  12.494
 8696SOL     OW26111   0.255  10.658  11.462
 8696SOL    HW126112   0.159  10.659  11.435
 8696SOL    HW226113   0.267  10.711  11.546
 8697SOL     OW26114   0.105  10.323  12.898
 8697SOL    HW126115   0.028  10.290  12.952
 8697SOL    HW226116   0.190  10.293  12.940
 8698SOL     OW26117   0.672   9.513  12.661
 8698SOL    HW126118   0.762   9.497  12.621
 8698SOL    HW226119   0.680   9.518  12.760
 8699SOL     OW26120   0.075   9.655  11.205
 8699SOL    HW126121  -0.017   9.627  11.176
 8699SOL    HW226122   0.106   9.732  11.149
 8700SOL     OW26123   1.440  10.166  12.570
 8700SOL    HW126124   1.383  10.218  12.507
 8700SOL    HW226125   1.536  10.178  12.546
 8701SOL     OW26126   0.072   9.476  11.490
 8701SOL    HW126127   0.055   9.559  11.436
 8701SOL    HW226128   0.162   9.439  11.468
 8702SOL     OW26129   1.183  10.645  11.291
 8702SOL    HW126130   1.084  10.634  11.293
 8702SOL    HW226131   1.217  10.660  11.384
 8703SOL     OW26132   0.613  10.152  12.603
 8703SOL    HW126133   0.669  10.233  12.586
 8703SOL    HW226134   0.672  10.072  12.606
 8704SOL     OW26135   1.493  11.077  12.131
 8704SOL    HW126136   1.526  11.141  12.062
 8704SOL    HW226137   1.559  11.071  12.206
 8705SOL     OW26138   0.716   9.875  12.880
 8705SOL    HW126139   0.735   9.940  12.954
 8705SOL    HW226140   0.776   9.795  12.889
 8706SOL     OW26141   0.390  11.051  12.732
 8706SOL    HW126142   0.299  11.092  12.730
 8706SOL    HW226143   0.383  10.957  12.764
 8707SOL     OW26144   1.674  10.193  12.426
 8707SOL    HW126145   1.647  10.104  12.389
 8707SOL    HW226146   1.675  10.261  12.353
 8708SOL     OW26147   1.225   9.635  11.621
 8708SOL    HW126148   1.290   9.561  11.610
 8708SOL    HW226149   1.245   9.685  11.705
 8709SOL     OW26150   0.594  10.055  11.824
 8709SOL    HW126151   0.644  10.140  11.805
 8709SOL    HW226152   0.506  10.057  11.776
 8710SOL     OW26153   1.730  10.244  12.689
 8710SOL    HW126154   1.768  10.335  12.704
 8710SOL    HW226155   1.722  10.227  12.590
 8711SOL     OW26156   0.859  10.684  11.188
 8711SOL    HW126157   0.813  10.699  11.276
 8711SOL    HW226158   0.903  10.769  11.158
 8712SOL     OW26159   0.661  11.100  12.125
 8712SOL    HW126160   0.615  11.188  12.112
 8712SOL    HW226161   0.760  11.112  12.118
 8713SOL     OW26162   0.859  10.266  12.033
 8713SOL    HW126163   0.913  10.197  12.081
 8713SOL    HW226164   0.827  10.335  12.099
 8714SOL     OW26165   1.083  10.294  11.259
 8714SOL    HW126166   1.060  10.347  11.177
 8714SOL    HW226167   1.164  10.238  11.240
 8715SOL     OW26168   1.861  10.879  12.023
 8715SOL    HW126169   1.790  10.867  11.953
 8715SOL    HW226170   1.862  10.800  12.083
 8716SOL     OW26171   0.079  10.550  11.825
 8716SOL    HW126172   0.078  10.503  11.913
 8716SOL    HW226173   0.161  10.522  11.774
 8717SOL     OW26174   0.672  10.701  12.796
 8717SOL    HW126175   0.594  10.651  12.834
 8717SOL    HW226176   0.669  10.796  12.827
 8718SOL     OW26177   1.824   9.502  12.399
 8718SOL    HW126178   1.820   9.412  12.443
 8718SOL    HW226179   1.827   9.491  12.300
 8719SOL     OW26180   0.428   9.734  11.692
 8719SOL    HW126181   0.458   9.662  11.630
 8719SOL    HW226182   0.389   9.694  11.775
 8720SOL     OW26183   1.705  10.797  12.276
 8720SOL    HW126184   1.612  10.772  12.249
 8720SOL    HW226185   1.731  10.747  12.358
 8721SOL     OW26186   0.317   9.857  12.452
 8721SOL    HW126187   0.355   9.798  12.524
 8721SOL    HW226188   0.357   9.831  12.364
 8722SOL     OW26189   0.812  10.896  11.859
 8722SOL    HW126190   0.844  10.906  11.765
 8722SOL    HW226191   0.733  10.834  11.861
 8723SOL     OW26192   1.424   9.524  12.284
 8723SOL    HW126193   1.476   9.459  12.339
 8723SOL    HW226194   1.375   9.587  12.345
 8724SOL     OW26195   1.001   9.344  12.326
 8724SOL    HW126196   0.938   9.272  12.295
 8724SOL    HW226197   1.094   9.308  12.326
 8725SOL     OW26198   0.770  10.640  11.473
 8725SOL    HW126199   0.724  10.553  11.490
 8725SOL    HW226200   0.861  10.637  11.514
 8726SOL     OW26201   0.618  10.877  12.456
 8726SOL    HW126202   0.613  10.959  12.513
 8726SOL    HW226203   0.707  10.874  12.411
 8727SOL     OW26204   1.352   9.362  11.340
 8727SOL    HW126205   1.387   9.321  11.256
 8727SOL    HW226206   1.262   9.324  11.360
 8728SOL     OW26207   1.300   9.763  11.863
 8728SOL    HW126208   1.241   9.843  11.867
 8728SOL    HW226209   1.315   9.728  11.956
 8729SOL     OW26210   1.593   9.531  12.054
 8729SOL    HW126211   1.509   9.530  12.108
 8729SOL    HW226212   1.595   9.614  11.998
 8730SOL     OW26213   0.039  10.387  11.472
 8730SOL    HW126214   0.138  10.376  11.463
 8730SOL    HW226215  -0.001  10.301  11.504
 8731SOL     OW26216   0.875  10.956  11.509
 8731SOL    HW126217   0.798  10.921  11.455
 8731SOL    HW226218   0.843  11.027  11.571
 8732SOL     OW26219   0.230  11.800   0.113
 8732SOL    HW126220   0.137  11.798   0.150
 8732SOL    HW226221   0.231  11.761   0.021
 8733SOL     OW26222   0.225  11.447   0.996
 8733SOL    HW126223   0.260  11.430   1.088
 8733SOL    HW226224   0.137  11.402   0.984
 8734SOL     OW26225   0.019  11.540   0.647
 8734SOL    HW126226  -0.063  11.583   0.686
 8734SOL    HW226227  -0.009  11.467   0.584
 8735SOL     OW26228   0.569  12.447   1.165
 8735SOL    HW126229   0.476  12.440   1.128
 8735SOL    HW226230   0.580  12.536   1.209
 8736SOL     OW26231   1.555  12.683   0.703
 8736SOL    HW126232   1.498  12.667   0.784
 8736SOL    HW226233   1.496  12.693   0.623
 8737SOL     OW26234   1.135  11.875   0.717
 8737SOL    HW126235   1.192  11.953   0.692
 8737SOL    HW226236   1.075  11.901   0.793
 8738SOL     OW26237   1.755  11.779   0.231
 8738SOL    HW126238   1.743  11.766   0.132
 8738SOL    HW226239   1.725  11.698   0.280
 8739SOL     OW26240   0.768  12.316   1.023
 8739SOL    HW126241   0.690  12.333   1.083
 8739SOL    HW226242   0.802  12.403   0.987
 8740SOL     OW26243   0.850  11.970   1.823
 8740SOL    HW126244   0.846  12.046   1.888
 8740SOL    HW226245   0.872  12.006   1.732
 8741SOL     OW26246   0.685  12.184   0.665
 8741SOL    HW126247   0.754  12.168   0.735
 8741SOL    HW226248   0.612  12.241   0.703
 8742SOL     OW26249   0.686  12.333   1.803
 8742SOL    HW126250   0.746  12.412   1.817
 8742SOL    HW226251   0.600  12.364   1.762
 8743SOL     OW26252   0.335  12.607   1.061
 8743SOL    HW126253   0.257  12.576   1.008
 8743SOL    HW226254   0.393  12.665   1.004
 8744SOL     OW26255   1.460  12.677   1.339
 8744SOL    HW126256   1.484  12.771   1.365
 8744SOL    HW226257   1.444  12.623   1.421
 8745SOL     OW26258   0.438  11.564   1.499
 8745SOL    HW126259   0.520  11.508   1.508
 8745SOL    HW226260   0.357  11.506   1.503
 8746SOL     OW26261   1.603  11.619   0.737
 8746SOL    HW126262   1.529  11.665   0.687
 8746SOL    HW226263   1.654  11.687   0.790
 8747SOL     OW26264   1.127  12.513   1.690
 8747SOL    HW126265   1.174  12.513   1.778
 8747SOL    HW226266   1.079  12.426   1.679
 8748SOL     OW26267   0.230  12.606   0.538
 8748SOL    HW126268   0.204  12.702   0.538
 8748SOL    HW226269   0.159  12.552   0.583
 8749SOL     OW26270   0.240  12.263   0.886
 8749SOL    HW126271   0.254  12.179   0.938
 8749SOL    HW226272   0.185  12.327   0.941
 8750SOL     OW26273   0.606  12.136   0.123
 8750SOL    HW126274   0.613  12.220   0.069
 8750SOL    HW226275   0.652  12.149   0.211
 8751SOL     OW26276   1.594  11.286   1.480
 8751SOL    HW126277   1.576  11.353   1.408
 8751SOL    HW226278   1.591  11.332   1.569
 8752SOL     OW26279   0.122  11.815   0.563
 8752SOL    HW126280   0.077  11.727   0.580
 8752SOL    HW226281   0.121  11.869   0.647
 8753SOL     OW26282   0.027  12.768   0.117
 8753SOL    HW126283   0.008  12.672   0.138
 8753SOL    HW226284  -0.006  12.826   0.192
 8754SOL     OW26285   1.689  12.094   0.612
 8754SOL    HW126286   1.784  12.065   0.620
 8754SOL    HW226287   1.681  12.159   0.537
 8755SOL     OW26288   1.641  12.280   0.432
 8755SOL    HW126289   1.727  12.282   0.380
 8755SOL    HW226290   1.655  12.327   0.520
 8756SOL     OW26291   0.113  11.909   1.597
 8756SOL    HW126292   0.201  11.896   1.642
 8756SOL    HW226293   0.100  12.006   1.575
 8757SOL     OW26294   0.613  12.537   0.726
 8757SOL    HW126295   0.564  12.450   0.735
 8757SOL    HW226296   0.590  12.580   0.639
 8758SOL     OW26297   1.293  12.400   1.423
 8758SOL    HW126298   1.330  12.327   1.365
 8758SOL    HW226299   1.345  12.405   1.508
 8759SOL     OW26300   0.809  11.176   0.502
 8759SOL    HW126301   0.849  11.267   0.493
 8759SOL    HW226302   0.709  11.184   0.508
 8760SOL     OW26303   0.197  12.148   1.264
 8760SOL    HW126304   0.286  12.103   1.250
 8760SOL    HW226305   0.124  12.083   1.245
 8761SOL     OW26306   1.525  12.171   0.190
 8761SOL    HW126307   1.462  12.095   0.203
 8761SOL    HW226308   1.573  12.189   0.276
 8762SOL     OW26309   0.317  11.423   1.801
 8762SOL    HW126310   0.388  11.494   1.807
 8762SOL    HW226311   0.229  11.462   1.829
 8763SOL     OW26312   1.466  12.589   0.953
 8763SOL    HW126313   1.407  12.595   1.033
 8763SOL    HW226314   1.451  12.501   0.907
 8764SOL     OW26315   0.598  11.901   0.270
 8764SOL    HW126316   0.622  11.970   0.202
 8764SOL    HW226317   0.520  11.934   0.324
 8765SOL     OW26318   1.281  11.517   0.944
 8765SOL    HW126319   1.195  11.467   0.931
 8765SOL    HW226320   1.343  11.463   1.000
 8766SOL     OW26321   1.576  12.834   0.307
 8766SOL    HW126322   1.665  12.880   0.310
 8766SOL    HW226323   1.555  12.810   0.212
 8767SOL     OW26324   0.807  11.777   1.465
 8767SOL    HW126325   0.760  11.774   1.554
 8767SOL    HW226326   0.756  11.722   1.399
 8768SOL     OW26327   1.394  11.641   1.674
 8768SOL    HW126328   1.374  11.684   1.762
 8768SOL    HW226329   1.472  11.579   1.683
 8769SOL     OW26330   0.973  12.062   1.572
 8769SOL    HW126331   1.019  11.978   1.543
 8769SOL    HW226332   0.917  12.096   1.497
 8770SOL     OW26333   0.991  11.582   1.242
 8770SOL    HW126334   0.914  11.616   1.296
 8770SOL    HW226335   0.957  11.531   1.163
 8771SOL     OW26336   1.041  11.873   0.429
 8771SOL    HW126337   1.067  11.869   0.525
 8771SOL    HW226338   0.956  11.822   0.415
 8772SOL     OW26339   0.076  11.983   0.789
 8772SOL    HW126340   0.175  11.971   0.798
 8772SOL    HW226341   0.052  12.078   0.810
 8773SOL     OW26342   0.865  11.520   0.195
 8773SOL    HW126343   0.924  11.583   0.146
 8773SOL    HW226344   0.884  11.426   0.166
 8774SOL     OW26345   1.719  11.757   1.831
 8774SOL    HW126346   1.693  11.846   1.795
 8774SOL    HW226347   1.717  11.689   1.758
 8775SOL     OW26348   1.362  12.316   0.545
 8775SOL    HW126349   1.445  12.287   0.497
 8775SOL    HW226350   1.313  12.383   0.489
 8776SOL     OW26351   0.550  11.368   0.885
 8776SOL    HW126352   0.545  11.363   0.985
 8776SOL    HW226353   0.552  11.464   0.856
 8777SOL     OW26354   1.008  12.628   0.477
 8777SOL    HW126355   0.962  12.700   0.425
 8777SOL    HW226356   1.004  12.648   0.575
 8778SOL     OW26357   1.795  12.238   0.873
 8778SOL    HW126358   1.733  12.223   0.797
 8778SOL    HW226359   1.743  12.249   0.958
 8779SOL     OW26360   1.227  12.722   1.506
 8779SOL    HW126361   1.233  12.645   1.570
 8779SOL    HW226362   1.175  12.696   1.426
 8780SOL     OW26363   0.321  12.115   0.242
 8780SOL    HW126364   0.403  12.154   0.200
 8780SOL    HW226365   0.294  12.033   0.193
 8781SOL     OW26366   1.458  11.907   0.728
 8781SOL    HW126367   1.453  11.842   0.803
 8781SOL    HW226368   1.538  11.966   0.741
 8782SOL     OW26369   0.461  12.438   1.727
 8782SOL    HW126370   0.411  12.439   1.641
 8782SOL    HW226371   0.398  12.420   1.803
 8783SOL     OW26372   0.202  11.457   1.498
 8783SOL    HW126373   0.122  11.517   1.485
 8783SOL    HW226374   0.192  11.408   1.584
 8784SOL     OW26375   1.632  12.549   0.081
 8784SOL    HW126376   1.600  12.643   0.071
 8784SOL    HW226377   1.556  12.486   0.069
 8785SOL     OW26378   1.400  11.279   0.426
 8785SOL    HW126379   1.376  11.242   0.336
 8785SOL    HW226380   1.499  11.295   0.430
 8786SOL     OW26381   0.382  11.872   0.480
 8786SOL    HW126382   0.427  11.782   0.477
 8786SOL    HW226383   0.288  11.861   0.513
 8787SOL     OW26384   1.547  11.394   1.729
 8787SOL    HW126385   1.542  11.431   1.821
 8787SOL    HW226386   1.475  11.325   1.717
 8788SOL     OW26387   0.614  11.294   0.117
 8788SOL    HW126388   0.712  11.272   0.124
 8788SOL    HW226389   0.583  11.277   0.024
 8789SOL     OW26390   0.781  11.436   1.749
 8789SOL    HW126391   0.848  11.375   1.792
 8789SOL    HW226392   0.708  11.455   1.814
 8790SOL     OW26393   1.351  11.762   1.433
 8790SOL    HW126394   1.379  11.719   1.518
 8790SOL    HW226395   1.376  11.858   1.434
 8791SOL     OW26396   0.803  12.574   0.924
 8791SOL    HW126397   0.893  12.588   0.882
 8791SOL    HW226398   0.732  12.576   0.853
 8792SOL     OW26399   0.922  11.675   0.899
 8792SOL    HW126400   0.897  11.666   0.803
 8792SOL    HW226401   0.970  11.593   0.930
 8793SOL     OW26402   0.539  11.236   0.512
 8793SOL    HW126403   0.458  11.237   0.570
 8793SOL    HW226404   0.542  11.319   0.457
 8794SOL     OW26405   1.434  12.360   0.041
 8794SOL    HW126406   1.466  12.284   0.098
 8794SOL    HW226407   1.342  12.387   0.071
 8795SOL     OW26408   0.297  11.207   0.171
 8795SOL    HW126409   0.346  11.291   0.150
 8795SOL    HW226410   0.359  11.142   0.216
 8796SOL     OW26411   0.935  11.408   0.480
 8796SOL    HW126412   0.887  11.449   0.402
 8796SOL    HW226413   1.034  11.406   0.461
 8797SOL     OW26414   1.076  11.855   1.464
 8797SOL    HW126415   0.996  11.794   1.467
 8797SOL    HW226416   1.157  11.802   1.440
 8798SOL     OW26417   1.227  12.742   0.793
 8798SOL    HW126418   1.248  12.816   0.728
 8798SOL    HW226419   1.295  12.742   0.866
 8799SOL     OW26420   0.459  12.324   0.741
 8799SOL    HW126421   0.388  12.297   0.806
 8799SOL    HW226422   0.433  12.296   0.648
 8800SOL     OW26423   1.032  11.721   0.016
 8800SOL    HW126424   0.991  11.803  -0.023
 8800SOL    HW226425   1.096  11.747   0.089
 8801SOL     OW26426   0.078  11.728   1.386
 8801SOL    HW126427   0.170  11.727   1.345
 8801SOL    HW226428   0.072  11.802   1.453
 8802SOL     OW26429   0.561  11.394   1.147
 8802SOL    HW126430   0.599  11.310   1.184
 8802SOL    HW226431   0.473  11.413   1.191
 8803SOL     OW26432   0.866  11.626   0.642
 8803SOL    HW126433   0.834  11.698   0.580
 8803SOL    HW226434   0.890  11.545   0.589
 8804SOL     OW26435   1.017  11.211   0.753
 8804SOL    HW126436   0.945  11.216   0.684
 8804SOL    HW226437   0.993  11.142   0.822
 8805SOL     OW26438   1.429  12.345   0.867
 8805SOL    HW126439   1.374  12.261   0.860
 8805SOL    HW226440   1.455  12.374   0.775
 8806SOL     OW26441   1.466  11.762   0.992
 8806SOL    HW126442   1.436  11.667   0.999
 8806SOL    HW226443   1.539  11.778   1.058
 8807SOL     OW26444   1.857  12.005   0.377
 8807SOL    HW126445   1.899  11.941   0.441
 8807SOL    HW226446   1.819  11.954   0.299
 8808SOL     OW26447   0.488  12.557   0.174
 8808SOL    HW126448   0.401  12.542   0.221
 8808SOL    HW226449   0.471  12.583   0.079
 8809SOL     OW26450   1.664  12.452   0.657
 8809SOL    HW126451   1.763  12.460   0.671
 8809SOL    HW226452   1.619  12.536   0.688
 8810SOL     OW26453   1.390  11.747   0.078
 8810SOL    HW126454   1.336  11.726   0.159
 8810SOL    HW226455   1.481  11.706   0.087
 8811SOL     OW26456   0.527  11.428   0.328
 8811SOL    HW126457   0.554  11.369   0.253
 8811SOL    HW226458   0.527  11.523   0.297
 8812SOL     OW26459   1.754  12.395   1.588
 8812SOL    HW126460   1.845  12.356   1.575
 8812SOL    HW226461   1.762  12.491   1.612
 8813SOL     OW26462   1.064  12.519   1.340
 8813SOL    HW126463   0.984  12.496   1.395
 8813SOL    HW226464   1.147  12.493   1.389
 8814SOL     OW26465   1.111  12.367   1.100
 8814SOL    HW126466   1.071  12.411   1.181
 8814SOL    HW226467   1.070  12.404   1.017
 8815SOL     OW26468   1.638  12.271   1.079
 8815SOL    HW126469   1.643  12.352   1.138
 8815SOL    HW226470   1.552  12.273   1.028
 8816SOL     OW26471   0.915  11.261   1.402
 8816SOL    HW126472   0.940  11.241   1.307
 8816SOL    HW226473   0.987  11.317   1.444
 8817SOL     OW26474   0.980  12.288   1.719
 8817SOL    HW126475   0.881  12.294   1.729
 8817SOL    HW226476   1.003  12.208   1.663
 8818SOL     OW26477   0.705  12.222   0.368
 8818SOL    HW126478   0.691  12.229   0.467
 8818SOL    HW226479   0.789  12.171   0.350
 8819SOL     OW26480   0.410  11.985   1.251
 8819SOL    HW126481   0.496  11.997   1.301
 8819SOL    HW226482   0.368  11.898   1.278
 8820SOL     OW26483   1.274  11.558   1.262
 8820SOL    HW126484   1.295  11.632   1.326
 8820SOL    HW226485   1.185  11.575   1.219
 8821SOL     OW26486   0.064  12.736   1.331
 8821SOL    HW126487   0.018  12.818   1.297
 8821SOL    HW226488   0.162  12.755   1.340
 8822SOL     OW26489   0.367  12.272   0.501
 8822SOL    HW126490   0.360  12.355   0.445
 8822SOL    HW226491   0.371  12.192   0.441
 8823SOL     OW26492   0.566  11.709   0.865
 8823SOL    HW126493   0.578  11.775   0.791
 8823SOL    HW226494   0.612  11.743   0.948
 8824SOL     OW26495   1.252  12.520   0.388
 8824SOL    HW126496   1.302  12.597   0.428
 8824SOL    HW226497   1.157  12.522   0.420
 8825SOL     OW26498   1.272  12.617   1.142
 8825SOL    HW126499   1.319  12.630   1.229
 8825SOL    HW226500   1.206  12.543   1.151
 8826SOL     OW26501   1.582  11.811   0.472
 8826SOL    HW126502   1.551  11.872   0.545
 8826SOL    HW226503   1.632  11.863   0.403
 8827SOL     OW26504   0.354  12.682   1.329
 8827SOL    HW126505   0.333  12.638   1.242
 8827SOL    HW226506   0.451  12.708   1.332
 8828SOL     OW26507   0.402  11.923   1.598
 8828SOL    HW126508   0.470  11.978   1.551
 8828SOL    HW226509   0.442  11.835   1.625
 8829SOL     OW26510   1.587  11.951   1.670
 8829SOL    HW126511   1.495  11.989   1.665
 8829SOL    HW226512   1.647  11.998   1.605
 8830SOL     OW26513   1.013  11.277   1.770
 8830SOL    HW126514   1.019  11.362   1.718
 8830SOL    HW226515   1.045  11.201   1.713
 8831SOL     OW26516   0.504  11.222   1.740
 8831SOL    HW126517   0.462  11.165   1.670
 8831SOL    HW226518   0.438  11.291   1.772
 8832SOL     OW26519   0.573  12.042   1.029
 8832SOL    HW126520   0.617  12.131   1.020
 8832SOL    HW226521   0.510  12.042   1.106
 8833SOL     OW26522   1.360  12.034   1.045
 8833SOL    HW126523   1.285  12.034   0.979
 8833SOL    HW226524   1.397  11.942   1.054
 8834SOL     OW26525   1.209  11.697   0.275
 8834SOL    HW126526   1.222  11.613   0.329
 8834SOL    HW226527   1.180  11.771   0.335
 8835SOL     OW26528   0.307  11.385   1.231
 8835SOL    HW126529   0.284  11.422   1.321
 8835SOL    HW226530   0.277  11.290   1.225
 8836SOL     OW26531   0.037  12.482   1.282
 8836SOL    HW126532   0.090  12.433   1.350
 8836SOL    HW226533   0.059  12.580   1.287
 8837SOL     OW26534   0.732  11.806   1.064
 8837SOL    HW126535   0.791  11.780   0.988
 8837SOL    HW226536   0.704  11.902   1.053
 8838SOL     OW26537   1.728  12.107   1.854
 8838SOL    HW126538   1.682  12.100   1.765
 8838SOL    HW226539   1.666  12.151   1.920
 8839SOL     OW26540   0.307  11.235   0.618
 8839SOL    HW126541   0.296  11.329   0.651
 8839SOL    HW226542   0.302  11.172   0.695
 8840SOL     OW26543   1.622  11.539   0.374
 8840SOL    HW126544   1.624  11.463   0.438
 8840SOL    HW226545   1.574  11.616   0.414
 8841SOL     OW26546   1.023  11.938   0.966
 8841SOL    HW126547   1.038  11.959   1.062
 8841SOL    HW226548   0.993  11.843   0.957
 8842SOL     OW26549   1.859  12.690   1.605
 8842SOL    HW126550   1.873  12.717   1.510
 8842SOL    HW226551   1.942  12.712   1.658
 8843SOL     OW26552   0.350  12.070   1.804
 8843SOL    HW126553   0.426  12.114   1.852
 8843SOL    HW226554   0.385  12.023   1.722
 8844SOL     OW26555   1.540  11.446   0.125
 8844SOL    HW126556   1.479  11.371   0.148
 8844SOL    HW226557   1.562  11.498   0.208
 8845SOL     OW26558   1.303  12.010   0.042
 8845SOL    HW126559   1.337  11.917   0.057
 8845SOL    HW226560   1.321  12.037  -0.053
 8846SOL     OW26561   1.068  12.505   0.849
 8846SOL    HW126562   1.075  12.421   0.794
 8846SOL    HW226563   1.130  12.574   0.813
 8847SOL     OW26564   0.319  11.982   0.949
 8847SOL    HW126565   0.412  12.018   0.954
 8847SOL    HW226566   0.313  11.897   1.001
 8848SOL     OW26567   0.339  11.681   1.006
 8848SOL    HW126568   0.287  11.598   0.989
 8848SOL    HW226569   0.416  11.686   0.942
 8849SOL     OW26570   1.138  11.552   1.678
 8849SOL    HW126571   1.093  11.615   1.742
 8849SOL    HW226572   1.231  11.583   1.661
 8850SOL     OW26573   1.160  11.379   1.477
 8850SOL    HW126574   1.160  11.443   1.554
 8850SOL    HW226575   1.188  11.427   1.394
 8851SOL     OW26576   0.008  12.498   0.200
 8851SOL    HW126577  -0.085  12.519   0.169
 8851SOL    HW226578   0.018  12.399   0.213
 8852SOL     OW26579   0.504  12.740   0.910
 8852SOL    HW126580   0.570  12.814   0.919
 8852SOL    HW226581   0.548  12.661   0.868
 8853SOL     OW26582   1.002  11.968   1.238
 8853SOL    HW126583   1.043  11.936   1.324
 8853SOL    HW226584   0.906  11.941   1.235
 8854SOL     OW26585   0.040  11.716   1.114
 8854SOL    HW126586   0.125  11.683   1.073
 8854SOL    HW226587   0.053  11.731   1.212
 8855SOL     OW26588   0.189  11.692   1.722
 8855SOL    HW126589   0.248  11.652   1.652
 8855SOL    HW226590   0.131  11.763   1.681
 8856SOL     OW26591   1.369  12.122   1.660
 8856SOL    HW126592   1.408  12.211   1.680
 8856SOL    HW226593   1.379  12.102   1.563
 8857SOL     OW26594   0.815  11.744   0.325
 8857SOL    HW126595   0.822  11.655   0.279
 8857SOL    HW226596   0.721  11.778   0.317
 8858SOL     OW26597   1.657  11.776   1.206
 8858SOL    HW126598   1.619  11.707   1.268
 8858SOL    HW226599   1.739  11.740   1.162
 8859SOL     OW26600   0.252  12.736   1.744
 8859SOL    HW126601   0.222  12.793   1.820
 8859SOL    HW226602   0.245  12.639   1.770
 8860SOL     OW26603   0.671  11.636   1.269
 8860SOL    HW126604   0.637  11.547   1.239
 8860SOL    HW226605   0.697  11.690   1.189
 8861SOL     OW26606   0.473  11.672   0.191
 8861SOL    HW126607   0.534  11.752   0.195
 8861SOL    HW226608   0.378  11.703   0.198
 8862SOL     OW26609   0.159  12.309   1.466
 8862SOL    HW126610   0.181  12.248   1.542
 8862SOL    HW226611   0.169  12.260   1.380
 8863SOL     OW26612   1.347  12.231   1.234
 8863SOL    HW126613   1.371  12.168   1.160
 8863SOL    HW226614   1.257  12.271   1.216
 8864SOL     OW26615   1.302  12.027   0.309
 8864SOL    HW126616   1.216  11.996   0.351
 8864SOL    HW226617   1.298  12.013   0.210
 8865SOL     OW26618   1.252  12.903   1.128
 8865SOL    HW126619   1.336  12.908   1.074
 8865SOL    HW226620   1.229  12.807   1.146
 8866SOL     OW26621   0.083  12.430   1.022
 8866SOL    HW126622   0.078  12.429   1.122
 8866SOL    HW226623   0.000  12.389   0.984
 8867SOL     OW26624   0.903  11.258   0.133
 8867SOL    HW126625   0.954  11.259   0.047
 8867SOL    HW226626   0.959  11.216   0.204
 8868SOL     OW26627   1.726  11.307   0.523
 8868SOL    HW126628   1.799  11.290   0.456
 8868SOL    HW226629   1.695  11.220   0.561
 8869SOL     OW26630   0.130  12.966   1.851
 8869SOL    HW126631   0.089  12.892   1.904
 8869SOL    HW226632   0.194  13.017   1.909
 8870SOL     OW26633   1.280  12.099   0.672
 8870SOL    HW126634   1.340  12.018   0.674
 8870SOL    HW226635   1.320  12.168   0.612
 8871SOL     OW26636   0.830  12.445   1.422
 8871SOL    HW126637   0.825  12.478   1.517
 8871SOL    HW226638   0.744  12.464   1.376
 8872SOL     OW26639   0.672  12.788   0.154
 8872SOL    HW126640   0.681  12.798   0.055
 8872SOL    HW226641   0.632  12.699   0.175
 8873SOL     OW26642   1.841  11.347   0.963
 8873SOL    HW126643   1.880  11.262   0.927
 8873SOL    HW226644   1.743  11.349   0.944
 8874SOL     OW26645   0.263  11.498   0.720
 8874SOL    HW126646   0.184  11.549   0.686
 8874SOL    HW226647   0.254  11.483   0.818
 8875SOL     OW26648   1.194  12.784   0.031
 8875SOL    HW126649   1.200  12.691   0.068
 8875SOL    HW226650   1.135  12.784  -0.049
 8876SOL     OW26651   0.822  12.174   1.372
 8876SOL    HW126652   0.862  12.173   1.280
 8876SOL    HW226653   0.832  12.266   1.412
 8877SOL     OW26654   0.916  12.082   0.291
 8877SOL    HW126655   0.979  12.120   0.223
 8877SOL    HW226656   0.956  11.999   0.330
 8878SOL     OW26657   0.372  12.460   1.490
 8878SOL    HW126658   0.359  12.553   1.456
 8878SOL    HW226659   0.288  12.408   1.477
 8879SOL     OW26660   1.614  12.464   1.289
 8879SOL    HW126661   1.674  12.467   1.369
 8879SOL    HW226662   1.539  12.528   1.302
 8880SOL     OW26663   1.039  12.270   0.696
 8880SOL    HW126664   0.969  12.223   0.750
 8880SOL    HW226665   1.098  12.202   0.653
 8881SOL     OW26666   1.014  11.408   0.971
 8881SOL    HW126667   1.006  11.372   0.878
 8881SOL    HW226668   1.012  11.332   1.036
 8882SOL     OW26669   0.590  12.659   0.491
 8882SOL    HW126670   0.632  12.601   0.421
 8882SOL    HW226671   0.546  12.738   0.447
 8883SOL     OW26672   1.709  11.557   1.381
 8883SOL    HW126673   1.782  11.626   1.385
 8883SOL    HW226674   1.737  11.482   1.322
 8884SOL     OW26675   0.255  12.520   0.290
 8884SOL    HW126676   0.159  12.521   0.263
 8884SOL    HW226677   0.267  12.573   0.374
 8885SOL     OW26678   0.105  12.185   1.726
 8885SOL    HW126679   0.028  12.152   1.780
 8885SOL    HW226680   0.190  12.155   1.768
 8886SOL     OW26681   0.672  11.375   1.489
 8886SOL    HW126682   0.762  11.359   1.449
 8886SOL    HW226683   0.680  11.380   1.588
 8887SOL     OW26684   0.075  11.517   0.033
 8887SOL    HW126685  -0.017  11.489   0.004
 8887SOL    HW226686   0.106  11.594  -0.023
 8888SOL     OW26687   1.440  12.028   1.398
 8888SOL    HW126688   1.383  12.080   1.335
 8888SOL    HW226689   1.536  12.040   1.374
 8889SOL     OW26690   0.072  11.338   0.318
 8889SOL    HW126691   0.055  11.421   0.264
 8889SOL    HW226692   0.162  11.301   0.296
 8890SOL     OW26693   1.183  12.507   0.119
 8890SOL    HW126694   1.084  12.496   0.121
 8890SOL    HW226695   1.217  12.522   0.212
 8891SOL     OW26696   0.613  12.014   1.431
 8891SOL    HW126697   0.669  12.095   1.414
 8891SOL    HW226698   0.672  11.934   1.434
 8892SOL     OW26699   0.716  11.737   1.708
 8892SOL    HW126700   0.735  11.802   1.782
 8892SOL    HW226701   0.776  11.657   1.717
 8893SOL     OW26702   1.450  12.392   1.633
 8893SOL    HW126703   1.441  12.382   1.732
 8893SOL    HW226704   1.546  12.385   1.607
 8894SOL     OW26705   1.674  12.055   1.254
 8894SOL    HW126706   1.647  11.966   1.217
 8894SOL    HW226707   1.675  12.123   1.181
 8895SOL     OW26708   1.225  11.497   0.449
 8895SOL    HW126709   1.290  11.423   0.438
 8895SOL    HW226710   1.245  11.547   0.533
 8896SOL     OW26711   0.594  11.917   0.652
 8896SOL    HW126712   0.644  12.002   0.633
 8896SOL    HW226713   0.506  11.919   0.604
 8897SOL     OW26714   1.777  11.514   1.642
 8897SOL    HW126715   1.760  11.545   1.548
 8897SOL    HW226716   1.693  11.477   1.680
 8898SOL     OW26717   1.730  12.106   1.517
 8898SOL    HW126718   1.768  12.197   1.532
 8898SOL    HW226719   1.722  12.089   1.418
 8899SOL     OW26720   0.859  12.546   0.016
 8899SOL    HW126721   0.813  12.561   0.104
 8899SOL    HW226722   0.903  12.631  -0.014
 8900SOL     OW26723   0.859  12.128   0.861
 8900SOL    HW126724   0.913  12.059   0.909
 8900SOL    HW226725   0.827  12.197   0.927
 8901SOL     OW26726   1.083  12.156   0.087
 8901SOL    HW126727   1.060  12.209   0.005
 8901SOL    HW226728   1.164  12.100   0.068
 8902SOL     OW26729   1.861  12.741   0.851
 8902SOL    HW126730   1.790  12.729   0.781
 8902SOL    HW226731   1.862  12.662   0.911
 8903SOL     OW26732   0.221  12.486   1.844
 8903SOL    HW126733   0.156  12.413   1.823
 8903SOL    HW226734   0.225  12.500   1.942
 8904SOL     OW26735   0.079  12.412   0.653
 8904SOL    HW126736   0.078  12.365   0.741
 8904SOL    HW226737   0.161  12.384   0.602
 8905SOL     OW26738   0.672  12.563   1.624
 8905SOL    HW126739   0.594  12.513   1.662
 8905SOL    HW226740   0.669  12.658   1.655
 8906SOL     OW26741   1.824  11.364   1.227
 8906SOL    HW126742   1.820  11.274   1.271
 8906SOL    HW226743   1.827  11.353   1.128
 8907SOL     OW26744   0.428  11.596   0.520
 8907SOL    HW126745   0.458  11.524   0.458
 8907SOL    HW226746   0.389  11.556   0.603
 8908SOL     OW26747   1.705  12.659   1.104
 8908SOL    HW126748   1.612  12.634   1.077
 8908SOL    HW226749   1.731  12.609   1.186
 8909SOL     OW26750   0.317  11.719   1.280
 8909SOL    HW126751   0.355  11.660   1.352
 8909SOL    HW226752   0.357  11.693   1.192
 8910SOL     OW26753   1.424  11.386   1.112
 8910SOL    HW126754   1.476  11.321   1.167
 8910SOL    HW226755   1.375  11.449   1.173
 8911SOL     OW26756   1.001  11.206   1.154
 8911SOL    HW126757   0.938  11.134   1.123
 8911SOL    HW226758   1.094  11.170   1.154
 8912SOL     OW26759   0.770  12.502   0.301
 8912SOL    HW126760   0.724  12.415   0.318
 8912SOL    HW226761   0.861  12.499   0.342
 8913SOL     OW26762   0.618  12.739   1.284
 8913SOL    HW126763   0.613  12.821   1.341
 8913SOL    HW226764   0.707  12.736   1.239
 8914SOL     OW26765   1.352  11.224   0.168
 8914SOL    HW126766   1.387  11.183   0.084
 8914SOL    HW226767   1.262  11.186   0.188
 8915SOL     OW26768   1.300  11.625   0.691
 8915SOL    HW126769   1.241  11.705   0.695
 8915SOL    HW226770   1.315  11.590   0.784
 8916SOL     OW26771   1.593  11.393   0.882
 8916SOL    HW126772   1.509  11.392   0.936
 8916SOL    HW226773   1.595  11.476   0.826
 8917SOL     OW26774   0.039  12.249   0.300
 8917SOL    HW126775   0.138  12.238   0.291
 8917SOL    HW226776  -0.001  12.163   0.332
 8918SOL     OW26777   0.230  11.800   1.975
 8918SOL    HW126778   0.137  11.798   2.012
 8918SOL    HW226779   0.231  11.761   1.883
 8919SOL     OW26780   0.225  11.447   2.858
 8919SOL    HW126781   0.260  11.430   2.950
 8919SOL    HW226782   0.137  11.402   2.846
 8920SOL     OW26783   0.019  11.540   2.509
 8920SOL    HW126784  -0.063  11.583   2.548
 8920SOL    HW226785  -0.009  11.467   2.446
 8921SOL     OW26786   0.569  12.447   3.027
 8921SOL    HW126787   0.476  12.440   2.990
 8921SOL    HW226788   0.580  12.536   3.071
 8922SOL     OW26789   1.555  12.683   2.565
 8922SOL    HW126790   1.498  12.667   2.646
 8922SOL    HW226791   1.496  12.693   2.485
 8923SOL     OW26792   1.135  11.875   2.579
 8923SOL    HW126793   1.192  11.953   2.554
 8923SOL    HW226794   1.075  11.901   2.655
 8924SOL     OW26795   1.755  11.779   2.093
 8924SOL    HW126796   1.743  11.766   1.994
 8924SOL    HW226797   1.725  11.698   2.142
 8925SOL     OW26798   0.768  12.316   2.885
 8925SOL    HW126799   0.690  12.333   2.945
 8925SOL    HW226800   0.802  12.403   2.849
 8926SOL     OW26801   0.850  11.970   3.685
 8926SOL    HW126802   0.846  12.046   3.750
 8926SOL    HW226803   0.872  12.006   3.594
 8927SOL     OW26804   0.685  12.184   2.527
 8927SOL    HW126805   0.754  12.168   2.597
 8927SOL    HW226806   0.612  12.241   2.565
 8928SOL     OW26807   0.686  12.333   3.665
 8928SOL    HW126808   0.746  12.412   3.679
 8928SOL    HW226809   0.600  12.364   3.624
 8929SOL     OW26810   0.335  12.607   2.923
 8929SOL    HW126811   0.257  12.576   2.870
 8929SOL    HW226812   0.393  12.665   2.866
 8930SOL     OW26813   1.460  12.677   3.201
 8930SOL    HW126814   1.484  12.771   3.227
 8930SOL    HW226815   1.444  12.623   3.283
 8931SOL     OW26816   0.438  11.564   3.361
 8931SOL    HW126817   0.520  11.508   3.370
 8931SOL    HW226818   0.357  11.506   3.365
 8932SOL     OW26819   1.603  11.619   2.599
 8932SOL    HW126820   1.529  11.665   2.549
 8932SOL    HW226821   1.654  11.687   2.652
 8933SOL     OW26822   1.127  12.513   3.552
 8933SOL    HW126823   1.174  12.513   3.640
 8933SOL    HW226824   1.079  12.426   3.541
 8934SOL     OW26825   0.230  12.606   2.400
 8934SOL    HW126826   0.204  12.702   2.400
 8934SOL    HW226827   0.159  12.552   2.445
 8935SOL     OW26828   0.240  12.263   2.748
 8935SOL    HW126829   0.254  12.179   2.800
 8935SOL    HW226830   0.185  12.327   2.803
 8936SOL     OW26831   0.606  12.136   1.985
 8936SOL    HW126832   0.613  12.220   1.931
 8936SOL    HW226833   0.652  12.149   2.073
 8937SOL     OW26834   1.594  11.286   3.342
 8937SOL    HW126835   1.576  11.353   3.270
 8937SOL    HW226836   1.591  11.332   3.431
 8938SOL     OW26837   0.122  11.815   2.425
 8938SOL    HW126838   0.077  11.727   2.442
 8938SOL    HW226839   0.121  11.869   2.509
 8939SOL     OW26840   0.027  12.768   1.979
 8939SOL    HW126841   0.008  12.672   2.000
 8939SOL    HW226842  -0.006  12.826   2.054
 8940SOL     OW26843   1.689  12.094   2.474
 8940SOL    HW126844   1.784  12.065   2.482
 8940SOL    HW226845   1.681  12.159   2.399
 8941SOL     OW26846   1.641  12.280   2.294
 8941SOL    HW126847   1.727  12.282   2.242
 8941SOL    HW226848   1.655  12.327   2.382
 8942SOL     OW26849   0.113  11.909   3.459
 8942SOL    HW126850   0.201  11.896   3.504
 8942SOL    HW226851   0.100  12.006   3.437
 8943SOL     OW26852   0.613  12.537   2.588
 8943SOL    HW126853   0.564  12.450   2.597
 8943SOL    HW226854   0.590  12.580   2.501
 8944SOL     OW26855   1.293  12.400   3.285
 8944SOL    HW126856   1.330  12.327   3.227
 8944SOL    HW226857   1.345  12.405   3.370
 8945SOL     OW26858   0.809  11.176   2.364
 8945SOL    HW126859   0.849  11.267   2.355
 8945SOL    HW226860   0.709  11.184   2.370
 8946SOL     OW26861   0.197  12.148   3.126
 8946SOL    HW126862   0.286  12.103   3.112
 8946SOL    HW226863   0.124  12.083   3.107
 8947SOL     OW26864   1.525  12.171   2.052
 8947SOL    HW126865   1.462  12.095   2.065
 8947SOL    HW226866   1.573  12.189   2.138
 8948SOL     OW26867   0.317  11.423   3.663
 8948SOL    HW126868   0.388  11.494   3.669
 8948SOL    HW226869   0.229  11.462   3.691
 8949SOL     OW26870   1.466  12.589   2.815
 8949SOL    HW126871   1.407  12.595   2.895
 8949SOL    HW226872   1.451  12.501   2.769
 8950SOL     OW26873   0.598  11.901   2.132
 8950SOL    HW126874   0.622  11.970   2.064
 8950SOL    HW226875   0.520  11.934   2.186
 8951SOL     OW26876   1.281  11.517   2.806
 8951SOL    HW126877   1.195  11.467   2.793
 8951SOL    HW226878   1.343  11.463   2.862
 8952SOL     OW26879   1.576  12.834   2.169
 8952SOL    HW126880   1.665  12.880   2.172
 8952SOL    HW226881   1.555  12.810   2.074
 8953SOL     OW26882   0.807  11.777   3.327
 8953SOL    HW126883   0.760  11.774   3.416
 8953SOL    HW226884   0.756  11.722   3.261
 8954SOL     OW26885   1.394  11.641   3.536
 8954SOL    HW126886   1.374  11.684   3.624
 8954SOL    HW226887   1.472  11.579   3.545
 8955SOL     OW26888   0.973  12.062   3.434
 8955SOL    HW126889   1.019  11.978   3.405
 8955SOL    HW226890   0.917  12.096   3.359
 8956SOL     OW26891   0.991  11.582   3.104
 8956SOL    HW126892   0.914  11.616   3.158
 8956SOL    HW226893   0.957  11.531   3.025
 8957SOL     OW26894   1.041  11.873   2.291
 8957SOL    HW126895   1.067  11.869   2.387
 8957SOL    HW226896   0.956  11.822   2.277
 8958SOL     OW26897   0.076  11.983   2.651
 8958SOL    HW126898   0.175  11.971   2.660
 8958SOL    HW226899   0.052  12.078   2.672
 8959SOL     OW26900   0.865  11.520   2.057
 8959SOL    HW126901   0.924  11.583   2.008
 8959SOL    HW226902   0.884  11.426   2.028
 8960SOL     OW26903   1.719  11.757   3.693
 8960SOL    HW126904   1.693  11.846   3.657
 8960SOL    HW226905   1.717  11.689   3.620
 8961SOL     OW26906   1.362  12.316   2.407
 8961SOL    HW126907   1.445  12.287   2.359
 8961SOL    HW226908   1.313  12.383   2.351
 8962SOL     OW26909   0.550  11.368   2.747
 8962SOL    HW126910   0.545  11.363   2.847
 8962SOL    HW226911   0.552  11.464   2.718
 8963SOL     OW26912   1.008  12.628   2.339
 8963SOL    HW126913   0.962  12.700   2.287
 8963SOL    HW226914   1.004  12.648   2.437
 8964SOL     OW26915   1.795  12.238   2.735
 8964SOL    HW126916   1.733  12.223   2.659
 8964SOL    HW226917   1.743  12.249   2.820
 8965SOL     OW26918   1.227  12.722   3.368
 8965SOL    HW126919   1.233  12.645   3.432
 8965SOL    HW226920   1.175  12.696   3.288
 8966SOL     OW26921   0.321  12.115   2.104
 8966SOL    HW126922   0.403  12.154   2.062
 8966SOL    HW226923   0.294  12.033   2.055
 8967SOL     OW26924   1.458  11.907   2.590
 8967SOL    HW126925   1.453  11.842   2.665
 8967SOL    HW226926   1.538  11.966   2.603
 8968SOL     OW26927   0.461  12.438   3.589
 8968SOL    HW126928   0.411  12.439   3.503
 8968SOL    HW226929   0.398  12.420   3.665
 8969SOL     OW26930   0.202  11.457   3.360
 8969SOL    HW126931   0.122  11.517   3.347
 8969SOL    HW226932   0.192  11.408   3.446
 8970SOL     OW26933   1.632  12.549   1.943
 8970SOL    HW126934   1.600  12.643   1.933
 8970SOL    HW226935   1.556  12.486   1.931
 8971SOL     OW26936   1.400  11.279   2.288
 8971SOL    HW126937   1.376  11.242   2.198
 8971SOL    HW226938   1.499  11.295   2.292
 8972SOL     OW26939   0.382  11.872   2.342
 8972SOL    HW126940   0.427  11.782   2.339
 8972SOL    HW226941   0.288  11.861   2.375
 8973SOL     OW26942   1.547  11.394   3.591
 8973SOL    HW126943   1.542  11.431   3.683
 8973SOL    HW226944   1.475  11.325   3.579
 8974SOL     OW26945   0.614  11.294   1.979
 8974SOL    HW126946   0.712  11.272   1.986
 8974SOL    HW226947   0.583  11.277   1.886
 8975SOL     OW26948   0.781  11.436   3.611
 8975SOL    HW126949   0.848  11.375   3.654
 8975SOL    HW226950   0.708  11.455   3.676
 8976SOL     OW26951   1.351  11.762   3.295
 8976SOL    HW126952   1.379  11.719   3.380
 8976SOL    HW226953   1.376  11.858   3.296
 8977SOL     OW26954   0.803  12.574   2.786
 8977SOL    HW126955   0.893  12.588   2.744
 8977SOL    HW226956   0.732  12.576   2.715
 8978SOL     OW26957   0.922  11.675   2.761
 8978SOL    HW126958   0.897  11.666   2.665
 8978SOL    HW226959   0.970  11.593   2.792
 8979SOL     OW26960   0.539  11.236   2.374
 8979SOL    HW126961   0.458  11.237   2.432
 8979SOL    HW226962   0.542  11.319   2.319
 8980SOL     OW26963   1.434  12.360   1.903
 8980SOL    HW126964   1.466  12.284   1.960
 8980SOL    HW226965   1.342  12.387   1.933
 8981SOL     OW26966   0.297  11.207   2.033
 8981SOL    HW126967   0.346  11.291   2.012
 8981SOL    HW226968   0.359  11.142   2.078
 8982SOL     OW26969   0.935  11.408   2.342
 8982SOL    HW126970   0.887  11.449   2.264
 8982SOL    HW226971   1.034  11.406   2.323
 8983SOL     OW26972   1.076  11.855   3.326
 8983SOL    HW126973   0.996  11.794   3.329
 8983SOL    HW226974   1.157  11.802   3.302
 8984SOL     OW26975   1.227  12.742   2.655
 8984SOL    HW126976   1.248  12.816   2.590
 8984SOL    HW226977   1.295  12.742   2.728
 8985SOL     OW26978   0.459  12.324   2.603
 8985SOL    HW126979   0.388  12.297   2.668
 8985SOL    HW226980   0.433  12.296   2.510
 8986SOL     OW26981   1.032  11.721   1.878
 8986SOL    HW126982   0.991  11.803   1.839
 8986SOL    HW226983   1.096  11.747   1.951
 8987SOL     OW26984   0.078  11.728   3.248
 8987SOL    HW126985   0.170  11.727   3.207
 8987SOL    HW226986   0.072  11.802   3.315
 8988SOL     OW26987   0.561  11.394   3.009
 8988SOL    HW126988   0.599  11.310   3.046
 8988SOL    HW226989   0.473  11.413   3.053
 8989SOL     OW26990   0.866  11.626   2.504
 8989SOL    HW126991   0.834  11.698   2.442
 8989SOL    HW226992   0.890  11.545   2.451
 8990SOL     OW26993   1.017  11.211   2.615
 8990SOL    HW126994   0.945  11.216   2.546
 8990SOL    HW226995   0.993  11.142   2.684
 8991SOL     OW26996   1.429  12.345   2.729
 8991SOL    HW126997   1.374  12.261   2.722
 8991SOL    HW226998   1.455  12.374   2.637
 8992SOL     OW26999   1.466  11.762   2.854
 8992SOL    HW127000   1.436  11.667   2.861
 8992SOL    HW227001   1.539  11.778   2.920
 8993SOL     OW27002   1.857  12.005   2.239
 8993SOL    HW127003   1.899  11.941   2.303
 8993SOL    HW227004   1.819  11.954   2.161
 8994SOL     OW27005   0.488  12.557   2.036
 8994SOL    HW127006   0.401  12.542   2.083
 8994SOL    HW227007   0.471  12.583   1.941
 8995SOL     OW27008   1.664  12.452   2.519
 8995SOL    HW127009   1.763  12.460   2.533
 8995SOL    HW227010   1.619  12.536   2.550
 8996SOL     OW27011   1.390  11.747   1.940
 8996SOL    HW127012   1.336  11.726   2.021
 8996SOL    HW227013   1.481  11.706   1.949
 8997SOL     OW27014   0.527  11.428   2.190
 8997SOL    HW127015   0.554  11.369   2.115
 8997SOL    HW227016   0.527  11.523   2.159
 8998SOL     OW27017   1.754  12.395   3.450
 8998SOL    HW127018   1.845  12.356   3.437
 8998SOL    HW227019   1.762  12.491   3.474
 8999SOL     OW27020   1.064  12.519   3.202
 8999SOL    HW127021   0.984  12.496   3.257
 8999SOL    HW227022   1.147  12.493   3.251
 9000SOL     OW27023   1.111  12.367   2.962
 9000SOL    HW127024   1.071  12.411   3.043
 9000SOL    HW227025   1.070  12.404   2.879
 9001SOL     OW27026   1.638  12.271   2.941
 9001SOL    HW127027   1.643  12.352   3.000
 9001SOL    HW227028   1.552  12.273   2.890
 9002SOL     OW27029   0.915  11.261   3.264
 9002SOL    HW127030   0.940  11.241   3.169
 9002SOL    HW227031   0.987  11.317   3.306
 9003SOL     OW27032   0.980  12.288   3.581
 9003SOL    HW127033   0.881  12.294   3.591
 9003SOL    HW227034   1.003  12.208   3.525
 9004SOL     OW27035   0.705  12.222   2.230
 9004SOL    HW127036   0.691  12.229   2.329
 9004SOL    HW227037   0.789  12.171   2.212
 9005SOL     OW27038   0.410  11.985   3.113
 9005SOL    HW127039   0.496  11.997   3.163
 9005SOL    HW227040   0.368  11.898   3.140
 9006SOL     OW27041   1.274  11.558   3.124
 9006SOL    HW127042   1.295  11.632   3.188
 9006SOL    HW227043   1.185  11.575   3.081
 9007SOL     OW27044   0.064  12.736   3.193
 9007SOL    HW127045   0.018  12.818   3.159
 9007SOL    HW227046   0.162  12.755   3.202
 9008SOL     OW27047   0.367  12.272   2.363
 9008SOL    HW127048   0.360  12.355   2.307
 9008SOL    HW227049   0.371  12.192   2.303
 9009SOL     OW27050   0.566  11.709   2.727
 9009SOL    HW127051   0.578  11.775   2.653
 9009SOL    HW227052   0.612  11.743   2.810
 9010SOL     OW27053   1.252  12.520   2.250
 9010SOL    HW127054   1.302  12.597   2.290
 9010SOL    HW227055   1.157  12.522   2.282
 9011SOL     OW27056   1.272  12.617   3.004
 9011SOL    HW127057   1.319  12.630   3.091
 9011SOL    HW227058   1.206  12.543   3.013
 9012SOL     OW27059   1.582  11.811   2.334
 9012SOL    HW127060   1.551  11.872   2.407
 9012SOL    HW227061   1.632  11.863   2.265
 9013SOL     OW27062   0.354  12.682   3.191
 9013SOL    HW127063   0.333  12.638   3.104
 9013SOL    HW227064   0.451  12.708   3.194
 9014SOL     OW27065   0.402  11.923   3.460
 9014SOL    HW127066   0.470  11.978   3.413
 9014SOL    HW227067   0.442  11.835   3.487
 9015SOL     OW27068   1.587  11.951   3.532
 9015SOL    HW127069   1.495  11.989   3.527
 9015SOL    HW227070   1.647  11.998   3.467
 9016SOL     OW27071   1.013  11.277   3.632
 9016SOL    HW127072   1.019  11.362   3.580
 9016SOL    HW227073   1.045  11.201   3.575
 9017SOL     OW27074   0.504  11.222   3.602
 9017SOL    HW127075   0.462  11.165   3.532
 9017SOL    HW227076   0.438  11.291   3.634
 9018SOL     OW27077   0.573  12.042   2.891
 9018SOL    HW127078   0.617  12.131   2.882
 9018SOL    HW227079   0.510  12.042   2.968
 9019SOL     OW27080   1.360  12.034   2.907
 9019SOL    HW127081   1.285  12.034   2.841
 9019SOL    HW227082   1.397  11.942   2.916
 9020SOL     OW27083   1.209  11.697   2.137
 9020SOL    HW127084   1.222  11.613   2.191
 9020SOL    HW227085   1.180  11.771   2.197
 9021SOL     OW27086   0.307  11.385   3.093
 9021SOL    HW127087   0.284  11.422   3.183
 9021SOL    HW227088   0.277  11.290   3.087
 9022SOL     OW27089   0.037  12.482   3.144
 9022SOL    HW127090   0.090  12.433   3.212
 9022SOL    HW227091   0.059  12.580   3.149
 9023SOL     OW27092   0.732  11.806   2.926
 9023SOL    HW127093   0.791  11.780   2.850
 9023SOL    HW227094   0.704  11.902   2.915
 9024SOL     OW27095   1.728  12.107   3.716
 9024SOL    HW127096   1.682  12.100   3.627
 9024SOL    HW227097   1.666  12.151   3.782
 9025SOL     OW27098   0.307  11.235   2.480
 9025SOL    HW127099   0.296  11.329   2.513
 9025SOL    HW227100   0.302  11.172   2.557
 9026SOL     OW27101   1.023  11.938   2.828
 9026SOL    HW127102   1.038  11.959   2.924
 9026SOL    HW227103   0.993  11.843   2.819
 9027SOL     OW27104   1.859  12.690   3.467
 9027SOL    HW127105   1.873  12.717   3.372
 9027SOL    HW227106   1.942  12.712   3.520
 9028SOL     OW27107   0.350  12.070   3.666
 9028SOL    HW127108   0.426  12.114   3.714
 9028SOL    HW227109   0.385  12.023   3.584
 9029SOL     OW27110   1.540  11.446   1.987
 9029SOL    HW127111   1.479  11.371   2.010
 9029SOL    HW227112   1.562  11.498   2.070
 9030SOL     OW27113   1.303  12.010   1.904
 9030SOL    HW127114   1.337  11.917   1.919
 9030SOL    HW227115   1.321  12.037   1.809
 9031SOL     OW27116   1.068  12.505   2.711
 9031SOL    HW127117   1.075  12.421   2.656
 9031SOL    HW227118   1.130  12.574   2.675
 9032SOL     OW27119   0.319  11.982   2.811
 9032SOL    HW127120   0.412  12.018   2.816
 9032SOL    HW227121   0.313  11.897   2.863
 9033SOL     OW27122   0.339  11.681   2.868
 9033SOL    HW127123   0.287  11.598   2.851
 9033SOL    HW227124   0.416  11.686   2.804
 9034SOL     OW27125   1.160  11.379   3.339
 9034SOL    HW127126   1.160  11.443   3.416
 9034SOL    HW227127   1.188  11.427   3.256
 9035SOL     OW27128   0.008  12.498   2.062
 9035SOL    HW127129  -0.085  12.519   2.031
 9035SOL    HW227130   0.018  12.399   2.075
 9036SOL     OW27131   0.504  12.740   2.772
 9036SOL    HW127132   0.570  12.814   2.781
 9036SOL    HW227133   0.548  12.661   2.730
 9037SOL     OW27134   1.002  11.968   3.100
 9037SOL    HW127135   1.043  11.936   3.186
 9037SOL    HW227136   0.906  11.941   3.097
 9038SOL     OW27137   0.040  11.716   2.976
 9038SOL    HW127138   0.125  11.683   2.935
 9038SOL    HW227139   0.053  11.731   3.074
 9039SOL     OW27140   0.189  11.692   3.584
 9039SOL    HW127141   0.248  11.652   3.514
 9039SOL    HW227142   0.131  11.763   3.543
 9040SOL     OW27143   1.369  12.122   3.522
 9040SOL    HW127144   1.408  12.211   3.542
 9040SOL    HW227145   1.379  12.102   3.425
 9041SOL     OW27146   0.815  11.744   2.187
 9041SOL    HW127147   0.822  11.655   2.141
 9041SOL    HW227148   0.721  11.778   2.179
 9042SOL     OW27149   1.657  11.776   3.068
 9042SOL    HW127150   1.619  11.707   3.130
 9042SOL    HW227151   1.739  11.740   3.024
 9043SOL     OW27152   0.252  12.736   3.606
 9043SOL    HW127153   0.222  12.793   3.682
 9043SOL    HW227154   0.245  12.639   3.632
 9044SOL     OW27155   0.671  11.636   3.131
 9044SOL    HW127156   0.637  11.547   3.101
 9044SOL    HW227157   0.697  11.690   3.051
 9045SOL     OW27158   0.473  11.672   2.053
 9045SOL    HW127159   0.534  11.752   2.057
 9045SOL    HW227160   0.378  11.703   2.060
 9046SOL     OW27161   0.159  12.309   3.328
 9046SOL    HW127162   0.181  12.248   3.404
 9046SOL    HW227163   0.169  12.260   3.242
 9047SOL     OW27164   1.347  12.231   3.096
 9047SOL    HW127165   1.371  12.168   3.022
 9047SOL    HW227166   1.257  12.271   3.078
 9048SOL     OW27167   1.302  12.027   2.171
 9048SOL    HW127168   1.216  11.996   2.213
 9048SOL    HW227169   1.298  12.013   2.072
 9049SOL     OW27170   1.252  12.903   2.990
 9049SOL    HW127171   1.336  12.908   2.936
 9049SOL    HW227172   1.229  12.807   3.008
 9050SOL     OW27173   0.083  12.430   2.884
 9050SOL    HW127174   0.078  12.429   2.984
 9050SOL    HW227175   0.000  12.389   2.846
 9051SOL     OW27176   1.726  11.307   2.385
 9051SOL    HW127177   1.799  11.290   2.318
 9051SOL    HW227178   1.695  11.220   2.423
 9052SOL     OW27179   0.130  12.966   3.713
 9052SOL    HW127180   0.089  12.892   3.766
 9052SOL    HW227181   0.194  13.017   3.771
 9053SOL     OW27182   1.280  12.099   2.534
 9053SOL    HW127183   1.340  12.018   2.536
 9053SOL    HW227184   1.320  12.168   2.474
 9054SOL     OW27185   0.830  12.445   3.284
 9054SOL    HW127186   0.825  12.478   3.379
 9054SOL    HW227187   0.744  12.464   3.238
 9055SOL     OW27188   0.672  12.788   2.016
 9055SOL    HW127189   0.681  12.798   1.917
 9055SOL    HW227190   0.632  12.699   2.037
 9056SOL     OW27191   1.841  11.347   2.825
 9056SOL    HW127192   1.880  11.262   2.789
 9056SOL    HW227193   1.743  11.349   2.806
 9057SOL     OW27194   0.263  11.498   2.582
 9057SOL    HW127195   0.184  11.549   2.548
 9057SOL    HW227196   0.254  11.483   2.680
 9058SOL     OW27197   1.194  12.784   1.893
 9058SOL    HW127198   1.200  12.691   1.930
 9058SOL    HW227199   1.135  12.784   1.813
 9059SOL     OW27200   0.822  12.174   3.234
 9059SOL    HW127201   0.862  12.173   3.142
 9059SOL    HW227202   0.832  12.266   3.274
 9060SOL     OW27203   0.916  12.082   2.153
 9060SOL    HW127204   0.979  12.120   2.085
 9060SOL    HW227205   0.956  11.999   2.192
 9061SOL     OW27206   0.372  12.460   3.352
 9061SOL    HW127207   0.359  12.553   3.318
 9061SOL    HW227208   0.288  12.408   3.339
 9062SOL     OW27209   1.614  12.464   3.151
 9062SOL    HW127210   1.674  12.467   3.231
 9062SOL    HW227211   1.539  12.528   3.164
 9063SOL     OW27212   1.039  12.270   2.558
 9063SOL    HW127213   0.969  12.223   2.612
 9063SOL    HW227214   1.098  12.202   2.515
 9064SOL     OW27215   1.014  11.408   2.833
 9064SOL    HW127216   1.006  11.372   2.740
 9064SOL    HW227217   1.012  11.332   2.898
 9065SOL     OW27218   0.590  12.659   2.353
 9065SOL    HW127219   0.632  12.601   2.283
 9065SOL    HW227220   0.546  12.738   2.309
 9066SOL     OW27221   1.709  11.557   3.243
 9066SOL    HW127222   1.782  11.626   3.247
 9066SOL    HW227223   1.737  11.482   3.184
 9067SOL     OW27224   0.255  12.520   2.152
 9067SOL    HW127225   0.159  12.521   2.125
 9067SOL    HW227226   0.267  12.573   2.236
 9068SOL     OW27227   0.105  12.185   3.588
 9068SOL    HW127228   0.028  12.152   3.642
 9068SOL    HW227229   0.190  12.155   3.630
 9069SOL     OW27230   0.672  11.375   3.351
 9069SOL    HW127231   0.762  11.359   3.311
 9069SOL    HW227232   0.680  11.380   3.450
 9070SOL     OW27233   0.075  11.517   1.895
 9070SOL    HW127234  -0.017  11.489   1.866
 9070SOL    HW227235   0.106  11.594   1.839
 9071SOL     OW27236   1.440  12.028   3.260
 9071SOL    HW127237   1.383  12.080   3.197
 9071SOL    HW227238   1.536  12.040   3.236
 9072SOL     OW27239   0.072  11.338   2.180
 9072SOL    HW127240   0.055  11.421   2.126
 9072SOL    HW227241   0.162  11.301   2.158
 9073SOL     OW27242   1.183  12.507   1.981
 9073SOL    HW127243   1.084  12.496   1.983
 9073SOL    HW227244   1.217  12.522   2.074
 9074SOL     OW27245   0.613  12.014   3.293
 9074SOL    HW127246   0.669  12.095   3.276
 9074SOL    HW227247   0.672  11.934   3.296
 9075SOL     OW27248   0.716  11.737   3.570
 9075SOL    HW127249   0.735  11.802   3.644
 9075SOL    HW227250   0.776  11.657   3.579
 9076SOL     OW27251   1.450  12.392   3.495
 9076SOL    HW127252   1.441  12.382   3.594
 9076SOL    HW227253   1.546  12.385   3.469
 9077SOL     OW27254   1.674  12.055   3.116
 9077SOL    HW127255   1.647  11.966   3.079
 9077SOL    HW227256   1.675  12.123   3.043
 9078SOL     OW27257   1.225  11.497   2.311
 9078SOL    HW127258   1.290  11.423   2.300
 9078SOL    HW227259   1.245  11.547   2.395
 9079SOL     OW27260   0.594  11.917   2.514
 9079SOL    HW127261   0.644  12.002   2.495
 9079SOL    HW227262   0.506  11.919   2.466
 9080SOL     OW27263   1.777  11.514   3.504
 9080SOL    HW127264   1.760  11.545   3.410
 9080SOL    HW227265   1.693  11.477   3.542
 9081SOL     OW27266   1.730  12.106   3.379
 9081SOL    HW127267   1.768  12.197   3.394
 9081SOL    HW227268   1.722  12.089   3.280
 9082SOL     OW27269   0.859  12.546   1.878
 9082SOL    HW127270   0.813  12.561   1.966
 9082SOL    HW227271   0.903  12.631   1.848
 9083SOL     OW27272   0.859  12.128   2.723
 9083SOL    HW127273   0.913  12.059   2.771
 9083SOL    HW227274   0.827  12.197   2.789
 9084SOL     OW27275   1.083  12.156   1.949
 9084SOL    HW127276   1.060  12.209   1.867
 9084SOL    HW227277   1.164  12.100   1.930
 9085SOL     OW27278   1.861  12.741   2.713
 9085SOL    HW127279   1.790  12.729   2.643
 9085SOL    HW227280   1.862  12.662   2.773
 9086SOL     OW27281   0.221  12.486   3.706
 9086SOL    HW127282   0.156  12.413   3.685
 9086SOL    HW227283   0.225  12.500   3.804
 9087SOL     OW27284   0.079  12.412   2.515
 9087SOL    HW127285   0.078  12.365   2.603
 9087SOL    HW227286   0.161  12.384   2.464
 9088SOL     OW27287   0.672  12.563   3.486
 9088SOL    HW127288   0.594  12.513   3.524
 9088SOL    HW227289   0.669  12.658   3.517
 9089SOL     OW27290   1.824  11.364   3.089
 9089SOL    HW127291   1.820  11.274   3.133
 9089SOL    HW227292   1.827  11.353   2.990
 9090SOL     OW27293   0.428  11.596   2.382
 9090SOL    HW127294   0.458  11.524   2.320
 9090SOL    HW227295   0.389  11.556   2.465
 9091SOL     OW27296   1.705  12.659   2.966
 9091SOL    HW127297   1.612  12.634   2.939
 9091SOL    HW227298   1.731  12.609   3.048
 9092SOL     OW27299   0.317  11.719   3.142
 9092SOL    HW127300   0.355  11.660   3.214
 9092SOL    HW227301   0.357  11.693   3.054
 9093SOL     OW27302   1.424  11.386   2.974
 9093SOL    HW127303   1.476  11.321   3.029
 9093SOL    HW227304   1.375  11.449   3.035
 9094SOL     OW27305   1.001  11.206   3.016
 9094SOL    HW127306   0.938  11.134   2.985
 9094SOL    HW227307   1.094  11.170   3.016
 9095SOL     OW27308   0.770  12.502   2.163
 9095SOL    HW127309   0.724  12.415   2.180
 9095SOL    HW227310   0.861  12.499   2.204
 9096SOL     OW27311   0.618  12.739   3.146
 9096SOL    HW127312   0.613  12.821   3.203
 9096SOL    HW227313   0.707  12.736   3.101
 9097SOL     OW27314   1.352  11.224   2.030
 9097SOL    HW127315   1.387  11.183   1.946
 9097SOL    HW227316   1.262  11.186   2.050
 9098SOL     OW27317   1.300  11.625   2.553
 9098SOL    HW127318   1.241  11.705   2.557
 9098SOL    HW227319   1.315  11.590   2.646
 9099SOL     OW27320   1.593  11.393   2.744
 9099SOL    HW127321   1.509  11.392   2.798
 9099SOL    HW227322   1.595  11.476   2.688
 9100SOL     OW27323   0.039  12.249   2.162
 9100SOL    HW127324   0.138  12.238   2.153
 9100SOL    HW227325  -0.001  12.163   2.194
 9101SOL     OW27326   0.230  11.800   3.837
 9101SOL    HW127327   0.137  11.798   3.874
 9101SOL    HW227328   0.231  11.761   3.745
 9102SOL     OW27329   0.225  11.447   4.720
 9102SOL    HW127330   0.260  11.430   4.812
 9102SOL    HW227331   0.137  11.402   4.708
 9103SOL     OW27332   0.019  11.540   4.371
 9103SOL    HW127333  -0.063  11.583   4.410
 9103SOL    HW227334  -0.009  11.467   4.308
 9104SOL     OW27335   0.569  12.447   4.889
 9104SOL    HW127336   0.476  12.440   4.852
 9104SOL    HW227337   0.580  12.536   4.933
 9105SOL     OW27338   1.555  12.683   4.427
 9105SOL    HW127339   1.498  12.667   4.508
 9105SOL    HW227340   1.496  12.693   4.347
 9106SOL     OW27341   1.135  11.875   4.441
 9106SOL    HW127342   1.192  11.953   4.416
 9106SOL    HW227343   1.075  11.901   4.517
 9107SOL     OW27344   1.755  11.779   3.955
 9107SOL    HW127345   1.743  11.766   3.856
 9107SOL    HW227346   1.725  11.698   4.004
 9108SOL     OW27347   0.768  12.316   4.747
 9108SOL    HW127348   0.690  12.333   4.807
 9108SOL    HW227349   0.802  12.403   4.711
 9109SOL     OW27350   0.850  11.970   5.547
 9109SOL    HW127351   0.846  12.046   5.612
 9109SOL    HW227352   0.872  12.006   5.456
 9110SOL     OW27353   0.685  12.184   4.389
 9110SOL    HW127354   0.754  12.168   4.459
 9110SOL    HW227355   0.612  12.241   4.427
 9111SOL     OW27356   0.686  12.333   5.527
 9111SOL    HW127357   0.746  12.412   5.541
 9111SOL    HW227358   0.600  12.364   5.486
 9112SOL     OW27359   0.335  12.607   4.785
 9112SOL    HW127360   0.257  12.576   4.732
 9112SOL    HW227361   0.393  12.665   4.728
 9113SOL     OW27362   1.460  12.677   5.063
 9113SOL    HW127363   1.484  12.771   5.089
 9113SOL    HW227364   1.444  12.623   5.145
 9114SOL     OW27365   0.438  11.564   5.223
 9114SOL    HW127366   0.520  11.508   5.232
 9114SOL    HW227367   0.357  11.506   5.227
 9115SOL     OW27368   1.603  11.619   4.461
 9115SOL    HW127369   1.529  11.665   4.411
 9115SOL    HW227370   1.654  11.687   4.514
 9116SOL     OW27371   1.127  12.513   5.414
 9116SOL    HW127372   1.174  12.513   5.502
 9116SOL    HW227373   1.079  12.426   5.403
 9117SOL     OW27374   0.230  12.606   4.262
 9117SOL    HW127375   0.204  12.702   4.262
 9117SOL    HW227376   0.159  12.552   4.307
 9118SOL     OW27377   0.240  12.263   4.610
 9118SOL    HW127378   0.254  12.179   4.662
 9118SOL    HW227379   0.185  12.327   4.665
 9119SOL     OW27380   0.606  12.136   3.847
 9119SOL    HW127381   0.613  12.220   3.793
 9119SOL    HW227382   0.652  12.149   3.935
 9120SOL     OW27383   1.594  11.286   5.204
 9120SOL    HW127384   1.576  11.353   5.132
 9120SOL    HW227385   1.591  11.332   5.293
 9121SOL     OW27386   0.122  11.815   4.287
 9121SOL    HW127387   0.077  11.727   4.304
 9121SOL    HW227388   0.121  11.869   4.371
 9122SOL     OW27389   0.027  12.768   3.841
 9122SOL    HW127390   0.008  12.672   3.862
 9122SOL    HW227391  -0.006  12.826   3.916
 9123SOL     OW27392   1.689  12.094   4.336
 9123SOL    HW127393   1.784  12.065   4.344
 9123SOL    HW227394   1.681  12.159   4.261
 9124SOL     OW27395   1.641  12.280   4.156
 9124SOL    HW127396   1.727  12.282   4.104
 9124SOL    HW227397   1.655  12.327   4.244
 9125SOL     OW27398   0.113  11.909   5.321
 9125SOL    HW127399   0.201  11.896   5.366
 9125SOL    HW227400   0.100  12.006   5.299
 9126SOL     OW27401   0.613  12.537   4.450
 9126SOL    HW127402   0.564  12.450   4.459
 9126SOL    HW227403   0.590  12.580   4.363
 9127SOL     OW27404   1.293  12.400   5.147
 9127SOL    HW127405   1.330  12.327   5.089
 9127SOL    HW227406   1.345  12.405   5.232
 9128SOL     OW27407   0.809  11.176   4.226
 9128SOL    HW127408   0.849  11.267   4.217
 9128SOL    HW227409   0.709  11.184   4.232
 9129SOL     OW27410   0.197  12.148   4.988
 9129SOL    HW127411   0.286  12.103   4.974
 9129SOL    HW227412   0.124  12.083   4.969
 9130SOL     OW27413   1.525  12.171   3.914
 9130SOL    HW127414   1.462  12.095   3.927
 9130SOL    HW227415   1.573  12.189   4.000
 9131SOL     OW27416   0.317  11.423   5.525
 9131SOL    HW127417   0.388  11.494   5.531
 9131SOL    HW227418   0.229  11.462   5.553
 9132SOL     OW27419   1.466  12.589   4.677
 9132SOL    HW127420   1.407  12.595   4.757
 9132SOL    HW227421   1.451  12.501   4.631
 9133SOL     OW27422   0.598  11.901   3.994
 9133SOL    HW127423   0.622  11.970   3.926
 9133SOL    HW227424   0.520  11.934   4.048
 9134SOL     OW27425   1.281  11.517   4.668
 9134SOL    HW127426   1.195  11.467   4.655
 9134SOL    HW227427   1.343  11.463   4.724
 9135SOL     OW27428   1.576  12.834   4.031
 9135SOL    HW127429   1.665  12.880   4.034
 9135SOL    HW227430   1.555  12.810   3.936
 9136SOL     OW27431   0.807  11.777   5.189
 9136SOL    HW127432   0.760  11.774   5.278
 9136SOL    HW227433   0.756  11.722   5.123
 9137SOL     OW27434   1.394  11.641   5.398
 9137SOL    HW127435   1.374  11.684   5.486
 9137SOL    HW227436   1.472  11.579   5.407
 9138SOL     OW27437   0.973  12.062   5.296
 9138SOL    HW127438   1.019  11.978   5.267
 9138SOL    HW227439   0.917  12.096   5.221
 9139SOL     OW27440   0.991  11.582   4.966
 9139SOL    HW127441   0.914  11.616   5.020
 9139SOL    HW227442   0.957  11.531   4.887
 9140SOL     OW27443   1.041  11.873   4.153
 9140SOL    HW127444   1.067  11.869   4.249
 9140SOL    HW227445   0.956  11.822   4.139
 9141SOL     OW27446   0.076  11.983   4.513
 9141SOL    HW127447   0.175  11.971   4.522
 9141SOL    HW227448   0.052  12.078   4.534
 9142SOL     OW27449   0.865  11.520   3.919
 9142SOL    HW127450   0.924  11.583   3.870
 9142SOL    HW227451   0.884  11.426   3.890
 9143SOL     OW27452   1.719  11.757   5.555
 9143SOL    HW127453   1.693  11.846   5.519
 9143SOL    HW227454   1.717  11.689   5.482
 9144SOL     OW27455   1.362  12.316   4.269
 9144SOL    HW127456   1.445  12.287   4.221
 9144SOL    HW227457   1.313  12.383   4.213
 9145SOL     OW27458   0.550  11.368   4.609
 9145SOL    HW127459   0.545  11.363   4.709
 9145SOL    HW227460   0.552  11.464   4.580
 9146SOL     OW27461   1.008  12.628   4.201
 9146SOL    HW127462   0.962  12.700   4.149
 9146SOL    HW227463   1.004  12.648   4.299
 9147SOL     OW27464   1.795  12.238   4.597
 9147SOL    HW127465   1.733  12.223   4.521
 9147SOL    HW227466   1.743  12.249   4.682
 9148SOL     OW27467   1.227  12.722   5.230
 9148SOL    HW127468   1.233  12.645   5.294
 9148SOL    HW227469   1.175  12.696   5.150
 9149SOL     OW27470   0.321  12.115   3.966
 9149SOL    HW127471   0.403  12.154   3.924
 9149SOL    HW227472   0.294  12.033   3.917
 9150SOL     OW27473   1.458  11.907   4.452
 9150SOL    HW127474   1.453  11.842   4.527
 9150SOL    HW227475   1.538  11.966   4.465
 9151SOL     OW27476   0.461  12.438   5.451
 9151SOL    HW127477   0.411  12.439   5.365
 9151SOL    HW227478   0.398  12.420   5.527
 9152SOL     OW27479   0.202  11.457   5.222
 9152SOL    HW127480   0.122  11.517   5.209
 9152SOL    HW227481   0.192  11.408   5.308
 9153SOL     OW27482   1.632  12.549   3.805
 9153SOL    HW127483   1.600  12.643   3.795
 9153SOL    HW227484   1.556  12.486   3.793
 9154SOL     OW27485   1.400  11.279   4.150
 9154SOL    HW127486   1.376  11.242   4.060
 9154SOL    HW227487   1.499  11.295   4.154
 9155SOL     OW27488   0.382  11.872   4.204
 9155SOL    HW127489   0.427  11.782   4.201
 9155SOL    HW227490   0.288  11.861   4.237
 9156SOL     OW27491   1.547  11.394   5.453
 9156SOL    HW127492   1.542  11.431   5.545
 9156SOL    HW227493   1.475  11.325   5.441
 9157SOL     OW27494   0.614  11.294   3.841
 9157SOL    HW127495   0.712  11.272   3.848
 9157SOL    HW227496   0.583  11.277   3.748
 9158SOL     OW27497   0.781  11.436   5.473
 9158SOL    HW127498   0.848  11.375   5.516
 9158SOL    HW227499   0.708  11.455   5.538
 9159SOL     OW27500   1.351  11.762   5.157
 9159SOL    HW127501   1.379  11.719   5.242
 9159SOL    HW227502   1.376  11.858   5.158
 9160SOL     OW27503   0.803  12.574   4.648
 9160SOL    HW127504   0.893  12.588   4.606
 9160SOL    HW227505   0.732  12.576   4.577
 9161SOL     OW27506   0.922  11.675   4.623
 9161SOL    HW127507   0.897  11.666   4.527
 9161SOL    HW227508   0.970  11.593   4.654
 9162SOL     OW27509   0.539  11.236   4.236
 9162SOL    HW127510   0.458  11.237   4.294
 9162SOL    HW227511   0.542  11.319   4.181
 9163SOL     OW27512   1.434  12.360   3.765
 9163SOL    HW127513   1.466  12.284   3.822
 9163SOL    HW227514   1.342  12.387   3.795
 9164SOL     OW27515   0.297  11.207   3.895
 9164SOL    HW127516   0.346  11.291   3.874
 9164SOL    HW227517   0.359  11.142   3.940
 9165SOL     OW27518   0.935  11.408   4.204
 9165SOL    HW127519   0.887  11.449   4.126
 9165SOL    HW227520   1.034  11.406   4.185
 9166SOL     OW27521   1.076  11.855   5.188
 9166SOL    HW127522   0.996  11.794   5.191
 9166SOL    HW227523   1.157  11.802   5.164
 9167SOL     OW27524   1.227  12.742   4.517
 9167SOL    HW127525   1.248  12.816   4.452
 9167SOL    HW227526   1.295  12.742   4.590
 9168SOL     OW27527   0.459  12.324   4.465
 9168SOL    HW127528   0.388  12.297   4.530
 9168SOL    HW227529   0.433  12.296   4.372
 9169SOL     OW27530   1.032  11.721   3.740
 9169SOL    HW127531   0.991  11.803   3.701
 9169SOL    HW227532   1.096  11.747   3.813
 9170SOL     OW27533   0.078  11.728   5.110
 9170SOL    HW127534   0.170  11.727   5.069
 9170SOL    HW227535   0.072  11.802   5.177
 9171SOL     OW27536   0.561  11.394   4.871
 9171SOL    HW127537   0.599  11.310   4.908
 9171SOL    HW227538   0.473  11.413   4.915
 9172SOL     OW27539   0.866  11.626   4.366
 9172SOL    HW127540   0.834  11.698   4.304
 9172SOL    HW227541   0.890  11.545   4.313
 9173SOL     OW27542   1.017  11.211   4.477
 9173SOL    HW127543   0.945  11.216   4.408
 9173SOL    HW227544   0.993  11.142   4.546
 9174SOL     OW27545   1.429  12.345   4.591
 9174SOL    HW127546   1.374  12.261   4.584
 9174SOL    HW227547   1.455  12.374   4.499
 9175SOL     OW27548   1.466  11.762   4.716
 9175SOL    HW127549   1.436  11.667   4.723
 9175SOL    HW227550   1.539  11.778   4.782
 9176SOL     OW27551   1.857  12.005   4.101
 9176SOL    HW127552   1.899  11.941   4.165
 9176SOL    HW227553   1.819  11.954   4.023
 9177SOL     OW27554   0.488  12.557   3.898
 9177SOL    HW127555   0.401  12.542   3.945
 9177SOL    HW227556   0.471  12.583   3.803
 9178SOL     OW27557   1.664  12.452   4.381
 9178SOL    HW127558   1.763  12.460   4.395
 9178SOL    HW227559   1.619  12.536   4.412
 9179SOL     OW27560   1.390  11.747   3.802
 9179SOL    HW127561   1.336  11.726   3.883
 9179SOL    HW227562   1.481  11.706   3.811
 9180SOL     OW27563   0.527  11.428   4.052
 9180SOL    HW127564   0.554  11.369   3.977
 9180SOL    HW227565   0.527  11.523   4.021
 9181SOL     OW27566   1.754  12.395   5.312
 9181SOL    HW127567   1.845  12.356   5.299
 9181SOL    HW227568   1.762  12.491   5.336
 9182SOL     OW27569   1.064  12.519   5.064
 9182SOL    HW127570   0.984  12.496   5.119
 9182SOL    HW227571   1.147  12.493   5.113
 9183SOL     OW27572   1.111  12.367   4.824
 9183SOL    HW127573   1.071  12.411   4.905
 9183SOL    HW227574   1.070  12.404   4.741
 9184SOL     OW27575   1.638  12.271   4.803
 9184SOL    HW127576   1.643  12.352   4.862
 9184SOL    HW227577   1.552  12.273   4.752
 9185SOL     OW27578   0.915  11.261   5.126
 9185SOL    HW127579   0.940  11.241   5.031
 9185SOL    HW227580   0.987  11.317   5.168
 9186SOL     OW27581   0.980  12.288   5.443
 9186SOL    HW127582   0.881  12.294   5.453
 9186SOL    HW227583   1.003  12.208   5.387
 9187SOL     OW27584   0.705  12.222   4.092
 9187SOL    HW127585   0.691  12.229   4.191
 9187SOL    HW227586   0.789  12.171   4.074
 9188SOL     OW27587   0.410  11.985   4.975
 9188SOL    HW127588   0.496  11.997   5.025
 9188SOL    HW227589   0.368  11.898   5.002
 9189SOL     OW27590   1.274  11.558   4.986
 9189SOL    HW127591   1.295  11.632   5.050
 9189SOL    HW227592   1.185  11.575   4.943
 9190SOL     OW27593   0.367  12.272   4.225
 9190SOL    HW127594   0.360  12.355   4.169
 9190SOL    HW227595   0.371  12.192   4.165
 9191SOL     OW27596   0.566  11.709   4.589
 9191SOL    HW127597   0.578  11.775   4.515
 9191SOL    HW227598   0.612  11.743   4.672
 9192SOL     OW27599   1.252  12.520   4.112
 9192SOL    HW127600   1.302  12.597   4.152
 9192SOL    HW227601   1.157  12.522   4.144
 9193SOL     OW27602   1.272  12.617   4.866
 9193SOL    HW127603   1.319  12.630   4.953
 9193SOL    HW227604   1.206  12.543   4.875
 9194SOL     OW27605   1.582  11.811   4.196
 9194SOL    HW127606   1.551  11.872   4.269
 9194SOL    HW227607   1.632  11.863   4.127
 9195SOL     OW27608   0.354  12.682   5.053
 9195SOL    HW127609   0.333  12.638   4.966
 9195SOL    HW227610   0.451  12.708   5.056
 9196SOL     OW27611   0.402  11.923   5.322
 9196SOL    HW127612   0.470  11.978   5.275
 9196SOL    HW227613   0.442  11.835   5.349
 9197SOL     OW27614   1.587  11.951   5.394
 9197SOL    HW127615   1.495  11.989   5.389
 9197SOL    HW227616   1.647  11.998   5.329
 9198SOL     OW27617   1.013  11.277   5.494
 9198SOL    HW127618   1.019  11.362   5.442
 9198SOL    HW227619   1.045  11.201   5.437
 9199SOL     OW27620   0.504  11.222   5.464
 9199SOL    HW127621   0.462  11.165   5.394
 9199SOL    HW227622   0.438  11.291   5.496
 9200SOL     OW27623   0.573  12.042   4.753
 9200SOL    HW127624   0.617  12.131   4.744
 9200SOL    HW227625   0.510  12.042   4.830
 9201SOL     OW27626   1.360  12.034   4.769
 9201SOL    HW127627   1.285  12.034   4.703
 9201SOL    HW227628   1.397  11.942   4.778
 9202SOL     OW27629   1.209  11.697   3.999
 9202SOL    HW127630   1.222  11.613   4.053
 9202SOL    HW227631   1.180  11.771   4.059
 9203SOL     OW27632   0.307  11.385   4.955
 9203SOL    HW127633   0.284  11.422   5.045
 9203SOL    HW227634   0.277  11.290   4.949
 9204SOL     OW27635   0.037  12.482   5.006
 9204SOL    HW127636   0.090  12.433   5.074
 9204SOL    HW227637   0.059  12.580   5.011
 9205SOL     OW27638   0.732  11.806   4.788
 9205SOL    HW127639   0.791  11.780   4.712
 9205SOL    HW227640   0.704  11.902   4.777
 9206SOL     OW27641   1.728  12.107   5.578
 9206SOL    HW127642   1.682  12.100   5.489
 9206SOL    HW227643   1.666  12.151   5.644
 9207SOL     OW27644   0.307  11.235   4.342
 9207SOL    HW127645   0.296  11.329   4.375
 9207SOL    HW227646   0.302  11.172   4.419
 9208SOL     OW27647   1.622  11.539   4.098
 9208SOL    HW127648   1.624  11.463   4.162
 9208SOL    HW227649   1.574  11.616   4.138
 9209SOL     OW27650   1.023  11.938   4.690
 9209SOL    HW127651   1.038  11.959   4.786
 9209SOL    HW227652   0.993  11.843   4.681
 9210SOL     OW27653   1.859  12.690   5.329
 9210SOL    HW127654   1.873  12.717   5.234
 9210SOL    HW227655   1.942  12.712   5.382
 9211SOL     OW27656   0.350  12.070   5.528
 9211SOL    HW127657   0.426  12.114   5.576
 9211SOL    HW227658   0.385  12.023   5.446
 9212SOL     OW27659   1.540  11.446   3.849
 9212SOL    HW127660   1.479  11.371   3.872
 9212SOL    HW227661   1.562  11.498   3.932
 9213SOL     OW27662   1.303  12.010   3.766
 9213SOL    HW127663   1.337  11.917   3.781
 9213SOL    HW227664   1.321  12.037   3.671
 9214SOL     OW27665   1.068  12.505   4.573
 9214SOL    HW127666   1.075  12.421   4.518
 9214SOL    HW227667   1.130  12.574   4.537
 9215SOL     OW27668   0.319  11.982   4.673
 9215SOL    HW127669   0.412  12.018   4.678
 9215SOL    HW227670   0.313  11.897   4.725
 9216SOL     OW27671   0.339  11.681   4.730
 9216SOL    HW127672   0.287  11.598   4.713
 9216SOL    HW227673   0.416  11.686   4.666
 9217SOL     OW27674   1.138  11.552   5.402
 9217SOL    HW127675   1.093  11.615   5.466
 9217SOL    HW227676   1.231  11.583   5.385
 9218SOL     OW27677   1.160  11.379   5.201
 9218SOL    HW127678   1.160  11.443   5.278
 9218SOL    HW227679   1.188  11.427   5.118
 9219SOL     OW27680   0.008  12.498   3.924
 9219SOL    HW127681  -0.085  12.519   3.893
 9219SOL    HW227682   0.018  12.399   3.937
 9220SOL     OW27683   0.504  12.740   4.634
 9220SOL    HW127684   0.570  12.814   4.643
 9220SOL    HW227685   0.548  12.661   4.592
 9221SOL     OW27686   1.002  11.968   4.962
 9221SOL    HW127687   1.043  11.936   5.048
 9221SOL    HW227688   0.906  11.941   4.959
 9222SOL     OW27689   0.040  11.716   4.838
 9222SOL    HW127690   0.125  11.683   4.797
 9222SOL    HW227691   0.053  11.731   4.936
 9223SOL     OW27692   0.189  11.692   5.446
 9223SOL    HW127693   0.248  11.652   5.376
 9223SOL    HW227694   0.131  11.763   5.405
 9224SOL     OW27695   1.369  12.122   5.384
 9224SOL    HW127696   1.408  12.211   5.404
 9224SOL    HW227697   1.379  12.102   5.287
 9225SOL     OW27698   0.815  11.744   4.049
 9225SOL    HW127699   0.822  11.655   4.003
 9225SOL    HW227700   0.721  11.778   4.041
 9226SOL     OW27701   1.657  11.776   4.930
 9226SOL    HW127702   1.619  11.707   4.992
 9226SOL    HW227703   1.739  11.740   4.886
 9227SOL     OW27704   0.252  12.736   5.468
 9227SOL    HW127705   0.222  12.793   5.544
 9227SOL    HW227706   0.245  12.639   5.494
 9228SOL     OW27707   0.671  11.636   4.993
 9228SOL    HW127708   0.637  11.547   4.963
 9228SOL    HW227709   0.697  11.690   4.913
 9229SOL     OW27710   0.473  11.672   3.915
 9229SOL    HW127711   0.534  11.752   3.919
 9229SOL    HW227712   0.378  11.703   3.922
 9230SOL     OW27713   0.159  12.309   5.190
 9230SOL    HW127714   0.181  12.248   5.266
 9230SOL    HW227715   0.169  12.260   5.104
 9231SOL     OW27716   1.347  12.231   4.958
 9231SOL    HW127717   1.371  12.168   4.884
 9231SOL    HW227718   1.257  12.271   4.940
 9232SOL     OW27719   1.302  12.027   4.033
 9232SOL    HW127720   1.216  11.996   4.075
 9232SOL    HW227721   1.298  12.013   3.934
 9233SOL     OW27722   1.252  12.903   4.852
 9233SOL    HW127723   1.336  12.908   4.798
 9233SOL    HW227724   1.229  12.807   4.870
 9234SOL     OW27725   0.083  12.430   4.746
 9234SOL    HW127726   0.078  12.429   4.846
 9234SOL    HW227727   0.000  12.389   4.708
 9235SOL     OW27728   1.726  11.307   4.247
 9235SOL    HW127729   1.799  11.290   4.180
 9235SOL    HW227730   1.695  11.220   4.285
 9236SOL     OW27731   0.130  12.966   5.575
 9236SOL    HW127732   0.089  12.892   5.628
 9236SOL    HW227733   0.194  13.017   5.633
 9237SOL     OW27734   1.280  12.099   4.396
 9237SOL    HW127735   1.340  12.018   4.398
 9237SOL    HW227736   1.320  12.168   4.336
 9238SOL     OW27737   0.830  12.445   5.146
 9238SOL    HW127738   0.825  12.478   5.241
 9238SOL    HW227739   0.744  12.464   5.100
 9239SOL     OW27740   0.672  12.788   3.878
 9239SOL    HW127741   0.681  12.798   3.779
 9239SOL    HW227742   0.632  12.699   3.899
 9240SOL     OW27743   1.841  11.347   4.687
 9240SOL    HW127744   1.880  11.262   4.651
 9240SOL    HW227745   1.743  11.349   4.668
 9241SOL     OW27746   0.263  11.498   4.444
 9241SOL    HW127747   0.184  11.549   4.410
 9241SOL    HW227748   0.254  11.483   4.542
 9242SOL     OW27749   1.194  12.784   3.755
 9242SOL    HW127750   1.200  12.691   3.792
 9242SOL    HW227751   1.135  12.784   3.675
 9243SOL     OW27752   0.822  12.174   5.096
 9243SOL    HW127753   0.862  12.173   5.004
 9243SOL    HW227754   0.832  12.266   5.136
 9244SOL     OW27755   0.916  12.082   4.015
 9244SOL    HW127756   0.979  12.120   3.947
 9244SOL    HW227757   0.956  11.999   4.054
 9245SOL     OW27758   0.372  12.460   5.214
 9245SOL    HW127759   0.359  12.553   5.180
 9245SOL    HW227760   0.288  12.408   5.201
 9246SOL     OW27761   1.614  12.464   5.013
 9246SOL    HW127762   1.674  12.467   5.093
 9246SOL    HW227763   1.539  12.528   5.026
 9247SOL     OW27764   1.039  12.270   4.420
 9247SOL    HW127765   0.969  12.223   4.474
 9247SOL    HW227766   1.098  12.202   4.377
 9248SOL     OW27767   1.014  11.408   4.695
 9248SOL    HW127768   1.006  11.372   4.602
 9248SOL    HW227769   1.012  11.332   4.760
 9249SOL     OW27770   0.590  12.659   4.215
 9249SOL    HW127771   0.632  12.601   4.145
 9249SOL    HW227772   0.546  12.738   4.171
 9250SOL     OW27773   1.709  11.557   5.105
 9250SOL    HW127774   1.782  11.626   5.109
 9250SOL    HW227775   1.737  11.482   5.046
 9251SOL     OW27776   0.255  12.520   4.014
 9251SOL    HW127777   0.159  12.521   3.987
 9251SOL    HW227778   0.267  12.573   4.098
 9252SOL     OW27779   0.105  12.185   5.450
 9252SOL    HW127780   0.028  12.152   5.504
 9252SOL    HW227781   0.190  12.155   5.492
 9253SOL     OW27782   0.672  11.375   5.213
 9253SOL    HW127783   0.762  11.359   5.173
 9253SOL    HW227784   0.680  11.380   5.312
 9254SOL     OW27785   0.075  11.517   3.757
 9254SOL    HW127786  -0.017  11.489   3.728
 9254SOL    HW227787   0.106  11.594   3.701
 9255SOL     OW27788   1.440  12.028   5.122
 9255SOL    HW127789   1.383  12.080   5.059
 9255SOL    HW227790   1.536  12.040   5.098
 9256SOL     OW27791   0.072  11.338   4.042
 9256SOL    HW127792   0.055  11.421   3.988
 9256SOL    HW227793   0.162  11.301   4.020
 9257SOL     OW27794   1.183  12.507   3.843
 9257SOL    HW127795   1.084  12.496   3.845
 9257SOL    HW227796   1.217  12.522   3.936
 9258SOL     OW27797   0.613  12.014   5.155
 9258SOL    HW127798   0.669  12.095   5.138
 9258SOL    HW227799   0.672  11.934   5.158
 9259SOL     OW27800   0.716  11.737   5.432
 9259SOL    HW127801   0.735  11.802   5.506
 9259SOL    HW227802   0.776  11.657   5.441
 9260SOL     OW27803   1.450  12.392   5.357
 9260SOL    HW127804   1.441  12.382   5.456
 9260SOL    HW227805   1.546  12.385   5.331
 9261SOL     OW27806   1.674  12.055   4.978
 9261SOL    HW127807   1.647  11.966   4.941
 9261SOL    HW227808   1.675  12.123   4.905
 9262SOL     OW27809   1.225  11.497   4.173
 9262SOL    HW127810   1.290  11.423   4.162
 9262SOL    HW227811   1.245  11.547   4.257
 9263SOL     OW27812   0.594  11.917   4.376
 9263SOL    HW127813   0.644  12.002   4.357
 9263SOL    HW227814   0.506  11.919   4.328
 9264SOL     OW27815   1.777  11.514   5.366
 9264SOL    HW127816   1.760  11.545   5.272
 9264SOL    HW227817   1.693  11.477   5.404
 9265SOL     OW27818   1.730  12.106   5.241
 9265SOL    HW127819   1.768  12.197   5.256
 9265SOL    HW227820   1.722  12.089   5.142
 9266SOL     OW27821   0.859  12.546   3.740
 9266SOL    HW127822   0.813  12.561   3.828
 9266SOL    HW227823   0.903  12.631   3.710
 9267SOL     OW27824   0.859  12.128   4.585
 9267SOL    HW127825   0.913  12.059   4.633
 9267SOL    HW227826   0.827  12.197   4.651
 9268SOL     OW27827   1.083  12.156   3.811
 9268SOL    HW127828   1.060  12.209   3.729
 9268SOL    HW227829   1.164  12.100   3.792
 9269SOL     OW27830   1.861  12.741   4.575
 9269SOL    HW127831   1.790  12.729   4.505
 9269SOL    HW227832   1.862  12.662   4.635
 9270SOL     OW27833   0.221  12.486   5.568
 9270SOL    HW127834   0.156  12.413   5.547
 9270SOL    HW227835   0.225  12.500   5.666
 9271SOL     OW27836   0.079  12.412   4.377
 9271SOL    HW127837   0.078  12.365   4.465
 9271SOL    HW227838   0.161  12.384   4.326
 9272SOL     OW27839   0.672  12.563   5.348
 9272SOL    HW127840   0.594  12.513   5.386
 9272SOL    HW227841   0.669  12.658   5.379
 9273SOL     OW27842   1.824  11.364   4.951
 9273SOL    HW127843   1.820  11.274   4.995
 9273SOL    HW227844   1.827  11.353   4.852
 9274SOL     OW27845   0.428  11.596   4.244
 9274SOL    HW127846   0.458  11.524   4.182
 9274SOL    HW227847   0.389  11.556   4.327
 9275SOL     OW27848   1.705  12.659   4.828
 9275SOL    HW127849   1.612  12.634   4.801
 9275SOL    HW227850   1.731  12.609   4.910
 9276SOL     OW27851   0.317  11.719   5.004
 9276SOL    HW127852   0.355  11.660   5.076
 9276SOL    HW227853   0.357  11.693   4.916
 9277SOL     OW27854   1.424  11.386   4.836
 9277SOL    HW127855   1.476  11.321   4.891
 9277SOL    HW227856   1.375  11.449   4.897
 9278SOL     OW27857   1.001  11.206   4.878
 9278SOL    HW127858   0.938  11.134   4.847
 9278SOL    HW227859   1.094  11.170   4.878
 9279SOL     OW27860   0.770  12.502   4.025
 9279SOL    HW127861   0.724  12.415   4.042
 9279SOL    HW227862   0.861  12.499   4.066
 9280SOL     OW27863   0.618  12.739   5.008
 9280SOL    HW127864   0.613  12.821   5.065
 9280SOL    HW227865   0.707  12.736   4.963
 9281SOL     OW27866   1.352  11.224   3.892
 9281SOL    HW127867   1.387  11.183   3.808
 9281SOL    HW227868   1.262  11.186   3.912
 9282SOL     OW27869   1.300  11.625   4.415
 9282SOL    HW127870   1.241  11.705   4.419
 9282SOL    HW227871   1.315  11.590   4.508
 9283SOL     OW27872   1.593  11.393   4.606
 9283SOL    HW127873   1.509  11.392   4.660
 9283SOL    HW227874   1.595  11.476   4.550
 9284SOL     OW27875   0.039  12.249   4.024
 9284SOL    HW127876   0.138  12.238   4.015
 9284SOL    HW227877  -0.001  12.163   4.056
 9285SOL     OW27878   0.230  11.800   5.699
 9285SOL    HW127879   0.137  11.798   5.736
 9285SOL    HW227880   0.231  11.761   5.607
 9286SOL     OW27881   0.225  11.447   6.582
 9286SOL    HW127882   0.260  11.430   6.674
 9286SOL    HW227883   0.137  11.402   6.570
 9287SOL     OW27884   0.019  11.540   6.233
 9287SOL    HW127885  -0.063  11.583   6.272
 9287SOL    HW227886  -0.009  11.467   6.170
 9288SOL     OW27887   0.569  12.447   6.751
 9288SOL    HW127888   0.476  12.440   6.714
 9288SOL    HW227889   0.580  12.536   6.795
 9289SOL     OW27890   1.555  12.683   6.289
 9289SOL    HW127891   1.498  12.667   6.370
 9289SOL    HW227892   1.496  12.693   6.209
 9290SOL     OW27893   1.755  11.779   5.817
 9290SOL    HW127894   1.743  11.766   5.718
 9290SOL    HW227895   1.725  11.698   5.866
 9291SOL     OW27896   0.768  12.316   6.609
 9291SOL    HW127897   0.690  12.333   6.669
 9291SOL    HW227898   0.802  12.403   6.573
 9292SOL     OW27899   0.850  11.970   7.409
 9292SOL    HW127900   0.846  12.046   7.474
 9292SOL    HW227901   0.872  12.006   7.318
 9293SOL     OW27902   0.685  12.184   6.251
 9293SOL    HW127903   0.754  12.168   6.321
 9293SOL    HW227904   0.612  12.241   6.289
 9294SOL     OW27905   0.686  12.333   7.389
 9294SOL    HW127906   0.746  12.412   7.403
 9294SOL    HW227907   0.600  12.364   7.348
 9295SOL     OW27908   0.335  12.607   6.647
 9295SOL    HW127909   0.257  12.576   6.594
 9295SOL    HW227910   0.393  12.665   6.590
 9296SOL     OW27911   1.460  12.677   6.925
 9296SOL    HW127912   1.484  12.771   6.951
 9296SOL    HW227913   1.444  12.623   7.007
 9297SOL     OW27914   0.438  11.564   7.085
 9297SOL    HW127915   0.520  11.508   7.094
 9297SOL    HW227916   0.357  11.506   7.089
 9298SOL     OW27917   1.603  11.619   6.323
 9298SOL    HW127918   1.529  11.665   6.273
 9298SOL    HW227919   1.654  11.687   6.376
 9299SOL     OW27920   1.127  12.513   7.276
 9299SOL    HW127921   1.174  12.513   7.364
 9299SOL    HW227922   1.079  12.426   7.265
 9300SOL     OW27923   0.230  12.606   6.124
 9300SOL    HW127924   0.204  12.702   6.124
 9300SOL    HW227925   0.159  12.552   6.169
 9301SOL     OW27926   0.240  12.263   6.472
 9301SOL    HW127927   0.254  12.179   6.524
 9301SOL    HW227928   0.185  12.327   6.527
 9302SOL     OW27929   0.606  12.136   5.709
 9302SOL    HW127930   0.613  12.220   5.655
 9302SOL    HW227931   0.652  12.149   5.797
 9303SOL     OW27932   1.594  11.286   7.066
 9303SOL    HW127933   1.576  11.353   6.994
 9303SOL    HW227934   1.591  11.332   7.155
 9304SOL     OW27935   0.122  11.815   6.149
 9304SOL    HW127936   0.077  11.727   6.166
 9304SOL    HW227937   0.121  11.869   6.233
 9305SOL     OW27938   0.027  12.768   5.703
 9305SOL    HW127939   0.008  12.672   5.724
 9305SOL    HW227940  -0.006  12.826   5.778
 9306SOL     OW27941   1.689  12.094   6.198
 9306SOL    HW127942   1.784  12.065   6.206
 9306SOL    HW227943   1.681  12.159   6.123
 9307SOL     OW27944   1.641  12.280   6.018
 9307SOL    HW127945   1.727  12.282   5.966
 9307SOL    HW227946   1.655  12.327   6.106
 9308SOL     OW27947   0.113  11.909   7.183
 9308SOL    HW127948   0.201  11.896   7.228
 9308SOL    HW227949   0.100  12.006   7.161
 9309SOL     OW27950   0.613  12.537   6.312
 9309SOL    HW127951   0.564  12.450   6.321
 9309SOL    HW227952   0.590  12.580   6.225
 9310SOL     OW27953   1.293  12.400   7.009
 9310SOL    HW127954   1.330  12.327   6.951
 9310SOL    HW227955   1.345  12.405   7.094
 9311SOL     OW27956   0.809  11.176   6.088
 9311SOL    HW127957   0.849  11.267   6.079
 9311SOL    HW227958   0.709  11.184   6.094
 9312SOL     OW27959   0.197  12.148   6.850
 9312SOL    HW127960   0.286  12.103   6.836
 9312SOL    HW227961   0.124  12.083   6.831
 9313SOL     OW27962   1.525  12.171   5.776
 9313SOL    HW127963   1.462  12.095   5.789
 9313SOL    HW227964   1.573  12.189   5.862
 9314SOL     OW27965   0.317  11.423   7.387
 9314SOL    HW127966   0.388  11.494   7.393
 9314SOL    HW227967   0.229  11.462   7.415
 9315SOL     OW27968   1.466  12.589   6.539
 9315SOL    HW127969   1.407  12.595   6.619
 9315SOL    HW227970   1.451  12.501   6.493
 9316SOL     OW27971   0.598  11.901   5.856
 9316SOL    HW127972   0.622  11.970   5.788
 9316SOL    HW227973   0.520  11.934   5.910
 9317SOL     OW27974   1.281  11.517   6.530
 9317SOL    HW127975   1.195  11.467   6.517
 9317SOL    HW227976   1.343  11.463   6.586
 9318SOL     OW27977   1.576  12.834   5.893
 9318SOL    HW127978   1.665  12.880   5.896
 9318SOL    HW227979   1.555  12.810   5.798
 9319SOL     OW27980   0.807  11.777   7.051
 9319SOL    HW127981   0.760  11.774   7.140
 9319SOL    HW227982   0.756  11.722   6.985
 9320SOL     OW27983   1.394  11.641   7.260
 9320SOL    HW127984   1.374  11.684   7.348
 9320SOL    HW227985   1.472  11.579   7.269
 9321SOL     OW27986   0.973  12.062   7.158
 9321SOL    HW127987   1.019  11.978   7.129
 9321SOL    HW227988   0.917  12.096   7.083
 9322SOL     OW27989   0.991  11.582   6.828
 9322SOL    HW127990   0.914  11.616   6.882
 9322SOL    HW227991   0.957  11.531   6.749
 9323SOL     OW27992   1.041  11.873   6.015
 9323SOL    HW127993   1.067  11.869   6.111
 9323SOL    HW227994   0.956  11.822   6.001
 9324SOL     OW27995   0.076  11.983   6.375
 9324SOL    HW127996   0.175  11.971   6.384
 9324SOL    HW227997   0.052  12.078   6.396
 9325SOL     OW27998   0.865  11.520   5.781
 9325SOL    HW127999   0.924  11.583   5.732
 9325SOL    HW228000   0.884  11.426   5.752
 9326SOL     OW28001   1.719  11.757   7.417
 9326SOL    HW128002   1.693  11.846   7.381
 9326SOL    HW228003   1.717  11.689   7.344
 9327SOL     OW28004   1.362  12.316   6.131
 9327SOL    HW128005   1.445  12.287   6.083
 9327SOL    HW228006   1.313  12.383   6.075
 9328SOL     OW28007   0.550  11.368   6.471
 9328SOL    HW128008   0.545  11.363   6.571
 9328SOL    HW228009   0.552  11.464   6.442
 9329SOL     OW28010   1.008  12.628   6.063
 9329SOL    HW128011   0.962  12.700   6.011
 9329SOL    HW228012   1.004  12.648   6.161
 9330SOL     OW28013   1.795  12.238   6.459
 9330SOL    HW128014   1.733  12.223   6.383
 9330SOL    HW228015   1.743  12.249   6.544
 9331SOL     OW28016   1.227  12.722   7.092
 9331SOL    HW128017   1.233  12.645   7.156
 9331SOL    HW228018   1.175  12.696   7.012
 9332SOL     OW28019   0.321  12.115   5.828
 9332SOL    HW128020   0.403  12.154   5.786
 9332SOL    HW228021   0.294  12.033   5.779
 9333SOL     OW28022   1.458  11.907   6.314
 9333SOL    HW128023   1.453  11.842   6.389
 9333SOL    HW228024   1.538  11.966   6.327
 9334SOL     OW28025   0.461  12.438   7.313
 9334SOL    HW128026   0.411  12.439   7.227
 9334SOL    HW228027   0.398  12.420   7.389
 9335SOL     OW28028   0.202  11.457   7.084
 9335SOL    HW128029   0.122  11.517   7.071
 9335SOL    HW228030   0.192  11.408   7.170
 9336SOL     OW28031   1.632  12.549   5.667
 9336SOL    HW128032   1.600  12.643   5.657
 9336SOL    HW228033   1.556  12.486   5.655
 9337SOL     OW28034   1.400  11.279   6.012
 9337SOL    HW128035   1.376  11.242   5.922
 9337SOL    HW228036   1.499  11.295   6.016
 9338SOL     OW28037   0.382  11.872   6.066
 9338SOL    HW128038   0.427  11.782   6.063
 9338SOL    HW228039   0.288  11.861   6.099
 9339SOL     OW28040   1.547  11.394   7.315
 9339SOL    HW128041   1.542  11.431   7.407
 9339SOL    HW228042   1.475  11.325   7.303
 9340SOL     OW28043   0.614  11.294   5.703
 9340SOL    HW128044   0.712  11.272   5.710
 9340SOL    HW228045   0.583  11.277   5.610
 9341SOL     OW28046   0.781  11.436   7.335
 9341SOL    HW128047   0.848  11.375   7.378
 9341SOL    HW228048   0.708  11.455   7.400
 9342SOL     OW28049   1.351  11.762   7.019
 9342SOL    HW128050   1.379  11.719   7.104
 9342SOL    HW228051   1.376  11.858   7.020
 9343SOL     OW28052   0.803  12.574   6.510
 9343SOL    HW128053   0.893  12.588   6.468
 9343SOL    HW228054   0.732  12.576   6.439
 9344SOL     OW28055   0.922  11.675   6.485
 9344SOL    HW128056   0.897  11.666   6.389
 9344SOL    HW228057   0.970  11.593   6.516
 9345SOL     OW28058   0.539  11.236   6.098
 9345SOL    HW128059   0.458  11.237   6.156
 9345SOL    HW228060   0.542  11.319   6.043
 9346SOL     OW28061   1.434  12.360   5.627
 9346SOL    HW128062   1.466  12.284   5.684
 9346SOL    HW228063   1.342  12.387   5.657
 9347SOL     OW28064   0.297  11.207   5.757
 9347SOL    HW128065   0.346  11.291   5.736
 9347SOL    HW228066   0.359  11.142   5.802
 9348SOL     OW28067   0.935  11.408   6.066
 9348SOL    HW128068   0.887  11.449   5.988
 9348SOL    HW228069   1.034  11.406   6.047
 9349SOL     OW28070   1.076  11.855   7.050
 9349SOL    HW128071   0.996  11.794   7.053
 9349SOL    HW228072   1.157  11.802   7.026
 9350SOL     OW28073   1.227  12.742   6.379
 9350SOL    HW128074   1.248  12.816   6.314
 9350SOL    HW228075   1.295  12.742   6.452
 9351SOL     OW28076   0.459  12.324   6.327
 9351SOL    HW128077   0.388  12.297   6.392
 9351SOL    HW228078   0.433  12.296   6.234
 9352SOL     OW28079   1.032  11.721   5.602
 9352SOL    HW128080   0.991  11.803   5.563
 9352SOL    HW228081   1.096  11.747   5.675
 9353SOL     OW28082   0.078  11.728   6.972
 9353SOL    HW128083   0.170  11.727   6.931
 9353SOL    HW228084   0.072  11.802   7.039
 9354SOL     OW28085   0.561  11.394   6.733
 9354SOL    HW128086   0.599  11.310   6.770
 9354SOL    HW228087   0.473  11.413   6.777
 9355SOL     OW28088   0.866  11.626   6.228
 9355SOL    HW128089   0.834  11.698   6.166
 9355SOL    HW228090   0.890  11.545   6.175
 9356SOL     OW28091   1.017  11.211   6.339
 9356SOL    HW128092   0.945  11.216   6.270
 9356SOL    HW228093   0.993  11.142   6.408
 9357SOL     OW28094   1.429  12.345   6.453
 9357SOL    HW128095   1.374  12.261   6.446
 9357SOL    HW228096   1.455  12.374   6.361
 9358SOL     OW28097   1.466  11.762   6.578
 9358SOL    HW128098   1.436  11.667   6.585
 9358SOL    HW228099   1.539  11.778   6.644
 9359SOL     OW28100   1.857  12.005   5.963
 9359SOL    HW128101   1.899  11.941   6.027
 9359SOL    HW228102   1.819  11.954   5.885
 9360SOL     OW28103   0.488  12.557   5.760
 9360SOL    HW128104   0.401  12.542   5.807
 9360SOL    HW228105   0.471  12.583   5.665
 9361SOL     OW28106   1.664  12.452   6.243
 9361SOL    HW128107   1.763  12.460   6.257
 9361SOL    HW228108   1.619  12.536   6.274
 9362SOL     OW28109   1.390  11.747   5.664
 9362SOL    HW128110   1.336  11.726   5.745
 9362SOL    HW228111   1.481  11.706   5.673
 9363SOL     OW28112   0.527  11.428   5.914
 9363SOL    HW128113   0.554  11.369   5.839
 9363SOL    HW228114   0.527  11.523   5.883
 9364SOL     OW28115   1.754  12.395   7.174
 9364SOL    HW128116   1.845  12.356   7.161
 9364SOL    HW228117   1.762  12.491   7.198
 9365SOL     OW28118   1.064  12.519   6.926
 9365SOL    HW128119   0.984  12.496   6.981
 9365SOL    HW228120   1.147  12.493   6.975
 9366SOL     OW28121   1.111  12.367   6.686
 9366SOL    HW128122   1.071  12.411   6.767
 9366SOL    HW228123   1.070  12.404   6.603
 9367SOL     OW28124   1.638  12.271   6.665
 9367SOL    HW128125   1.643  12.352   6.724
 9367SOL    HW228126   1.552  12.273   6.614
 9368SOL     OW28127   0.915  11.261   6.988
 9368SOL    HW128128   0.940  11.241   6.893
 9368SOL    HW228129   0.987  11.317   7.030
 9369SOL     OW28130   0.980  12.288   7.305
 9369SOL    HW128131   0.881  12.294   7.315
 9369SOL    HW228132   1.003  12.208   7.249
 9370SOL     OW28133   0.705  12.222   5.954
 9370SOL    HW128134   0.691  12.229   6.053
 9370SOL    HW228135   0.789  12.171   5.936
 9371SOL     OW28136   0.410  11.985   6.837
 9371SOL    HW128137   0.496  11.997   6.887
 9371SOL    HW228138   0.368  11.898   6.864
 9372SOL     OW28139   1.274  11.558   6.848
 9372SOL    HW128140   1.295  11.632   6.912
 9372SOL    HW228141   1.185  11.575   6.805
 9373SOL     OW28142   0.064  12.736   6.917
 9373SOL    HW128143   0.018  12.818   6.883
 9373SOL    HW228144   0.162  12.755   6.926
 9374SOL     OW28145   0.367  12.272   6.087
 9374SOL    HW128146   0.360  12.355   6.031
 9374SOL    HW228147   0.371  12.192   6.027
 9375SOL     OW28148   0.566  11.709   6.451
 9375SOL    HW128149   0.578  11.775   6.377
 9375SOL    HW228150   0.612  11.743   6.534
 9376SOL     OW28151   1.252  12.520   5.974
 9376SOL    HW128152   1.302  12.597   6.014
 9376SOL    HW228153   1.157  12.522   6.006
 9377SOL     OW28154   1.272  12.617   6.728
 9377SOL    HW128155   1.319  12.630   6.815
 9377SOL    HW228156   1.206  12.543   6.737
 9378SOL     OW28157   1.582  11.811   6.058
 9378SOL    HW128158   1.551  11.872   6.131
 9378SOL    HW228159   1.632  11.863   5.989
 9379SOL     OW28160   0.354  12.682   6.915
 9379SOL    HW128161   0.333  12.638   6.828
 9379SOL    HW228162   0.451  12.708   6.918
 9380SOL     OW28163   0.402  11.923   7.184
 9380SOL    HW128164   0.470  11.978   7.137
 9380SOL    HW228165   0.442  11.835   7.211
 9381SOL     OW28166   1.587  11.951   7.256
 9381SOL    HW128167   1.495  11.989   7.251
 9381SOL    HW228168   1.647  11.998   7.191
 9382SOL     OW28169   1.013  11.277   7.356
 9382SOL    HW128170   1.019  11.362   7.304
 9382SOL    HW228171   1.045  11.201   7.299
 9383SOL     OW28172   0.504  11.222   7.326
 9383SOL    HW128173   0.462  11.165   7.256
 9383SOL    HW228174   0.438  11.291   7.358
 9384SOL     OW28175   0.573  12.042   6.615
 9384SOL    HW128176   0.617  12.131   6.606
 9384SOL    HW228177   0.510  12.042   6.692
 9385SOL     OW28178   1.360  12.034   6.631
 9385SOL    HW128179   1.285  12.034   6.565
 9385SOL    HW228180   1.397  11.942   6.640
 9386SOL     OW28181   1.209  11.697   5.861
 9386SOL    HW128182   1.222  11.613   5.915
 9386SOL    HW228183   1.180  11.771   5.921
 9387SOL     OW28184   0.307  11.385   6.817
 9387SOL    HW128185   0.284  11.422   6.907
 9387SOL    HW228186   0.277  11.290   6.811
 9388SOL     OW28187   0.037  12.482   6.868
 9388SOL    HW128188   0.090  12.433   6.936
 9388SOL    HW228189   0.059  12.580   6.873
 9389SOL     OW28190   0.732  11.806   6.650
 9389SOL    HW128191   0.791  11.780   6.574
 9389SOL    HW228192   0.704  11.902   6.639
 9390SOL     OW28193   1.728  12.107   7.440
 9390SOL    HW128194   1.682  12.100   7.351
 9390SOL    HW228195   1.666  12.151   7.506
 9391SOL     OW28196   0.307  11.235   6.204
 9391SOL    HW128197   0.296  11.329   6.237
 9391SOL    HW228198   0.302  11.172   6.281
 9392SOL     OW28199   1.622  11.539   5.960
 9392SOL    HW128200   1.624  11.463   6.024
 9392SOL    HW228201   1.574  11.616   6.000
 9393SOL     OW28202   1.023  11.938   6.552
 9393SOL    HW128203   1.038  11.959   6.648
 9393SOL    HW228204   0.993  11.843   6.543
 9394SOL     OW28205   1.859  12.690   7.191
 9394SOL    HW128206   1.873  12.717   7.096
 9394SOL    HW228207   1.942  12.712   7.244
 9395SOL     OW28208   0.350  12.070   7.390
 9395SOL    HW128209   0.426  12.114   7.438
 9395SOL    HW228210   0.385  12.023   7.308
 9396SOL     OW28211   1.540  11.446   5.711
 9396SOL    HW128212   1.479  11.371   5.734
 9396SOL    HW228213   1.562  11.498   5.794
 9397SOL     OW28214   1.303  12.010   5.628
 9397SOL    HW128215   1.337  11.917   5.643
 9397SOL    HW228216   1.321  12.037   5.533
 9398SOL     OW28217   1.068  12.505   6.435
 9398SOL    HW128218   1.075  12.421   6.380
 9398SOL    HW228219   1.130  12.574   6.399
 9399SOL     OW28220   0.319  11.982   6.535
 9399SOL    HW128221   0.412  12.018   6.540
 9399SOL    HW228222   0.313  11.897   6.587
 9400SOL     OW28223   0.339  11.681   6.592
 9400SOL    HW128224   0.287  11.598   6.575
 9400SOL    HW228225   0.416  11.686   6.528
 9401SOL     OW28226   1.138  11.552   7.264
 9401SOL    HW128227   1.093  11.615   7.328
 9401SOL    HW228228   1.231  11.583   7.247
 9402SOL     OW28229   1.160  11.379   7.063
 9402SOL    HW128230   1.160  11.443   7.140
 9402SOL    HW228231   1.188  11.427   6.980
 9403SOL     OW28232   0.008  12.498   5.786
 9403SOL    HW128233  -0.085  12.519   5.755
 9403SOL    HW228234   0.018  12.399   5.799
 9404SOL     OW28235   0.504  12.740   6.496
 9404SOL    HW128236   0.570  12.814   6.505
 9404SOL    HW228237   0.548  12.661   6.454
 9405SOL     OW28238   1.002  11.968   6.824
 9405SOL    HW128239   1.043  11.936   6.910
 9405SOL    HW228240   0.906  11.941   6.821
 9406SOL     OW28241   0.040  11.716   6.700
 9406SOL    HW128242   0.125  11.683   6.659
 9406SOL    HW228243   0.053  11.731   6.798
 9407SOL     OW28244   0.189  11.692   7.308
 9407SOL    HW128245   0.248  11.652   7.238
 9407SOL    HW228246   0.131  11.763   7.267
 9408SOL     OW28247   1.369  12.122   7.246
 9408SOL    HW128248   1.408  12.211   7.266
 9408SOL    HW228249   1.379  12.102   7.149
 9409SOL     OW28250   0.815  11.744   5.911
 9409SOL    HW128251   0.822  11.655   5.865
 9409SOL    HW228252   0.721  11.778   5.903
 9410SOL     OW28253   1.657  11.776   6.792
 9410SOL    HW128254   1.619  11.707   6.854
 9410SOL    HW228255   1.739  11.740   6.748
 9411SOL     OW28256   0.252  12.736   7.330
 9411SOL    HW128257   0.222  12.793   7.406
 9411SOL    HW228258   0.245  12.639   7.356
 9412SOL     OW28259   0.671  11.636   6.855
 9412SOL    HW128260   0.637  11.547   6.825
 9412SOL    HW228261   0.697  11.690   6.775
 9413SOL     OW28262   0.473  11.672   5.777
 9413SOL    HW128263   0.534  11.752   5.781
 9413SOL    HW228264   0.378  11.703   5.784
 9414SOL     OW28265   0.159  12.309   7.052
 9414SOL    HW128266   0.181  12.248   7.128
 9414SOL    HW228267   0.169  12.260   6.966
 9415SOL     OW28268   1.347  12.231   6.820
 9415SOL    HW128269   1.371  12.168   6.746
 9415SOL    HW228270   1.257  12.271   6.802
 9416SOL     OW28271   1.302  12.027   5.895
 9416SOL    HW128272   1.216  11.996   5.937
 9416SOL    HW228273   1.298  12.013   5.796
 9417SOL     OW28274   1.252  12.903   6.714
 9417SOL    HW128275   1.336  12.908   6.660
 9417SOL    HW228276   1.229  12.807   6.732
 9418SOL     OW28277   0.083  12.430   6.608
 9418SOL    HW128278   0.078  12.429   6.708
 9418SOL    HW228279   0.000  12.389   6.570
 9419SOL     OW28280   1.726  11.307   6.109
 9419SOL    HW128281   1.799  11.290   6.042
 9419SOL    HW228282   1.695  11.220   6.147
 9420SOL     OW28283   0.130  12.966   7.437
 9420SOL    HW128284   0.089  12.892   7.490
 9420SOL    HW228285   0.194  13.017   7.495
 9421SOL     OW28286   1.280  12.099   6.258
 9421SOL    HW128287   1.340  12.018   6.260
 9421SOL    HW228288   1.320  12.168   6.198
 9422SOL     OW28289   0.830  12.445   7.008
 9422SOL    HW128290   0.825  12.478   7.103
 9422SOL    HW228291   0.744  12.464   6.962
 9423SOL     OW28292   0.672  12.788   5.740
 9423SOL    HW128293   0.681  12.798   5.641
 9423SOL    HW228294   0.632  12.699   5.761
 9424SOL     OW28295   1.841  11.347   6.549
 9424SOL    HW128296   1.880  11.262   6.513
 9424SOL    HW228297   1.743  11.349   6.530
 9425SOL     OW28298   0.263  11.498   6.306
 9425SOL    HW128299   0.184  11.549   6.272
 9425SOL    HW228300   0.254  11.483   6.404
 9426SOL     OW28301   1.194  12.784   5.617
 9426SOL    HW128302   1.200  12.691   5.654
 9426SOL    HW228303   1.135  12.784   5.537
 9427SOL     OW28304   0.822  12.174   6.958
 9427SOL    HW128305   0.862  12.173   6.866
 9427SOL    HW228306   0.832  12.266   6.998
 9428SOL     OW28307   0.916  12.082   5.877
 9428SOL    HW128308   0.979  12.120   5.809
 9428SOL    HW228309   0.956  11.999   5.916
 9429SOL     OW28310   0.372  12.460   7.076
 9429SOL    HW128311   0.359  12.553   7.042
 9429SOL    HW228312   0.288  12.408   7.063
 9430SOL     OW28313   1.614  12.464   6.875
 9430SOL    HW128314   1.674  12.467   6.955
 9430SOL    HW228315   1.539  12.528   6.888
 9431SOL     OW28316   1.039  12.270   6.282
 9431SOL    HW128317   0.969  12.223   6.336
 9431SOL    HW228318   1.098  12.202   6.239
 9432SOL     OW28319   1.014  11.408   6.557
 9432SOL    HW128320   1.006  11.372   6.464
 9432SOL    HW228321   1.012  11.332   6.622
 9433SOL     OW28322   0.590  12.659   6.077
 9433SOL    HW128323   0.632  12.601   6.007
 9433SOL    HW228324   0.546  12.738   6.033
 9434SOL     OW28325   1.709  11.557   6.967
 9434SOL    HW128326   1.782  11.626   6.971
 9434SOL    HW228327   1.737  11.482   6.908
 9435SOL     OW28328   0.255  12.520   5.876
 9435SOL    HW128329   0.159  12.521   5.849
 9435SOL    HW228330   0.267  12.573   5.960
 9436SOL     OW28331   0.105  12.185   7.312
 9436SOL    HW128332   0.028  12.152   7.366
 9436SOL    HW228333   0.190  12.155   7.354
 9437SOL     OW28334   0.672  11.375   7.075
 9437SOL    HW128335   0.762  11.359   7.035
 9437SOL    HW228336   0.680  11.380   7.174
 9438SOL     OW28337   0.075  11.517   5.619
 9438SOL    HW128338  -0.017  11.489   5.590
 9438SOL    HW228339   0.106  11.594   5.563
 9439SOL     OW28340   1.440  12.028   6.984
 9439SOL    HW128341   1.383  12.080   6.921
 9439SOL    HW228342   1.536  12.040   6.960
 9440SOL     OW28343   0.072  11.338   5.904
 9440SOL    HW128344   0.055  11.421   5.850
 9440SOL    HW228345   0.162  11.301   5.882
 9441SOL     OW28346   1.183  12.507   5.705
 9441SOL    HW128347   1.084  12.496   5.707
 9441SOL    HW228348   1.217  12.522   5.798
 9442SOL     OW28349   0.613  12.014   7.017
 9442SOL    HW128350   0.669  12.095   7.000
 9442SOL    HW228351   0.672  11.934   7.020
 9443SOL     OW28352   0.716  11.737   7.294
 9443SOL    HW128353   0.735  11.802   7.368
 9443SOL    HW228354   0.776  11.657   7.303
 9444SOL     OW28355   1.450  12.392   7.219
 9444SOL    HW128356   1.441  12.382   7.318
 9444SOL    HW228357   1.546  12.385   7.193
 9445SOL     OW28358   1.674  12.055   6.840
 9445SOL    HW128359   1.647  11.966   6.803
 9445SOL    HW228360   1.675  12.123   6.767
 9446SOL     OW28361   1.225  11.497   6.035
 9446SOL    HW128362   1.290  11.423   6.024
 9446SOL    HW228363   1.245  11.547   6.119
 9447SOL     OW28364   0.594  11.917   6.238
 9447SOL    HW128365   0.644  12.002   6.219
 9447SOL    HW228366   0.506  11.919   6.190
 9448SOL     OW28367   1.777  11.514   7.228
 9448SOL    HW128368   1.760  11.545   7.134
 9448SOL    HW228369   1.693  11.477   7.266
 9449SOL     OW28370   1.730  12.106   7.103
 9449SOL    HW128371   1.768  12.197   7.118
 9449SOL    HW228372   1.722  12.089   7.004
 9450SOL     OW28373   0.859  12.546   5.602
 9450SOL    HW128374   0.813  12.561   5.690
 9450SOL    HW228375   0.903  12.631   5.572
 9451SOL     OW28376   0.859  12.128   6.447
 9451SOL    HW128377   0.913  12.059   6.495
 9451SOL    HW228378   0.827  12.197   6.513
 9452SOL     OW28379   1.083  12.156   5.673
 9452SOL    HW128380   1.060  12.209   5.591
 9452SOL    HW228381   1.164  12.100   5.654
 9453SOL     OW28382   1.861  12.741   6.437
 9453SOL    HW128383   1.790  12.729   6.367
 9453SOL    HW228384   1.862  12.662   6.497
 9454SOL     OW28385   0.221  12.486   7.430
 9454SOL    HW128386   0.156  12.413   7.409
 9454SOL    HW228387   0.225  12.500   7.528
 9455SOL     OW28388   0.079  12.412   6.239
 9455SOL    HW128389   0.078  12.365   6.327
 9455SOL    HW228390   0.161  12.384   6.188
 9456SOL     OW28391   0.672  12.563   7.210
 9456SOL    HW128392   0.594  12.513   7.248
 9456SOL    HW228393   0.669  12.658   7.241
 9457SOL     OW28394   1.824  11.364   6.813
 9457SOL    HW128395   1.820  11.274   6.857
 9457SOL    HW228396   1.827  11.353   6.714
 9458SOL     OW28397   0.428  11.596   6.106
 9458SOL    HW128398   0.458  11.524   6.044
 9458SOL    HW228399   0.389  11.556   6.189
 9459SOL     OW28400   1.705  12.659   6.690
 9459SOL    HW128401   1.612  12.634   6.663
 9459SOL    HW228402   1.731  12.609   6.772
 9460SOL     OW28403   0.317  11.719   6.866
 9460SOL    HW128404   0.355  11.660   6.938
 9460SOL    HW228405   0.357  11.693   6.778
 9461SOL     OW28406   1.424  11.386   6.698
 9461SOL    HW128407   1.476  11.321   6.753
 9461SOL    HW228408   1.375  11.449   6.759
 9462SOL     OW28409   1.001  11.206   6.740
 9462SOL    HW128410   0.938  11.134   6.709
 9462SOL    HW228411   1.094  11.170   6.740
 9463SOL     OW28412   0.770  12.502   5.887
 9463SOL    HW128413   0.724  12.415   5.904
 9463SOL    HW228414   0.861  12.499   5.928
 9464SOL     OW28415   0.618  12.739   6.870
 9464SOL    HW128416   0.613  12.821   6.927
 9464SOL    HW228417   0.707  12.736   6.825
 9465SOL     OW28418   1.352  11.224   5.754
 9465SOL    HW128419   1.387  11.183   5.670
 9465SOL    HW228420   1.262  11.186   5.774
 9466SOL     OW28421   1.300  11.625   6.277
 9466SOL    HW128422   1.241  11.705   6.281
 9466SOL    HW228423   1.315  11.590   6.370
 9467SOL     OW28424   1.593  11.393   6.468
 9467SOL    HW128425   1.509  11.392   6.522
 9467SOL    HW228426   1.595  11.476   6.412
 9468SOL     OW28427   0.039  12.249   5.886
 9468SOL    HW128428   0.138  12.238   5.877
 9468SOL    HW228429  -0.001  12.163   5.918
 9469SOL     OW28430   0.230  11.800   7.561
 9469SOL    HW128431   0.137  11.798   7.598
 9469SOL    HW228432   0.231  11.761   7.469
 9470SOL     OW28433   0.225  11.447   8.444
 9470SOL    HW128434   0.260  11.430   8.536
 9470SOL    HW228435   0.137  11.402   8.432
 9471SOL     OW28436   0.019  11.540   8.095
 9471SOL    HW128437  -0.063  11.583   8.134
 9471SOL    HW228438  -0.009  11.467   8.032
 9472SOL     OW28439   0.569  12.447   8.613
 9472SOL    HW128440   0.476  12.440   8.576
 9472SOL    HW228441   0.580  12.536   8.657
 9473SOL     OW28442   1.555  12.683   8.151
 9473SOL    HW128443   1.498  12.667   8.232
 9473SOL    HW228444   1.496  12.693   8.071
 9474SOL     OW28445   1.135  11.875   8.165
 9474SOL    HW128446   1.192  11.953   8.140
 9474SOL    HW228447   1.075  11.901   8.241
 9475SOL     OW28448   0.768  12.316   8.471
 9475SOL    HW128449   0.690  12.333   8.531
 9475SOL    HW228450   0.802  12.403   8.435
 9476SOL     OW28451   0.850  11.970   9.271
 9476SOL    HW128452   0.846  12.046   9.336
 9476SOL    HW228453   0.872  12.006   9.180
 9477SOL     OW28454   0.685  12.184   8.113
 9477SOL    HW128455   0.754  12.168   8.183
 9477SOL    HW228456   0.612  12.241   8.151
 9478SOL     OW28457   0.686  12.333   9.251
 9478SOL    HW128458   0.746  12.412   9.265
 9478SOL    HW228459   0.600  12.364   9.210
 9479SOL     OW28460   0.335  12.607   8.509
 9479SOL    HW128461   0.257  12.576   8.456
 9479SOL    HW228462   0.393  12.665   8.452
 9480SOL     OW28463   1.460  12.677   8.787
 9480SOL    HW128464   1.484  12.771   8.813
 9480SOL    HW228465   1.444  12.623   8.869
 9481SOL     OW28466   0.438  11.564   8.947
 9481SOL    HW128467   0.520  11.508   8.956
 9481SOL    HW228468   0.357  11.506   8.951
 9482SOL     OW28469   1.603  11.619   8.185
 9482SOL    HW128470   1.529  11.665   8.135
 9482SOL    HW228471   1.654  11.687   8.238
 9483SOL     OW28472   1.127  12.513   9.138
 9483SOL    HW128473   1.174  12.513   9.226
 9483SOL    HW228474   1.079  12.426   9.127
 9484SOL     OW28475   0.230  12.606   7.986
 9484SOL    HW128476   0.204  12.702   7.986
 9484SOL    HW228477   0.159  12.552   8.031
 9485SOL     OW28478   0.240  12.263   8.334
 9485SOL    HW128479   0.254  12.179   8.386
 9485SOL    HW228480   0.185  12.327   8.389
 9486SOL     OW28481   0.606  12.136   7.571
 9486SOL    HW128482   0.613  12.220   7.517
 9486SOL    HW228483   0.652  12.149   7.659
 9487SOL     OW28484   1.594  11.286   8.928
 9487SOL    HW128485   1.576  11.353   8.856
 9487SOL    HW228486   1.591  11.332   9.017
 9488SOL     OW28487   0.122  11.815   8.011
 9488SOL    HW128488   0.077  11.727   8.028
 9488SOL    HW228489   0.121  11.869   8.095
 9489SOL     OW28490   0.027  12.768   7.565
 9489SOL    HW128491   0.008  12.672   7.586
 9489SOL    HW228492  -0.006  12.826   7.640
 9490SOL     OW28493   1.689  12.094   8.060
 9490SOL    HW128494   1.784  12.065   8.068
 9490SOL    HW228495   1.681  12.159   7.985
 9491SOL     OW28496   1.641  12.280   7.880
 9491SOL    HW128497   1.727  12.282   7.828
 9491SOL    HW228498   1.655  12.327   7.968
 9492SOL     OW28499   0.113  11.909   9.045
 9492SOL    HW128500   0.201  11.896   9.090
 9492SOL    HW228501   0.100  12.006   9.023
 9493SOL     OW28502   0.613  12.537   8.174
 9493SOL    HW128503   0.564  12.450   8.183
 9493SOL    HW228504   0.590  12.580   8.087
 9494SOL     OW28505   1.293  12.400   8.871
 9494SOL    HW128506   1.330  12.327   8.813
 9494SOL    HW228507   1.345  12.405   8.956
 9495SOL     OW28508   0.809  11.176   7.950
 9495SOL    HW128509   0.849  11.267   7.941
 9495SOL    HW228510   0.709  11.184   7.956
 9496SOL     OW28511   0.197  12.148   8.712
 9496SOL    HW128512   0.286  12.103   8.698
 9496SOL    HW228513   0.124  12.083   8.693
 9497SOL     OW28514   1.525  12.171   7.638
 9497SOL    HW128515   1.462  12.095   7.651
 9497SOL    HW228516   1.573  12.189   7.724
 9498SOL     OW28517   0.317  11.423   9.249
 9498SOL    HW128518   0.388  11.494   9.255
 9498SOL    HW228519   0.229  11.462   9.277
 9499SOL     OW28520   1.466  12.589   8.401
 9499SOL    HW128521   1.407  12.595   8.481
 9499SOL    HW228522   1.451  12.501   8.355
 9500SOL     OW28523   0.598  11.901   7.718
 9500SOL    HW128524   0.622  11.970   7.650
 9500SOL    HW228525   0.520  11.934   7.772
 9501SOL     OW28526   1.281  11.517   8.392
 9501SOL    HW128527   1.195  11.467   8.379
 9501SOL    HW228528   1.343  11.463   8.448
 9502SOL     OW28529   1.576  12.834   7.755
 9502SOL    HW128530   1.665  12.880   7.758
 9502SOL    HW228531   1.555  12.810   7.660
 9503SOL     OW28532   0.807  11.777   8.913
 9503SOL    HW128533   0.760  11.774   9.002
 9503SOL    HW228534   0.756  11.722   8.847
 9504SOL     OW28535   1.394  11.641   9.122
 9504SOL    HW128536   1.374  11.684   9.210
 9504SOL    HW228537   1.472  11.579   9.131
 9505SOL     OW28538   0.973  12.062   9.020
 9505SOL    HW128539   1.019  11.978   8.991
 9505SOL    HW228540   0.917  12.096   8.945
 9506SOL     OW28541   0.991  11.582   8.690
 9506SOL    HW128542   0.914  11.616   8.744
 9506SOL    HW228543   0.957  11.531   8.611
 9507SOL     OW28544   1.041  11.873   7.877
 9507SOL    HW128545   1.067  11.869   7.973
 9507SOL    HW228546   0.956  11.822   7.863
 9508SOL     OW28547   0.076  11.983   8.237
 9508SOL    HW128548   0.175  11.971   8.246
 9508SOL    HW228549   0.052  12.078   8.258
 9509SOL     OW28550   0.865  11.520   7.643
 9509SOL    HW128551   0.924  11.583   7.594
 9509SOL    HW228552   0.884  11.426   7.614
 9510SOL     OW28553   1.719  11.757   9.279
 9510SOL    HW128554   1.693  11.846   9.243
 9510SOL    HW228555   1.717  11.689   9.206
 9511SOL     OW28556   1.362  12.316   7.993
 9511SOL    HW128557   1.445  12.287   7.945
 9511SOL    HW228558   1.313  12.383   7.937
 9512SOL     OW28559   0.550  11.368   8.333
 9512SOL    HW128560   0.545  11.363   8.433
 9512SOL    HW228561   0.552  11.464   8.304
 9513SOL     OW28562   1.008  12.628   7.925
 9513SOL    HW128563   0.962  12.700   7.873
 9513SOL    HW228564   1.004  12.648   8.023
 9514SOL     OW28565   1.795  12.238   8.321
 9514SOL    HW128566   1.733  12.223   8.245
 9514SOL    HW228567   1.743  12.249   8.406
 9515SOL     OW28568   1.227  12.722   8.954
 9515SOL    HW128569   1.233  12.645   9.018
 9515SOL    HW228570   1.175  12.696   8.874
 9516SOL     OW28571   0.321  12.115   7.690
 9516SOL    HW128572   0.403  12.154   7.648
 9516SOL    HW228573   0.294  12.033   7.641
 9517SOL     OW28574   1.458  11.907   8.176
 9517SOL    HW128575   1.453  11.842   8.251
 9517SOL    HW228576   1.538  11.966   8.189
 9518SOL     OW28577   0.461  12.438   9.175
 9518SOL    HW128578   0.411  12.439   9.089
 9518SOL    HW228579   0.398  12.420   9.251
 9519SOL     OW28580   0.202  11.457   8.946
 9519SOL    HW128581   0.122  11.517   8.933
 9519SOL    HW228582   0.192  11.408   9.032
 9520SOL     OW28583   1.632  12.549   7.529
 9520SOL    HW128584   1.600  12.643   7.519
 9520SOL    HW228585   1.556  12.486   7.517
 9521SOL     OW28586   1.400  11.279   7.874
 9521SOL    HW128587   1.376  11.242   7.784
 9521SOL    HW228588   1.499  11.295   7.878
 9522SOL     OW28589   0.382  11.872   7.928
 9522SOL    HW128590   0.427  11.782   7.925
 9522SOL    HW228591   0.288  11.861   7.961
 9523SOL     OW28592   1.547  11.394   9.177
 9523SOL    HW128593   1.542  11.431   9.269
 9523SOL    HW228594   1.475  11.325   9.165
 9524SOL     OW28595   0.614  11.294   7.565
 9524SOL    HW128596   0.712  11.272   7.572
 9524SOL    HW228597   0.583  11.277   7.472
 9525SOL     OW28598   0.781  11.436   9.197
 9525SOL    HW128599   0.848  11.375   9.240
 9525SOL    HW228600   0.708  11.455   9.262
 9526SOL     OW28601   1.351  11.762   8.881
 9526SOL    HW128602   1.379  11.719   8.966
 9526SOL    HW228603   1.376  11.858   8.882
 9527SOL     OW28604   0.803  12.574   8.372
 9527SOL    HW128605   0.893  12.588   8.330
 9527SOL    HW228606   0.732  12.576   8.301
 9528SOL     OW28607   0.922  11.675   8.347
 9528SOL    HW128608   0.897  11.666   8.251
 9528SOL    HW228609   0.970  11.593   8.378
 9529SOL     OW28610   0.539  11.236   7.960
 9529SOL    HW128611   0.458  11.237   8.018
 9529SOL    HW228612   0.542  11.319   7.905
 9530SOL     OW28613   1.434  12.360   7.489
 9530SOL    HW128614   1.466  12.284   7.546
 9530SOL    HW228615   1.342  12.387   7.519
 9531SOL     OW28616   0.297  11.207   7.619
 9531SOL    HW128617   0.346  11.291   7.598
 9531SOL    HW228618   0.359  11.142   7.664
 9532SOL     OW28619   0.935  11.408   7.928
 9532SOL    HW128620   0.887  11.449   7.850
 9532SOL    HW228621   1.034  11.406   7.909
 9533SOL     OW28622   1.076  11.855   8.912
 9533SOL    HW128623   0.996  11.794   8.915
 9533SOL    HW228624   1.157  11.802   8.888
 9534SOL     OW28625   1.227  12.742   8.241
 9534SOL    HW128626   1.248  12.816   8.176
 9534SOL    HW228627   1.295  12.742   8.314
 9535SOL     OW28628   0.459  12.324   8.189
 9535SOL    HW128629   0.388  12.297   8.254
 9535SOL    HW228630   0.433  12.296   8.096
 9536SOL     OW28631   1.032  11.721   7.464
 9536SOL    HW128632   0.991  11.803   7.425
 9536SOL    HW228633   1.096  11.747   7.537
 9537SOL     OW28634   0.078  11.728   8.834
 9537SOL    HW128635   0.170  11.727   8.793
 9537SOL    HW228636   0.072  11.802   8.901
 9538SOL     OW28637   0.561  11.394   8.595
 9538SOL    HW128638   0.599  11.310   8.632
 9538SOL    HW228639   0.473  11.413   8.639
 9539SOL     OW28640   0.866  11.626   8.090
 9539SOL    HW128641   0.834  11.698   8.028
 9539SOL    HW228642   0.890  11.545   8.037
 9540SOL     OW28643   1.017  11.211   8.201
 9540SOL    HW128644   0.945  11.216   8.132
 9540SOL    HW228645   0.993  11.142   8.270
 9541SOL     OW28646   1.429  12.345   8.315
 9541SOL    HW128647   1.374  12.261   8.308
 9541SOL    HW228648   1.455  12.374   8.223
 9542SOL     OW28649   1.466  11.762   8.440
 9542SOL    HW128650   1.436  11.667   8.447
 9542SOL    HW228651   1.539  11.778   8.506
 9543SOL     OW28652   1.857  12.005   7.825
 9543SOL    HW128653   1.899  11.941   7.889
 9543SOL    HW228654   1.819  11.954   7.747
 9544SOL     OW28655   0.488  12.557   7.622
 9544SOL    HW128656   0.401  12.542   7.669
 9544SOL    HW228657   0.471  12.583   7.527
 9545SOL     OW28658   1.664  12.452   8.105
 9545SOL    HW128659   1.763  12.460   8.119
 9545SOL    HW228660   1.619  12.536   8.136
 9546SOL     OW28661   1.390  11.747   7.526
 9546SOL    HW128662   1.336  11.726   7.607
 9546SOL    HW228663   1.481  11.706   7.535
 9547SOL     OW28664   0.527  11.428   7.776
 9547SOL    HW128665   0.554  11.369   7.701
 9547SOL    HW228666   0.527  11.523   7.745
 9548SOL     OW28667   1.754  12.395   9.036
 9548SOL    HW128668   1.845  12.356   9.023
 9548SOL    HW228669   1.762  12.491   9.060
 9549SOL     OW28670   1.064  12.519   8.788
 9549SOL    HW128671   0.984  12.496   8.843
 9549SOL    HW228672   1.147  12.493   8.837
 9550SOL     OW28673   1.111  12.367   8.548
 9550SOL    HW128674   1.071  12.411   8.629
 9550SOL    HW228675   1.070  12.404   8.465
 9551SOL     OW28676   1.638  12.271   8.527
 9551SOL    HW128677   1.643  12.352   8.586
 9551SOL    HW228678   1.552  12.273   8.476
 9552SOL     OW28679   0.915  11.261   8.850
 9552SOL    HW128680   0.940  11.241   8.755
 9552SOL    HW228681   0.987  11.317   8.892
 9553SOL     OW28682   0.980  12.288   9.167
 9553SOL    HW128683   0.881  12.294   9.177
 9553SOL    HW228684   1.003  12.208   9.111
 9554SOL     OW28685   0.705  12.222   7.816
 9554SOL    HW128686   0.691  12.229   7.915
 9554SOL    HW228687   0.789  12.171   7.798
 9555SOL     OW28688   0.410  11.985   8.699
 9555SOL    HW128689   0.496  11.997   8.749
 9555SOL    HW228690   0.368  11.898   8.726
 9556SOL     OW28691   1.274  11.558   8.710
 9556SOL    HW128692   1.295  11.632   8.774
 9556SOL    HW228693   1.185  11.575   8.667
 9557SOL     OW28694   0.064  12.736   8.779
 9557SOL    HW128695   0.018  12.818   8.745
 9557SOL    HW228696   0.162  12.755   8.788
 9558SOL     OW28697   0.367  12.272   7.949
 9558SOL    HW128698   0.360  12.355   7.893
 9558SOL    HW228699   0.371  12.192   7.889
 9559SOL     OW28700   0.566  11.709   8.313
 9559SOL    HW128701   0.578  11.775   8.239
 9559SOL    HW228702   0.612  11.743   8.396
 9560SOL     OW28703   1.252  12.520   7.836
 9560SOL    HW128704   1.302  12.597   7.876
 9560SOL    HW228705   1.157  12.522   7.868
 9561SOL     OW28706   1.272  12.617   8.590
 9561SOL    HW128707   1.319  12.630   8.677
 9561SOL    HW228708   1.206  12.543   8.599
 9562SOL     OW28709   1.582  11.811   7.920
 9562SOL    HW128710   1.551  11.872   7.993
 9562SOL    HW228711   1.632  11.863   7.851
 9563SOL     OW28712   0.354  12.682   8.777
 9563SOL    HW128713   0.333  12.638   8.690
 9563SOL    HW228714   0.451  12.708   8.780
 9564SOL     OW28715   0.402  11.923   9.046
 9564SOL    HW128716   0.470  11.978   8.999
 9564SOL    HW228717   0.442  11.835   9.073
 9565SOL     OW28718   1.587  11.951   9.118
 9565SOL    HW128719   1.495  11.989   9.113
 9565SOL    HW228720   1.647  11.998   9.053
 9566SOL     OW28721   1.013  11.277   9.218
 9566SOL    HW128722   1.019  11.362   9.166
 9566SOL    HW228723   1.045  11.201   9.161
 9567SOL     OW28724   0.504  11.222   9.188
 9567SOL    HW128725   0.462  11.165   9.118
 9567SOL    HW228726   0.438  11.291   9.220
 9568SOL     OW28727   0.573  12.042   8.477
 9568SOL    HW128728   0.617  12.131   8.468
 9568SOL    HW228729   0.510  12.042   8.554
 9569SOL     OW28730   1.360  12.034   8.493
 9569SOL    HW128731   1.285  12.034   8.427
 9569SOL    HW228732   1.397  11.942   8.502
 9570SOL     OW28733   1.209  11.697   7.723
 9570SOL    HW128734   1.222  11.613   7.777
 9570SOL    HW228735   1.180  11.771   7.783
 9571SOL     OW28736   0.307  11.385   8.679
 9571SOL    HW128737   0.284  11.422   8.769
 9571SOL    HW228738   0.277  11.290   8.673
 9572SOL     OW28739   0.037  12.482   8.730
 9572SOL    HW128740   0.090  12.433   8.798
 9572SOL    HW228741   0.059  12.580   8.735
 9573SOL     OW28742   0.732  11.806   8.512
 9573SOL    HW128743   0.791  11.780   8.436
 9573SOL    HW228744   0.704  11.902   8.501
 9574SOL     OW28745   1.728  12.107   9.302
 9574SOL    HW128746   1.682  12.100   9.213
 9574SOL    HW228747   1.666  12.151   9.368
 9575SOL     OW28748   0.307  11.235   8.066
 9575SOL    HW128749   0.296  11.329   8.099
 9575SOL    HW228750   0.302  11.172   8.143
 9576SOL     OW28751   1.622  11.539   7.822
 9576SOL    HW128752   1.624  11.463   7.886
 9576SOL    HW228753   1.574  11.616   7.862
 9577SOL     OW28754   1.023  11.938   8.414
 9577SOL    HW128755   1.038  11.959   8.510
 9577SOL    HW228756   0.993  11.843   8.405
 9578SOL     OW28757   1.859  12.690   9.053
 9578SOL    HW128758   1.873  12.717   8.958
 9578SOL    HW228759   1.942  12.712   9.106
 9579SOL     OW28760   0.350  12.070   9.252
 9579SOL    HW128761   0.426  12.114   9.300
 9579SOL    HW228762   0.385  12.023   9.170
 9580SOL     OW28763   1.540  11.446   7.573
 9580SOL    HW128764   1.479  11.371   7.596
 9580SOL    HW228765   1.562  11.498   7.656
 9581SOL     OW28766   1.303  12.010   7.490
 9581SOL    HW128767   1.337  11.917   7.505
 9581SOL    HW228768   1.321  12.037   7.395
 9582SOL     OW28769   1.068  12.505   8.297
 9582SOL    HW128770   1.075  12.421   8.242
 9582SOL    HW228771   1.130  12.574   8.261
 9583SOL     OW28772   0.319  11.982   8.397
 9583SOL    HW128773   0.412  12.018   8.402
 9583SOL    HW228774   0.313  11.897   8.449
 9584SOL     OW28775   0.339  11.681   8.454
 9584SOL    HW128776   0.287  11.598   8.437
 9584SOL    HW228777   0.416  11.686   8.390
 9585SOL     OW28778   1.138  11.552   9.126
 9585SOL    HW128779   1.093  11.615   9.190
 9585SOL    HW228780   1.231  11.583   9.109
 9586SOL     OW28781   1.160  11.379   8.925
 9586SOL    HW128782   1.160  11.443   9.002
 9586SOL    HW228783   1.188  11.427   8.842
 9587SOL     OW28784   0.008  12.498   7.648
 9587SOL    HW128785  -0.085  12.519   7.617
 9587SOL    HW228786   0.018  12.399   7.661
 9588SOL     OW28787   0.504  12.740   8.358
 9588SOL    HW128788   0.570  12.814   8.367
 9588SOL    HW228789   0.548  12.661   8.316
 9589SOL     OW28790   1.002  11.968   8.686
 9589SOL    HW128791   1.043  11.936   8.772
 9589SOL    HW228792   0.906  11.941   8.683
 9590SOL     OW28793   0.040  11.716   8.562
 9590SOL    HW128794   0.125  11.683   8.521
 9590SOL    HW228795   0.053  11.731   8.660
 9591SOL     OW28796   0.189  11.692   9.170
 9591SOL    HW128797   0.248  11.652   9.100
 9591SOL    HW228798   0.131  11.763   9.129
 9592SOL     OW28799   1.369  12.122   9.108
 9592SOL    HW128800   1.408  12.211   9.128
 9592SOL    HW228801   1.379  12.102   9.011
 9593SOL     OW28802   0.815  11.744   7.773
 9593SOL    HW128803   0.822  11.655   7.727
 9593SOL    HW228804   0.721  11.778   7.765
 9594SOL     OW28805   1.657  11.776   8.654
 9594SOL    HW128806   1.619  11.707   8.716
 9594SOL    HW228807   1.739  11.740   8.610
 9595SOL     OW28808   0.252  12.736   9.192
 9595SOL    HW128809   0.222  12.793   9.268
 9595SOL    HW228810   0.245  12.639   9.218
 9596SOL     OW28811   0.671  11.636   8.717
 9596SOL    HW128812   0.637  11.547   8.687
 9596SOL    HW228813   0.697  11.690   8.637
 9597SOL     OW28814   0.473  11.672   7.639
 9597SOL    HW128815   0.534  11.752   7.643
 9597SOL    HW228816   0.378  11.703   7.646
 9598SOL     OW28817   0.159  12.309   8.914
 9598SOL    HW128818   0.181  12.248   8.990
 9598SOL    HW228819   0.169  12.260   8.828
 9599SOL     OW28820   1.347  12.231   8.682
 9599SOL    HW128821   1.371  12.168   8.608
 9599SOL    HW228822   1.257  12.271   8.664
 9600SOL     OW28823   1.302  12.027   7.757
 9600SOL    HW128824   1.216  11.996   7.799
 9600SOL    HW228825   1.298  12.013   7.658
 9601SOL     OW28826   1.252  12.903   8.576
 9601SOL    HW128827   1.336  12.908   8.522
 9601SOL    HW228828   1.229  12.807   8.594
 9602SOL     OW28829   0.083  12.430   8.470
 9602SOL    HW128830   0.078  12.429   8.570
 9602SOL    HW228831   0.000  12.389   8.432
 9603SOL     OW28832   1.726  11.307   7.971
 9603SOL    HW128833   1.799  11.290   7.904
 9603SOL    HW228834   1.695  11.220   8.009
 9604SOL     OW28835   0.130  12.966   9.299
 9604SOL    HW128836   0.089  12.892   9.352
 9604SOL    HW228837   0.194  13.017   9.357
 9605SOL     OW28838   1.280  12.099   8.120
 9605SOL    HW128839   1.340  12.018   8.122
 9605SOL    HW228840   1.320  12.168   8.060
 9606SOL     OW28841   0.830  12.445   8.870
 9606SOL    HW128842   0.825  12.478   8.965
 9606SOL    HW228843   0.744  12.464   8.824
 9607SOL     OW28844   0.672  12.788   7.602
 9607SOL    HW128845   0.681  12.798   7.503
 9607SOL    HW228846   0.632  12.699   7.623
 9608SOL     OW28847   1.841  11.347   8.411
 9608SOL    HW128848   1.880  11.262   8.375
 9608SOL    HW228849   1.743  11.349   8.392
 9609SOL     OW28850   0.263  11.498   8.168
 9609SOL    HW128851   0.184  11.549   8.134
 9609SOL    HW228852   0.254  11.483   8.266
 9610SOL     OW28853   1.194  12.784   7.479
 9610SOL    HW128854   1.200  12.691   7.516
 9610SOL    HW228855   1.135  12.784   7.399
 9611SOL     OW28856   0.822  12.174   8.820
 9611SOL    HW128857   0.862  12.173   8.728
 9611SOL    HW228858   0.832  12.266   8.860
 9612SOL     OW28859   0.916  12.082   7.739
 9612SOL    HW128860   0.979  12.120   7.671
 9612SOL    HW228861   0.956  11.999   7.778
 9613SOL     OW28862   0.372  12.460   8.938
 9613SOL    HW128863   0.359  12.553   8.904
 9613SOL    HW228864   0.288  12.408   8.925
 9614SOL     OW28865   1.614  12.464   8.737
 9614SOL    HW128866   1.674  12.467   8.817
 9614SOL    HW228867   1.539  12.528   8.750
 9615SOL     OW28868   1.039  12.270   8.144
 9615SOL    HW128869   0.969  12.223   8.198
 9615SOL    HW228870   1.098  12.202   8.101
 9616SOL     OW28871   1.014  11.408   8.419
 9616SOL    HW128872   1.006  11.372   8.326
 9616SOL    HW228873   1.012  11.332   8.484
 9617SOL     OW28874   0.590  12.659   7.939
 9617SOL    HW128875   0.632  12.601   7.869
 9617SOL    HW228876   0.546  12.738   7.895
 9618SOL     OW28877   1.709  11.557   8.829
 9618SOL    HW128878   1.782  11.626   8.833
 9618SOL    HW228879   1.737  11.482   8.770
 9619SOL     OW28880   0.255  12.520   7.738
 9619SOL    HW128881   0.159  12.521   7.711
 9619SOL    HW228882   0.267  12.573   7.822
 9620SOL     OW28883   0.105  12.185   9.174
 9620SOL    HW128884   0.028  12.152   9.228
 9620SOL    HW228885   0.190  12.155   9.216
 9621SOL     OW28886   0.672  11.375   8.937
 9621SOL    HW128887   0.762  11.359   8.897
 9621SOL    HW228888   0.680  11.380   9.036
 9622SOL     OW28889   0.075  11.517   7.481
 9622SOL    HW128890  -0.017  11.489   7.452
 9622SOL    HW228891   0.106  11.594   7.425
 9623SOL     OW28892   1.440  12.028   8.846
 9623SOL    HW128893   1.383  12.080   8.783
 9623SOL    HW228894   1.536  12.040   8.822
 9624SOL     OW28895   0.072  11.338   7.766
 9624SOL    HW128896   0.055  11.421   7.712
 9624SOL    HW228897   0.162  11.301   7.744
 9625SOL     OW28898   1.183  12.507   7.567
 9625SOL    HW128899   1.084  12.496   7.569
 9625SOL    HW228900   1.217  12.522   7.660
 9626SOL     OW28901   0.613  12.014   8.879
 9626SOL    HW128902   0.669  12.095   8.862
 9626SOL    HW228903   0.672  11.934   8.882
 9627SOL     OW28904   0.716  11.737   9.156
 9627SOL    HW128905   0.735  11.802   9.230
 9627SOL    HW228906   0.776  11.657   9.165
 9628SOL     OW28907   1.450  12.392   9.081
 9628SOL    HW128908   1.441  12.382   9.180
 9628SOL    HW228909   1.546  12.385   9.055
 9629SOL     OW28910   1.674  12.055   8.702
 9629SOL    HW128911   1.647  11.966   8.665
 9629SOL    HW228912   1.675  12.123   8.629
 9630SOL     OW28913   1.225  11.497   7.897
 9630SOL    HW128914   1.290  11.423   7.886
 9630SOL    HW228915   1.245  11.547   7.981
 9631SOL     OW28916   0.594  11.917   8.100
 9631SOL    HW128917   0.644  12.002   8.081
 9631SOL    HW228918   0.506  11.919   8.052
 9632SOL     OW28919   1.730  12.106   8.965
 9632SOL    HW128920   1.768  12.197   8.980
 9632SOL    HW228921   1.722  12.089   8.866
 9633SOL     OW28922   0.859  12.546   7.464
 9633SOL    HW128923   0.813  12.561   7.552
 9633SOL    HW228924   0.903  12.631   7.434
 9634SOL     OW28925   0.859  12.128   8.309
 9634SOL    HW128926   0.913  12.059   8.357
 9634SOL    HW228927   0.827  12.197   8.375
 9635SOL     OW28928   1.083  12.156   7.535
 9635SOL    HW128929   1.060  12.209   7.453
 9635SOL    HW228930   1.164  12.100   7.516
 9636SOL     OW28931   1.861  12.741   8.299
 9636SOL    HW128932   1.790  12.729   8.229
 9636SOL    HW228933   1.862  12.662   8.359
 9637SOL     OW28934   0.221  12.486   9.292
 9637SOL    HW128935   0.156  12.413   9.271
 9637SOL    HW228936   0.225  12.500   9.390
 9638SOL     OW28937   0.079  12.412   8.101
 9638SOL    HW128938   0.078  12.365   8.189
 9638SOL    HW228939   0.161  12.384   8.050
 9639SOL     OW28940   0.672  12.563   9.072
 9639SOL    HW128941   0.594  12.513   9.110
 9639SOL    HW228942   0.669  12.658   9.103
 9640SOL     OW28943   1.824  11.364   8.675
 9640SOL    HW128944   1.820  11.274   8.719
 9640SOL    HW228945   1.827  11.353   8.576
 9641SOL     OW28946   0.428  11.596   7.968
 9641SOL    HW128947   0.458  11.524   7.906
 9641SOL    HW228948   0.389  11.556   8.051
 9642SOL     OW28949   1.705  12.659   8.552
 9642SOL    HW128950   1.612  12.634   8.525
 9642SOL    HW228951   1.731  12.609   8.634
 9643SOL     OW28952   0.317  11.719   8.728
 9643SOL    HW128953   0.355  11.660   8.800
 9643SOL    HW228954   0.357  11.693   8.640
 9644SOL     OW28955   1.424  11.386   8.560
 9644SOL    HW128956   1.476  11.321   8.615
 9644SOL    HW228957   1.375  11.449   8.621
 9645SOL     OW28958   1.001  11.206   8.602
 9645SOL    HW128959   0.938  11.134   8.571
 9645SOL    HW228960   1.094  11.170   8.602
 9646SOL     OW28961   0.770  12.502   7.749
 9646SOL    HW128962   0.724  12.415   7.766
 9646SOL    HW228963   0.861  12.499   7.790
 9647SOL     OW28964   0.618  12.739   8.732
 9647SOL    HW128965   0.613  12.821   8.789
 9647SOL    HW228966   0.707  12.736   8.687
 9648SOL     OW28967   1.352  11.224   7.616
 9648SOL    HW128968   1.387  11.183   7.532
 9648SOL    HW228969   1.262  11.186   7.636
 9649SOL     OW28970   1.300  11.625   8.139
 9649SOL    HW128971   1.241  11.705   8.143
 9649SOL    HW228972   1.315  11.590   8.232
 9650SOL     OW28973   1.593  11.393   8.330
 9650SOL    HW128974   1.509  11.392   8.384
 9650SOL    HW228975   1.595  11.476   8.274
 9651SOL     OW28976   0.039  12.249   7.748
 9651SOL    HW128977   0.138  12.238   7.739
 9651SOL    HW228978  -0.001  12.163   7.780
 9652SOL     OW28979   0.230  11.800   9.423
 9652SOL    HW128980   0.137  11.798   9.460
 9652SOL    HW228981   0.231  11.761   9.331
 9653SOL     OW28982   0.225  11.447  10.306
 9653SOL    HW128983   0.260  11.430  10.398
 9653SOL    HW228984   0.137  11.402  10.294
 9654SOL     OW28985   0.019  11.540   9.957
 9654SOL    HW128986  -0.063  11.583   9.996
 9654SOL    HW228987  -0.009  11.467   9.894
 9655SOL     OW28988   0.569  12.447  10.475
 9655SOL    HW128989   0.476  12.440  10.438
 9655SOL    HW228990   0.580  12.536  10.519
 9656SOL     OW28991   1.555  12.683  10.013
 9656SOL    HW128992   1.498  12.667  10.094
 9656SOL    HW228993   1.496  12.693   9.933
 9657SOL     OW28994   1.135  11.875  10.027
 9657SOL    HW128995   1.192  11.953  10.002
 9657SOL    HW228996   1.075  11.901  10.103
 9658SOL     OW28997   1.755  11.779   9.541
 9658SOL    HW128998   1.743  11.766   9.442
 9658SOL    HW228999   1.725  11.698   9.590
 9659SOL     OW29000   0.768  12.316  10.333
 9659SOL    HW129001   0.690  12.333  10.393
 9659SOL    HW229002   0.802  12.403  10.297
 9660SOL     OW29003   0.850  11.970  11.133
 9660SOL    HW129004   0.846  12.046  11.198
 9660SOL    HW229005   0.872  12.006  11.042
 9661SOL     OW29006   0.685  12.184   9.975
 9661SOL    HW129007   0.754  12.168  10.045
 9661SOL    HW229008   0.612  12.241  10.013
 9662SOL     OW29009   0.686  12.333  11.113
 9662SOL    HW129010   0.746  12.412  11.127
 9662SOL    HW229011   0.600  12.364  11.072
 9663SOL     OW29012   0.335  12.607  10.371
 9663SOL    HW129013   0.257  12.576  10.318
 9663SOL    HW229014   0.393  12.665  10.314
 9664SOL     OW29015   1.460  12.677  10.649
 9664SOL    HW129016   1.484  12.771  10.675
 9664SOL    HW229017   1.444  12.623  10.731
 9665SOL     OW29018   1.603  11.619  10.047
 9665SOL    HW129019   1.529  11.665   9.997
 9665SOL    HW229020   1.654  11.687  10.100
 9666SOL     OW29021   1.127  12.513  11.000
 9666SOL    HW129022   1.174  12.513  11.088
 9666SOL    HW229023   1.079  12.426  10.989
 9667SOL     OW29024   0.230  12.606   9.848
 9667SOL    HW129025   0.204  12.702   9.848
 9667SOL    HW229026   0.159  12.552   9.893
 9668SOL     OW29027   0.240  12.263  10.196
 9668SOL    HW129028   0.254  12.179  10.248
 9668SOL    HW229029   0.185  12.327  10.251
 9669SOL     OW29030   0.606  12.136   9.433
 9669SOL    HW129031   0.613  12.220   9.379
 9669SOL    HW229032   0.652  12.149   9.521
 9670SOL     OW29033   1.594  11.286  10.790
 9670SOL    HW129034   1.576  11.353  10.718
 9670SOL    HW229035   1.591  11.332  10.879
 9671SOL     OW29036   0.122  11.815   9.873
 9671SOL    HW129037   0.077  11.727   9.890
 9671SOL    HW229038   0.121  11.869   9.957
 9672SOL     OW29039   0.027  12.768   9.427
 9672SOL    HW129040   0.008  12.672   9.448
 9672SOL    HW229041  -0.006  12.826   9.502
 9673SOL     OW29042   1.689  12.094   9.922
 9673SOL    HW129043   1.784  12.065   9.930
 9673SOL    HW229044   1.681  12.159   9.847
 9674SOL     OW29045   1.641  12.280   9.742
 9674SOL    HW129046   1.727  12.282   9.690
 9674SOL    HW229047   1.655  12.327   9.830
 9675SOL     OW29048   0.113  11.909  10.907
 9675SOL    HW129049   0.201  11.896  10.952
 9675SOL    HW229050   0.100  12.006  10.885
 9676SOL     OW29051   0.613  12.537  10.036
 9676SOL    HW129052   0.564  12.450  10.045
 9676SOL    HW229053   0.590  12.580   9.949
 9677SOL     OW29054   1.293  12.400  10.733
 9677SOL    HW129055   1.330  12.327  10.675
 9677SOL    HW229056   1.345  12.405  10.818
 9678SOL     OW29057   0.809  11.176   9.812
 9678SOL    HW129058   0.849  11.267   9.803
 9678SOL    HW229059   0.709  11.184   9.818
 9679SOL     OW29060   0.197  12.148  10.574
 9679SOL    HW129061   0.286  12.103  10.560
 9679SOL    HW229062   0.124  12.083  10.555
 9680SOL     OW29063   1.525  12.171   9.500
 9680SOL    HW129064   1.462  12.095   9.513
 9680SOL    HW229065   1.573  12.189   9.586
 9681SOL     OW29066   0.317  11.423  11.111
 9681SOL    HW129067   0.388  11.494  11.117
 9681SOL    HW229068   0.229  11.462  11.139
 9682SOL     OW29069   1.466  12.589  10.263
 9682SOL    HW129070   1.407  12.595  10.343
 9682SOL    HW229071   1.451  12.501  10.217
 9683SOL     OW29072   0.598  11.901   9.580
 9683SOL    HW129073   0.622  11.970   9.512
 9683SOL    HW229074   0.520  11.934   9.634
 9684SOL     OW29075   1.281  11.517  10.254
 9684SOL    HW129076   1.195  11.467  10.241
 9684SOL    HW229077   1.343  11.463  10.310
 9685SOL     OW29078   1.576  12.834   9.617
 9685SOL    HW129079   1.665  12.880   9.620
 9685SOL    HW229080   1.555  12.810   9.522
 9686SOL     OW29081   0.807  11.777  10.775
 9686SOL    HW129082   0.760  11.774  10.864
 9686SOL    HW229083   0.756  11.722  10.709
 9687SOL     OW29084   1.394  11.641  10.984
 9687SOL    HW129085   1.374  11.684  11.072
 9687SOL    HW229086   1.472  11.579  10.993
 9688SOL     OW29087   0.973  12.062  10.882
 9688SOL    HW129088   1.019  11.978  10.853
 9688SOL    HW229089   0.917  12.096  10.807
 9689SOL     OW29090   0.991  11.582  10.552
 9689SOL    HW129091   0.914  11.616  10.606
 9689SOL    HW229092   0.957  11.531  10.473
 9690SOL     OW29093   1.041  11.873   9.739
 9690SOL    HW129094   1.067  11.869   9.835
 9690SOL    HW229095   0.956  11.822   9.725
 9691SOL     OW29096   0.076  11.983  10.099
 9691SOL    HW129097   0.175  11.971  10.108
 9691SOL    HW229098   0.052  12.078  10.120
 9692SOL     OW29099   0.865  11.520   9.505
 9692SOL    HW129100   0.924  11.583   9.456
 9692SOL    HW229101   0.884  11.426   9.476
 9693SOL     OW29102   1.719  11.757  11.141
 9693SOL    HW129103   1.693  11.846  11.105
 9693SOL    HW229104   1.717  11.689  11.068
 9694SOL     OW29105   1.362  12.316   9.855
 9694SOL    HW129106   1.445  12.287   9.807
 9694SOL    HW229107   1.313  12.383   9.799
 9695SOL     OW29108   0.550  11.368  10.195
 9695SOL    HW129109   0.545  11.363  10.295
 9695SOL    HW229110   0.552  11.464  10.166
 9696SOL     OW29111   1.008  12.628   9.787
 9696SOL    HW129112   0.962  12.700   9.735
 9696SOL    HW229113   1.004  12.648   9.885
 9697SOL     OW29114   1.795  12.238  10.183
 9697SOL    HW129115   1.733  12.223  10.107
 9697SOL    HW229116   1.743  12.249  10.268
 9698SOL     OW29117   1.227  12.722  10.816
 9698SOL    HW129118   1.233  12.645  10.880
 9698SOL    HW229119   1.175  12.696  10.736
 9699SOL     OW29120   0.321  12.115   9.552
 9699SOL    HW129121   0.403  12.154   9.510
 9699SOL    HW229122   0.294  12.033   9.503
 9700SOL     OW29123   1.458  11.907  10.038
 9700SOL    HW129124   1.453  11.842  10.113
 9700SOL    HW229125   1.538  11.966  10.051
 9701SOL     OW29126   0.461  12.438  11.037
 9701SOL    HW129127   0.411  12.439  10.951
 9701SOL    HW229128   0.398  12.420  11.113
 9702SOL     OW29129   0.202  11.457  10.808
 9702SOL    HW129130   0.122  11.517  10.795
 9702SOL    HW229131   0.192  11.408  10.894
 9703SOL     OW29132   1.632  12.549   9.391
 9703SOL    HW129133   1.600  12.643   9.381
 9703SOL    HW229134   1.556  12.486   9.379
 9704SOL     OW29135   1.400  11.279   9.736
 9704SOL    HW129136   1.376  11.242   9.646
 9704SOL    HW229137   1.499  11.295   9.740
 9705SOL     OW29138   0.382  11.872   9.790
 9705SOL    HW129139   0.427  11.782   9.787
 9705SOL    HW229140   0.288  11.861   9.823
 9706SOL     OW29141   1.547  11.394  11.039
 9706SOL    HW129142   1.542  11.431  11.131
 9706SOL    HW229143   1.475  11.325  11.027
 9707SOL     OW29144   0.614  11.294   9.427
 9707SOL    HW129145   0.712  11.272   9.434
 9707SOL    HW229146   0.583  11.277   9.334
 9708SOL     OW29147   0.781  11.436  11.059
 9708SOL    HW129148   0.848  11.375  11.102
 9708SOL    HW229149   0.708  11.455  11.124
 9709SOL     OW29150   1.351  11.762  10.743
 9709SOL    HW129151   1.379  11.719  10.828
 9709SOL    HW229152   1.376  11.858  10.744
 9710SOL     OW29153   0.803  12.574  10.234
 9710SOL    HW129154   0.893  12.588  10.192
 9710SOL    HW229155   0.732  12.576  10.163
 9711SOL     OW29156   0.922  11.675  10.209
 9711SOL    HW129157   0.897  11.666  10.113
 9711SOL    HW229158   0.970  11.593  10.240
 9712SOL     OW29159   0.539  11.236   9.822
 9712SOL    HW129160   0.458  11.237   9.880
 9712SOL    HW229161   0.542  11.319   9.767
 9713SOL     OW29162   1.434  12.360   9.351
 9713SOL    HW129163   1.466  12.284   9.408
 9713SOL    HW229164   1.342  12.387   9.381
 9714SOL     OW29165   0.297  11.207   9.481
 9714SOL    HW129166   0.346  11.291   9.460
 9714SOL    HW229167   0.359  11.142   9.526
 9715SOL     OW29168   0.935  11.408   9.790
 9715SOL    HW129169   0.887  11.449   9.712
 9715SOL    HW229170   1.034  11.406   9.771
 9716SOL     OW29171   1.076  11.855  10.774
 9716SOL    HW129172   0.996  11.794  10.777
 9716SOL    HW229173   1.157  11.802  10.750
 9717SOL     OW29174   1.227  12.742  10.103
 9717SOL    HW129175   1.248  12.816  10.038
 9717SOL    HW229176   1.295  12.742  10.176
 9718SOL     OW29177   0.459  12.324  10.051
 9718SOL    HW129178   0.388  12.297  10.116
 9718SOL    HW229179   0.433  12.296   9.958
 9719SOL     OW29180   1.032  11.721   9.326
 9719SOL    HW129181   0.991  11.803   9.287
 9719SOL    HW229182   1.096  11.747   9.399
 9720SOL     OW29183   0.078  11.728  10.696
 9720SOL    HW129184   0.170  11.727  10.655
 9720SOL    HW229185   0.072  11.802  10.763
 9721SOL     OW29186   0.561  11.394  10.457
 9721SOL    HW129187   0.599  11.310  10.494
 9721SOL    HW229188   0.473  11.413  10.501
 9722SOL     OW29189   0.866  11.626   9.952
 9722SOL    HW129190   0.834  11.698   9.890
 9722SOL    HW229191   0.890  11.545   9.899
 9723SOL     OW29192   1.017  11.211  10.063
 9723SOL    HW129193   0.945  11.216   9.994
 9723SOL    HW229194   0.993  11.142  10.132
 9724SOL     OW29195   1.429  12.345  10.177
 9724SOL    HW129196   1.374  12.261  10.170
 9724SOL    HW229197   1.455  12.374  10.085
 9725SOL     OW29198   1.466  11.762  10.302
 9725SOL    HW129199   1.436  11.667  10.309
 9725SOL    HW229200   1.539  11.778  10.368
 9726SOL     OW29201   1.857  12.005   9.687
 9726SOL    HW129202   1.899  11.941   9.751
 9726SOL    HW229203   1.819  11.954   9.609
 9727SOL     OW29204   0.488  12.557   9.484
 9727SOL    HW129205   0.401  12.542   9.531
 9727SOL    HW229206   0.471  12.583   9.389
 9728SOL     OW29207   1.664  12.452   9.967
 9728SOL    HW129208   1.763  12.460   9.981
 9728SOL    HW229209   1.619  12.536   9.998
 9729SOL     OW29210   1.390  11.747   9.388
 9729SOL    HW129211   1.336  11.726   9.469
 9729SOL    HW229212   1.481  11.706   9.397
 9730SOL     OW29213   0.527  11.428   9.638
 9730SOL    HW129214   0.554  11.369   9.563
 9730SOL    HW229215   0.527  11.523   9.607
 9731SOL     OW29216   1.754  12.395  10.898
 9731SOL    HW129217   1.845  12.356  10.885
 9731SOL    HW229218   1.762  12.491  10.922
 9732SOL     OW29219   1.111  12.367  10.410
 9732SOL    HW129220   1.071  12.411  10.491
 9732SOL    HW229221   1.070  12.404  10.327
 9733SOL     OW29222   1.638  12.271  10.389
 9733SOL    HW129223   1.643  12.352  10.448
 9733SOL    HW229224   1.552  12.273  10.338
 9734SOL     OW29225   0.915  11.261  10.712
 9734SOL    HW129226   0.940  11.241  10.617
 9734SOL    HW229227   0.987  11.317  10.754
 9735SOL     OW29228   0.980  12.288  11.029
 9735SOL    HW129229   0.881  12.294  11.039
 9735SOL    HW229230   1.003  12.208  10.973
 9736SOL     OW29231   0.705  12.222   9.678
 9736SOL    HW129232   0.691  12.229   9.777
 9736SOL    HW229233   0.789  12.171   9.660
 9737SOL     OW29234   0.410  11.985  10.561
 9737SOL    HW129235   0.496  11.997  10.611
 9737SOL    HW229236   0.368  11.898  10.588
 9738SOL     OW29237   1.274  11.558  10.572
 9738SOL    HW129238   1.295  11.632  10.636
 9738SOL    HW229239   1.185  11.575  10.529
 9739SOL     OW29240   0.064  12.736  10.641
 9739SOL    HW129241   0.018  12.818  10.607
 9739SOL    HW229242   0.162  12.755  10.650
 9740SOL     OW29243   0.367  12.272   9.811
 9740SOL    HW129244   0.360  12.355   9.755
 9740SOL    HW229245   0.371  12.192   9.751
 9741SOL     OW29246   0.566  11.709  10.175
 9741SOL    HW129247   0.578  11.775  10.101
 9741SOL    HW229248   0.612  11.743  10.258
 9742SOL     OW29249   1.252  12.520   9.698
 9742SOL    HW129250   1.302  12.597   9.738
 9742SOL    HW229251   1.157  12.522   9.730
 9743SOL     OW29252   1.272  12.617  10.452
 9743SOL    HW129253   1.319  12.630  10.539
 9743SOL    HW229254   1.206  12.543  10.461
 9744SOL     OW29255   1.582  11.811   9.782
 9744SOL    HW129256   1.551  11.872   9.855
 9744SOL    HW229257   1.632  11.863   9.713
 9745SOL     OW29258   0.354  12.682  10.639
 9745SOL    HW129259   0.333  12.638  10.552
 9745SOL    HW229260   0.451  12.708  10.642
 9746SOL     OW29261   0.402  11.923  10.908
 9746SOL    HW129262   0.470  11.978  10.861
 9746SOL    HW229263   0.442  11.835  10.935
 9747SOL     OW29264   1.587  11.951  10.980
 9747SOL    HW129265   1.495  11.989  10.975
 9747SOL    HW229266   1.647  11.998  10.915
 9748SOL     OW29267   1.013  11.277  11.080
 9748SOL    HW129268   1.019  11.362  11.028
 9748SOL    HW229269   1.045  11.201  11.023
 9749SOL     OW29270   0.504  11.222  11.050
 9749SOL    HW129271   0.462  11.165  10.980
 9749SOL    HW229272   0.438  11.291  11.082
 9750SOL     OW29273   0.573  12.042  10.339
 9750SOL    HW129274   0.617  12.131  10.330
 9750SOL    HW229275   0.510  12.042  10.416
 9751SOL     OW29276   1.360  12.034  10.355
 9751SOL    HW129277   1.285  12.034  10.289
 9751SOL    HW229278   1.397  11.942  10.364
 9752SOL     OW29279   1.209  11.697   9.585
 9752SOL    HW129280   1.222  11.613   9.639
 9752SOL    HW229281   1.180  11.771   9.645
 9753SOL     OW29282   0.307  11.385  10.541
 9753SOL    HW129283   0.284  11.422  10.631
 9753SOL    HW229284   0.277  11.290  10.535
 9754SOL     OW29285   0.037  12.482  10.592
 9754SOL    HW129286   0.090  12.433  10.660
 9754SOL    HW229287   0.059  12.580  10.597
 9755SOL     OW29288   0.732  11.806  10.374
 9755SOL    HW129289   0.791  11.780  10.298
 9755SOL    HW229290   0.704  11.902  10.363
 9756SOL     OW29291   1.728  12.107  11.164
 9756SOL    HW129292   1.682  12.100  11.075
 9756SOL    HW229293   1.666  12.151  11.230
 9757SOL     OW29294   0.307  11.235   9.928
 9757SOL    HW129295   0.296  11.329   9.961
 9757SOL    HW229296   0.302  11.172  10.005
 9758SOL     OW29297   1.622  11.539   9.684
 9758SOL    HW129298   1.624  11.463   9.748
 9758SOL    HW229299   1.574  11.616   9.724
 9759SOL     OW29300   1.023  11.938  10.276
 9759SOL    HW129301   1.038  11.959  10.372
 9759SOL    HW229302   0.993  11.843  10.267
 9760SOL     OW29303   1.859  12.690  10.915
 9760SOL    HW129304   1.873  12.717  10.820
 9760SOL    HW229305   1.942  12.712  10.968
 9761SOL     OW29306   0.350  12.070  11.114
 9761SOL    HW129307   0.426  12.114  11.162
 9761SOL    HW229308   0.385  12.023  11.032
 9762SOL     OW29309   1.540  11.446   9.435
 9762SOL    HW129310   1.479  11.371   9.458
 9762SOL    HW229311   1.562  11.498   9.518
 9763SOL     OW29312   1.303  12.010   9.352
 9763SOL    HW129313   1.337  11.917   9.367
 9763SOL    HW229314   1.321  12.037   9.257
 9764SOL     OW29315   1.068  12.505  10.159
 9764SOL    HW129316   1.075  12.421  10.104
 9764SOL    HW229317   1.130  12.574  10.123
 9765SOL     OW29318   0.319  11.982  10.259
 9765SOL    HW129319   0.412  12.018  10.264
 9765SOL    HW229320   0.313  11.897  10.311
 9766SOL     OW29321   0.339  11.681  10.316
 9766SOL    HW129322   0.287  11.598  10.299
 9766SOL    HW229323   0.416  11.686  10.252
 9767SOL     OW29324   1.138  11.552  10.988
 9767SOL    HW129325   1.093  11.615  11.052
 9767SOL    HW229326   1.231  11.583  10.971
 9768SOL     OW29327   1.160  11.379  10.787
 9768SOL    HW129328   1.160  11.443  10.864
 9768SOL    HW229329   1.188  11.427  10.704
 9769SOL     OW29330   0.008  12.498   9.510
 9769SOL    HW129331  -0.085  12.519   9.479
 9769SOL    HW229332   0.018  12.399   9.523
 9770SOL     OW29333   0.504  12.740  10.220
 9770SOL    HW129334   0.570  12.814  10.229
 9770SOL    HW229335   0.548  12.661  10.178
 9771SOL     OW29336   1.002  11.968  10.548
 9771SOL    HW129337   1.043  11.936  10.634
 9771SOL    HW229338   0.906  11.941  10.545
 9772SOL     OW29339   0.040  11.716  10.424
 9772SOL    HW129340   0.125  11.683  10.383
 9772SOL    HW229341   0.053  11.731  10.522
 9773SOL     OW29342   0.189  11.692  11.032
 9773SOL    HW129343   0.248  11.652  10.962
 9773SOL    HW229344   0.131  11.763  10.991
 9774SOL     OW29345   1.369  12.122  10.970
 9774SOL    HW129346   1.408  12.211  10.990
 9774SOL    HW229347   1.379  12.102  10.873
 9775SOL     OW29348   0.815  11.744   9.635
 9775SOL    HW129349   0.822  11.655   9.589
 9775SOL    HW229350   0.721  11.778   9.627
 9776SOL     OW29351   1.657  11.776  10.516
 9776SOL    HW129352   1.619  11.707  10.578
 9776SOL    HW229353   1.739  11.740  10.472
 9777SOL     OW29354   0.252  12.736  11.054
 9777SOL    HW129355   0.222  12.793  11.130
 9777SOL    HW229356   0.245  12.639  11.080
 9778SOL     OW29357   0.671  11.636  10.579
 9778SOL    HW129358   0.637  11.547  10.549
 9778SOL    HW229359   0.697  11.690  10.499
 9779SOL     OW29360   0.473  11.672   9.501
 9779SOL    HW129361   0.534  11.752   9.505
 9779SOL    HW229362   0.378  11.703   9.508
 9780SOL     OW29363   0.159  12.309  10.776
 9780SOL    HW129364   0.181  12.248  10.852
 9780SOL    HW229365   0.169  12.260  10.690
 9781SOL     OW29366   1.347  12.231  10.544
 9781SOL    HW129367   1.371  12.168  10.470
 9781SOL    HW229368   1.257  12.271  10.526
 9782SOL     OW29369   1.302  12.027   9.619
 9782SOL    HW129370   1.216  11.996   9.661
 9782SOL    HW229371   1.298  12.013   9.520
 9783SOL     OW29372   1.252  12.903  10.438
 9783SOL    HW129373   1.336  12.908  10.384
 9783SOL    HW229374   1.229  12.807  10.456
 9784SOL     OW29375   0.083  12.430  10.332
 9784SOL    HW129376   0.078  12.429  10.432
 9784SOL    HW229377   0.000  12.389  10.294
 9785SOL     OW29378   1.726  11.307   9.833
 9785SOL    HW129379   1.799  11.290   9.766
 9785SOL    HW229380   1.695  11.220   9.871
 9786SOL     OW29381   0.130  12.966  11.161
 9786SOL    HW129382   0.089  12.892  11.214
 9786SOL    HW229383   0.194  13.017  11.219
 9787SOL     OW29384   1.280  12.099   9.982
 9787SOL    HW129385   1.340  12.018   9.984
 9787SOL    HW229386   1.320  12.168   9.922
 9788SOL     OW29387   0.830  12.445  10.732
 9788SOL    HW129388   0.825  12.478  10.827
 9788SOL    HW229389   0.744  12.464  10.686
 9789SOL     OW29390   0.672  12.788   9.464
 9789SOL    HW129391   0.681  12.798   9.365
 9789SOL    HW229392   0.632  12.699   9.485
 9790SOL     OW29393   1.841  11.347  10.273
 9790SOL    HW129394   1.880  11.262  10.237
 9790SOL    HW229395   1.743  11.349  10.254
 9791SOL     OW29396   0.263  11.498  10.030
 9791SOL    HW129397   0.184  11.549   9.996
 9791SOL    HW229398   0.254  11.483  10.128
 9792SOL     OW29399   1.194  12.784   9.341
 9792SOL    HW129400   1.200  12.691   9.378
 9792SOL    HW229401   1.135  12.784   9.261
 9793SOL     OW29402   0.822  12.174  10.682
 9793SOL    HW129403   0.862  12.173  10.590
 9793SOL    HW229404   0.832  12.266  10.722
 9794SOL     OW29405   0.916  12.082   9.601
 9794SOL    HW129406   0.979  12.120   9.533
 9794SOL    HW229407   0.956  11.999   9.640
 9795SOL     OW29408   0.372  12.460  10.800
 9795SOL    HW129409   0.359  12.553  10.766
 9795SOL    HW229410   0.288  12.408  10.787
 9796SOL     OW29411   1.614  12.464  10.599
 9796SOL    HW129412   1.674  12.467  10.679
 9796SOL    HW229413   1.539  12.528  10.612
 9797SOL     OW29414   1.039  12.270  10.006
 9797SOL    HW129415   0.969  12.223  10.060
 9797SOL    HW229416   1.098  12.202   9.963
 9798SOL     OW29417   1.014  11.408  10.281
 9798SOL    HW129418   1.006  11.372  10.188
 9798SOL    HW229419   1.012  11.332  10.346
 9799SOL     OW29420   0.590  12.659   9.801
 9799SOL    HW129421   0.632  12.601   9.731
 9799SOL    HW229422   0.546  12.738   9.757
 9800SOL     OW29423   1.709  11.557  10.691
 9800SOL    HW129424   1.782  11.626  10.695
 9800SOL    HW229425   1.737  11.482  10.632
 9801SOL     OW29426   0.255  12.520   9.600
 9801SOL    HW129427   0.159  12.521   9.573
 9801SOL    HW229428   0.267  12.573   9.684
 9802SOL     OW29429   0.105  12.185  11.036
 9802SOL    HW129430   0.028  12.152  11.090
 9802SOL    HW229431   0.190  12.155  11.078
 9803SOL     OW29432   0.672  11.375  10.799
 9803SOL    HW129433   0.762  11.359  10.759
 9803SOL    HW229434   0.680  11.380  10.898
 9804SOL     OW29435   0.075  11.517   9.343
 9804SOL    HW129436  -0.017  11.489   9.314
 9804SOL    HW229437   0.106  11.594   9.287
 9805SOL     OW29438   1.440  12.028  10.708
 9805SOL    HW129439   1.383  12.080  10.645
 9805SOL    HW229440   1.536  12.040  10.684
 9806SOL     OW29441   0.072  11.338   9.628
 9806SOL    HW129442   0.055  11.421   9.574
 9806SOL    HW229443   0.162  11.301   9.606
 9807SOL     OW29444   1.183  12.507   9.429
 9807SOL    HW129445   1.084  12.496   9.431
 9807SOL    HW229446   1.217  12.522   9.522
 9808SOL     OW29447   0.613  12.014  10.741
 9808SOL    HW129448   0.669  12.095  10.724
 9808SOL    HW229449   0.672  11.934  10.744
 9809SOL     OW29450   0.716  11.737  11.018
 9809SOL    HW129451   0.735  11.802  11.092
 9809SOL    HW229452   0.776  11.657  11.027
 9810SOL     OW29453   1.450  12.392  10.943
 9810SOL    HW129454   1.441  12.382  11.042
 9810SOL    HW229455   1.546  12.385  10.917
 9811SOL     OW29456   1.674  12.055  10.564
 9811SOL    HW129457   1.647  11.966  10.527
 9811SOL    HW229458   1.675  12.123  10.491
 9812SOL     OW29459   1.225  11.497   9.759
 9812SOL    HW129460   1.290  11.423   9.748
 9812SOL    HW229461   1.245  11.547   9.843
 9813SOL     OW29462   0.594  11.917   9.962
 9813SOL    HW129463   0.644  12.002   9.943
 9813SOL    HW229464   0.506  11.919   9.914
 9814SOL     OW29465   1.777  11.514  10.952
 9814SOL    HW129466   1.760  11.545  10.858
 9814SOL    HW229467   1.693  11.477  10.990
 9815SOL     OW29468   1.730  12.106  10.827
 9815SOL    HW129469   1.768  12.197  10.842
 9815SOL    HW229470   1.722  12.089  10.728
 9816SOL     OW29471   0.859  12.546   9.326
 9816SOL    HW129472   0.813  12.561   9.414
 9816SOL    HW229473   0.903  12.631   9.296
 9817SOL     OW29474   0.859  12.128  10.171
 9817SOL    HW129475   0.913  12.059  10.219
 9817SOL    HW229476   0.827  12.197  10.237
 9818SOL     OW29477   1.083  12.156   9.397
 9818SOL    HW129478   1.060  12.209   9.315
 9818SOL    HW229479   1.164  12.100   9.378
 9819SOL     OW29480   1.861  12.741  10.161
 9819SOL    HW129481   1.790  12.729  10.091
 9819SOL    HW229482   1.862  12.662  10.221
 9820SOL     OW29483   0.221  12.486  11.154
 9820SOL    HW129484   0.156  12.413  11.133
 9820SOL    HW229485   0.225  12.500  11.252
 9821SOL     OW29486   0.079  12.412   9.963
 9821SOL    HW129487   0.078  12.365  10.051
 9821SOL    HW229488   0.161  12.384   9.912
 9822SOL     OW29489   0.672  12.563  10.934
 9822SOL    HW129490   0.594  12.513  10.972
 9822SOL    HW229491   0.669  12.658  10.965
 9823SOL     OW29492   1.824  11.364  10.537
 9823SOL    HW129493   1.820  11.274  10.581
 9823SOL    HW229494   1.827  11.353  10.438
 9824SOL     OW29495   0.428  11.596   9.830
 9824SOL    HW129496   0.458  11.524   9.768
 9824SOL    HW229497   0.389  11.556   9.913
 9825SOL     OW29498   1.705  12.659  10.414
 9825SOL    HW129499   1.612  12.634  10.387
 9825SOL    HW229500   1.731  12.609  10.496
 9826SOL     OW29501   0.317  11.719  10.590
 9826SOL    HW129502   0.355  11.660  10.662
 9826SOL    HW229503   0.357  11.693  10.502
 9827SOL     OW29504   1.424  11.386  10.422
 9827SOL    HW129505   1.476  11.321  10.477
 9827SOL    HW229506   1.375  11.449  10.483
 9828SOL     OW29507   1.001  11.206  10.464
 9828SOL    HW129508   0.938  11.134  10.433
 9828SOL    HW229509   1.094  11.170  10.464
 9829SOL     OW29510   0.770  12.502   9.611
 9829SOL    HW129511   0.724  12.415   9.628
 9829SOL    HW229512   0.861  12.499   9.652
 9830SOL     OW29513   0.618  12.739  10.594
 9830SOL    HW129514   0.613  12.821  10.651
 9830SOL    HW229515   0.707  12.736  10.549
 9831SOL     OW29516   1.352  11.224   9.478
 9831SOL    HW129517   1.387  11.183   9.394
 9831SOL    HW229518   1.262  11.186   9.498
 9832SOL     OW29519   1.300  11.625  10.001
 9832SOL    HW129520   1.241  11.705  10.005
 9832SOL    HW229521   1.315  11.590  10.094
 9833SOL     OW29522   1.593  11.393  10.192
 9833SOL    HW129523   1.509  11.392  10.246
 9833SOL    HW229524   1.595  11.476  10.136
 9834SOL     OW29525   0.039  12.249   9.610
 9834SOL    HW129526   0.138  12.238   9.601
 9834SOL    HW229527  -0.001  12.163   9.642
 9835SOL     OW29528   0.230  11.800  11.285
 9835SOL    HW129529   0.137  11.798  11.322
 9835SOL    HW229530   0.231  11.761  11.193
 9836SOL     OW29531   0.225  11.447  12.168
 9836SOL    HW129532   0.260  11.430  12.260
 9836SOL    HW229533   0.137  11.402  12.156
 9837SOL     OW29534   0.019  11.540  11.819
 9837SOL    HW129535  -0.063  11.583  11.858
 9837SOL    HW229536  -0.009  11.467  11.756
 9838SOL     OW29537   0.569  12.447  12.337
 9838SOL    HW129538   0.476  12.440  12.300
 9838SOL    HW229539   0.580  12.536  12.381
 9839SOL     OW29540   1.555  12.683  11.875
 9839SOL    HW129541   1.498  12.667  11.956
 9839SOL    HW229542   1.496  12.693  11.795
 9840SOL     OW29543   1.135  11.875  11.889
 9840SOL    HW129544   1.192  11.953  11.864
 9840SOL    HW229545   1.075  11.901  11.965
 9841SOL     OW29546   1.755  11.779  11.403
 9841SOL    HW129547   1.743  11.766  11.304
 9841SOL    HW229548   1.725  11.698  11.452
 9842SOL     OW29549   0.768  12.316  12.195
 9842SOL    HW129550   0.690  12.333  12.255
 9842SOL    HW229551   0.802  12.403  12.159
 9843SOL     OW29552   0.685  12.184  11.837
 9843SOL    HW129553   0.754  12.168  11.907
 9843SOL    HW229554   0.612  12.241  11.875
 9844SOL     OW29555   0.335  12.607  12.233
 9844SOL    HW129556   0.257  12.576  12.180
 9844SOL    HW229557   0.393  12.665  12.176
 9845SOL     OW29558   1.460  12.677  12.511
 9845SOL    HW129559   1.484  12.771  12.537
 9845SOL    HW229560   1.444  12.623  12.593
 9846SOL     OW29561   0.438  11.564  12.671
 9846SOL    HW129562   0.520  11.508  12.680
 9846SOL    HW229563   0.357  11.506  12.675
 9847SOL     OW29564   1.603  11.619  11.909
 9847SOL    HW129565   1.529  11.665  11.859
 9847SOL    HW229566   1.654  11.687  11.962
 9848SOL     OW29567   0.230  12.606  11.710
 9848SOL    HW129568   0.204  12.702  11.710
 9848SOL    HW229569   0.159  12.552  11.755
 9849SOL     OW29570   0.240  12.263  12.058
 9849SOL    HW129571   0.254  12.179  12.110
 9849SOL    HW229572   0.185  12.327  12.113
 9850SOL     OW29573   0.606  12.136  11.295
 9850SOL    HW129574   0.613  12.220  11.241
 9850SOL    HW229575   0.652  12.149  11.383
 9851SOL     OW29576   1.594  11.286  12.652
 9851SOL    HW129577   1.576  11.353  12.580
 9851SOL    HW229578   1.591  11.332  12.741
 9852SOL     OW29579   0.122  11.815  11.735
 9852SOL    HW129580   0.077  11.727  11.752
 9852SOL    HW229581   0.121  11.869  11.819
 9853SOL     OW29582   0.027  12.768  11.289
 9853SOL    HW129583   0.008  12.672  11.310
 9853SOL    HW229584  -0.006  12.826  11.364
 9854SOL     OW29585   1.689  12.094  11.784
 9854SOL    HW129586   1.784  12.065  11.792
 9854SOL    HW229587   1.681  12.159  11.709
 9855SOL     OW29588   1.641  12.280  11.604
 9855SOL    HW129589   1.727  12.282  11.552
 9855SOL    HW229590   1.655  12.327  11.692
 9856SOL     OW29591   0.113  11.909  12.769
 9856SOL    HW129592   0.201  11.896  12.814
 9856SOL    HW229593   0.100  12.006  12.747
 9857SOL     OW29594   0.613  12.537  11.898
 9857SOL    HW129595   0.564  12.450  11.907
 9857SOL    HW229596   0.590  12.580  11.811
 9858SOL     OW29597   1.293  12.400  12.595
 9858SOL    HW129598   1.330  12.327  12.537
 9858SOL    HW229599   1.345  12.405  12.680
 9859SOL     OW29600   0.809  11.176  11.674
 9859SOL    HW129601   0.849  11.267  11.665
 9859SOL    HW229602   0.709  11.184  11.680
 9860SOL     OW29603   0.197  12.148  12.436
 9860SOL    HW129604   0.286  12.103  12.422
 9860SOL    HW229605   0.124  12.083  12.417
 9861SOL     OW29606   1.525  12.171  11.362
 9861SOL    HW129607   1.462  12.095  11.375
 9861SOL    HW229608   1.573  12.189  11.448
 9862SOL     OW29609   1.466  12.589  12.125
 9862SOL    HW129610   1.407  12.595  12.205
 9862SOL    HW229611   1.451  12.501  12.079
 9863SOL     OW29612   0.598  11.901  11.442
 9863SOL    HW129613   0.622  11.970  11.374
 9863SOL    HW229614   0.520  11.934  11.496
 9864SOL     OW29615   1.281  11.517  12.116
 9864SOL    HW129616   1.195  11.467  12.103
 9864SOL    HW229617   1.343  11.463  12.172
 9865SOL     OW29618   1.576  12.834  11.479
 9865SOL    HW129619   1.665  12.880  11.482
 9865SOL    HW229620   1.555  12.810  11.384
 9866SOL     OW29621   0.973  12.062  12.744
 9866SOL    HW129622   1.019  11.978  12.715
 9866SOL    HW229623   0.917  12.096  12.669
 9867SOL     OW29624   0.991  11.582  12.414
 9867SOL    HW129625   0.914  11.616  12.468
 9867SOL    HW229626   0.957  11.531  12.335
 9868SOL     OW29627   1.041  11.873  11.601
 9868SOL    HW129628   1.067  11.869  11.697
 9868SOL    HW229629   0.956  11.822  11.587
 9869SOL     OW29630   0.076  11.983  11.961
 9869SOL    HW129631   0.175  11.971  11.970
 9869SOL    HW229632   0.052  12.078  11.982
 9870SOL     OW29633   0.865  11.520  11.367
 9870SOL    HW129634   0.924  11.583  11.318
 9870SOL    HW229635   0.884  11.426  11.338
 9871SOL     OW29636   1.362  12.316  11.717
 9871SOL    HW129637   1.445  12.287  11.669
 9871SOL    HW229638   1.313  12.383  11.661
 9872SOL     OW29639   0.550  11.368  12.057
 9872SOL    HW129640   0.545  11.363  12.157
 9872SOL    HW229641   0.552  11.464  12.028
 9873SOL     OW29642   1.008  12.628  11.649
 9873SOL    HW129643   0.962  12.700  11.597
 9873SOL    HW229644   1.004  12.648  11.747
 9874SOL     OW29645   1.795  12.238  12.045
 9874SOL    HW129646   1.733  12.223  11.969
 9874SOL    HW229647   1.743  12.249  12.130
 9875SOL     OW29648   1.227  12.722  12.678
 9875SOL    HW129649   1.233  12.645  12.742
 9875SOL    HW229650   1.175  12.696  12.598
 9876SOL     OW29651   0.321  12.115  11.414
 9876SOL    HW129652   0.403  12.154  11.372
 9876SOL    HW229653   0.294  12.033  11.365
 9877SOL     OW29654   1.458  11.907  11.900
 9877SOL    HW129655   1.453  11.842  11.975
 9877SOL    HW229656   1.538  11.966  11.913
 9878SOL     OW29657   0.202  11.457  12.670
 9878SOL    HW129658   0.122  11.517  12.657
 9878SOL    HW229659   0.192  11.408  12.756
 9879SOL     OW29660   1.632  12.549  11.253
 9879SOL    HW129661   1.600  12.643  11.243
 9879SOL    HW229662   1.556  12.486  11.241
 9880SOL     OW29663   1.400  11.279  11.598
 9880SOL    HW129664   1.376  11.242  11.508
 9880SOL    HW229665   1.499  11.295  11.602
 9881SOL     OW29666   0.382  11.872  11.652
 9881SOL    HW129667   0.427  11.782  11.649
 9881SOL    HW229668   0.288  11.861  11.685
 9882SOL     OW29669   0.614  11.294  11.289
 9882SOL    HW129670   0.712  11.272  11.296
 9882SOL    HW229671   0.583  11.277  11.196
 9883SOL     OW29672   1.351  11.762  12.605
 9883SOL    HW129673   1.379  11.719  12.690
 9883SOL    HW229674   1.376  11.858  12.606
 9884SOL     OW29675   0.803  12.574  12.096
 9884SOL    HW129676   0.893  12.588  12.054
 9884SOL    HW229677   0.732  12.576  12.025
 9885SOL     OW29678   0.922  11.675  12.071
 9885SOL    HW129679   0.897  11.666  11.975
 9885SOL    HW229680   0.970  11.593  12.102
 9886SOL     OW29681   0.539  11.236  11.684
 9886SOL    HW129682   0.458  11.237  11.742
 9886SOL    HW229683   0.542  11.319  11.629
 9887SOL     OW29684   1.434  12.360  11.213
 9887SOL    HW129685   1.466  12.284  11.270
 9887SOL    HW229686   1.342  12.387  11.243
 9888SOL     OW29687   0.297  11.207  11.343
 9888SOL    HW129688   0.346  11.291  11.322
 9888SOL    HW229689   0.359  11.142  11.388
 9889SOL     OW29690   0.935  11.408  11.652
 9889SOL    HW129691   0.887  11.449  11.574
 9889SOL    HW229692   1.034  11.406  11.633
 9890SOL     OW29693   1.076  11.855  12.636
 9890SOL    HW129694   0.996  11.794  12.639
 9890SOL    HW229695   1.157  11.802  12.612
 9891SOL     OW29696   1.227  12.742  11.965
 9891SOL    HW129697   1.248  12.816  11.900
 9891SOL    HW229698   1.295  12.742  12.038
 9892SOL     OW29699   0.459  12.324  11.913
 9892SOL    HW129700   0.388  12.297  11.978
 9892SOL    HW229701   0.433  12.296  11.820
 9893SOL     OW29702   1.032  11.721  11.188
 9893SOL    HW129703   0.991  11.803  11.149
 9893SOL    HW229704   1.096  11.747  11.261
 9894SOL     OW29705   0.078  11.728  12.558
 9894SOL    HW129706   0.170  11.727  12.517
 9894SOL    HW229707   0.072  11.802  12.625
 9895SOL     OW29708   0.561  11.394  12.319
 9895SOL    HW129709   0.599  11.310  12.356
 9895SOL    HW229710   0.473  11.413  12.363
 9896SOL     OW29711   0.866  11.626  11.814
 9896SOL    HW129712   0.834  11.698  11.752
 9896SOL    HW229713   0.890  11.545  11.761
 9897SOL     OW29714   1.017  11.211  11.925
 9897SOL    HW129715   0.945  11.216  11.856
 9897SOL    HW229716   0.993  11.142  11.994
 9898SOL     OW29717   1.429  12.345  12.039
 9898SOL    HW129718   1.374  12.261  12.032
 9898SOL    HW229719   1.455  12.374  11.947
 9899SOL     OW29720   1.466  11.762  12.164
 9899SOL    HW129721   1.436  11.667  12.171
 9899SOL    HW229722   1.539  11.778  12.230
 9900SOL     OW29723   1.857  12.005  11.549
 9900SOL    HW129724   1.899  11.941  11.613
 9900SOL    HW229725   1.819  11.954  11.471
 9901SOL     OW29726   0.488  12.557  11.346
 9901SOL    HW129727   0.401  12.542  11.393
 9901SOL    HW229728   0.471  12.583  11.251
 9902SOL     OW29729   1.664  12.452  11.829
 9902SOL    HW129730   1.763  12.460  11.843
 9902SOL    HW229731   1.619  12.536  11.860
 9903SOL     OW29732   1.390  11.747  11.250
 9903SOL    HW129733   1.336  11.726  11.331
 9903SOL    HW229734   1.481  11.706  11.259
 9904SOL     OW29735   0.527  11.428  11.500
 9904SOL    HW129736   0.554  11.369  11.425
 9904SOL    HW229737   0.527  11.523  11.469
 9905SOL     OW29738   1.754  12.395  12.760
 9905SOL    HW129739   1.845  12.356  12.747
 9905SOL    HW229740   1.762  12.491  12.784
 9906SOL     OW29741   1.064  12.519  12.512
 9906SOL    HW129742   0.984  12.496  12.567
 9906SOL    HW229743   1.147  12.493  12.561
 9907SOL     OW29744   1.111  12.367  12.272
 9907SOL    HW129745   1.071  12.411  12.353
 9907SOL    HW229746   1.070  12.404  12.189
 9908SOL     OW29747   1.638  12.271  12.251
 9908SOL    HW129748   1.643  12.352  12.310
 9908SOL    HW229749   1.552  12.273  12.200
 9909SOL     OW29750   0.915  11.261  12.574
 9909SOL    HW129751   0.940  11.241  12.479
 9909SOL    HW229752   0.987  11.317  12.616
 9910SOL     OW29753   0.705  12.222  11.540
 9910SOL    HW129754   0.691  12.229  11.639
 9910SOL    HW229755   0.789  12.171  11.522
 9911SOL     OW29756   0.410  11.985  12.423
 9911SOL    HW129757   0.496  11.997  12.473
 9911SOL    HW229758   0.368  11.898  12.450
 9912SOL     OW29759   1.274  11.558  12.434
 9912SOL    HW129760   1.295  11.632  12.498
 9912SOL    HW229761   1.185  11.575  12.391
 9913SOL     OW29762   0.064  12.736  12.503
 9913SOL    HW129763   0.018  12.818  12.469
 9913SOL    HW229764   0.162  12.755  12.512
 9914SOL     OW29765   0.367  12.272  11.673
 9914SOL    HW129766   0.360  12.355  11.617
 9914SOL    HW229767   0.371  12.192  11.613
 9915SOL     OW29768   0.566  11.709  12.037
 9915SOL    HW129769   0.578  11.775  11.963
 9915SOL    HW229770   0.612  11.743  12.120
 9916SOL     OW29771   1.252  12.520  11.560
 9916SOL    HW129772   1.302  12.597  11.600
 9916SOL    HW229773   1.157  12.522  11.592
 9917SOL     OW29774   1.272  12.617  12.314
 9917SOL    HW129775   1.319  12.630  12.401
 9917SOL    HW229776   1.206  12.543  12.323
 9918SOL     OW29777   1.582  11.811  11.644
 9918SOL    HW129778   1.551  11.872  11.717
 9918SOL    HW229779   1.632  11.863  11.575
 9919SOL     OW29780   0.354  12.682  12.501
 9919SOL    HW129781   0.333  12.638  12.414
 9919SOL    HW229782   0.451  12.708  12.504
 9920SOL     OW29783   0.402  11.923  12.770
 9920SOL    HW129784   0.470  11.978  12.723
 9920SOL    HW229785   0.442  11.835  12.797
 9921SOL     OW29786   1.587  11.951  12.842
 9921SOL    HW129787   1.495  11.989  12.837
 9921SOL    HW229788   1.647  11.998  12.777
 9922SOL     OW29789   0.573  12.042  12.201
 9922SOL    HW129790   0.617  12.131  12.192
 9922SOL    HW229791   0.510  12.042  12.278
 9923SOL     OW29792   1.360  12.034  12.217
 9923SOL    HW129793   1.285  12.034  12.151
 9923SOL    HW229794   1.397  11.942  12.226
 9924SOL     OW29795   1.209  11.697  11.447
 9924SOL    HW129796   1.222  11.613  11.501
 9924SOL    HW229797   1.180  11.771  11.507
 9925SOL     OW29798   0.307  11.385  12.403
 9925SOL    HW129799   0.284  11.422  12.493
 9925SOL    HW229800   0.277  11.290  12.397
 9926SOL     OW29801   0.037  12.482  12.454
 9926SOL    HW129802   0.090  12.433  12.522
 9926SOL    HW229803   0.059  12.580  12.459
 9927SOL     OW29804   0.732  11.806  12.236
 9927SOL    HW129805   0.791  11.780  12.160
 9927SOL    HW229806   0.704  11.902  12.225
 9928SOL     OW29807   0.307  11.235  11.790
 9928SOL    HW129808   0.296  11.329  11.823
 9928SOL    HW229809   0.302  11.172  11.867
 9929SOL     OW29810   1.622  11.539  11.546
 9929SOL    HW129811   1.624  11.463  11.610
 9929SOL    HW229812   1.574  11.616  11.586
 9930SOL     OW29813   1.023  11.938  12.138
 9930SOL    HW129814   1.038  11.959  12.234
 9930SOL    HW229815   0.993  11.843  12.129
 9931SOL     OW29816   1.540  11.446  11.297
 9931SOL    HW129817   1.479  11.371  11.320
 9931SOL    HW229818   1.562  11.498  11.380
 9932SOL     OW29819   1.303  12.010  11.214
 9932SOL    HW129820   1.337  11.917  11.229
 9932SOL    HW229821   1.321  12.037  11.119
 9933SOL     OW29822   1.068  12.505  12.021
 9933SOL    HW129823   1.075  12.421  11.966
 9933SOL    HW229824   1.130  12.574  11.985
 9934SOL     OW29825   0.319  11.982  12.121
 9934SOL    HW129826   0.412  12.018  12.126
 9934SOL    HW229827   0.313  11.897  12.173
 9935SOL     OW29828   0.339  11.681  12.178
 9935SOL    HW129829   0.287  11.598  12.161
 9935SOL    HW229830   0.416  11.686  12.114
 9936SOL     OW29831   1.160  11.379  12.649
 9936SOL    HW129832   1.160  11.443  12.726
 9936SOL    HW229833   1.188  11.427  12.566
 9937SOL     OW29834   0.008  12.498  11.372
 9937SOL    HW129835  -0.085  12.519  11.341
 9937SOL    HW229836   0.018  12.399  11.385
 9938SOL     OW29837   0.504  12.740  12.082
 9938SOL    HW129838   0.570  12.814  12.091
 9938SOL    HW229839   0.548  12.661  12.040
 9939SOL     OW29840   1.002  11.968  12.410
 9939SOL    HW129841   1.043  11.936  12.496
 9939SOL    HW229842   0.906  11.941  12.407
 9940SOL     OW29843   0.040  11.716  12.286
 9940SOL    HW129844   0.125  11.683  12.245
 9940SOL    HW229845   0.053  11.731  12.384
 9941SOL     OW29846   0.815  11.744  11.497
 9941SOL    HW129847   0.822  11.655  11.451
 9941SOL    HW229848   0.721  11.778  11.489
 9942SOL     OW29849   1.657  11.776  12.378
 9942SOL    HW129850   1.619  11.707  12.440
 9942SOL    HW229851   1.739  11.740  12.334
 9943SOL     OW29852   0.671  11.636  12.441
 9943SOL    HW129853   0.637  11.547  12.411
 9943SOL    HW229854   0.697  11.690  12.361
 9944SOL     OW29855   0.473  11.672  11.363
 9944SOL    HW129856   0.534  11.752  11.367
 9944SOL    HW229857   0.378  11.703  11.370
 9945SOL     OW29858   0.159  12.309  12.638
 9945SOL    HW129859   0.181  12.248  12.714
 9945SOL    HW229860   0.169  12.260  12.552
 9946SOL     OW29861   1.347  12.231  12.406
 9946SOL    HW129862   1.371  12.168  12.332
 9946SOL    HW229863   1.257  12.271  12.388
 9947SOL     OW29864   1.302  12.027  11.481
 9947SOL    HW129865   1.216  11.996  11.523
 9947SOL    HW229866   1.298  12.013  11.382
 9948SOL     OW29867   1.252  12.903  12.300
 9948SOL    HW129868   1.336  12.908  12.246
 9948SOL    HW229869   1.229  12.807  12.318
 9949SOL     OW29870   0.083  12.430  12.194
 9949SOL    HW129871   0.078  12.429  12.294
 9949SOL    HW229872   0.000  12.389  12.156
 9950SOL     OW29873   1.726  11.307  11.695
 9950SOL    HW129874   1.799  11.290  11.628
 9950SOL    HW229875   1.695  11.220  11.733
 9951SOL     OW29876   1.280  12.099  11.844
 9951SOL    HW129877   1.340  12.018  11.846
 9951SOL    HW229878   1.320  12.168  11.784
 9952SOL     OW29879   0.830  12.445  12.594
 9952SOL    HW129880   0.825  12.478  12.689
 9952SOL    HW229881   0.744  12.464  12.548
 9953SOL     OW29882   0.672  12.788  11.326
 9953SOL    HW129883   0.681  12.798  11.227
 9953SOL    HW229884   0.632  12.699  11.347
 9954SOL     OW29885   1.841  11.347  12.135
 9954SOL    HW129886   1.880  11.262  12.099
 9954SOL    HW229887   1.743  11.349  12.116
 9955SOL     OW29888   0.263  11.498  11.892
 9955SOL    HW129889   0.184  11.549  11.858
 9955SOL    HW229890   0.254  11.483  11.990
 9956SOL     OW29891   1.194  12.784  11.203
 9956SOL    HW129892   1.200  12.691  11.240
 9956SOL    HW229893   1.135  12.784  11.123
 9957SOL     OW29894   0.822  12.174  12.544
 9957SOL    HW129895   0.862  12.173  12.452
 9957SOL    HW229896   0.832  12.266  12.584
 9958SOL     OW29897   0.916  12.082  11.463
 9958SOL    HW129898   0.979  12.120  11.395
 9958SOL    HW229899   0.956  11.999  11.502
 9959SOL     OW29900   0.372  12.460  12.662
 9959SOL    HW129901   0.359  12.553  12.628
 9959SOL    HW229902   0.288  12.408  12.649
 9960SOL     OW29903   1.614  12.464  12.461
 9960SOL    HW129904   1.674  12.467  12.541
 9960SOL    HW229905   1.539  12.528  12.474
 9961SOL     OW29906   1.039  12.270  11.868
 9961SOL    HW129907   0.969  12.223  11.922
 9961SOL    HW229908   1.098  12.202  11.825
 9962SOL     OW29909   1.014  11.408  12.143
 9962SOL    HW129910   1.006  11.372  12.050
 9962SOL    HW229911   1.012  11.332  12.208
 9963SOL     OW29912   0.590  12.659  11.663
 9963SOL    HW129913   0.632  12.601  11.593
 9963SOL    HW229914   0.546  12.738  11.619
 9964SOL     OW29915   1.709  11.557  12.553
 9964SOL    HW129916   1.782  11.626  12.557
 9964SOL    HW229917   1.737  11.482  12.494
 9965SOL     OW29918   0.255  12.520  11.462
 9965SOL    HW129919   0.159  12.521  11.435
 9965SOL    HW229920   0.267  12.573  11.546
 9966SOL     OW29921   0.105  12.185  12.898
 9966SOL    HW129922   0.028  12.152  12.952
 9966SOL    HW229923   0.190  12.155  12.940
 9967SOL     OW29924   0.672  11.375  12.661
 9967SOL    HW129925   0.762  11.359  12.621
 9967SOL    HW229926   0.680  11.380  12.760
 9968SOL     OW29927   0.075  11.517  11.205
 9968SOL    HW129928  -0.017  11.489  11.176
 9968SOL    HW229929   0.106  11.594  11.149
 9969SOL     OW29930   1.440  12.028  12.570
 9969SOL    HW129931   1.383  12.080  12.507
 9969SOL    HW229932   1.536  12.040  12.546
 9970SOL     OW29933   0.072  11.338  11.490
 9970SOL    HW129934   0.055  11.421  11.436
 9970SOL    HW229935   0.162  11.301  11.468
 9971SOL     OW29936   1.183  12.507  11.291
 9971SOL    HW129937   1.084  12.496  11.293
 9971SOL    HW229938   1.217  12.522  11.384
 9972SOL     OW29939   0.613  12.014  12.603
 9972SOL    HW129940   0.669  12.095  12.586
 9972SOL    HW229941   0.672  11.934  12.606
 9973SOL     OW29942   0.716  11.737  12.880
 9973SOL    HW129943   0.735  11.802  12.954
 9973SOL    HW229944   0.776  11.657  12.889
 9974SOL     OW29945   0.390  12.913  12.732
 9974SOL    HW129946   0.299  12.954  12.730
 9974SOL    HW229947   0.383  12.819  12.764
 9975SOL     OW29948   1.674  12.055  12.426
 9975SOL    HW129949   1.647  11.966  12.389
 9975SOL    HW229950   1.675  12.123  12.353
 9976SOL     OW29951   1.225  11.497  11.621
 9976SOL    HW129952   1.290  11.423  11.610
 9976SOL    HW229953   1.245  11.547  11.705
 9977SOL     OW29954   0.594  11.917  11.824
 9977SOL    HW129955   0.644  12.002  11.805
 9977SOL    HW229956   0.506  11.919  11.776
 9978SOL     OW29957   1.777  11.514  12.814
 9978SOL    HW129958   1.760  11.545  12.720
 9978SOL    HW229959   1.693  11.477  12.852
 9979SOL     OW29960   1.730  12.106  12.689
 9979SOL    HW129961   1.768  12.197  12.704
 9979SOL    HW229962   1.722  12.089  12.590
 9980SOL     OW29963   0.859  12.546  11.188
 9980SOL    HW129964   0.813  12.561  11.276
 9980SOL    HW229965   0.903  12.631  11.158
 9981SOL     OW29966   0.859  12.128  12.033
 9981SOL    HW129967   0.913  12.059  12.081
 9981SOL    HW229968   0.827  12.197  12.099
 9982SOL     OW29969   1.083  12.156  11.259
 9982SOL    HW129970   1.060  12.209  11.177
 9982SOL    HW229971   1.164  12.100  11.240
 9983SOL     OW29972   1.861  12.741  12.023
 9983SOL    HW129973   1.790  12.729  11.953
 9983SOL    HW229974   1.862  12.662  12.083
 9984SOL     OW29975   0.079  12.412  11.825
 9984SOL    HW129976   0.078  12.365  11.913
 9984SOL    HW229977   0.161  12.384  11.774
 9985SOL     OW29978   0.672  12.563  12.796
 9985SOL    HW129979   0.594  12.513  12.834
 9985SOL    HW229980   0.669  12.658  12.827
 9986SOL     OW29981   1.824  11.364  12.399
 9986SOL    HW129982   1.820  11.274  12.443
 9986SOL    HW229983   1.827  11.353  12.300
 9987SOL     OW29984   0.428  11.596  11.692
 9987SOL    HW129985   0.458  11.524  11.630
 9987SOL    HW229986   0.389  11.556  11.775
 9988SOL     OW29987   1.705  12.659  12.276
 9988SOL    HW129988   1.612  12.634  12.249
 9988SOL    HW229989   1.731  12.609  12.358
 9989SOL     OW29990   0.317  11.719  12.452
 9989SOL    HW129991   0.355  11.660  12.524
 9989SOL    HW229992   0.357  11.693  12.364
 9990SOL     OW29993   1.424  11.386  12.284
 9990SOL    HW129994   1.476  11.321  12.339
 9990SOL    HW229995   1.375  11.449  12.345
 9991SOL     OW29996   1.001  11.206  12.326
 9991SOL    HW129997   0.938  11.134  12.295
 9991SOL    HW229998   1.094  11.170  12.326
 9992SOL     OW29999   0.770  12.502  11.473
 9992SOL    HW130000   0.724  12.415  11.490
 9992SOL    HW230001   0.861  12.499  11.514
 9993SOL     OW30002   0.618  12.739  12.456
 9993SOL    HW130003   0.613  12.821  12.513
 9993SOL    HW230004   0.707  12.736  12.411
 9994SOL     OW30005   1.352  11.224  11.340
 9994SOL    HW130006   1.387  11.183  11.256
 9994SOL    HW230007   1.262  11.186  11.360
 9995SOL     OW30008   1.300  11.625  11.863
 9995SOL    HW130009   1.241  11.705  11.867
 9995SOL    HW230010   1.315  11.590  11.956
 9996SOL     OW30011   1.593  11.393  12.054
 9996SOL    HW130012   1.509  11.392  12.108
 9996SOL    HW230013   1.595  11.476  11.998
 9997SOL     OW30014   0.039  12.249  11.472
 9997SOL    HW130015   0.138  12.238  11.463
 9997SOL    HW230016  -0.001  12.163  11.504
 9998SOL     OW30017   2.092   0.628   0.113
 9998SOL    HW130018   1.999   0.626   0.150
 9998SOL    HW230019   2.093   0.589   0.021
 9999SOL     OW30020   2.087   0.275   0.996
 9999SOL    HW130021   2.122   0.258   1.088
 9999SOL    HW230022   1.999   0.230   0.984
10000SOL     OW30023   1.881   0.368   0.647
10000SOL    HW130024   1.799   0.411   0.686
10000SOL    HW230025   1.853   0.295   0.584
10001SOL     OW30026   2.431   1.275   1.165
10001SOL    HW130027   2.338   1.268   1.128
10001SOL    HW230028   2.442   1.364   1.209
10002SOL     OW30029   3.417   1.511   0.703
10002SOL    HW130030   3.360   1.495   0.784
10002SOL    HW230031   3.358   1.521   0.623
10003SOL     OW30032   2.997   0.703   0.717
10003SOL    HW130033   3.054   0.781   0.692
10003SOL    HW230034   2.937   0.729   0.793
10004SOL     OW30035   3.617   0.607   0.231
10004SOL    HW130036   3.605   0.594   0.132
10004SOL    HW230037   3.587   0.526   0.280
10005SOL     OW30038   2.630   1.144   1.023
10005SOL    HW130039   2.552   1.161   1.083
10005SOL    HW230040   2.664   1.231   0.987
10006SOL     OW30041   2.712   0.798   1.823
10006SOL    HW130042   2.708   0.874   1.888
10006SOL    HW230043   2.734   0.834   1.732
10007SOL     OW30044   2.547   1.012   0.665
10007SOL    HW130045   2.616   0.996   0.735
10007SOL    HW230046   2.474   1.069   0.703
10008SOL     OW30047   2.548   1.161   1.803
10008SOL    HW130048   2.608   1.240   1.817
10008SOL    HW230049   2.462   1.192   1.762
10009SOL     OW30050   2.197   1.435   1.061
10009SOL    HW130051   2.119   1.404   1.008
10009SOL    HW230052   2.255   1.493   1.004
10010SOL     OW30053   3.322   1.505   1.339
10010SOL    HW130054   3.346   1.599   1.365
10010SOL    HW230055   3.306   1.451   1.421
10011SOL     OW30056   2.300   0.392   1.499
10011SOL    HW130057   2.382   0.336   1.508
10011SOL    HW230058   2.219   0.334   1.503
10012SOL     OW30059   3.465   0.447   0.737
10012SOL    HW130060   3.391   0.493   0.687
10012SOL    HW230061   3.516   0.515   0.790
10013SOL     OW30062   2.093   1.713   0.483
10013SOL    HW130063   2.127   1.790   0.537
10013SOL    HW230064   2.137   1.713   0.393
10014SOL     OW30065   2.989   1.341   1.690
10014SOL    HW130066   3.036   1.341   1.778
10014SOL    HW230067   2.941   1.254   1.679
10015SOL     OW30068   2.092   1.434   0.538
10015SOL    HW130069   2.066   1.530   0.538
10015SOL    HW230070   2.021   1.380   0.583
10016SOL     OW30071   2.102   1.091   0.886
10016SOL    HW130072   2.116   1.007   0.938
10016SOL    HW230073   2.047   1.155   0.941
10017SOL     OW30074   2.482   1.786   1.439
10017SOL    HW130075   2.390   1.769   1.474
10017SOL    HW230076   2.510   1.878   1.465
10018SOL     OW30077   2.468   0.964   0.123
10018SOL    HW130078   2.475   1.048   0.069
10018SOL    HW230079   2.514   0.977   0.211
10019SOL     OW30080   3.456   0.114   1.480
10019SOL    HW130081   3.438   0.181   1.408
10019SOL    HW230082   3.453   0.160   1.569
10020SOL     OW30083   1.984   0.643   0.563
10020SOL    HW130084   1.939   0.555   0.580
10020SOL    HW230085   1.983   0.697   0.647
10021SOL     OW30086   3.704   1.767   0.359
10021SOL    HW130087   3.758   1.738   0.439
10021SOL    HW230088   3.734   1.857   0.330
10022SOL     OW30089   1.889   1.596   0.117
10022SOL    HW130090   1.870   1.500   0.138
10022SOL    HW230091   1.856   1.654   0.192
10023SOL     OW30092   3.551   0.922   0.612
10023SOL    HW130093   3.646   0.893   0.620
10023SOL    HW230094   3.543   0.987   0.537
10024SOL     OW30095   3.503   1.108   0.432
10024SOL    HW130096   3.589   1.110   0.380
10024SOL    HW230097   3.517   1.155   0.520
10025SOL     OW30098   1.975   0.737   1.597
10025SOL    HW130099   2.063   0.724   1.642
10025SOL    HW230100   1.962   0.834   1.575
10026SOL     OW30101   2.475   1.365   0.726
10026SOL    HW130102   2.426   1.278   0.735
10026SOL    HW230103   2.452   1.408   0.639
10027SOL     OW30104   3.155   1.228   1.423
10027SOL    HW130105   3.192   1.155   1.365
10027SOL    HW230106   3.207   1.233   1.508
10028SOL     OW30107   2.671   0.004   0.502
10028SOL    HW130108   2.711   0.095   0.493
10028SOL    HW230109   2.571   0.012   0.508
10029SOL     OW30110   2.059   0.976   1.264
10029SOL    HW130111   2.148   0.931   1.250
10029SOL    HW230112   1.986   0.911   1.245
10030SOL     OW30113   3.387   0.999   0.190
10030SOL    HW130114   3.324   0.923   0.203
10030SOL    HW230115   3.435   1.017   0.276
10031SOL     OW30116   3.049   1.792   1.616
10031SOL    HW130117   3.073   1.852   1.540
10031SOL    HW230118   3.056   1.697   1.586
10032SOL     OW30119   2.179   0.251   1.801
10032SOL    HW130120   2.250   0.322   1.807
10032SOL    HW230121   2.091   0.290   1.829
10033SOL     OW30122   3.328   1.417   0.953
10033SOL    HW130123   3.269   1.423   1.033
10033SOL    HW230124   3.313   1.329   0.907
10034SOL     OW30125   3.529   1.714   0.572
10034SOL    HW130126   3.488   1.691   0.484
10034SOL    HW230127   3.511   1.640   0.637
10035SOL     OW30128   2.460   0.729   0.270
10035SOL    HW130129   2.484   0.798   0.202
10035SOL    HW230130   2.382   0.762   0.324
10036SOL     OW30131   3.143   0.345   0.944
10036SOL    HW130132   3.057   0.295   0.931
10036SOL    HW230133   3.205   0.291   1.000
10037SOL     OW30134   3.438   1.662   0.307
10037SOL    HW130135   3.527   1.708   0.310
10037SOL    HW230136   3.417   1.638   0.212
10038SOL     OW30137   2.669   0.605   1.465
10038SOL    HW130138   2.622   0.602   1.554
10038SOL    HW230139   2.618   0.550   1.399
10039SOL     OW30140   3.256   0.469   1.674
10039SOL    HW130141   3.236   0.512   1.762
10039SOL    HW230142   3.334   0.407   1.683
10040SOL     OW30143   2.835   0.890   1.572
10040SOL    HW130144   2.881   0.806   1.543
10040SOL    HW230145   2.779   0.924   1.497
10041SOL     OW30146   2.853   0.410   1.242
10041SOL    HW130147   2.776   0.444   1.296
10041SOL    HW230148   2.819   0.359   1.163
10042SOL     OW30149   2.903   0.701   0.429
10042SOL    HW130150   2.929   0.697   0.525
10042SOL    HW230151   2.818   0.650   0.415
10043SOL     OW30152   1.938   0.811   0.789
10043SOL    HW130153   2.037   0.799   0.798
10043SOL    HW230154   1.914   0.906   0.810
10044SOL     OW30155   1.992   1.821   1.571
10044SOL    HW130156   1.982   1.806   1.670
10044SOL    HW230157   1.906   1.857   1.535
10045SOL     OW30158   3.581   0.585   1.831
10045SOL    HW130159   3.555   0.674   1.795
10045SOL    HW230160   3.579   0.517   1.758
10046SOL     OW30161   3.224   1.144   0.545
10046SOL    HW130162   3.307   1.115   0.497
10046SOL    HW230163   3.175   1.211   0.489
10047SOL     OW30164   2.412   0.196   0.885
10047SOL    HW130165   2.407   0.191   0.985
10047SOL    HW230166   2.414   0.292   0.856
10048SOL     OW30167   2.870   1.456   0.477
10048SOL    HW130168   2.824   1.528   0.425
10048SOL    HW230169   2.866   1.476   0.575
10049SOL     OW30170   2.213   1.801   0.853
10049SOL    HW130171   2.263   1.715   0.859
10049SOL    HW230172   2.278   1.878   0.850
10050SOL     OW30173   3.657   1.066   0.873
10050SOL    HW130174   3.595   1.051   0.797
10050SOL    HW230175   3.605   1.077   0.958
10051SOL     OW30176   3.089   1.550   1.506
10051SOL    HW130177   3.095   1.473   1.570
10051SOL    HW230178   3.037   1.524   1.426
10052SOL     OW30179   2.183   0.943   0.242
10052SOL    HW130180   2.265   0.982   0.200
10052SOL    HW230181   2.156   0.861   0.193
10053SOL     OW30182   3.320   0.735   0.728
10053SOL    HW130183   3.315   0.670   0.803
10053SOL    HW230184   3.400   0.794   0.741
10054SOL     OW30185   2.323   1.266   1.727
10054SOL    HW130186   2.273   1.267   1.641
10054SOL    HW230187   2.260   1.248   1.803
10055SOL     OW30188   2.973   1.776   0.237
10055SOL    HW130189   2.913   1.714   0.287
10055SOL    HW230190   3.004   1.732   0.152
10056SOL     OW30191   2.064   0.285   1.498
10056SOL    HW130192   1.984   0.345   1.485
10056SOL    HW230193   2.054   0.236   1.584
10057SOL     OW30194   3.494   1.377   0.081
10057SOL    HW130195   3.462   1.471   0.071
10057SOL    HW230196   3.418   1.314   0.069
10058SOL     OW30197   2.326   1.743   0.323
10058SOL    HW130198   2.359   1.782   0.409
10058SOL    HW230199   2.402   1.736   0.258
10059SOL     OW30200   3.262   0.107   0.426
10059SOL    HW130201   3.238   0.070   0.336
10059SOL    HW230202   3.361   0.123   0.430
10060SOL     OW30203   2.111   1.785   1.241
10060SOL    HW130204   2.168   1.720   1.291
10060SOL    HW230205   2.095   1.752   1.148
10061SOL     OW30206   2.802   1.698   0.904
10061SOL    HW130207   2.882   1.641   0.925
10061SOL    HW230208   2.753   1.658   0.827
10062SOL     OW30209   2.244   0.700   0.480
10062SOL    HW130210   2.289   0.610   0.477
10062SOL    HW230211   2.150   0.689   0.513
10063SOL     OW30212   3.409   0.222   1.729
10063SOL    HW130213   3.404   0.259   1.821
10063SOL    HW230214   3.337   0.153   1.717
10064SOL     OW30215   2.476   0.122   0.117
10064SOL    HW130216   2.574   0.100   0.124
10064SOL    HW230217   2.445   0.105   0.024
10065SOL     OW30218   2.643   0.264   1.749
10065SOL    HW130219   2.710   0.203   1.792
10065SOL    HW230220   2.570   0.283   1.814
10066SOL     OW30221   2.750   1.514   1.195
10066SOL    HW130222   2.727   1.489   1.101
10066SOL    HW230223   2.811   1.445   1.234
10067SOL     OW30224   3.213   0.590   1.433
10067SOL    HW130225   3.241   0.547   1.518
10067SOL    HW230226   3.238   0.686   1.434
10068SOL     OW30227   2.665   1.402   0.924
10068SOL    HW130228   2.755   1.416   0.882
10068SOL    HW230229   2.594   1.404   0.853
10069SOL     OW30230   2.784   0.503   0.899
10069SOL    HW130231   2.759   0.494   0.803
10069SOL    HW230232   2.832   0.421   0.930
10070SOL     OW30233   2.401   0.064   0.512
10070SOL    HW130234   2.320   0.065   0.570
10070SOL    HW230235   2.404   0.147   0.457
10071SOL     OW30236   3.296   1.188   0.041
10071SOL    HW130237   3.328   1.112   0.098
10071SOL    HW230238   3.204   1.215   0.071
10072SOL     OW30239   2.159   0.035   0.171
10072SOL    HW130240   2.208   0.119   0.150
10072SOL    HW230241   2.221  -0.030   0.216
10073SOL     OW30242   2.797   0.236   0.480
10073SOL    HW130243   2.749   0.277   0.402
10073SOL    HW230244   2.896   0.234   0.461
10074SOL     OW30245   2.938   0.683   1.464
10074SOL    HW130246   2.858   0.622   1.467
10074SOL    HW230247   3.019   0.630   1.440
10075SOL     OW30248   3.089   1.570   0.793
10075SOL    HW130249   3.110   1.644   0.728
10075SOL    HW230250   3.157   1.570   0.866
10076SOL     OW30251   2.321   1.152   0.741
10076SOL    HW130252   2.250   1.125   0.806
10076SOL    HW230253   2.295   1.124   0.648
10077SOL     OW30254   3.133   1.797   0.591
10077SOL    HW130255   3.177   1.861   0.527
10077SOL    HW230256   3.083   1.849   0.661
10078SOL     OW30257   2.894   0.549   0.016
10078SOL    HW130258   2.853   0.631  -0.023
10078SOL    HW230259   2.958   0.575   0.089
10079SOL     OW30260   1.940   0.556   1.386
10079SOL    HW130261   2.032   0.555   1.345
10079SOL    HW230262   1.934   0.630   1.453
10080SOL     OW30263   2.423   0.222   1.147
10080SOL    HW130264   2.461   0.138   1.184
10080SOL    HW230265   2.335   0.241   1.191
10081SOL     OW30266   2.728   0.454   0.642
10081SOL    HW130267   2.696   0.526   0.580
10081SOL    HW230268   2.752   0.373   0.589
10082SOL     OW30269   2.879   0.039   0.753
10082SOL    HW130270   2.807   0.044   0.684
10082SOL    HW230271   2.855  -0.030   0.822
10083SOL     OW30272   3.291   1.173   0.867
10083SOL    HW130273   3.236   1.089   0.860
10083SOL    HW230274   3.317   1.202   0.775
10084SOL     OW30275   3.328   0.590   0.992
10084SOL    HW130276   3.298   0.495   0.999
10084SOL    HW230277   3.401   0.606   1.058
10085SOL     OW30278   3.719   0.833   0.377
10085SOL    HW130279   3.761   0.769   0.441
10085SOL    HW230280   3.681   0.782   0.299
10086SOL     OW30281   2.350   1.385   0.174
10086SOL    HW130282   2.263   1.370   0.221
10086SOL    HW230283   2.333   1.411   0.079
10087SOL     OW30284   3.526   1.280   0.657
10087SOL    HW130285   3.625   1.288   0.671
10087SOL    HW230286   3.481   1.364   0.688
10088SOL     OW30287   3.252   0.575   0.078
10088SOL    HW130288   3.198   0.554   0.159
10088SOL    HW230289   3.343   0.534   0.087
10089SOL     OW30290   2.389   0.256   0.328
10089SOL    HW130291   2.416   0.197   0.253
10089SOL    HW230292   2.389   0.351   0.297
10090SOL     OW30293   3.616   1.223   1.588
10090SOL    HW130294   3.707   1.184   1.575
10090SOL    HW230295   3.624   1.319   1.612
10091SOL     OW30296   2.926   1.347   1.340
10091SOL    HW130297   2.846   1.324   1.395
10091SOL    HW230298   3.009   1.321   1.389
10092SOL     OW30299   3.454   1.629   1.625
10092SOL    HW130300   3.481   1.663   1.535
10092SOL    HW230301   3.533   1.591   1.671
10093SOL     OW30302   2.973   1.195   1.100
10093SOL    HW130303   2.933   1.239   1.181
10093SOL    HW230304   2.932   1.232   1.017
10094SOL     OW30305   3.500   1.099   1.079
10094SOL    HW130306   3.505   1.180   1.138
10094SOL    HW230307   3.414   1.101   1.028
10095SOL     OW30308   2.777   0.089   1.402
10095SOL    HW130309   2.802   0.069   1.307
10095SOL    HW230310   2.849   0.145   1.444
10096SOL     OW30311   2.842   1.116   1.719
10096SOL    HW130312   2.743   1.122   1.729
10096SOL    HW230313   2.865   1.036   1.663
10097SOL     OW30314   2.567   1.050   0.368
10097SOL    HW130315   2.553   1.057   0.467
10097SOL    HW230316   2.651   0.999   0.350
10098SOL     OW30317   2.272   0.813   1.251
10098SOL    HW130318   2.358   0.825   1.301
10098SOL    HW230319   2.230   0.726   1.278
10099SOL     OW30320   3.136   0.386   1.262
10099SOL    HW130321   3.157   0.460   1.326
10099SOL    HW230322   3.047   0.403   1.219
10100SOL     OW30323   1.926   1.564   1.331
10100SOL    HW130324   1.880   1.646   1.297
10100SOL    HW230325   2.024   1.583   1.340
10101SOL     OW30326   2.229   1.100   0.501
10101SOL    HW130327   2.222   1.183   0.445
10101SOL    HW230328   2.233   1.020   0.441
10102SOL     OW30329   2.428   0.537   0.865
10102SOL    HW130330   2.440   0.603   0.791
10102SOL    HW230331   2.474   0.571   0.948
10103SOL     OW30332   3.114   1.348   0.388
10103SOL    HW130333   3.164   1.425   0.428
10103SOL    HW230334   3.019   1.350   0.420
10104SOL     OW30335   3.134   1.445   1.142
10104SOL    HW130336   3.181   1.458   1.229
10104SOL    HW230337   3.068   1.371   1.151
10105SOL     OW30338   3.444   0.639   0.472
10105SOL    HW130339   3.413   0.700   0.545
10105SOL    HW230340   3.494   0.691   0.403
10106SOL     OW30341   2.216   1.510   1.329
10106SOL    HW130342   2.195   1.466   1.242
10106SOL    HW230343   2.313   1.536   1.332
10107SOL     OW30344   2.264   0.751   1.598
10107SOL    HW130345   2.332   0.806   1.551
10107SOL    HW230346   2.304   0.663   1.625
10108SOL     OW30347   3.449   0.779   1.670
10108SOL    HW130348   3.357   0.817   1.665
10108SOL    HW230349   3.509   0.826   1.605
10109SOL     OW30350   2.875   0.105   1.770
10109SOL    HW130351   2.881   0.190   1.718
10109SOL    HW230352   2.907   0.029   1.713
10110SOL     OW30353   2.366   0.050   1.740
10110SOL    HW130354   2.324  -0.007   1.670
10110SOL    HW230355   2.300   0.119   1.772
10111SOL     OW30356   2.435   0.870   1.029
10111SOL    HW130357   2.479   0.959   1.020
10111SOL    HW230358   2.372   0.870   1.106
10112SOL     OW30359   3.222   0.862   1.045
10112SOL    HW130360   3.147   0.862   0.979
10112SOL    HW230361   3.259   0.770   1.054
10113SOL     OW30362   3.071   0.525   0.275
10113SOL    HW130363   3.084   0.441   0.329
10113SOL    HW230364   3.042   0.599   0.335
10114SOL     OW30365   2.169   0.213   1.231
10114SOL    HW130366   2.146   0.250   1.321
10114SOL    HW230367   2.139   0.118   1.225
10115SOL     OW30368   1.899   1.310   1.282
10115SOL    HW130369   1.952   1.261   1.350
10115SOL    HW230370   1.921   1.408   1.287
10116SOL     OW30371   2.594   0.634   1.064
10116SOL    HW130372   2.653   0.608   0.988
10116SOL    HW230373   2.566   0.730   1.053
10117SOL     OW30374   3.590   0.935   1.854
10117SOL    HW130375   3.544   0.928   1.765
10117SOL    HW230376   3.528   0.979   1.920
10118SOL     OW30377   2.169   0.063   0.618
10118SOL    HW130378   2.158   0.157   0.651
10118SOL    HW230379   2.164   0.000   0.695
10119SOL     OW30380   3.484   0.367   0.374
10119SOL    HW130381   3.486   0.291   0.438
10119SOL    HW230382   3.436   0.444   0.414
10120SOL     OW30383   2.885   0.766   0.966
10120SOL    HW130384   2.900   0.787   1.062
10120SOL    HW230385   2.855   0.671   0.957
10121SOL     OW30386   2.842   1.573   1.700
10121SOL    HW130387   2.822   1.617   1.612
10121SOL    HW230388   2.881   1.482   1.684
10122SOL     OW30389   3.721   1.518   1.605
10122SOL    HW130390   3.735   1.545   1.510
10122SOL    HW230391   3.804   1.540   1.658
10123SOL     OW30392   2.212   0.898   1.804
10123SOL    HW130393   2.288   0.942   1.852
10123SOL    HW230394   2.247   0.851   1.722
10124SOL     OW30395   3.402   0.274   0.125
10124SOL    HW130396   3.341   0.199   0.148
10124SOL    HW230397   3.424   0.326   0.208
10125SOL     OW30398   3.165   0.838   0.042
10125SOL    HW130399   3.199   0.745   0.057
10125SOL    HW230400   3.183   0.865  -0.053
10126SOL     OW30401   2.930   1.333   0.849
10126SOL    HW130402   2.937   1.249   0.794
10126SOL    HW230403   2.992   1.402   0.813
10127SOL     OW30404   2.181   0.810   0.949
10127SOL    HW130405   2.274   0.846   0.954
10127SOL    HW230406   2.175   0.725   1.001
10128SOL     OW30407   2.201   0.509   1.006
10128SOL    HW130408   2.149   0.426   0.989
10128SOL    HW230409   2.278   0.514   0.942
10129SOL     OW30410   3.000   0.380   1.678
10129SOL    HW130411   2.955   0.443   1.742
10129SOL    HW230412   3.093   0.411   1.661
10130SOL     OW30413   3.022   0.207   1.477
10130SOL    HW130414   3.022   0.271   1.554
10130SOL    HW230415   3.050   0.255   1.394
10131SOL     OW30416   1.870   1.326   0.200
10131SOL    HW130417   1.777   1.347   0.169
10131SOL    HW230418   1.880   1.227   0.213
10132SOL     OW30419   1.950   1.801   0.927
10132SOL    HW130420   1.908   1.715   0.900
10132SOL    HW230421   2.044   1.804   0.893
10133SOL     OW30422   2.366   1.568   0.910
10133SOL    HW130423   2.432   1.642   0.919
10133SOL    HW230424   2.410   1.489   0.868
10134SOL     OW30425   2.864   0.796   1.238
10134SOL    HW130426   2.905   0.764   1.324
10134SOL    HW230427   2.768   0.769   1.235
10135SOL     OW30428   1.902   0.544   1.114
10135SOL    HW130429   1.987   0.511   1.073
10135SOL    HW230430   1.915   0.559   1.212
10136SOL     OW30431   2.051   0.520   1.722
10136SOL    HW130432   2.110   0.480   1.652
10136SOL    HW230433   1.993   0.591   1.681
10137SOL     OW30434   3.231   0.950   1.660
10137SOL    HW130435   3.270   1.039   1.680
10137SOL    HW230436   3.241   0.930   1.563
10138SOL     OW30437   2.677   0.572   0.325
10138SOL    HW130438   2.684   0.483   0.279
10138SOL    HW230439   2.583   0.606   0.317
10139SOL     OW30440   3.519   0.604   1.206
10139SOL    HW130441   3.481   0.535   1.268
10139SOL    HW230442   3.601   0.568   1.162
10140SOL     OW30443   2.114   1.564   1.744
10140SOL    HW130444   2.084   1.621   1.820
10140SOL    HW230445   2.107   1.467   1.770
10141SOL     OW30446   2.533   0.464   1.269
10141SOL    HW130447   2.499   0.375   1.239
10141SOL    HW230448   2.559   0.518   1.189
10142SOL     OW30449   2.792   1.678   1.465
10142SOL    HW130450   2.768   1.660   1.370
10142SOL    HW230451   2.822   1.772   1.475
10143SOL     OW30452   2.335   0.500   0.191
10143SOL    HW130453   2.396   0.580   0.195
10143SOL    HW230454   2.240   0.531   0.198
10144SOL     OW30455   2.021   1.137   1.466
10144SOL    HW130456   2.043   1.076   1.542
10144SOL    HW230457   2.031   1.088   1.380
10145SOL     OW30458   3.209   1.059   1.234
10145SOL    HW130459   3.233   0.996   1.160
10145SOL    HW230460   3.119   1.099   1.216
10146SOL     OW30461   3.164   0.855   0.309
10146SOL    HW130462   3.078   0.824   0.351
10146SOL    HW230463   3.160   0.841   0.210
10147SOL     OW30464   3.621   1.747   1.154
10147SOL    HW130465   3.682   1.777   1.081
10147SOL    HW230466   3.583   1.658   1.132
10148SOL     OW30467   1.945   1.258   1.022
10148SOL    HW130468   1.940   1.257   1.122
10148SOL    HW230469   1.862   1.217   0.984
10149SOL     OW30470   2.550   1.662   1.716
10149SOL    HW130471   2.494   1.743   1.725
10149SOL    HW230472   2.602   1.666   1.630
10150SOL     OW30473   2.765   0.086   0.133
10150SOL    HW130474   2.816   0.087   0.047
10150SOL    HW230475   2.821   0.044   0.204
10151SOL     OW30476   3.588   0.135   0.523
10151SOL    HW130477   3.661   0.118   0.456
10151SOL    HW230478   3.557   0.048   0.561
10152SOL     OW30479   3.250   1.573   0.477
10152SOL    HW130480   3.317   1.585   0.403
10152SOL    HW230481   3.210   1.662   0.500
10153SOL     OW30482   1.992   1.794   1.851
10153SOL    HW130483   1.951   1.720   1.904
10153SOL    HW230484   2.056   1.845   1.909
10154SOL     OW30485   3.142   0.927   0.672
10154SOL    HW130486   3.202   0.846   0.674
10154SOL    HW230487   3.182   0.996   0.612
10155SOL     OW30488   2.692   1.273   1.422
10155SOL    HW130489   2.687   1.306   1.517
10155SOL    HW230490   2.606   1.292   1.376
10156SOL     OW30491   2.534   1.616   0.154
10156SOL    HW130492   2.543   1.626   0.055
10156SOL    HW230493   2.494   1.527   0.175
10157SOL     OW30494   3.512   1.720   1.394
10157SOL    HW130495   3.565   1.730   1.310
10157SOL    HW230496   3.485   1.810   1.428
10158SOL     OW30497   3.703   0.175   0.963
10158SOL    HW130498   3.742   0.090   0.927
10158SOL    HW230499   3.605   0.177   0.944
10159SOL     OW30500   2.125   0.326   0.720
10159SOL    HW130501   2.046   0.377   0.686
10159SOL    HW230502   2.116   0.311   0.818
10160SOL     OW30503   3.056   1.612   0.031
10160SOL    HW130504   3.062   1.519   0.068
10160SOL    HW230505   2.997   1.612  -0.049
10161SOL     OW30506   2.684   1.002   1.372
10161SOL    HW130507   2.724   1.001   1.280
10161SOL    HW230508   2.694   1.094   1.412
10162SOL     OW30509   2.778   0.910   0.291
10162SOL    HW130510   2.841   0.948   0.223
10162SOL    HW230511   2.818   0.827   0.330
10163SOL     OW30512   3.366   1.607   0.044
10163SOL    HW130513   3.274   1.644   0.051
10163SOL    HW230514   3.404   1.627  -0.046
10164SOL     OW30515   2.234   1.288   1.490
10164SOL    HW130516   2.221   1.381   1.456
10164SOL    HW230517   2.150   1.236   1.477
10165SOL     OW30518   3.476   1.292   1.289
10165SOL    HW130519   3.536   1.295   1.369
10165SOL    HW230520   3.401   1.356   1.302
10166SOL     OW30521   2.901   1.098   0.696
10166SOL    HW130522   2.831   1.051   0.750
10166SOL    HW230523   2.960   1.030   0.653
10167SOL     OW30524   2.452   1.487   0.491
10167SOL    HW130525   2.494   1.429   0.421
10167SOL    HW230526   2.408   1.566   0.447
10168SOL     OW30527   3.571   0.385   1.381
10168SOL    HW130528   3.644   0.454   1.385
10168SOL    HW230529   3.599   0.310   1.322
10169SOL     OW30530   2.117   1.348   0.290
10169SOL    HW130531   2.021   1.349   0.263
10169SOL    HW230532   2.129   1.401   0.374
10170SOL     OW30533   1.967   1.013   1.726
10170SOL    HW130534   1.890   0.980   1.780
10170SOL    HW230535   2.052   0.983   1.768
10171SOL     OW30536   2.534   0.203   1.489
10171SOL    HW130537   2.624   0.187   1.449
10171SOL    HW230538   2.542   0.208   1.588
10172SOL     OW30539   3.302   0.856   1.398
10172SOL    HW130540   3.245   0.908   1.335
10172SOL    HW230541   3.398   0.868   1.374
10173SOL     OW30542   1.934   0.166   0.318
10173SOL    HW130543   1.917   0.249   0.264
10173SOL    HW230544   2.024   0.129   0.296
10174SOL     OW30545   3.045   1.335   0.119
10174SOL    HW130546   2.946   1.324   0.121
10174SOL    HW230547   3.079   1.350   0.212
10175SOL     OW30548   2.475   0.842   1.431
10175SOL    HW130549   2.531   0.923   1.414
10175SOL    HW230550   2.534   0.762   1.434
10176SOL     OW30551   3.355   1.767   0.959
10176SOL    HW130552   3.388   1.831   0.890
10176SOL    HW230553   3.421   1.761   1.034
10177SOL     OW30554   2.578   0.565   1.708
10177SOL    HW130555   2.597   0.630   1.782
10177SOL    HW230556   2.638   0.485   1.717
10178SOL     OW30557   3.312   1.220   1.633
10178SOL    HW130558   3.303   1.210   1.732
10178SOL    HW230559   3.408   1.213   1.607
10179SOL     OW30560   2.252   1.741   1.560
10179SOL    HW130561   2.161   1.782   1.558
10179SOL    HW230562   2.245   1.647   1.592
10180SOL     OW30563   3.536   0.883   1.254
10180SOL    HW130564   3.509   0.794   1.217
10180SOL    HW230565   3.537   0.951   1.181
10181SOL     OW30566   3.087   0.325   0.449
10181SOL    HW130567   3.152   0.251   0.438
10181SOL    HW230568   3.107   0.375   0.533
10182SOL     OW30569   2.456   0.745   0.652
10182SOL    HW130570   2.506   0.830   0.633
10182SOL    HW230571   2.368   0.747   0.604
10183SOL     OW30572   3.639   0.342   1.642
10183SOL    HW130573   3.622   0.373   1.548
10183SOL    HW230574   3.555   0.305   1.680
10184SOL     OW30575   3.592   0.934   1.517
10184SOL    HW130576   3.630   1.025   1.532
10184SOL    HW230577   3.584   0.917   1.418
10185SOL     OW30578   2.721   1.374   0.016
10185SOL    HW130579   2.675   1.389   0.104
10185SOL    HW230580   2.765   1.459  -0.014
10186SOL     OW30581   2.523   1.790   0.953
10186SOL    HW130582   2.477   1.878   0.940
10186SOL    HW230583   2.622   1.802   0.946
10187SOL     OW30584   2.721   0.956   0.861
10187SOL    HW130585   2.775   0.887   0.909
10187SOL    HW230586   2.689   1.025   0.927
10188SOL     OW30587   2.945   0.984   0.087
10188SOL    HW130588   2.922   1.037   0.005
10188SOL    HW230589   3.026   0.928   0.068
10189SOL     OW30590   3.723   1.569   0.851
10189SOL    HW130591   3.652   1.557   0.781
10189SOL    HW230592   3.724   1.490   0.911
10190SOL     OW30593   2.083   1.314   1.844
10190SOL    HW130594   2.018   1.241   1.823
10190SOL    HW230595   2.087   1.328   1.942
10191SOL     OW30596   1.941   1.240   0.653
10191SOL    HW130597   1.940   1.193   0.741
10191SOL    HW230598   2.023   1.212   0.602
10192SOL     OW30599   2.534   1.391   1.624
10192SOL    HW130600   2.456   1.341   1.662
10192SOL    HW230601   2.531   1.486   1.655
10193SOL     OW30602   3.686   0.192   1.227
10193SOL    HW130603   3.682   0.102   1.271
10193SOL    HW230604   3.689   0.181   1.128
10194SOL     OW30605   2.290   0.424   0.520
10194SOL    HW130606   2.320   0.352   0.458
10194SOL    HW230607   2.251   0.384   0.603
10195SOL     OW30608   3.567   1.487   1.104
10195SOL    HW130609   3.474   1.462   1.077
10195SOL    HW230610   3.593   1.437   1.186
10196SOL     OW30611   2.179   0.547   1.280
10196SOL    HW130612   2.217   0.488   1.352
10196SOL    HW230613   2.219   0.521   1.192
10197SOL     OW30614   2.674   1.586   0.687
10197SOL    HW130615   2.706   1.596   0.593
10197SOL    HW230616   2.595   1.524   0.689
10198SOL     OW30617   3.286   0.214   1.112
10198SOL    HW130618   3.338   0.149   1.167
10198SOL    HW230619   3.237   0.277   1.173
10199SOL     OW30620   2.863   0.034   1.154
10199SOL    HW130621   2.800  -0.038   1.123
10199SOL    HW230622   2.956  -0.002   1.154
10200SOL     OW30623   2.632   1.330   0.301
10200SOL    HW130624   2.586   1.243   0.318
10200SOL    HW230625   2.723   1.327   0.342
10201SOL     OW30626   3.214   0.052   0.168
10201SOL    HW130627   3.249   0.011   0.084
10201SOL    HW230628   3.124   0.014   0.188
10202SOL     OW30629   3.162   0.453   0.691
10202SOL    HW130630   3.103   0.533   0.695
10202SOL    HW230631   3.177   0.418   0.784
10203SOL     OW30632   3.455   0.221   0.882
10203SOL    HW130633   3.371   0.220   0.936
10203SOL    HW230634   3.457   0.304   0.826
10204SOL     OW30635   1.901   1.077   0.300
10204SOL    HW130636   2.000   1.066   0.291
10204SOL    HW230637   1.861   0.991   0.332
10205SOL     OW30638   2.737   1.646   0.337
10205SOL    HW130639   2.660   1.611   0.283
10205SOL    HW230640   2.705   1.717   0.399
10206SOL     OW30641   2.092   0.628   1.975
10206SOL    HW130642   1.999   0.626   2.012
10206SOL    HW230643   2.093   0.589   1.883
10207SOL     OW30644   2.087   0.275   2.858
10207SOL    HW130645   2.122   0.258   2.950
10207SOL    HW230646   1.999   0.230   2.846
10208SOL     OW30647   1.881   0.368   2.509
10208SOL    HW130648   1.799   0.411   2.548
10208SOL    HW230649   1.853   0.295   2.446
10209SOL     OW30650   2.431   1.275   3.027
10209SOL    HW130651   2.338   1.268   2.990
10209SOL    HW230652   2.442   1.364   3.071
10210SOL     OW30653   3.417   1.511   2.565
10210SOL    HW130654   3.360   1.495   2.646
10210SOL    HW230655   3.358   1.521   2.485
10211SOL     OW30656   2.997   0.703   2.579
10211SOL    HW130657   3.054   0.781   2.554
10211SOL    HW230658   2.937   0.729   2.655
10212SOL     OW30659   3.617   0.607   2.093
10212SOL    HW130660   3.605   0.594   1.994
10212SOL    HW230661   3.587   0.526   2.142
10213SOL     OW30662   2.630   1.144   2.885
10213SOL    HW130663   2.552   1.161   2.945
10213SOL    HW230664   2.664   1.231   2.849
10214SOL     OW30665   2.712   0.798   3.685
10214SOL    HW130666   2.708   0.874   3.750
10214SOL    HW230667   2.734   0.834   3.594
10215SOL     OW30668   2.547   1.012   2.527
10215SOL    HW130669   2.616   0.996   2.597
10215SOL    HW230670   2.474   1.069   2.565
10216SOL     OW30671   2.548   1.161   3.665
10216SOL    HW130672   2.608   1.240   3.679
10216SOL    HW230673   2.462   1.192   3.624
10217SOL     OW30674   2.197   1.435   2.923
10217SOL    HW130675   2.119   1.404   2.870
10217SOL    HW230676   2.255   1.493   2.866
10218SOL     OW30677   3.322   1.505   3.201
10218SOL    HW130678   3.346   1.599   3.227
10218SOL    HW230679   3.306   1.451   3.283
10219SOL     OW30680   2.300   0.392   3.361
10219SOL    HW130681   2.382   0.336   3.370
10219SOL    HW230682   2.219   0.334   3.365
10220SOL     OW30683   3.465   0.447   2.599
10220SOL    HW130684   3.391   0.493   2.549
10220SOL    HW230685   3.516   0.515   2.652
10221SOL     OW30686   2.093   1.713   2.345
10221SOL    HW130687   2.127   1.790   2.399
10221SOL    HW230688   2.137   1.713   2.255
10222SOL     OW30689   2.989   1.341   3.552
10222SOL    HW130690   3.036   1.341   3.640
10222SOL    HW230691   2.941   1.254   3.541
10223SOL     OW30692   2.092   1.434   2.400
10223SOL    HW130693   2.066   1.530   2.400
10223SOL    HW230694   2.021   1.380   2.445
10224SOL     OW30695   2.102   1.091   2.748
10224SOL    HW130696   2.116   1.007   2.800
10224SOL    HW230697   2.047   1.155   2.803
10225SOL     OW30698   2.482   1.786   3.301
10225SOL    HW130699   2.390   1.769   3.336
10225SOL    HW230700   2.510   1.878   3.327
10226SOL     OW30701   2.468   0.964   1.985
10226SOL    HW130702   2.475   1.048   1.931
10226SOL    HW230703   2.514   0.977   2.073
10227SOL     OW30704   3.456   0.114   3.342
10227SOL    HW130705   3.438   0.181   3.270
10227SOL    HW230706   3.453   0.160   3.431
10228SOL     OW30707   1.984   0.643   2.425
10228SOL    HW130708   1.939   0.555   2.442
10228SOL    HW230709   1.983   0.697   2.509
10229SOL     OW30710   3.704   1.767   2.221
10229SOL    HW130711   3.758   1.738   2.301
10229SOL    HW230712   3.734   1.857   2.192
10230SOL     OW30713   1.889   1.596   1.979
10230SOL    HW130714   1.870   1.500   2.000
10230SOL    HW230715   1.856   1.654   2.054
10231SOL     OW30716   3.551   0.922   2.474
10231SOL    HW130717   3.646   0.893   2.482
10231SOL    HW230718   3.543   0.987   2.399
10232SOL     OW30719   3.503   1.108   2.294
10232SOL    HW130720   3.589   1.110   2.242
10232SOL    HW230721   3.517   1.155   2.382
10233SOL     OW30722   1.975   0.737   3.459
10233SOL    HW130723   2.063   0.724   3.504
10233SOL    HW230724   1.962   0.834   3.437
10234SOL     OW30725   2.475   1.365   2.588
10234SOL    HW130726   2.426   1.278   2.597
10234SOL    HW230727   2.452   1.408   2.501
10235SOL     OW30728   3.155   1.228   3.285
10235SOL    HW130729   3.192   1.155   3.227
10235SOL    HW230730   3.207   1.233   3.370
10236SOL     OW30731   2.671   0.004   2.364
10236SOL    HW130732   2.711   0.095   2.355
10236SOL    HW230733   2.571   0.012   2.370
10237SOL     OW30734   2.059   0.976   3.126
10237SOL    HW130735   2.148   0.931   3.112
10237SOL    HW230736   1.986   0.911   3.107
10238SOL     OW30737   3.387   0.999   2.052
10238SOL    HW130738   3.324   0.923   2.065
10238SOL    HW230739   3.435   1.017   2.138
10239SOL     OW30740   3.049   1.792   3.478
10239SOL    HW130741   3.073   1.852   3.402
10239SOL    HW230742   3.056   1.697   3.448
10240SOL     OW30743   2.179   0.251   3.663
10240SOL    HW130744   2.250   0.322   3.669
10240SOL    HW230745   2.091   0.290   3.691
10241SOL     OW30746   3.328   1.417   2.815
10241SOL    HW130747   3.269   1.423   2.895
10241SOL    HW230748   3.313   1.329   2.769
10242SOL     OW30749   3.529   1.714   2.434
10242SOL    HW130750   3.488   1.691   2.346
10242SOL    HW230751   3.511   1.640   2.499
10243SOL     OW30752   2.460   0.729   2.132
10243SOL    HW130753   2.484   0.798   2.064
10243SOL    HW230754   2.382   0.762   2.186
10244SOL     OW30755   3.143   0.345   2.806
10244SOL    HW130756   3.057   0.295   2.793
10244SOL    HW230757   3.205   0.291   2.862
10245SOL     OW30758   3.438   1.662   2.169
10245SOL    HW130759   3.527   1.708   2.172
10245SOL    HW230760   3.417   1.638   2.074
10246SOL     OW30761   2.669   0.605   3.327
10246SOL    HW130762   2.622   0.602   3.416
10246SOL    HW230763   2.618   0.550   3.261
10247SOL     OW30764   3.256   0.469   3.536
10247SOL    HW130765   3.236   0.512   3.624
10247SOL    HW230766   3.334   0.407   3.545
10248SOL     OW30767   2.835   0.890   3.434
10248SOL    HW130768   2.881   0.806   3.405
10248SOL    HW230769   2.779   0.924   3.359
10249SOL     OW30770   2.853   0.410   3.104
10249SOL    HW130771   2.776   0.444   3.158
10249SOL    HW230772   2.819   0.359   3.025
10250SOL     OW30773   2.903   0.701   2.291
10250SOL    HW130774   2.929   0.697   2.387
10250SOL    HW230775   2.818   0.650   2.277
10251SOL     OW30776   1.938   0.811   2.651
10251SOL    HW130777   2.037   0.799   2.660
10251SOL    HW230778   1.914   0.906   2.672
10252SOL     OW30779   1.992   1.821   3.433
10252SOL    HW130780   1.982   1.806   3.532
10252SOL    HW230781   1.906   1.857   3.397
10253SOL     OW30782   2.727   0.348   2.057
10253SOL    HW130783   2.786   0.411   2.008
10253SOL    HW230784   2.746   0.254   2.028
10254SOL     OW30785   3.581   0.585   3.693
10254SOL    HW130786   3.555   0.674   3.657
10254SOL    HW230787   3.579   0.517   3.620
10255SOL     OW30788   3.224   1.144   2.407
10255SOL    HW130789   3.307   1.115   2.359
10255SOL    HW230790   3.175   1.211   2.351
10256SOL     OW30791   2.412   0.196   2.747
10256SOL    HW130792   2.407   0.191   2.847
10256SOL    HW230793   2.414   0.292   2.718
10257SOL     OW30794   2.870   1.456   2.339
10257SOL    HW130795   2.824   1.528   2.287
10257SOL    HW230796   2.866   1.476   2.437
10258SOL     OW30797   2.213   1.801   2.715
10258SOL    HW130798   2.263   1.715   2.721
10258SOL    HW230799   2.278   1.878   2.712
10259SOL     OW30800   3.657   1.066   2.735
10259SOL    HW130801   3.595   1.051   2.659
10259SOL    HW230802   3.605   1.077   2.820
10260SOL     OW30803   3.089   1.550   3.368
10260SOL    HW130804   3.095   1.473   3.432
10260SOL    HW230805   3.037   1.524   3.288
10261SOL     OW30806   2.183   0.943   2.104
10261SOL    HW130807   2.265   0.982   2.062
10261SOL    HW230808   2.156   0.861   2.055
10262SOL     OW30809   3.320   0.735   2.590
10262SOL    HW130810   3.315   0.670   2.665
10262SOL    HW230811   3.400   0.794   2.603
10263SOL     OW30812   2.323   1.266   3.589
10263SOL    HW130813   2.273   1.267   3.503
10263SOL    HW230814   2.260   1.248   3.665
10264SOL     OW30815   2.973   1.776   2.099
10264SOL    HW130816   2.913   1.714   2.149
10264SOL    HW230817   3.004   1.732   2.014
10265SOL     OW30818   2.064   0.285   3.360
10265SOL    HW130819   1.984   0.345   3.347
10265SOL    HW230820   2.054   0.236   3.446
10266SOL     OW30821   3.494   1.377   1.943
10266SOL    HW130822   3.462   1.471   1.933
10266SOL    HW230823   3.418   1.314   1.931
10267SOL     OW30824   2.326   1.743   2.185
10267SOL    HW130825   2.359   1.782   2.271
10267SOL    HW230826   2.402   1.736   2.120
10268SOL     OW30827   3.262   0.107   2.288
10268SOL    HW130828   3.238   0.070   2.198
10268SOL    HW230829   3.361   0.123   2.292
10269SOL     OW30830   2.111   1.785   3.103
10269SOL    HW130831   2.168   1.720   3.153
10269SOL    HW230832   2.095   1.752   3.010
10270SOL     OW30833   2.802   1.698   2.766
10270SOL    HW130834   2.882   1.641   2.787
10270SOL    HW230835   2.753   1.658   2.689
10271SOL     OW30836   2.244   0.700   2.342
10271SOL    HW130837   2.289   0.610   2.339
10271SOL    HW230838   2.150   0.689   2.375
10272SOL     OW30839   3.409   0.222   3.591
10272SOL    HW130840   3.404   0.259   3.683
10272SOL    HW230841   3.337   0.153   3.579
10273SOL     OW30842   2.643   0.264   3.611
10273SOL    HW130843   2.710   0.203   3.654
10273SOL    HW230844   2.570   0.283   3.676
10274SOL     OW30845   2.750   1.514   3.057
10274SOL    HW130846   2.727   1.489   2.963
10274SOL    HW230847   2.811   1.445   3.096
10275SOL     OW30848   3.213   0.590   3.295
10275SOL    HW130849   3.241   0.547   3.380
10275SOL    HW230850   3.238   0.686   3.296
10276SOL     OW30851   2.665   1.402   2.786
10276SOL    HW130852   2.755   1.416   2.744
10276SOL    HW230853   2.594   1.404   2.715
10277SOL     OW30854   2.784   0.503   2.761
10277SOL    HW130855   2.759   0.494   2.665
10277SOL    HW230856   2.832   0.421   2.792
10278SOL     OW30857   2.401   0.064   2.374
10278SOL    HW130858   2.320   0.065   2.432
10278SOL    HW230859   2.404   0.147   2.319
10279SOL     OW30860   3.296   1.188   1.903
10279SOL    HW130861   3.328   1.112   1.960
10279SOL    HW230862   3.204   1.215   1.933
10280SOL     OW30863   2.159   0.035   2.033
10280SOL    HW130864   2.208   0.119   2.012
10280SOL    HW230865   2.221  -0.030   2.078
10281SOL     OW30866   2.797   0.236   2.342
10281SOL    HW130867   2.749   0.277   2.264
10281SOL    HW230868   2.896   0.234   2.323
10282SOL     OW30869   2.938   0.683   3.326
10282SOL    HW130870   2.858   0.622   3.329
10282SOL    HW230871   3.019   0.630   3.302
10283SOL     OW30872   3.089   1.570   2.655
10283SOL    HW130873   3.110   1.644   2.590
10283SOL    HW230874   3.157   1.570   2.728
10284SOL     OW30875   2.321   1.152   2.603
10284SOL    HW130876   2.250   1.125   2.668
10284SOL    HW230877   2.295   1.124   2.510
10285SOL     OW30878   3.133   1.797   2.453
10285SOL    HW130879   3.177   1.861   2.389
10285SOL    HW230880   3.083   1.849   2.523
10286SOL     OW30881   2.894   0.549   1.878
10286SOL    HW130882   2.853   0.631   1.839
10286SOL    HW230883   2.958   0.575   1.951
10287SOL     OW30884   1.940   0.556   3.248
10287SOL    HW130885   2.032   0.555   3.207
10287SOL    HW230886   1.934   0.630   3.315
10288SOL     OW30887   2.423   0.222   3.009
10288SOL    HW130888   2.461   0.138   3.046
10288SOL    HW230889   2.335   0.241   3.053
10289SOL     OW30890   2.728   0.454   2.504
10289SOL    HW130891   2.696   0.526   2.442
10289SOL    HW230892   2.752   0.373   2.451
10290SOL     OW30893   2.879   0.039   2.615
10290SOL    HW130894   2.807   0.044   2.546
10290SOL    HW230895   2.855  -0.030   2.684
10291SOL     OW30896   3.291   1.173   2.729
10291SOL    HW130897   3.236   1.089   2.722
10291SOL    HW230898   3.317   1.202   2.637
10292SOL     OW30899   3.328   0.590   2.854
10292SOL    HW130900   3.298   0.495   2.861
10292SOL    HW230901   3.401   0.606   2.920
10293SOL     OW30902   3.719   0.833   2.239
10293SOL    HW130903   3.761   0.769   2.303
10293SOL    HW230904   3.681   0.782   2.161
10294SOL     OW30905   2.350   1.385   2.036
10294SOL    HW130906   2.263   1.370   2.083
10294SOL    HW230907   2.333   1.411   1.941
10295SOL     OW30908   3.526   1.280   2.519
10295SOL    HW130909   3.625   1.288   2.533
10295SOL    HW230910   3.481   1.364   2.550
10296SOL     OW30911   3.252   0.575   1.940
10296SOL    HW130912   3.198   0.554   2.021
10296SOL    HW230913   3.343   0.534   1.949
10297SOL     OW30914   2.389   0.256   2.190
10297SOL    HW130915   2.416   0.197   2.115
10297SOL    HW230916   2.389   0.351   2.159
10298SOL     OW30917   3.616   1.223   3.450
10298SOL    HW130918   3.707   1.184   3.437
10298SOL    HW230919   3.624   1.319   3.474
10299SOL     OW30920   2.926   1.347   3.202
10299SOL    HW130921   2.846   1.324   3.257
10299SOL    HW230922   3.009   1.321   3.251
10300SOL     OW30923   3.454   1.629   3.487
10300SOL    HW130924   3.481   1.663   3.397
10300SOL    HW230925   3.533   1.591   3.533
10301SOL     OW30926   2.973   1.195   2.962
10301SOL    HW130927   2.933   1.239   3.043
10301SOL    HW230928   2.932   1.232   2.879
10302SOL     OW30929   3.500   1.099   2.941
10302SOL    HW130930   3.505   1.180   3.000
10302SOL    HW230931   3.414   1.101   2.890
10303SOL     OW30932   2.777   0.089   3.264
10303SOL    HW130933   2.802   0.069   3.169
10303SOL    HW230934   2.849   0.145   3.306
10304SOL     OW30935   2.842   1.116   3.581
10304SOL    HW130936   2.743   1.122   3.591
10304SOL    HW230937   2.865   1.036   3.525
10305SOL     OW30938   2.567   1.050   2.230
10305SOL    HW130939   2.553   1.057   2.329
10305SOL    HW230940   2.651   0.999   2.212
10306SOL     OW30941   2.272   0.813   3.113
10306SOL    HW130942   2.358   0.825   3.163
10306SOL    HW230943   2.230   0.726   3.140
10307SOL     OW30944   3.136   0.386   3.124
10307SOL    HW130945   3.157   0.460   3.188
10307SOL    HW230946   3.047   0.403   3.081
10308SOL     OW30947   1.926   1.564   3.193
10308SOL    HW130948   1.880   1.646   3.159
10308SOL    HW230949   2.024   1.583   3.202
10309SOL     OW30950   2.229   1.100   2.363
10309SOL    HW130951   2.222   1.183   2.307
10309SOL    HW230952   2.233   1.020   2.303
10310SOL     OW30953   2.428   0.537   2.727
10310SOL    HW130954   2.440   0.603   2.653
10310SOL    HW230955   2.474   0.571   2.810
10311SOL     OW30956   3.114   1.348   2.250
10311SOL    HW130957   3.164   1.425   2.290
10311SOL    HW230958   3.019   1.350   2.282
10312SOL     OW30959   3.134   1.445   3.004
10312SOL    HW130960   3.181   1.458   3.091
10312SOL    HW230961   3.068   1.371   3.013
10313SOL     OW30962   3.444   0.639   2.334
10313SOL    HW130963   3.413   0.700   2.407
10313SOL    HW230964   3.494   0.691   2.265
10314SOL     OW30965   2.216   1.510   3.191
10314SOL    HW130966   2.195   1.466   3.104
10314SOL    HW230967   2.313   1.536   3.194
10315SOL     OW30968   2.264   0.751   3.460
10315SOL    HW130969   2.332   0.806   3.413
10315SOL    HW230970   2.304   0.663   3.487
10316SOL     OW30971   3.449   0.779   3.532
10316SOL    HW130972   3.357   0.817   3.527
10316SOL    HW230973   3.509   0.826   3.467
10317SOL     OW30974   2.875   0.105   3.632
10317SOL    HW130975   2.881   0.190   3.580
10317SOL    HW230976   2.907   0.029   3.575
10318SOL     OW30977   2.366   0.050   3.602
10318SOL    HW130978   2.324  -0.007   3.532
10318SOL    HW230979   2.300   0.119   3.634
10319SOL     OW30980   2.435   0.870   2.891
10319SOL    HW130981   2.479   0.959   2.882
10319SOL    HW230982   2.372   0.870   2.968
10320SOL     OW30983   3.222   0.862   2.907
10320SOL    HW130984   3.147   0.862   2.841
10320SOL    HW230985   3.259   0.770   2.916
10321SOL     OW30986   3.071   0.525   2.137
10321SOL    HW130987   3.084   0.441   2.191
10321SOL    HW230988   3.042   0.599   2.197
10322SOL     OW30989   2.169   0.213   3.093
10322SOL    HW130990   2.146   0.250   3.183
10322SOL    HW230991   2.139   0.118   3.087
10323SOL     OW30992   1.899   1.310   3.144
10323SOL    HW130993   1.952   1.261   3.212
10323SOL    HW230994   1.921   1.408   3.149
10324SOL     OW30995   2.594   0.634   2.926
10324SOL    HW130996   2.653   0.608   2.850
10324SOL    HW230997   2.566   0.730   2.915
10325SOL     OW30998   3.590   0.935   3.716
10325SOL    HW130999   3.544   0.928   3.627
10325SOL    HW231000   3.528   0.979   3.782
10326SOL     OW31001   2.169   0.063   2.480
10326SOL    HW131002   2.158   0.157   2.513
10326SOL    HW231003   2.164   0.000   2.557
10327SOL     OW31004   3.484   0.367   2.236
10327SOL    HW131005   3.486   0.291   2.300
10327SOL    HW231006   3.436   0.444   2.276
10328SOL     OW31007   2.885   0.766   2.828
10328SOL    HW131008   2.900   0.787   2.924
10328SOL    HW231009   2.855   0.671   2.819
10329SOL     OW31010   2.842   1.573   3.562
10329SOL    HW131011   2.822   1.617   3.474
10329SOL    HW231012   2.881   1.482   3.546
10330SOL     OW31013   3.721   1.518   3.467
10330SOL    HW131014   3.735   1.545   3.372
10330SOL    HW231015   3.804   1.540   3.520
10331SOL     OW31016   2.212   0.898   3.666
10331SOL    HW131017   2.288   0.942   3.714
10331SOL    HW231018   2.247   0.851   3.584
10332SOL     OW31019   3.402   0.274   1.987
10332SOL    HW131020   3.341   0.199   2.010
10332SOL    HW231021   3.424   0.326   2.070
10333SOL     OW31022   3.165   0.838   1.904
10333SOL    HW131023   3.199   0.745   1.919
10333SOL    HW231024   3.183   0.865   1.809
10334SOL     OW31025   2.930   1.333   2.711
10334SOL    HW131026   2.937   1.249   2.656
10334SOL    HW231027   2.992   1.402   2.675
10335SOL     OW31028   2.181   0.810   2.811
10335SOL    HW131029   2.274   0.846   2.816
10335SOL    HW231030   2.175   0.725   2.863
10336SOL     OW31031   2.201   0.509   2.868
10336SOL    HW131032   2.149   0.426   2.851
10336SOL    HW231033   2.278   0.514   2.804
10337SOL     OW31034   3.000   0.380   3.540
10337SOL    HW131035   2.955   0.443   3.604
10337SOL    HW231036   3.093   0.411   3.523
10338SOL     OW31037   3.022   0.207   3.339
10338SOL    HW131038   3.022   0.271   3.416
10338SOL    HW231039   3.050   0.255   3.256
10339SOL     OW31040   1.870   1.326   2.062
10339SOL    HW131041   1.777   1.347   2.031
10339SOL    HW231042   1.880   1.227   2.075
10340SOL     OW31043   1.950   1.801   2.789
10340SOL    HW131044   1.908   1.715   2.762
10340SOL    HW231045   2.044   1.804   2.755
10341SOL     OW31046   2.366   1.568   2.772
10341SOL    HW131047   2.432   1.642   2.781
10341SOL    HW231048   2.410   1.489   2.730
10342SOL     OW31049   2.864   0.796   3.100
10342SOL    HW131050   2.905   0.764   3.186
10342SOL    HW231051   2.768   0.769   3.097
10343SOL     OW31052   1.902   0.544   2.976
10343SOL    HW131053   1.987   0.511   2.935
10343SOL    HW231054   1.915   0.559   3.074
10344SOL     OW31055   2.051   0.520   3.584
10344SOL    HW131056   2.110   0.480   3.514
10344SOL    HW231057   1.993   0.591   3.543
10345SOL     OW31058   3.231   0.950   3.522
10345SOL    HW131059   3.270   1.039   3.542
10345SOL    HW231060   3.241   0.930   3.425
10346SOL     OW31061   2.677   0.572   2.187
10346SOL    HW131062   2.684   0.483   2.141
10346SOL    HW231063   2.583   0.606   2.179
10347SOL     OW31064   3.519   0.604   3.068
10347SOL    HW131065   3.481   0.535   3.130
10347SOL    HW231066   3.601   0.568   3.024
10348SOL     OW31067   2.114   1.564   3.606
10348SOL    HW131068   2.084   1.621   3.682
10348SOL    HW231069   2.107   1.467   3.632
10349SOL     OW31070   2.533   0.464   3.131
10349SOL    HW131071   2.499   0.375   3.101
10349SOL    HW231072   2.559   0.518   3.051
10350SOL     OW31073   2.792   1.678   3.327
10350SOL    HW131074   2.768   1.660   3.232
10350SOL    HW231075   2.822   1.772   3.337
10351SOL     OW31076   2.335   0.500   2.053
10351SOL    HW131077   2.396   0.580   2.057
10351SOL    HW231078   2.240   0.531   2.060
10352SOL     OW31079   2.021   1.137   3.328
10352SOL    HW131080   2.043   1.076   3.404
10352SOL    HW231081   2.031   1.088   3.242
10353SOL     OW31082   3.209   1.059   3.096
10353SOL    HW131083   3.233   0.996   3.022
10353SOL    HW231084   3.119   1.099   3.078
10354SOL     OW31085   3.164   0.855   2.171
10354SOL    HW131086   3.078   0.824   2.213
10354SOL    HW231087   3.160   0.841   2.072
10355SOL     OW31088   3.621   1.747   3.016
10355SOL    HW131089   3.682   1.777   2.943
10355SOL    HW231090   3.583   1.658   2.994
10356SOL     OW31091   3.114   1.731   2.990
10356SOL    HW131092   3.198   1.736   2.936
10356SOL    HW231093   3.091   1.635   3.008
10357SOL     OW31094   1.945   1.258   2.884
10357SOL    HW131095   1.940   1.257   2.984
10357SOL    HW231096   1.862   1.217   2.846
10358SOL     OW31097   2.550   1.662   3.578
10358SOL    HW131098   2.494   1.743   3.587
10358SOL    HW231099   2.602   1.666   3.492
10359SOL     OW31100   3.588   0.135   2.385
10359SOL    HW131101   3.661   0.118   2.318
10359SOL    HW231102   3.557   0.048   2.423
10360SOL     OW31103   3.250   1.573   2.339
10360SOL    HW131104   3.317   1.585   2.265
10360SOL    HW231105   3.210   1.662   2.362
10361SOL     OW31106   1.992   1.794   3.713
10361SOL    HW131107   1.951   1.720   3.766
10361SOL    HW231108   2.056   1.845   3.771
10362SOL     OW31109   3.142   0.927   2.534
10362SOL    HW131110   3.202   0.846   2.536
10362SOL    HW231111   3.182   0.996   2.474
10363SOL     OW31112   2.692   1.273   3.284
10363SOL    HW131113   2.687   1.306   3.379
10363SOL    HW231114   2.606   1.292   3.238
10364SOL     OW31115   2.534   1.616   2.016
10364SOL    HW131116   2.543   1.626   1.917
10364SOL    HW231117   2.494   1.527   2.037
10365SOL     OW31118   3.512   1.720   3.256
10365SOL    HW131119   3.565   1.730   3.172
10365SOL    HW231120   3.485   1.810   3.290
10366SOL     OW31121   3.703   0.175   2.825
10366SOL    HW131122   3.742   0.090   2.789
10366SOL    HW231123   3.605   0.177   2.806
10367SOL     OW31124   2.125   0.326   2.582
10367SOL    HW131125   2.046   0.377   2.548
10367SOL    HW231126   2.116   0.311   2.680
10368SOL     OW31127   3.056   1.612   1.893
10368SOL    HW131128   3.062   1.519   1.930
10368SOL    HW231129   2.997   1.612   1.813
10369SOL     OW31130   2.684   1.002   3.234
10369SOL    HW131131   2.724   1.001   3.142
10369SOL    HW231132   2.694   1.094   3.274
10370SOL     OW31133   2.778   0.910   2.153
10370SOL    HW131134   2.841   0.948   2.085
10370SOL    HW231135   2.818   0.827   2.192
10371SOL     OW31136   3.366   1.607   1.906
10371SOL    HW131137   3.274   1.644   1.913
10371SOL    HW231138   3.404   1.627   1.816
10372SOL     OW31139   2.234   1.288   3.352
10372SOL    HW131140   2.221   1.381   3.318
10372SOL    HW231141   2.150   1.236   3.339
10373SOL     OW31142   3.476   1.292   3.151
10373SOL    HW131143   3.536   1.295   3.231
10373SOL    HW231144   3.401   1.356   3.164
10374SOL     OW31145   2.901   1.098   2.558
10374SOL    HW131146   2.831   1.051   2.612
10374SOL    HW231147   2.960   1.030   2.515
10375SOL     OW31148   2.876   0.236   2.833
10375SOL    HW131149   2.868   0.200   2.740
10375SOL    HW231150   2.874   0.160   2.898
10376SOL     OW31151   2.452   1.487   2.353
10376SOL    HW131152   2.494   1.429   2.283
10376SOL    HW231153   2.408   1.566   2.309
10377SOL     OW31154   3.571   0.385   3.243
10377SOL    HW131155   3.644   0.454   3.247
10377SOL    HW231156   3.599   0.310   3.184
10378SOL     OW31157   2.117   1.348   2.152
10378SOL    HW131158   2.021   1.349   2.125
10378SOL    HW231159   2.129   1.401   2.236
10379SOL     OW31160   1.967   1.013   3.588
10379SOL    HW131161   1.890   0.980   3.642
10379SOL    HW231162   2.052   0.983   3.630
10380SOL     OW31163   2.534   0.203   3.351
10380SOL    HW131164   2.624   0.187   3.311
10380SOL    HW231165   2.542   0.208   3.450
10381SOL     OW31166   1.937   0.345   1.895
10381SOL    HW131167   1.845   0.317   1.866
10381SOL    HW231168   1.968   0.422   1.839
10382SOL     OW31169   3.302   0.856   3.260
10382SOL    HW131170   3.245   0.908   3.197
10382SOL    HW231171   3.398   0.868   3.236
10383SOL     OW31172   1.934   0.166   2.180
10383SOL    HW131173   1.917   0.249   2.126
10383SOL    HW231174   2.024   0.129   2.158
10384SOL     OW31175   3.045   1.335   1.981
10384SOL    HW131176   2.946   1.324   1.983
10384SOL    HW231177   3.079   1.350   2.074
10385SOL     OW31178   2.475   0.842   3.293
10385SOL    HW131179   2.531   0.923   3.276
10385SOL    HW231180   2.534   0.762   3.296
10386SOL     OW31181   3.355   1.767   2.821
10386SOL    HW131182   3.388   1.831   2.752
10386SOL    HW231183   3.421   1.761   2.896
10387SOL     OW31184   2.578   0.565   3.570
10387SOL    HW131185   2.597   0.630   3.644
10387SOL    HW231186   2.638   0.485   3.579
10388SOL     OW31187   3.312   1.220   3.495
10388SOL    HW131188   3.303   1.210   3.594
10388SOL    HW231189   3.408   1.213   3.469
10389SOL     OW31190   2.252   1.741   3.422
10389SOL    HW131191   2.161   1.782   3.420
10389SOL    HW231192   2.245   1.647   3.454
10390SOL     OW31193   3.536   0.883   3.116
10390SOL    HW131194   3.509   0.794   3.079
10390SOL    HW231195   3.537   0.951   3.043
10391SOL     OW31196   3.087   0.325   2.311
10391SOL    HW131197   3.152   0.251   2.300
10391SOL    HW231198   3.107   0.375   2.395
10392SOL     OW31199   2.456   0.745   2.514
10392SOL    HW131200   2.506   0.830   2.495
10392SOL    HW231201   2.368   0.747   2.466
10393SOL     OW31202   3.639   0.342   3.504
10393SOL    HW131203   3.622   0.373   3.410
10393SOL    HW231204   3.555   0.305   3.542
10394SOL     OW31205   3.592   0.934   3.379
10394SOL    HW131206   3.630   1.025   3.394
10394SOL    HW231207   3.584   0.917   3.280
10395SOL     OW31208   2.721   1.374   1.878
10395SOL    HW131209   2.675   1.389   1.966
10395SOL    HW231210   2.765   1.459   1.848
10396SOL     OW31211   2.523   1.790   2.815
10396SOL    HW131212   2.477   1.878   2.802
10396SOL    HW231213   2.622   1.802   2.808
10397SOL     OW31214   2.721   0.956   2.723
10397SOL    HW131215   2.775   0.887   2.771
10397SOL    HW231216   2.689   1.025   2.789
10398SOL     OW31217   2.945   0.984   1.949
10398SOL    HW131218   2.922   1.037   1.867
10398SOL    HW231219   3.026   0.928   1.930
10399SOL     OW31220   3.723   1.569   2.713
10399SOL    HW131221   3.652   1.557   2.643
10399SOL    HW231222   3.724   1.490   2.773
10400SOL     OW31223   2.083   1.314   3.706
10400SOL    HW131224   2.018   1.241   3.685
10400SOL    HW231225   2.087   1.328   3.804
10401SOL     OW31226   1.941   1.240   2.515
10401SOL    HW131227   1.940   1.193   2.603
10401SOL    HW231228   2.023   1.212   2.464
10402SOL     OW31229   2.534   1.391   3.486
10402SOL    HW131230   2.456   1.341   3.524
10402SOL    HW231231   2.531   1.486   3.517
10403SOL     OW31232   3.686   0.192   3.089
10403SOL    HW131233   3.682   0.102   3.133
10403SOL    HW231234   3.689   0.181   2.990
10404SOL     OW31235   2.290   0.424   2.382
10404SOL    HW131236   2.320   0.352   2.320
10404SOL    HW231237   2.251   0.384   2.465
10405SOL     OW31238   3.567   1.487   2.966
10405SOL    HW131239   3.474   1.462   2.939
10405SOL    HW231240   3.593   1.437   3.048
10406SOL     OW31241   2.179   0.547   3.142
10406SOL    HW131242   2.217   0.488   3.214
10406SOL    HW231243   2.219   0.521   3.054
10407SOL     OW31244   2.674   1.586   2.549
10407SOL    HW131245   2.706   1.596   2.455
10407SOL    HW231246   2.595   1.524   2.551
10408SOL     OW31247   3.286   0.214   2.974
10408SOL    HW131248   3.338   0.149   3.029
10408SOL    HW231249   3.237   0.277   3.035
10409SOL     OW31250   2.863   0.034   3.016
10409SOL    HW131251   2.800  -0.038   2.985
10409SOL    HW231252   2.956  -0.002   3.016
10410SOL     OW31253   2.632   1.330   2.163
10410SOL    HW131254   2.586   1.243   2.180
10410SOL    HW231255   2.723   1.327   2.204
10411SOL     OW31256   2.480   1.567   3.146
10411SOL    HW131257   2.475   1.649   3.203
10411SOL    HW231258   2.569   1.564   3.101
10412SOL     OW31259   3.214   0.052   2.030
10412SOL    HW131260   3.249   0.011   1.946
10412SOL    HW231261   3.124   0.014   2.050
10413SOL     OW31262   3.162   0.453   2.553
10413SOL    HW131263   3.103   0.533   2.557
10413SOL    HW231264   3.177   0.418   2.646
10414SOL     OW31265   3.455   0.221   2.744
10414SOL    HW131266   3.371   0.220   2.798
10414SOL    HW231267   3.457   0.304   2.688
10415SOL     OW31268   1.901   1.077   2.162
10415SOL    HW131269   2.000   1.066   2.153
10415SOL    HW231270   1.861   0.991   2.194
10416SOL     OW31271   2.737   1.646   2.199
10416SOL    HW131272   2.660   1.611   2.145
10416SOL    HW231273   2.705   1.717   2.261
10417SOL     OW31274   2.092   0.628   3.837
10417SOL    HW131275   1.999   0.626   3.874
10417SOL    HW231276   2.093   0.589   3.745
10418SOL     OW31277   2.087   0.275   4.720
10418SOL    HW131278   2.122   0.258   4.812
10418SOL    HW231279   1.999   0.230   4.708
10419SOL     OW31280   1.881   0.368   4.371
10419SOL    HW131281   1.799   0.411   4.410
10419SOL    HW231282   1.853   0.295   4.308
10420SOL     OW31283   2.431   1.275   4.889
10420SOL    HW131284   2.338   1.268   4.852
10420SOL    HW231285   2.442   1.364   4.933
10421SOL     OW31286   3.417   1.511   4.427
10421SOL    HW131287   3.360   1.495   4.508
10421SOL    HW231288   3.358   1.521   4.347
10422SOL     OW31289   2.997   0.703   4.441
10422SOL    HW131290   3.054   0.781   4.416
10422SOL    HW231291   2.937   0.729   4.517
10423SOL     OW31292   3.617   0.607   3.955
10423SOL    HW131293   3.605   0.594   3.856
10423SOL    HW231294   3.587   0.526   4.004
10424SOL     OW31295   2.630   1.144   4.747
10424SOL    HW131296   2.552   1.161   4.807
10424SOL    HW231297   2.664   1.231   4.711
10425SOL     OW31298   2.712   0.798   5.547
10425SOL    HW131299   2.708   0.874   5.612
10425SOL    HW231300   2.734   0.834   5.456
10426SOL     OW31301   2.547   1.012   4.389
10426SOL    HW131302   2.616   0.996   4.459
10426SOL    HW231303   2.474   1.069   4.427
10427SOL     OW31304   2.197   1.435   4.785
10427SOL    HW131305   2.119   1.404   4.732
10427SOL    HW231306   2.255   1.493   4.728
10428SOL     OW31307   3.322   1.505   5.063
10428SOL    HW131308   3.346   1.599   5.089
10428SOL    HW231309   3.306   1.451   5.145
10429SOL     OW31310   2.300   0.392   5.223
10429SOL    HW131311   2.382   0.336   5.232
10429SOL    HW231312   2.219   0.334   5.227
10430SOL     OW31313   3.465   0.447   4.461
10430SOL    HW131314   3.391   0.493   4.411
10430SOL    HW231315   3.516   0.515   4.514
10431SOL     OW31316   2.093   1.713   4.207
10431SOL    HW131317   2.127   1.790   4.261
10431SOL    HW231318   2.137   1.713   4.117
10432SOL     OW31319   2.989   1.341   5.414
10432SOL    HW131320   3.036   1.341   5.502
10432SOL    HW231321   2.941   1.254   5.403
10433SOL     OW31322   2.092   1.434   4.262
10433SOL    HW131323   2.066   1.530   4.262
10433SOL    HW231324   2.021   1.380   4.307
10434SOL     OW31325   2.102   1.091   4.610
10434SOL    HW131326   2.116   1.007   4.662
10434SOL    HW231327   2.047   1.155   4.665
10435SOL     OW31328   2.482   1.786   5.163
10435SOL    HW131329   2.390   1.769   5.198
10435SOL    HW231330   2.510   1.878   5.189
10436SOL     OW31331   2.468   0.964   3.847
10436SOL    HW131332   2.475   1.048   3.793
10436SOL    HW231333   2.514   0.977   3.935
10437SOL     OW31334   3.456   0.114   5.204
10437SOL    HW131335   3.438   0.181   5.132
10437SOL    HW231336   3.453   0.160   5.293
10438SOL     OW31337   1.984   0.643   4.287
10438SOL    HW131338   1.939   0.555   4.304
10438SOL    HW231339   1.983   0.697   4.371
10439SOL     OW31340   3.704   1.767   4.083
10439SOL    HW131341   3.758   1.738   4.163
10439SOL    HW231342   3.734   1.857   4.054
10440SOL     OW31343   1.889   1.596   3.841
10440SOL    HW131344   1.870   1.500   3.862
10440SOL    HW231345   1.856   1.654   3.916
10441SOL     OW31346   3.551   0.922   4.336
10441SOL    HW131347   3.646   0.893   4.344
10441SOL    HW231348   3.543   0.987   4.261
10442SOL     OW31349   3.503   1.108   4.156
10442SOL    HW131350   3.589   1.110   4.104
10442SOL    HW231351   3.517   1.155   4.244
10443SOL     OW31352   1.975   0.737   5.321
10443SOL    HW131353   2.063   0.724   5.366
10443SOL    HW231354   1.962   0.834   5.299
10444SOL     OW31355   2.475   1.365   4.450
10444SOL    HW131356   2.426   1.278   4.459
10444SOL    HW231357   2.452   1.408   4.363
10445SOL     OW31358   3.155   1.228   5.147
10445SOL    HW131359   3.192   1.155   5.089
10445SOL    HW231360   3.207   1.233   5.232
10446SOL     OW31361   2.671   0.004   4.226
10446SOL    HW131362   2.711   0.095   4.217
10446SOL    HW231363   2.571   0.012   4.232
10447SOL     OW31364   2.059   0.976   4.988
10447SOL    HW131365   2.148   0.931   4.974
10447SOL    HW231366   1.986   0.911   4.969
10448SOL     OW31367   3.387   0.999   3.914
10448SOL    HW131368   3.324   0.923   3.927
10448SOL    HW231369   3.435   1.017   4.000
10449SOL     OW31370   3.049   1.792   5.340
10449SOL    HW131371   3.073   1.852   5.264
10449SOL    HW231372   3.056   1.697   5.310
10450SOL     OW31373   2.179   0.251   5.525
10450SOL    HW131374   2.250   0.322   5.531
10450SOL    HW231375   2.091   0.290   5.553
10451SOL     OW31376   3.328   1.417   4.677
10451SOL    HW131377   3.269   1.423   4.757
10451SOL    HW231378   3.313   1.329   4.631
10452SOL     OW31379   3.529   1.714   4.296
10452SOL    HW131380   3.488   1.691   4.208
10452SOL    HW231381   3.511   1.640   4.361
10453SOL     OW31382   2.460   0.729   3.994
10453SOL    HW131383   2.484   0.798   3.926
10453SOL    HW231384   2.382   0.762   4.048
10454SOL     OW31385   3.143   0.345   4.668
10454SOL    HW131386   3.057   0.295   4.655
10454SOL    HW231387   3.205   0.291   4.724
10455SOL     OW31388   3.438   1.662   4.031
10455SOL    HW131389   3.527   1.708   4.034
10455SOL    HW231390   3.417   1.638   3.936
10456SOL     OW31391   2.669   0.605   5.189
10456SOL    HW131392   2.622   0.602   5.278
10456SOL    HW231393   2.618   0.550   5.123
10457SOL     OW31394   3.256   0.469   5.398
10457SOL    HW131395   3.236   0.512   5.486
10457SOL    HW231396   3.334   0.407   5.407
10458SOL     OW31397   2.835   0.890   5.296
10458SOL    HW131398   2.881   0.806   5.267
10458SOL    HW231399   2.779   0.924   5.221
10459SOL     OW31400   2.853   0.410   4.966
10459SOL    HW131401   2.776   0.444   5.020
10459SOL    HW231402   2.819   0.359   4.887
10460SOL     OW31403   2.903   0.701   4.153
10460SOL    HW131404   2.929   0.697   4.249
10460SOL    HW231405   2.818   0.650   4.139
10461SOL     OW31406   1.938   0.811   4.513
10461SOL    HW131407   2.037   0.799   4.522
10461SOL    HW231408   1.914   0.906   4.534
10462SOL     OW31409   1.992   1.821   5.295
10462SOL    HW131410   1.982   1.806   5.394
10462SOL    HW231411   1.906   1.857   5.259
10463SOL     OW31412   2.727   0.348   3.919
10463SOL    HW131413   2.786   0.411   3.870
10463SOL    HW231414   2.746   0.254   3.890
10464SOL     OW31415   3.581   0.585   5.555
10464SOL    HW131416   3.555   0.674   5.519
10464SOL    HW231417   3.579   0.517   5.482
10465SOL     OW31418   3.224   1.144   4.269
10465SOL    HW131419   3.307   1.115   4.221
10465SOL    HW231420   3.175   1.211   4.213
10466SOL     OW31421   2.412   0.196   4.609
10466SOL    HW131422   2.407   0.191   4.709
10466SOL    HW231423   2.414   0.292   4.580
10467SOL     OW31424   2.870   1.456   4.201
10467SOL    HW131425   2.824   1.528   4.149
10467SOL    HW231426   2.866   1.476   4.299
10468SOL     OW31427   3.657   1.066   4.597
10468SOL    HW131428   3.595   1.051   4.521
10468SOL    HW231429   3.605   1.077   4.682
10469SOL     OW31430   3.089   1.550   5.230
10469SOL    HW131431   3.095   1.473   5.294
10469SOL    HW231432   3.037   1.524   5.150
10470SOL     OW31433   2.183   0.943   3.966
10470SOL    HW131434   2.265   0.982   3.924
10470SOL    HW231435   2.156   0.861   3.917
10471SOL     OW31436   3.320   0.735   4.452
10471SOL    HW131437   3.315   0.670   4.527
10471SOL    HW231438   3.400   0.794   4.465
10472SOL     OW31439   2.323   1.266   5.451
10472SOL    HW131440   2.273   1.267   5.365
10472SOL    HW231441   2.260   1.248   5.527
10473SOL     OW31442   2.973   1.776   3.961
10473SOL    HW131443   2.913   1.714   4.011
10473SOL    HW231444   3.004   1.732   3.876
10474SOL     OW31445   2.064   0.285   5.222
10474SOL    HW131446   1.984   0.345   5.209
10474SOL    HW231447   2.054   0.236   5.308
10475SOL     OW31448   3.494   1.377   3.805
10475SOL    HW131449   3.462   1.471   3.795
10475SOL    HW231450   3.418   1.314   3.793
10476SOL     OW31451   2.326   1.743   4.047
10476SOL    HW131452   2.359   1.782   4.133
10476SOL    HW231453   2.402   1.736   3.982
10477SOL     OW31454   3.262   0.107   4.150
10477SOL    HW131455   3.238   0.070   4.060
10477SOL    HW231456   3.361   0.123   4.154
10478SOL     OW31457   2.111   1.785   4.965
10478SOL    HW131458   2.168   1.720   5.015
10478SOL    HW231459   2.095   1.752   4.872
10479SOL     OW31460   2.802   1.698   4.628
10479SOL    HW131461   2.882   1.641   4.649
10479SOL    HW231462   2.753   1.658   4.551
10480SOL     OW31463   2.244   0.700   4.204
10480SOL    HW131464   2.289   0.610   4.201
10480SOL    HW231465   2.150   0.689   4.237
10481SOL     OW31466   3.409   0.222   5.453
10481SOL    HW131467   3.404   0.259   5.545
10481SOL    HW231468   3.337   0.153   5.441
10482SOL     OW31469   2.476   0.122   3.841
10482SOL    HW131470   2.574   0.100   3.848
10482SOL    HW231471   2.445   0.105   3.748
10483SOL     OW31472   2.643   0.264   5.473
10483SOL    HW131473   2.710   0.203   5.516
10483SOL    HW231474   2.570   0.283   5.538
10484SOL     OW31475   2.750   1.514   4.919
10484SOL    HW131476   2.727   1.489   4.825
10484SOL    HW231477   2.811   1.445   4.958
10485SOL     OW31478   3.213   0.590   5.157
10485SOL    HW131479   3.241   0.547   5.242
10485SOL    HW231480   3.238   0.686   5.158
10486SOL     OW31481   2.665   1.402   4.648
10486SOL    HW131482   2.755   1.416   4.606
10486SOL    HW231483   2.594   1.404   4.577
10487SOL     OW31484   2.784   0.503   4.623
10487SOL    HW131485   2.759   0.494   4.527
10487SOL    HW231486   2.832   0.421   4.654
10488SOL     OW31487   2.401   0.064   4.236
10488SOL    HW131488   2.320   0.065   4.294
10488SOL    HW231489   2.404   0.147   4.181
10489SOL     OW31490   3.296   1.188   3.765
10489SOL    HW131491   3.328   1.112   3.822
10489SOL    HW231492   3.204   1.215   3.795
10490SOL     OW31493   2.159   0.035   3.895
10490SOL    HW131494   2.208   0.119   3.874
10490SOL    HW231495   2.221  -0.030   3.940
10491SOL     OW31496   2.797   0.236   4.204
10491SOL    HW131497   2.749   0.277   4.126
10491SOL    HW231498   2.896   0.234   4.185
10492SOL     OW31499   2.938   0.683   5.188
10492SOL    HW131500   2.858   0.622   5.191
10492SOL    HW231501   3.019   0.630   5.164
10493SOL     OW31502   3.089   1.570   4.517
10493SOL    HW131503   3.110   1.644   4.452
10493SOL    HW231504   3.157   1.570   4.590
10494SOL     OW31505   2.321   1.152   4.465
10494SOL    HW131506   2.250   1.125   4.530
10494SOL    HW231507   2.295   1.124   4.372
10495SOL     OW31508   3.133   1.797   4.315
10495SOL    HW131509   3.177   1.861   4.251
10495SOL    HW231510   3.083   1.849   4.385
10496SOL     OW31511   2.894   0.549   3.740
10496SOL    HW131512   2.853   0.631   3.701
10496SOL    HW231513   2.958   0.575   3.813
10497SOL     OW31514   1.940   0.556   5.110
10497SOL    HW131515   2.032   0.555   5.069
10497SOL    HW231516   1.934   0.630   5.177
10498SOL     OW31517   2.423   0.222   4.871
10498SOL    HW131518   2.461   0.138   4.908
10498SOL    HW231519   2.335   0.241   4.915
10499SOL     OW31520   2.728   0.454   4.366
10499SOL    HW131521   2.696   0.526   4.304
10499SOL    HW231522   2.752   0.373   4.313
10500SOL     OW31523   2.879   0.039   4.477
10500SOL    HW131524   2.807   0.044   4.408
10500SOL    HW231525   2.855  -0.030   4.546
10501SOL     OW31526   3.291   1.173   4.591
10501SOL    HW131527   3.236   1.089   4.584
10501SOL    HW231528   3.317   1.202   4.499
10502SOL     OW31529   3.328   0.590   4.716
10502SOL    HW131530   3.298   0.495   4.723
10502SOL    HW231531   3.401   0.606   4.782
10503SOL     OW31532   3.719   0.833   4.101
10503SOL    HW131533   3.761   0.769   4.165
10503SOL    HW231534   3.681   0.782   4.023
10504SOL     OW31535   2.350   1.385   3.898
10504SOL    HW131536   2.263   1.370   3.945
10504SOL    HW231537   2.333   1.411   3.803
10505SOL     OW31538   3.526   1.280   4.381
10505SOL    HW131539   3.625   1.288   4.395
10505SOL    HW231540   3.481   1.364   4.412
10506SOL     OW31541   3.252   0.575   3.802
10506SOL    HW131542   3.198   0.554   3.883
10506SOL    HW231543   3.343   0.534   3.811
10507SOL     OW31544   2.389   0.256   4.052
10507SOL    HW131545   2.416   0.197   3.977
10507SOL    HW231546   2.389   0.351   4.021
10508SOL     OW31547   3.616   1.223   5.312
10508SOL    HW131548   3.707   1.184   5.299
10508SOL    HW231549   3.624   1.319   5.336
10509SOL     OW31550   2.926   1.347   5.064
10509SOL    HW131551   2.846   1.324   5.119
10509SOL    HW231552   3.009   1.321   5.113
10510SOL     OW31553   3.454   1.629   5.349
10510SOL    HW131554   3.481   1.663   5.259
10510SOL    HW231555   3.533   1.591   5.395
10511SOL     OW31556   2.973   1.195   4.824
10511SOL    HW131557   2.933   1.239   4.905
10511SOL    HW231558   2.932   1.232   4.741
10512SOL     OW31559   3.500   1.099   4.803
10512SOL    HW131560   3.505   1.180   4.862
10512SOL    HW231561   3.414   1.101   4.752
10513SOL     OW31562   2.777   0.089   5.126
10513SOL    HW131563   2.802   0.069   5.031
10513SOL    HW231564   2.849   0.145   5.168
10514SOL     OW31565   2.842   1.116   5.443
10514SOL    HW131566   2.743   1.122   5.453
10514SOL    HW231567   2.865   1.036   5.387
10515SOL     OW31568   2.567   1.050   4.092
10515SOL    HW131569   2.553   1.057   4.191
10515SOL    HW231570   2.651   0.999   4.074
10516SOL     OW31571   2.272   0.813   4.975
10516SOL    HW131572   2.358   0.825   5.025
10516SOL    HW231573   2.230   0.726   5.002
10517SOL     OW31574   3.136   0.386   4.986
10517SOL    HW131575   3.157   0.460   5.050
10517SOL    HW231576   3.047   0.403   4.943
10518SOL     OW31577   1.926   1.564   5.055
10518SOL    HW131578   1.880   1.646   5.021
10518SOL    HW231579   2.024   1.583   5.064
10519SOL     OW31580   2.229   1.100   4.225
10519SOL    HW131581   2.222   1.183   4.169
10519SOL    HW231582   2.233   1.020   4.165
10520SOL     OW31583   2.428   0.537   4.589
10520SOL    HW131584   2.440   0.603   4.515
10520SOL    HW231585   2.474   0.571   4.672
10521SOL     OW31586   3.114   1.348   4.112
10521SOL    HW131587   3.164   1.425   4.152
10521SOL    HW231588   3.019   1.350   4.144
10522SOL     OW31589   3.134   1.445   4.866
10522SOL    HW131590   3.181   1.458   4.953
10522SOL    HW231591   3.068   1.371   4.875
10523SOL     OW31592   3.444   0.639   4.196
10523SOL    HW131593   3.413   0.700   4.269
10523SOL    HW231594   3.494   0.691   4.127
10524SOL     OW31595   2.216   1.510   5.053
10524SOL    HW131596   2.195   1.466   4.966
10524SOL    HW231597   2.313   1.536   5.056
10525SOL     OW31598   2.264   0.751   5.322
10525SOL    HW131599   2.332   0.806   5.275
10525SOL    HW231600   2.304   0.663   5.349
10526SOL     OW31601   3.449   0.779   5.394
10526SOL    HW131602   3.357   0.817   5.389
10526SOL    HW231603   3.509   0.826   5.329
10527SOL     OW31604   2.875   0.105   5.494
10527SOL    HW131605   2.881   0.190   5.442
10527SOL    HW231606   2.907   0.029   5.437
10528SOL     OW31607   2.366   0.050   5.464
10528SOL    HW131608   2.324  -0.007   5.394
10528SOL    HW231609   2.300   0.119   5.496
10529SOL     OW31610   2.435   0.870   4.753
10529SOL    HW131611   2.479   0.959   4.744
10529SOL    HW231612   2.372   0.870   4.830
10530SOL     OW31613   3.222   0.862   4.769
10530SOL    HW131614   3.147   0.862   4.703
10530SOL    HW231615   3.259   0.770   4.778
10531SOL     OW31616   3.071   0.525   3.999
10531SOL    HW131617   3.084   0.441   4.053
10531SOL    HW231618   3.042   0.599   4.059
10532SOL     OW31619   2.169   0.213   4.955
10532SOL    HW131620   2.146   0.250   5.045
10532SOL    HW231621   2.139   0.118   4.949
10533SOL     OW31622   1.899   1.310   5.006
10533SOL    HW131623   1.952   1.261   5.074
10533SOL    HW231624   1.921   1.408   5.011
10534SOL     OW31625   2.594   0.634   4.788
10534SOL    HW131626   2.653   0.608   4.712
10534SOL    HW231627   2.566   0.730   4.777
10535SOL     OW31628   3.590   0.935   5.578
10535SOL    HW131629   3.544   0.928   5.489
10535SOL    HW231630   3.528   0.979   5.644
10536SOL     OW31631   2.169   0.063   4.342
10536SOL    HW131632   2.158   0.157   4.375
10536SOL    HW231633   2.164   0.000   4.419
10537SOL     OW31634   3.484   0.367   4.098
10537SOL    HW131635   3.486   0.291   4.162
10537SOL    HW231636   3.436   0.444   4.138
10538SOL     OW31637   2.885   0.766   4.690
10538SOL    HW131638   2.900   0.787   4.786
10538SOL    HW231639   2.855   0.671   4.681
10539SOL     OW31640   2.842   1.573   5.424
10539SOL    HW131641   2.822   1.617   5.336
10539SOL    HW231642   2.881   1.482   5.408
10540SOL     OW31643   3.721   1.518   5.329
10540SOL    HW131644   3.735   1.545   5.234
10540SOL    HW231645   3.804   1.540   5.382
10541SOL     OW31646   2.212   0.898   5.528
10541SOL    HW131647   2.288   0.942   5.576
10541SOL    HW231648   2.247   0.851   5.446
10542SOL     OW31649   3.402   0.274   3.849
10542SOL    HW131650   3.341   0.199   3.872
10542SOL    HW231651   3.424   0.326   3.932
10543SOL     OW31652   3.165   0.838   3.766
10543SOL    HW131653   3.199   0.745   3.781
10543SOL    HW231654   3.183   0.865   3.671
10544SOL     OW31655   2.930   1.333   4.573
10544SOL    HW131656   2.937   1.249   4.518
10544SOL    HW231657   2.992   1.402   4.537
10545SOL     OW31658   2.181   0.810   4.673
10545SOL    HW131659   2.274   0.846   4.678
10545SOL    HW231660   2.175   0.725   4.725
10546SOL     OW31661   2.201   0.509   4.730
10546SOL    HW131662   2.149   0.426   4.713
10546SOL    HW231663   2.278   0.514   4.666
10547SOL     OW31664   3.000   0.380   5.402
10547SOL    HW131665   2.955   0.443   5.466
10547SOL    HW231666   3.093   0.411   5.385
10548SOL     OW31667   3.022   0.207   5.201
10548SOL    HW131668   3.022   0.271   5.278
10548SOL    HW231669   3.050   0.255   5.118
10549SOL     OW31670   1.870   1.326   3.924
10549SOL    HW131671   1.777   1.347   3.893
10549SOL    HW231672   1.880   1.227   3.937
10550SOL     OW31673   1.950   1.801   4.651
10550SOL    HW131674   1.908   1.715   4.624
10550SOL    HW231675   2.044   1.804   4.617
10551SOL     OW31676   2.366   1.568   4.634
10551SOL    HW131677   2.432   1.642   4.643
10551SOL    HW231678   2.410   1.489   4.592
10552SOL     OW31679   2.864   0.796   4.962
10552SOL    HW131680   2.905   0.764   5.048
10552SOL    HW231681   2.768   0.769   4.959
10553SOL     OW31682   1.902   0.544   4.838
10553SOL    HW131683   1.987   0.511   4.797
10553SOL    HW231684   1.915   0.559   4.936
10554SOL     OW31685   2.051   0.520   5.446
10554SOL    HW131686   2.110   0.480   5.376
10554SOL    HW231687   1.993   0.591   5.405
10555SOL     OW31688   3.231   0.950   5.384
10555SOL    HW131689   3.270   1.039   5.404
10555SOL    HW231690   3.241   0.930   5.287
10556SOL     OW31691   2.677   0.572   4.049
10556SOL    HW131692   2.684   0.483   4.003
10556SOL    HW231693   2.583   0.606   4.041
10557SOL     OW31694   3.519   0.604   4.930
10557SOL    HW131695   3.481   0.535   4.992
10557SOL    HW231696   3.601   0.568   4.886
10558SOL     OW31697   2.114   1.564   5.468
10558SOL    HW131698   2.084   1.621   5.544
10558SOL    HW231699   2.107   1.467   5.494
10559SOL     OW31700   2.533   0.464   4.993
10559SOL    HW131701   2.499   0.375   4.963
10559SOL    HW231702   2.559   0.518   4.913
10560SOL     OW31703   2.792   1.678   5.189
10560SOL    HW131704   2.768   1.660   5.094
10560SOL    HW231705   2.822   1.772   5.199
10561SOL     OW31706   2.335   0.500   3.915
10561SOL    HW131707   2.396   0.580   3.919
10561SOL    HW231708   2.240   0.531   3.922
10562SOL     OW31709   2.021   1.137   5.190
10562SOL    HW131710   2.043   1.076   5.266
10562SOL    HW231711   2.031   1.088   5.104
10563SOL     OW31712   3.209   1.059   4.958
10563SOL    HW131713   3.233   0.996   4.884
10563SOL    HW231714   3.119   1.099   4.940
10564SOL     OW31715   3.164   0.855   4.033
10564SOL    HW131716   3.078   0.824   4.075
10564SOL    HW231717   3.160   0.841   3.934
10565SOL     OW31718   3.621   1.747   4.878
10565SOL    HW131719   3.682   1.777   4.805
10565SOL    HW231720   3.583   1.658   4.856
10566SOL     OW31721   3.114   1.731   4.852
10566SOL    HW131722   3.198   1.736   4.798
10566SOL    HW231723   3.091   1.635   4.870
10567SOL     OW31724   1.945   1.258   4.746
10567SOL    HW131725   1.940   1.257   4.846
10567SOL    HW231726   1.862   1.217   4.708
10568SOL     OW31727   2.550   1.662   5.440
10568SOL    HW131728   2.494   1.743   5.449
10568SOL    HW231729   2.602   1.666   5.354
10569SOL     OW31730   3.588   0.135   4.247
10569SOL    HW131731   3.661   0.118   4.180
10569SOL    HW231732   3.557   0.048   4.285
10570SOL     OW31733   3.250   1.573   4.201
10570SOL    HW131734   3.317   1.585   4.127
10570SOL    HW231735   3.210   1.662   4.224
10571SOL     OW31736   1.992   1.794   5.575
10571SOL    HW131737   1.951   1.720   5.628
10571SOL    HW231738   2.056   1.845   5.633
10572SOL     OW31739   3.142   0.927   4.396
10572SOL    HW131740   3.202   0.846   4.398
10572SOL    HW231741   3.182   0.996   4.336
10573SOL     OW31742   2.692   1.273   5.146
10573SOL    HW131743   2.687   1.306   5.241
10573SOL    HW231744   2.606   1.292   5.100
10574SOL     OW31745   2.534   1.616   3.878
10574SOL    HW131746   2.543   1.626   3.779
10574SOL    HW231747   2.494   1.527   3.899
10575SOL     OW31748   3.512   1.720   5.118
10575SOL    HW131749   3.565   1.730   5.034
10575SOL    HW231750   3.485   1.810   5.152
10576SOL     OW31751   3.703   0.175   4.687
10576SOL    HW131752   3.742   0.090   4.651
10576SOL    HW231753   3.605   0.177   4.668
10577SOL     OW31754   2.125   0.326   4.444
10577SOL    HW131755   2.046   0.377   4.410
10577SOL    HW231756   2.116   0.311   4.542
10578SOL     OW31757   3.056   1.612   3.755
10578SOL    HW131758   3.062   1.519   3.792
10578SOL    HW231759   2.997   1.612   3.675
10579SOL     OW31760   2.684   1.002   5.096
10579SOL    HW131761   2.724   1.001   5.004
10579SOL    HW231762   2.694   1.094   5.136
10580SOL     OW31763   2.778   0.910   4.015
10580SOL    HW131764   2.841   0.948   3.947
10580SOL    HW231765   2.818   0.827   4.054
10581SOL     OW31766   3.366   1.607   3.768
10581SOL    HW131767   3.274   1.644   3.775
10581SOL    HW231768   3.404   1.627   3.678
10582SOL     OW31769   2.234   1.288   5.214
10582SOL    HW131770   2.221   1.381   5.180
10582SOL    HW231771   2.150   1.236   5.201
10583SOL     OW31772   3.476   1.292   5.013
10583SOL    HW131773   3.536   1.295   5.093
10583SOL    HW231774   3.401   1.356   5.026
10584SOL     OW31775   2.901   1.098   4.420
10584SOL    HW131776   2.831   1.051   4.474
10584SOL    HW231777   2.960   1.030   4.377
10585SOL     OW31778   2.876   0.236   4.695
10585SOL    HW131779   2.868   0.200   4.602
10585SOL    HW231780   2.874   0.160   4.760
10586SOL     OW31781   2.452   1.487   4.215
10586SOL    HW131782   2.494   1.429   4.145
10586SOL    HW231783   2.408   1.566   4.171
10587SOL     OW31784   3.571   0.385   5.105
10587SOL    HW131785   3.644   0.454   5.109
10587SOL    HW231786   3.599   0.310   5.046
10588SOL     OW31787   2.117   1.348   4.014
10588SOL    HW131788   2.021   1.349   3.987
10588SOL    HW231789   2.129   1.401   4.098
10589SOL     OW31790   1.967   1.013   5.450
10589SOL    HW131791   1.890   0.980   5.504
10589SOL    HW231792   2.052   0.983   5.492
10590SOL     OW31793   2.534   0.203   5.213
10590SOL    HW131794   2.624   0.187   5.173
10590SOL    HW231795   2.542   0.208   5.312
10591SOL     OW31796   1.937   0.345   3.757
10591SOL    HW131797   1.845   0.317   3.728
10591SOL    HW231798   1.968   0.422   3.701
10592SOL     OW31799   3.302   0.856   5.122
10592SOL    HW131800   3.245   0.908   5.059
10592SOL    HW231801   3.398   0.868   5.098
10593SOL     OW31802   1.934   0.166   4.042
10593SOL    HW131803   1.917   0.249   3.988
10593SOL    HW231804   2.024   0.129   4.020
10594SOL     OW31805   3.045   1.335   3.843
10594SOL    HW131806   2.946   1.324   3.845
10594SOL    HW231807   3.079   1.350   3.936
10595SOL     OW31808   2.475   0.842   5.155
10595SOL    HW131809   2.531   0.923   5.138
10595SOL    HW231810   2.534   0.762   5.158
10596SOL     OW31811   3.355   1.767   4.683
10596SOL    HW131812   3.388   1.831   4.614
10596SOL    HW231813   3.421   1.761   4.758
10597SOL     OW31814   2.578   0.565   5.432
10597SOL    HW131815   2.597   0.630   5.506
10597SOL    HW231816   2.638   0.485   5.441
10598SOL     OW31817   3.312   1.220   5.357
10598SOL    HW131818   3.303   1.210   5.456
10598SOL    HW231819   3.408   1.213   5.331
10599SOL     OW31820   2.252   1.741   5.284
10599SOL    HW131821   2.161   1.782   5.282
10599SOL    HW231822   2.245   1.647   5.316
10600SOL     OW31823   3.536   0.883   4.978
10600SOL    HW131824   3.509   0.794   4.941
10600SOL    HW231825   3.537   0.951   4.905
10601SOL     OW31826   3.087   0.325   4.173
10601SOL    HW131827   3.152   0.251   4.162
10601SOL    HW231828   3.107   0.375   4.257
10602SOL     OW31829   2.456   0.745   4.376
10602SOL    HW131830   2.506   0.830   4.357
10602SOL    HW231831   2.368   0.747   4.328
10603SOL     OW31832   3.639   0.342   5.366
10603SOL    HW131833   3.622   0.373   5.272
10603SOL    HW231834   3.555   0.305   5.404
10604SOL     OW31835   3.592   0.934   5.241
10604SOL    HW131836   3.630   1.025   5.256
10604SOL    HW231837   3.584   0.917   5.142
10605SOL     OW31838   2.721   1.374   3.740
10605SOL    HW131839   2.675   1.389   3.828
10605SOL    HW231840   2.765   1.459   3.710
10606SOL     OW31841   2.523   1.790   4.677
10606SOL    HW131842   2.477   1.878   4.664
10606SOL    HW231843   2.622   1.802   4.670
10607SOL     OW31844   2.721   0.956   4.585
10607SOL    HW131845   2.775   0.887   4.633
10607SOL    HW231846   2.689   1.025   4.651
10608SOL     OW31847   2.945   0.984   3.811
10608SOL    HW131848   2.922   1.037   3.729
10608SOL    HW231849   3.026   0.928   3.792
10609SOL     OW31850   3.723   1.569   4.575
10609SOL    HW131851   3.652   1.557   4.505
10609SOL    HW231852   3.724   1.490   4.635
10610SOL     OW31853   2.083   1.314   5.568
10610SOL    HW131854   2.018   1.241   5.547
10610SOL    HW231855   2.087   1.328   5.666
10611SOL     OW31856   1.941   1.240   4.377
10611SOL    HW131857   1.940   1.193   4.465
10611SOL    HW231858   2.023   1.212   4.326
10612SOL     OW31859   2.534   1.391   5.348
10612SOL    HW131860   2.456   1.341   5.386
10612SOL    HW231861   2.531   1.486   5.379
10613SOL     OW31862   3.686   0.192   4.951
10613SOL    HW131863   3.682   0.102   4.995
10613SOL    HW231864   3.689   0.181   4.852
10614SOL     OW31865   2.290   0.424   4.244
10614SOL    HW131866   2.320   0.352   4.182
10614SOL    HW231867   2.251   0.384   4.327
10615SOL     OW31868   3.567   1.487   4.828
10615SOL    HW131869   3.474   1.462   4.801
10615SOL    HW231870   3.593   1.437   4.910
10616SOL     OW31871   2.179   0.547   5.004
10616SOL    HW131872   2.217   0.488   5.076
10616SOL    HW231873   2.219   0.521   4.916
10617SOL     OW31874   2.674   1.586   4.411
10617SOL    HW131875   2.706   1.596   4.317
10617SOL    HW231876   2.595   1.524   4.413
10618SOL     OW31877   3.286   0.214   4.836
10618SOL    HW131878   3.338   0.149   4.891
10618SOL    HW231879   3.237   0.277   4.897
10619SOL     OW31880   2.863   0.034   4.878
10619SOL    HW131881   2.800  -0.038   4.847
10619SOL    HW231882   2.956  -0.002   4.878
10620SOL     OW31883   2.632   1.330   4.025
10620SOL    HW131884   2.586   1.243   4.042
10620SOL    HW231885   2.723   1.327   4.066
10621SOL     OW31886   2.480   1.567   5.008
10621SOL    HW131887   2.475   1.649   5.065
10621SOL    HW231888   2.569   1.564   4.963
10622SOL     OW31889   3.214   0.052   3.892
10622SOL    HW131890   3.249   0.011   3.808
10622SOL    HW231891   3.124   0.014   3.912
10623SOL     OW31892   3.162   0.453   4.415
10623SOL    HW131893   3.103   0.533   4.419
10623SOL    HW231894   3.177   0.418   4.508
10624SOL     OW31895   3.455   0.221   4.606
10624SOL    HW131896   3.371   0.220   4.660
10624SOL    HW231897   3.457   0.304   4.550
10625SOL     OW31898   2.737   1.646   4.061
10625SOL    HW131899   2.660   1.611   4.007
10625SOL    HW231900   2.705   1.717   4.123
10626SOL     OW31901   2.092   0.628   5.699
10626SOL    HW131902   1.999   0.626   5.736
10626SOL    HW231903   2.093   0.589   5.607
10627SOL     OW31904   2.087   0.275   6.582
10627SOL    HW131905   2.122   0.258   6.674
10627SOL    HW231906   1.999   0.230   6.570
10628SOL     OW31907   1.881   0.368   6.233
10628SOL    HW131908   1.799   0.411   6.272
10628SOL    HW231909   1.853   0.295   6.170
10629SOL     OW31910   2.431   1.275   6.751
10629SOL    HW131911   2.338   1.268   6.714
10629SOL    HW231912   2.442   1.364   6.795
10630SOL     OW31913   3.417   1.511   6.289
10630SOL    HW131914   3.360   1.495   6.370
10630SOL    HW231915   3.358   1.521   6.209
10631SOL     OW31916   2.997   0.703   6.303
10631SOL    HW131917   3.054   0.781   6.278
10631SOL    HW231918   2.937   0.729   6.379
10632SOL     OW31919   3.617   0.607   5.817
10632SOL    HW131920   3.605   0.594   5.718
10632SOL    HW231921   3.587   0.526   5.866
10633SOL     OW31922   2.630   1.144   6.609
10633SOL    HW131923   2.552   1.161   6.669
10633SOL    HW231924   2.664   1.231   6.573
10634SOL     OW31925   2.712   0.798   7.409
10634SOL    HW131926   2.708   0.874   7.474
10634SOL    HW231927   2.734   0.834   7.318
10635SOL     OW31928   2.547   1.012   6.251
10635SOL    HW131929   2.616   0.996   6.321
10635SOL    HW231930   2.474   1.069   6.289
10636SOL     OW31931   2.548   1.161   7.389
10636SOL    HW131932   2.608   1.240   7.403
10636SOL    HW231933   2.462   1.192   7.348
10637SOL     OW31934   2.197   1.435   6.647
10637SOL    HW131935   2.119   1.404   6.594
10637SOL    HW231936   2.255   1.493   6.590
10638SOL     OW31937   3.322   1.505   6.925
10638SOL    HW131938   3.346   1.599   6.951
10638SOL    HW231939   3.306   1.451   7.007
10639SOL     OW31940   2.300   0.392   7.085
10639SOL    HW131941   2.382   0.336   7.094
10639SOL    HW231942   2.219   0.334   7.089
10640SOL     OW31943   3.465   0.447   6.323
10640SOL    HW131944   3.391   0.493   6.273
10640SOL    HW231945   3.516   0.515   6.376
10641SOL     OW31946   2.093   1.713   6.069
10641SOL    HW131947   2.127   1.790   6.123
10641SOL    HW231948   2.137   1.713   5.979
10642SOL     OW31949   2.989   1.341   7.276
10642SOL    HW131950   3.036   1.341   7.364
10642SOL    HW231951   2.941   1.254   7.265
10643SOL     OW31952   2.092   1.434   6.124
10643SOL    HW131953   2.066   1.530   6.124
10643SOL    HW231954   2.021   1.380   6.169
10644SOL     OW31955   2.102   1.091   6.472
10644SOL    HW131956   2.116   1.007   6.524
10644SOL    HW231957   2.047   1.155   6.527
10645SOL     OW31958   2.482   1.786   7.025
10645SOL    HW131959   2.390   1.769   7.060
10645SOL    HW231960   2.510   1.878   7.051
10646SOL     OW31961   2.468   0.964   5.709
10646SOL    HW131962   2.475   1.048   5.655
10646SOL    HW231963   2.514   0.977   5.797
10647SOL     OW31964   3.456   0.114   7.066
10647SOL    HW131965   3.438   0.181   6.994
10647SOL    HW231966   3.453   0.160   7.155
10648SOL     OW31967   1.984   0.643   6.149
10648SOL    HW131968   1.939   0.555   6.166
10648SOL    HW231969   1.983   0.697   6.233
10649SOL     OW31970   3.704   1.767   5.945
10649SOL    HW131971   3.758   1.738   6.025
10649SOL    HW231972   3.734   1.857   5.916
10650SOL     OW31973   1.889   1.596   5.703
10650SOL    HW131974   1.870   1.500   5.724
10650SOL    HW231975   1.856   1.654   5.778
10651SOL     OW31976   3.551   0.922   6.198
10651SOL    HW131977   3.646   0.893   6.206
10651SOL    HW231978   3.543   0.987   6.123
10652SOL     OW31979   3.503   1.108   6.018
10652SOL    HW131980   3.589   1.110   5.966
10652SOL    HW231981   3.517   1.155   6.106
10653SOL     OW31982   1.975   0.737   7.183
10653SOL    HW131983   2.063   0.724   7.228
10653SOL    HW231984   1.962   0.834   7.161
10654SOL     OW31985   2.475   1.365   6.312
10654SOL    HW131986   2.426   1.278   6.321
10654SOL    HW231987   2.452   1.408   6.225
10655SOL     OW31988   3.155   1.228   7.009
10655SOL    HW131989   3.192   1.155   6.951
10655SOL    HW231990   3.207   1.233   7.094
10656SOL     OW31991   2.671   0.004   6.088
10656SOL    HW131992   2.711   0.095   6.079
10656SOL    HW231993   2.571   0.012   6.094
10657SOL     OW31994   2.059   0.976   6.850
10657SOL    HW131995   2.148   0.931   6.836
10657SOL    HW231996   1.986   0.911   6.831
10658SOL     OW31997   3.387   0.999   5.776
10658SOL    HW131998   3.324   0.923   5.789
10658SOL    HW231999   3.435   1.017   5.862
10659SOL     OW32000   3.049   1.792   7.202
10659SOL    HW132001   3.073   1.852   7.126
10659SOL    HW232002   3.056   1.697   7.172
10660SOL     OW32003   2.179   0.251   7.387
10660SOL    HW132004   2.250   0.322   7.393
10660SOL    HW232005   2.091   0.290   7.415
10661SOL     OW32006   3.328   1.417   6.539
10661SOL    HW132007   3.269   1.423   6.619
10661SOL    HW232008   3.313   1.329   6.493
10662SOL     OW32009   3.529   1.714   6.158
10662SOL    HW132010   3.488   1.691   6.070
10662SOL    HW232011   3.511   1.640   6.223
10663SOL     OW32012   2.460   0.729   5.856
10663SOL    HW132013   2.484   0.798   5.788
10663SOL    HW232014   2.382   0.762   5.910
10664SOL     OW32015   3.438   1.662   5.893
10664SOL    HW132016   3.527   1.708   5.896
10664SOL    HW232017   3.417   1.638   5.798
10665SOL     OW32018   2.669   0.605   7.051
10665SOL    HW132019   2.622   0.602   7.140
10665SOL    HW232020   2.618   0.550   6.985
10666SOL     OW32021   3.256   0.469   7.260
10666SOL    HW132022   3.236   0.512   7.348
10666SOL    HW232023   3.334   0.407   7.269
10667SOL     OW32024   2.835   0.890   7.158
10667SOL    HW132025   2.881   0.806   7.129
10667SOL    HW232026   2.779   0.924   7.083
10668SOL     OW32027   2.853   0.410   6.828
10668SOL    HW132028   2.776   0.444   6.882
10668SOL    HW232029   2.819   0.359   6.749
10669SOL     OW32030   2.903   0.701   6.015
10669SOL    HW132031   2.929   0.697   6.111
10669SOL    HW232032   2.818   0.650   6.001
10670SOL     OW32033   1.938   0.811   6.375
10670SOL    HW132034   2.037   0.799   6.384
10670SOL    HW232035   1.914   0.906   6.396
10671SOL     OW32036   1.992   1.821   7.157
10671SOL    HW132037   1.982   1.806   7.256
10671SOL    HW232038   1.906   1.857   7.121
10672SOL     OW32039   2.727   0.348   5.781
10672SOL    HW132040   2.786   0.411   5.732
10672SOL    HW232041   2.746   0.254   5.752
10673SOL     OW32042   3.581   0.585   7.417
10673SOL    HW132043   3.555   0.674   7.381
10673SOL    HW232044   3.579   0.517   7.344
10674SOL     OW32045   3.224   1.144   6.131
10674SOL    HW132046   3.307   1.115   6.083
10674SOL    HW232047   3.175   1.211   6.075
10675SOL     OW32048   2.412   0.196   6.471
10675SOL    HW132049   2.407   0.191   6.571
10675SOL    HW232050   2.414   0.292   6.442
10676SOL     OW32051   2.870   1.456   6.063
10676SOL    HW132052   2.824   1.528   6.011
10676SOL    HW232053   2.866   1.476   6.161
10677SOL     OW32054   2.213   1.801   6.439
10677SOL    HW132055   2.263   1.715   6.445
10677SOL    HW232056   2.278   1.878   6.436
10678SOL     OW32057   3.657   1.066   6.459
10678SOL    HW132058   3.595   1.051   6.383
10678SOL    HW232059   3.605   1.077   6.544
10679SOL     OW32060   3.089   1.550   7.092
10679SOL    HW132061   3.095   1.473   7.156
10679SOL    HW232062   3.037   1.524   7.012
10680SOL     OW32063   2.183   0.943   5.828
10680SOL    HW132064   2.265   0.982   5.786
10680SOL    HW232065   2.156   0.861   5.779
10681SOL     OW32066   3.320   0.735   6.314
10681SOL    HW132067   3.315   0.670   6.389
10681SOL    HW232068   3.400   0.794   6.327
10682SOL     OW32069   2.323   1.266   7.313
10682SOL    HW132070   2.273   1.267   7.227
10682SOL    HW232071   2.260   1.248   7.389
10683SOL     OW32072   2.973   1.776   5.823
10683SOL    HW132073   2.913   1.714   5.873
10683SOL    HW232074   3.004   1.732   5.738
10684SOL     OW32075   2.064   0.285   7.084
10684SOL    HW132076   1.984   0.345   7.071
10684SOL    HW232077   2.054   0.236   7.170
10685SOL     OW32078   3.494   1.377   5.667
10685SOL    HW132079   3.462   1.471   5.657
10685SOL    HW232080   3.418   1.314   5.655
10686SOL     OW32081   2.326   1.743   5.909
10686SOL    HW132082   2.359   1.782   5.995
10686SOL    HW232083   2.402   1.736   5.844
10687SOL     OW32084   3.262   0.107   6.012
10687SOL    HW132085   3.238   0.070   5.922
10687SOL    HW232086   3.361   0.123   6.016
10688SOL     OW32087   2.111   1.785   6.827
10688SOL    HW132088   2.168   1.720   6.877
10688SOL    HW232089   2.095   1.752   6.734
10689SOL     OW32090   2.802   1.698   6.490
10689SOL    HW132091   2.882   1.641   6.511
10689SOL    HW232092   2.753   1.658   6.413
10690SOL     OW32093   2.244   0.700   6.066
10690SOL    HW132094   2.289   0.610   6.063
10690SOL    HW232095   2.150   0.689   6.099
10691SOL     OW32096   3.409   0.222   7.315
10691SOL    HW132097   3.404   0.259   7.407
10691SOL    HW232098   3.337   0.153   7.303
10692SOL     OW32099   2.476   0.122   5.703
10692SOL    HW132100   2.574   0.100   5.710
10692SOL    HW232101   2.445   0.105   5.610
10693SOL     OW32102   2.643   0.264   7.335
10693SOL    HW132103   2.710   0.203   7.378
10693SOL    HW232104   2.570   0.283   7.400
10694SOL     OW32105   2.750   1.514   6.781
10694SOL    HW132106   2.727   1.489   6.687
10694SOL    HW232107   2.811   1.445   6.820
10695SOL     OW32108   3.213   0.590   7.019
10695SOL    HW132109   3.241   0.547   7.104
10695SOL    HW232110   3.238   0.686   7.020
10696SOL     OW32111   2.665   1.402   6.510
10696SOL    HW132112   2.755   1.416   6.468
10696SOL    HW232113   2.594   1.404   6.439
10697SOL     OW32114   2.784   0.503   6.485
10697SOL    HW132115   2.759   0.494   6.389
10697SOL    HW232116   2.832   0.421   6.516
10698SOL     OW32117   2.401   0.064   6.098
10698SOL    HW132118   2.320   0.065   6.156
10698SOL    HW232119   2.404   0.147   6.043
10699SOL     OW32120   3.296   1.188   5.627
10699SOL    HW132121   3.328   1.112   5.684
10699SOL    HW232122   3.204   1.215   5.657
10700SOL     OW32123   2.159   0.035   5.757
10700SOL    HW132124   2.208   0.119   5.736
10700SOL    HW232125   2.221  -0.030   5.802
10701SOL     OW32126   2.797   0.236   6.066
10701SOL    HW132127   2.749   0.277   5.988
10701SOL    HW232128   2.896   0.234   6.047
10702SOL     OW32129   2.938   0.683   7.050
10702SOL    HW132130   2.858   0.622   7.053
10702SOL    HW232131   3.019   0.630   7.026
10703SOL     OW32132   3.089   1.570   6.379
10703SOL    HW132133   3.110   1.644   6.314
10703SOL    HW232134   3.157   1.570   6.452
10704SOL     OW32135   2.321   1.152   6.327
10704SOL    HW132136   2.250   1.125   6.392
10704SOL    HW232137   2.295   1.124   6.234
10705SOL     OW32138   3.133   1.797   6.177
10705SOL    HW132139   3.177   1.861   6.113
10705SOL    HW232140   3.083   1.849   6.247
10706SOL     OW32141   2.894   0.549   5.602
10706SOL    HW132142   2.853   0.631   5.563
10706SOL    HW232143   2.958   0.575   5.675
10707SOL     OW32144   1.940   0.556   6.972
10707SOL    HW132145   2.032   0.555   6.931
10707SOL    HW232146   1.934   0.630   7.039
10708SOL     OW32147   2.423   0.222   6.733
10708SOL    HW132148   2.461   0.138   6.770
10708SOL    HW232149   2.335   0.241   6.777
10709SOL     OW32150   2.728   0.454   6.228
10709SOL    HW132151   2.696   0.526   6.166
10709SOL    HW232152   2.752   0.373   6.175
10710SOL     OW32153   2.879   0.039   6.339
10710SOL    HW132154   2.807   0.044   6.270
10710SOL    HW232155   2.855  -0.030   6.408
10711SOL     OW32156   3.291   1.173   6.453
10711SOL    HW132157   3.236   1.089   6.446
10711SOL    HW232158   3.317   1.202   6.361
10712SOL     OW32159   3.328   0.590   6.578
10712SOL    HW132160   3.298   0.495   6.585
10712SOL    HW232161   3.401   0.606   6.644
10713SOL     OW32162   3.719   0.833   5.963
10713SOL    HW132163   3.761   0.769   6.027
10713SOL    HW232164   3.681   0.782   5.885
10714SOL     OW32165   2.350   1.385   5.760
10714SOL    HW132166   2.263   1.370   5.807
10714SOL    HW232167   2.333   1.411   5.665
10715SOL     OW32168   3.526   1.280   6.243
10715SOL    HW132169   3.625   1.288   6.257
10715SOL    HW232170   3.481   1.364   6.274
10716SOL     OW32171   3.252   0.575   5.664
10716SOL    HW132172   3.198   0.554   5.745
10716SOL    HW232173   3.343   0.534   5.673
10717SOL     OW32174   2.389   0.256   5.914
10717SOL    HW132175   2.416   0.197   5.839
10717SOL    HW232176   2.389   0.351   5.883
10718SOL     OW32177   3.616   1.223   7.174
10718SOL    HW132178   3.707   1.184   7.161
10718SOL    HW232179   3.624   1.319   7.198
10719SOL     OW32180   2.926   1.347   6.926
10719SOL    HW132181   2.846   1.324   6.981
10719SOL    HW232182   3.009   1.321   6.975
10720SOL     OW32183   3.454   1.629   7.211
10720SOL    HW132184   3.481   1.663   7.121
10720SOL    HW232185   3.533   1.591   7.257
10721SOL     OW32186   2.973   1.195   6.686
10721SOL    HW132187   2.933   1.239   6.767
10721SOL    HW232188   2.932   1.232   6.603
10722SOL     OW32189   3.500   1.099   6.665
10722SOL    HW132190   3.505   1.180   6.724
10722SOL    HW232191   3.414   1.101   6.614
10723SOL     OW32192   2.777   0.089   6.988
10723SOL    HW132193   2.802   0.069   6.893
10723SOL    HW232194   2.849   0.145   7.030
10724SOL     OW32195   2.842   1.116   7.305
10724SOL    HW132196   2.743   1.122   7.315
10724SOL    HW232197   2.865   1.036   7.249
10725SOL     OW32198   2.567   1.050   5.954
10725SOL    HW132199   2.553   1.057   6.053
10725SOL    HW232200   2.651   0.999   5.936
10726SOL     OW32201   2.272   0.813   6.837
10726SOL    HW132202   2.358   0.825   6.887
10726SOL    HW232203   2.230   0.726   6.864
10727SOL     OW32204   3.136   0.386   6.848
10727SOL    HW132205   3.157   0.460   6.912
10727SOL    HW232206   3.047   0.403   6.805
10728SOL     OW32207   1.926   1.564   6.917
10728SOL    HW132208   1.880   1.646   6.883
10728SOL    HW232209   2.024   1.583   6.926
10729SOL     OW32210   2.229   1.100   6.087
10729SOL    HW132211   2.222   1.183   6.031
10729SOL    HW232212   2.233   1.020   6.027
10730SOL     OW32213   2.428   0.537   6.451
10730SOL    HW132214   2.440   0.603   6.377
10730SOL    HW232215   2.474   0.571   6.534
10731SOL     OW32216   3.114   1.348   5.974
10731SOL    HW132217   3.164   1.425   6.014
10731SOL    HW232218   3.019   1.350   6.006
10732SOL     OW32219   3.134   1.445   6.728
10732SOL    HW132220   3.181   1.458   6.815
10732SOL    HW232221   3.068   1.371   6.737
10733SOL     OW32222   3.444   0.639   6.058
10733SOL    HW132223   3.413   0.700   6.131
10733SOL    HW232224   3.494   0.691   5.989
10734SOL     OW32225   2.216   1.510   6.915
10734SOL    HW132226   2.195   1.466   6.828
10734SOL    HW232227   2.313   1.536   6.918
10735SOL     OW32228   2.264   0.751   7.184
10735SOL    HW132229   2.332   0.806   7.137
10735SOL    HW232230   2.304   0.663   7.211
10736SOL     OW32231   3.449   0.779   7.256
10736SOL    HW132232   3.357   0.817   7.251
10736SOL    HW232233   3.509   0.826   7.191
10737SOL     OW32234   2.875   0.105   7.356
10737SOL    HW132235   2.881   0.190   7.304
10737SOL    HW232236   2.907   0.029   7.299
10738SOL     OW32237   2.366   0.050   7.326
10738SOL    HW132238   2.324  -0.007   7.256
10738SOL    HW232239   2.300   0.119   7.358
10739SOL     OW32240   2.435   0.870   6.615
10739SOL    HW132241   2.479   0.959   6.606
10739SOL    HW232242   2.372   0.870   6.692
10740SOL     OW32243   3.222   0.862   6.631
10740SOL    HW132244   3.147   0.862   6.565
10740SOL    HW232245   3.259   0.770   6.640
10741SOL     OW32246   3.071   0.525   5.861
10741SOL    HW132247   3.084   0.441   5.915
10741SOL    HW232248   3.042   0.599   5.921
10742SOL     OW32249   2.169   0.213   6.817
10742SOL    HW132250   2.146   0.250   6.907
10742SOL    HW232251   2.139   0.118   6.811
10743SOL     OW32252   1.899   1.310   6.868
10743SOL    HW132253   1.952   1.261   6.936
10743SOL    HW232254   1.921   1.408   6.873
10744SOL     OW32255   2.594   0.634   6.650
10744SOL    HW132256   2.653   0.608   6.574
10744SOL    HW232257   2.566   0.730   6.639
10745SOL     OW32258   3.590   0.935   7.440
10745SOL    HW132259   3.544   0.928   7.351
10745SOL    HW232260   3.528   0.979   7.506
10746SOL     OW32261   2.169   0.063   6.204
10746SOL    HW132262   2.158   0.157   6.237
10746SOL    HW232263   2.164   0.000   6.281
10747SOL     OW32264   3.484   0.367   5.960
10747SOL    HW132265   3.486   0.291   6.024
10747SOL    HW232266   3.436   0.444   6.000
10748SOL     OW32267   2.885   0.766   6.552
10748SOL    HW132268   2.900   0.787   6.648
10748SOL    HW232269   2.855   0.671   6.543
10749SOL     OW32270   2.842   1.573   7.286
10749SOL    HW132271   2.822   1.617   7.198
10749SOL    HW232272   2.881   1.482   7.270
10750SOL     OW32273   3.721   1.518   7.191
10750SOL    HW132274   3.735   1.545   7.096
10750SOL    HW232275   3.804   1.540   7.244
10751SOL     OW32276   2.212   0.898   7.390
10751SOL    HW132277   2.288   0.942   7.438
10751SOL    HW232278   2.247   0.851   7.308
10752SOL     OW32279   3.402   0.274   5.711
10752SOL    HW132280   3.341   0.199   5.734
10752SOL    HW232281   3.424   0.326   5.794
10753SOL     OW32282   3.165   0.838   5.628
10753SOL    HW132283   3.199   0.745   5.643
10753SOL    HW232284   3.183   0.865   5.533
10754SOL     OW32285   2.930   1.333   6.435
10754SOL    HW132286   2.937   1.249   6.380
10754SOL    HW232287   2.992   1.402   6.399
10755SOL     OW32288   2.181   0.810   6.535
10755SOL    HW132289   2.274   0.846   6.540
10755SOL    HW232290   2.175   0.725   6.587
10756SOL     OW32291   2.201   0.509   6.592
10756SOL    HW132292   2.149   0.426   6.575
10756SOL    HW232293   2.278   0.514   6.528
10757SOL     OW32294   3.000   0.380   7.264
10757SOL    HW132295   2.955   0.443   7.328
10757SOL    HW232296   3.093   0.411   7.247
10758SOL     OW32297   3.022   0.207   7.063
10758SOL    HW132298   3.022   0.271   7.140
10758SOL    HW232299   3.050   0.255   6.980
10759SOL     OW32300   1.870   1.326   5.786
10759SOL    HW132301   1.777   1.347   5.755
10759SOL    HW232302   1.880   1.227   5.799
10760SOL     OW32303   1.950   1.801   6.513
10760SOL    HW132304   1.908   1.715   6.486
10760SOL    HW232305   2.044   1.804   6.479
10761SOL     OW32306   2.366   1.568   6.496
10761SOL    HW132307   2.432   1.642   6.505
10761SOL    HW232308   2.410   1.489   6.454
10762SOL     OW32309   2.864   0.796   6.824
10762SOL    HW132310   2.905   0.764   6.910
10762SOL    HW232311   2.768   0.769   6.821
10763SOL     OW32312   1.902   0.544   6.700
10763SOL    HW132313   1.987   0.511   6.659
10763SOL    HW232314   1.915   0.559   6.798
10764SOL     OW32315   2.051   0.520   7.308
10764SOL    HW132316   2.110   0.480   7.238
10764SOL    HW232317   1.993   0.591   7.267
10765SOL     OW32318   3.231   0.950   7.246
10765SOL    HW132319   3.270   1.039   7.266
10765SOL    HW232320   3.241   0.930   7.149
10766SOL     OW32321   2.677   0.572   5.911
10766SOL    HW132322   2.684   0.483   5.865
10766SOL    HW232323   2.583   0.606   5.903
10767SOL     OW32324   3.519   0.604   6.792
10767SOL    HW132325   3.481   0.535   6.854
10767SOL    HW232326   3.601   0.568   6.748
10768SOL     OW32327   2.114   1.564   7.330
10768SOL    HW132328   2.084   1.621   7.406
10768SOL    HW232329   2.107   1.467   7.356
10769SOL     OW32330   2.533   0.464   6.855
10769SOL    HW132331   2.499   0.375   6.825
10769SOL    HW232332   2.559   0.518   6.775
10770SOL     OW32333   2.792   1.678   7.051
10770SOL    HW132334   2.768   1.660   6.956
10770SOL    HW232335   2.822   1.772   7.061
10771SOL     OW32336   2.335   0.500   5.777
10771SOL    HW132337   2.396   0.580   5.781
10771SOL    HW232338   2.240   0.531   5.784
10772SOL     OW32339   2.021   1.137   7.052
10772SOL    HW132340   2.043   1.076   7.128
10772SOL    HW232341   2.031   1.088   6.966
10773SOL     OW32342   3.209   1.059   6.820
10773SOL    HW132343   3.233   0.996   6.746
10773SOL    HW232344   3.119   1.099   6.802
10774SOL     OW32345   3.164   0.855   5.895
10774SOL    HW132346   3.078   0.824   5.937
10774SOL    HW232347   3.160   0.841   5.796
10775SOL     OW32348   3.621   1.747   6.740
10775SOL    HW132349   3.682   1.777   6.667
10775SOL    HW232350   3.583   1.658   6.718
10776SOL     OW32351   3.114   1.731   6.714
10776SOL    HW132352   3.198   1.736   6.660
10776SOL    HW232353   3.091   1.635   6.732
10777SOL     OW32354   1.945   1.258   6.608
10777SOL    HW132355   1.940   1.257   6.708
10777SOL    HW232356   1.862   1.217   6.570
10778SOL     OW32357   2.550   1.662   7.302
10778SOL    HW132358   2.494   1.743   7.311
10778SOL    HW232359   2.602   1.666   7.216
10779SOL     OW32360   3.588   0.135   6.109
10779SOL    HW132361   3.661   0.118   6.042
10779SOL    HW232362   3.557   0.048   6.147
10780SOL     OW32363   3.250   1.573   6.063
10780SOL    HW132364   3.317   1.585   5.989
10780SOL    HW232365   3.210   1.662   6.086
10781SOL     OW32366   1.992   1.794   7.437
10781SOL    HW132367   1.951   1.720   7.490
10781SOL    HW232368   2.056   1.845   7.495
10782SOL     OW32369   3.142   0.927   6.258
10782SOL    HW132370   3.202   0.846   6.260
10782SOL    HW232371   3.182   0.996   6.198
10783SOL     OW32372   2.692   1.273   7.008
10783SOL    HW132373   2.687   1.306   7.103
10783SOL    HW232374   2.606   1.292   6.962
10784SOL     OW32375   2.534   1.616   5.740
10784SOL    HW132376   2.543   1.626   5.641
10784SOL    HW232377   2.494   1.527   5.761
10785SOL     OW32378   3.512   1.720   6.980
10785SOL    HW132379   3.565   1.730   6.896
10785SOL    HW232380   3.485   1.810   7.014
10786SOL     OW32381   3.703   0.175   6.549
10786SOL    HW132382   3.742   0.090   6.513
10786SOL    HW232383   3.605   0.177   6.530
10787SOL     OW32384   2.125   0.326   6.306
10787SOL    HW132385   2.046   0.377   6.272
10787SOL    HW232386   2.116   0.311   6.404
10788SOL     OW32387   3.056   1.612   5.617
10788SOL    HW132388   3.062   1.519   5.654
10788SOL    HW232389   2.997   1.612   5.537
10789SOL     OW32390   2.684   1.002   6.958
10789SOL    HW132391   2.724   1.001   6.866
10789SOL    HW232392   2.694   1.094   6.998
10790SOL     OW32393   2.778   0.910   5.877
10790SOL    HW132394   2.841   0.948   5.809
10790SOL    HW232395   2.818   0.827   5.916
10791SOL     OW32396   3.366   1.607   5.630
10791SOL    HW132397   3.274   1.644   5.637
10791SOL    HW232398   3.404   1.627   5.540
10792SOL     OW32399   2.234   1.288   7.076
10792SOL    HW132400   2.221   1.381   7.042
10792SOL    HW232401   2.150   1.236   7.063
10793SOL     OW32402   3.476   1.292   6.875
10793SOL    HW132403   3.536   1.295   6.955
10793SOL    HW232404   3.401   1.356   6.888
10794SOL     OW32405   2.901   1.098   6.282
10794SOL    HW132406   2.831   1.051   6.336
10794SOL    HW232407   2.960   1.030   6.239
10795SOL     OW32408   2.876   0.236   6.557
10795SOL    HW132409   2.868   0.200   6.464
10795SOL    HW232410   2.874   0.160   6.622
10796SOL     OW32411   2.452   1.487   6.077
10796SOL    HW132412   2.494   1.429   6.007
10796SOL    HW232413   2.408   1.566   6.033
10797SOL     OW32414   3.571   0.385   6.967
10797SOL    HW132415   3.644   0.454   6.971
10797SOL    HW232416   3.599   0.310   6.908
10798SOL     OW32417   2.117   1.348   5.876
10798SOL    HW132418   2.021   1.349   5.849
10798SOL    HW232419   2.129   1.401   5.960
10799SOL     OW32420   1.967   1.013   7.312
10799SOL    HW132421   1.890   0.980   7.366
10799SOL    HW232422   2.052   0.983   7.354
10800SOL     OW32423   2.534   0.203   7.075
10800SOL    HW132424   2.624   0.187   7.035
10800SOL    HW232425   2.542   0.208   7.174
10801SOL     OW32426   1.937   0.345   5.619
10801SOL    HW132427   1.845   0.317   5.590
10801SOL    HW232428   1.968   0.422   5.563
10802SOL     OW32429   3.302   0.856   6.984
10802SOL    HW132430   3.245   0.908   6.921
10802SOL    HW232431   3.398   0.868   6.960
10803SOL     OW32432   1.934   0.166   5.904
10803SOL    HW132433   1.917   0.249   5.850
10803SOL    HW232434   2.024   0.129   5.882
10804SOL     OW32435   3.045   1.335   5.705
10804SOL    HW132436   2.946   1.324   5.707
10804SOL    HW232437   3.079   1.350   5.798
10805SOL     OW32438   2.475   0.842   7.017
10805SOL    HW132439   2.531   0.923   7.000
10805SOL    HW232440   2.534   0.762   7.020
10806SOL     OW32441   3.355   1.767   6.545
10806SOL    HW132442   3.388   1.831   6.476
10806SOL    HW232443   3.421   1.761   6.620
10807SOL     OW32444   2.578   0.565   7.294
10807SOL    HW132445   2.597   0.630   7.368
10807SOL    HW232446   2.638   0.485   7.303
10808SOL     OW32447   3.312   1.220   7.219
10808SOL    HW132448   3.303   1.210   7.318
10808SOL    HW232449   3.408   1.213   7.193
10809SOL     OW32450   2.252   1.741   7.146
10809SOL    HW132451   2.161   1.782   7.144
10809SOL    HW232452   2.245   1.647   7.178
10810SOL     OW32453   3.536   0.883   6.840
10810SOL    HW132454   3.509   0.794   6.803
10810SOL    HW232455   3.537   0.951   6.767
10811SOL     OW32456   3.087   0.325   6.035
10811SOL    HW132457   3.152   0.251   6.024
10811SOL    HW232458   3.107   0.375   6.119
10812SOL     OW32459   2.456   0.745   6.238
10812SOL    HW132460   2.506   0.830   6.219
10812SOL    HW232461   2.368   0.747   6.190
10813SOL     OW32462   3.639   0.342   7.228
10813SOL    HW132463   3.622   0.373   7.134
10813SOL    HW232464   3.555   0.305   7.266
10814SOL     OW32465   3.592   0.934   7.103
10814SOL    HW132466   3.630   1.025   7.118
10814SOL    HW232467   3.584   0.917   7.004
10815SOL     OW32468   2.721   1.374   5.602
10815SOL    HW132469   2.675   1.389   5.690
10815SOL    HW232470   2.765   1.459   5.572
10816SOL     OW32471   2.523   1.790   6.539
10816SOL    HW132472   2.477   1.878   6.526
10816SOL    HW232473   2.622   1.802   6.532
10817SOL     OW32474   2.721   0.956   6.447
10817SOL    HW132475   2.775   0.887   6.495
10817SOL    HW232476   2.689   1.025   6.513
10818SOL     OW32477   2.945   0.984   5.673
10818SOL    HW132478   2.922   1.037   5.591
10818SOL    HW232479   3.026   0.928   5.654
10819SOL     OW32480   3.723   1.569   6.437
10819SOL    HW132481   3.652   1.557   6.367
10819SOL    HW232482   3.724   1.490   6.497
10820SOL     OW32483   2.083   1.314   7.430
10820SOL    HW132484   2.018   1.241   7.409
10820SOL    HW232485   2.087   1.328   7.528
10821SOL     OW32486   1.941   1.240   6.239
10821SOL    HW132487   1.940   1.193   6.327
10821SOL    HW232488   2.023   1.212   6.188
10822SOL     OW32489   2.534   1.391   7.210
10822SOL    HW132490   2.456   1.341   7.248
10822SOL    HW232491   2.531   1.486   7.241
10823SOL     OW32492   3.686   0.192   6.813
10823SOL    HW132493   3.682   0.102   6.857
10823SOL    HW232494   3.689   0.181   6.714
10824SOL     OW32495   2.290   0.424   6.106
10824SOL    HW132496   2.320   0.352   6.044
10824SOL    HW232497   2.251   0.384   6.189
10825SOL     OW32498   3.567   1.487   6.690
10825SOL    HW132499   3.474   1.462   6.663
10825SOL    HW232500   3.593   1.437   6.772
10826SOL     OW32501   2.179   0.547   6.866
10826SOL    HW132502   2.217   0.488   6.938
10826SOL    HW232503   2.219   0.521   6.778
10827SOL     OW32504   2.674   1.586   6.273
10827SOL    HW132505   2.706   1.596   6.179
10827SOL    HW232506   2.595   1.524   6.275
10828SOL     OW32507   3.286   0.214   6.698
10828SOL    HW132508   3.338   0.149   6.753
10828SOL    HW232509   3.237   0.277   6.759
10829SOL     OW32510   2.863   0.034   6.740
10829SOL    HW132511   2.800  -0.038   6.709
10829SOL    HW232512   2.956  -0.002   6.740
10830SOL     OW32513   2.632   1.330   5.887
10830SOL    HW132514   2.586   1.243   5.904
10830SOL    HW232515   2.723   1.327   5.928
10831SOL     OW32516   2.480   1.567   6.870
10831SOL    HW132517   2.475   1.649   6.927
10831SOL    HW232518   2.569   1.564   6.825
10832SOL     OW32519   3.214   0.052   5.754
10832SOL    HW132520   3.249   0.011   5.670
10832SOL    HW232521   3.124   0.014   5.774
10833SOL     OW32522   3.162   0.453   6.277
10833SOL    HW132523   3.103   0.533   6.281
10833SOL    HW232524   3.177   0.418   6.370
10834SOL     OW32525   3.455   0.221   6.468
10834SOL    HW132526   3.371   0.220   6.522
10834SOL    HW232527   3.457   0.304   6.412
10835SOL     OW32528   1.901   1.077   5.886
10835SOL    HW132529   2.000   1.066   5.877
10835SOL    HW232530   1.861   0.991   5.918
10836SOL     OW32531   2.737   1.646   5.923
10836SOL    HW132532   2.660   1.611   5.869
10836SOL    HW232533   2.705   1.717   5.985
10837SOL     OW32534   2.092   0.628   7.561
10837SOL    HW132535   1.999   0.626   7.598
10837SOL    HW232536   2.093   0.589   7.469
10838SOL     OW32537   2.087   0.275   8.444
10838SOL    HW132538   2.122   0.258   8.536
10838SOL    HW232539   1.999   0.230   8.432
10839SOL     OW32540   1.881   0.368   8.095
10839SOL    HW132541   1.799   0.411   8.134
10839SOL    HW232542   1.853   0.295   8.032
10840SOL     OW32543   2.431   1.275   8.613
10840SOL    HW132544   2.338   1.268   8.576
10840SOL    HW232545   2.442   1.364   8.657
10841SOL     OW32546   3.417   1.511   8.151
10841SOL    HW132547   3.360   1.495   8.232
10841SOL    HW232548   3.358   1.521   8.071
10842SOL     OW32549   2.997   0.703   8.165
10842SOL    HW132550   3.054   0.781   8.140
10842SOL    HW232551   2.937   0.729   8.241
10843SOL     OW32552   3.617   0.607   7.679
10843SOL    HW132553   3.605   0.594   7.580
10843SOL    HW232554   3.587   0.526   7.728
10844SOL     OW32555   2.630   1.144   8.471
10844SOL    HW132556   2.552   1.161   8.531
10844SOL    HW232557   2.664   1.231   8.435
10845SOL     OW32558   2.712   0.798   9.271
10845SOL    HW132559   2.708   0.874   9.336
10845SOL    HW232560   2.734   0.834   9.180
10846SOL     OW32561   2.547   1.012   8.113
10846SOL    HW132562   2.616   0.996   8.183
10846SOL    HW232563   2.474   1.069   8.151
10847SOL     OW32564   2.548   1.161   9.251
10847SOL    HW132565   2.608   1.240   9.265
10847SOL    HW232566   2.462   1.192   9.210
10848SOL     OW32567   2.197   1.435   8.509
10848SOL    HW132568   2.119   1.404   8.456
10848SOL    HW232569   2.255   1.493   8.452
10849SOL     OW32570   3.322   1.505   8.787
10849SOL    HW132571   3.346   1.599   8.813
10849SOL    HW232572   3.306   1.451   8.869
10850SOL     OW32573   2.300   0.392   8.947
10850SOL    HW132574   2.382   0.336   8.956
10850SOL    HW232575   2.219   0.334   8.951
10851SOL     OW32576   3.465   0.447   8.185
10851SOL    HW132577   3.391   0.493   8.135
10851SOL    HW232578   3.516   0.515   8.238
10852SOL     OW32579   2.093   1.713   7.931
10852SOL    HW132580   2.127   1.790   7.985
10852SOL    HW232581   2.137   1.713   7.841
10853SOL     OW32582   2.989   1.341   9.138
10853SOL    HW132583   3.036   1.341   9.226
10853SOL    HW232584   2.941   1.254   9.127
10854SOL     OW32585   2.092   1.434   7.986
10854SOL    HW132586   2.066   1.530   7.986
10854SOL    HW232587   2.021   1.380   8.031
10855SOL     OW32588   2.102   1.091   8.334
10855SOL    HW132589   2.116   1.007   8.386
10855SOL    HW232590   2.047   1.155   8.389
10856SOL     OW32591   2.482   1.786   8.887
10856SOL    HW132592   2.390   1.769   8.922
10856SOL    HW232593   2.510   1.878   8.913
10857SOL     OW32594   2.468   0.964   7.571
10857SOL    HW132595   2.475   1.048   7.517
10857SOL    HW232596   2.514   0.977   7.659
10858SOL     OW32597   3.456   0.114   8.928
10858SOL    HW132598   3.438   0.181   8.856
10858SOL    HW232599   3.453   0.160   9.017
10859SOL     OW32600   1.984   0.643   8.011
10859SOL    HW132601   1.939   0.555   8.028
10859SOL    HW232602   1.983   0.697   8.095
10860SOL     OW32603   3.704   1.767   7.807
10860SOL    HW132604   3.758   1.738   7.887
10860SOL    HW232605   3.734   1.857   7.778
10861SOL     OW32606   1.889   1.596   7.565
10861SOL    HW132607   1.870   1.500   7.586
10861SOL    HW232608   1.856   1.654   7.640
10862SOL     OW32609   3.551   0.922   8.060
10862SOL    HW132610   3.646   0.893   8.068
10862SOL    HW232611   3.543   0.987   7.985
10863SOL     OW32612   3.503   1.108   7.880
10863SOL    HW132613   3.589   1.110   7.828
10863SOL    HW232614   3.517   1.155   7.968
10864SOL     OW32615   1.975   0.737   9.045
10864SOL    HW132616   2.063   0.724   9.090
10864SOL    HW232617   1.962   0.834   9.023
10865SOL     OW32618   2.475   1.365   8.174
10865SOL    HW132619   2.426   1.278   8.183
10865SOL    HW232620   2.452   1.408   8.087
10866SOL     OW32621   3.155   1.228   8.871
10866SOL    HW132622   3.192   1.155   8.813
10866SOL    HW232623   3.207   1.233   8.956
10867SOL     OW32624   2.671   0.004   7.950
10867SOL    HW132625   2.711   0.095   7.941
10867SOL    HW232626   2.571   0.012   7.956
10868SOL     OW32627   2.059   0.976   8.712
10868SOL    HW132628   2.148   0.931   8.698
10868SOL    HW232629   1.986   0.911   8.693
10869SOL     OW32630   3.387   0.999   7.638
10869SOL    HW132631   3.324   0.923   7.651
10869SOL    HW232632   3.435   1.017   7.724
10870SOL     OW32633   3.049   1.792   9.064
10870SOL    HW132634   3.073   1.852   8.988
10870SOL    HW232635   3.056   1.697   9.034
10871SOL     OW32636   2.179   0.251   9.249
10871SOL    HW132637   2.250   0.322   9.255
10871SOL    HW232638   2.091   0.290   9.277
10872SOL     OW32639   3.328   1.417   8.401
10872SOL    HW132640   3.269   1.423   8.481
10872SOL    HW232641   3.313   1.329   8.355
10873SOL     OW32642   3.529   1.714   8.020
10873SOL    HW132643   3.488   1.691   7.932
10873SOL    HW232644   3.511   1.640   8.085
10874SOL     OW32645   2.460   0.729   7.718
10874SOL    HW132646   2.484   0.798   7.650
10874SOL    HW232647   2.382   0.762   7.772
10875SOL     OW32648   3.143   0.345   8.392
10875SOL    HW132649   3.057   0.295   8.379
10875SOL    HW232650   3.205   0.291   8.448
10876SOL     OW32651   3.438   1.662   7.755
10876SOL    HW132652   3.527   1.708   7.758
10876SOL    HW232653   3.417   1.638   7.660
10877SOL     OW32654   2.669   0.605   8.913
10877SOL    HW132655   2.622   0.602   9.002
10877SOL    HW232656   2.618   0.550   8.847
10878SOL     OW32657   3.256   0.469   9.122
10878SOL    HW132658   3.236   0.512   9.210
10878SOL    HW232659   3.334   0.407   9.131
10879SOL     OW32660   2.835   0.890   9.020
10879SOL    HW132661   2.881   0.806   8.991
10879SOL    HW232662   2.779   0.924   8.945
10880SOL     OW32663   2.853   0.410   8.690
10880SOL    HW132664   2.776   0.444   8.744
10880SOL    HW232665   2.819   0.359   8.611
10881SOL     OW32666   2.903   0.701   7.877
10881SOL    HW132667   2.929   0.697   7.973
10881SOL    HW232668   2.818   0.650   7.863
10882SOL     OW32669   1.938   0.811   8.237
10882SOL    HW132670   2.037   0.799   8.246
10882SOL    HW232671   1.914   0.906   8.258
10883SOL     OW32672   1.992   1.821   9.019
10883SOL    HW132673   1.982   1.806   9.118
10883SOL    HW232674   1.906   1.857   8.983
10884SOL     OW32675   2.727   0.348   7.643
10884SOL    HW132676   2.786   0.411   7.594
10884SOL    HW232677   2.746   0.254   7.614
10885SOL     OW32678   3.581   0.585   9.279
10885SOL    HW132679   3.555   0.674   9.243
10885SOL    HW232680   3.579   0.517   9.206
10886SOL     OW32681   3.224   1.144   7.993
10886SOL    HW132682   3.307   1.115   7.945
10886SOL    HW232683   3.175   1.211   7.937
10887SOL     OW32684   2.412   0.196   8.333
10887SOL    HW132685   2.407   0.191   8.433
10887SOL    HW232686   2.414   0.292   8.304
10888SOL     OW32687   2.870   1.456   7.925
10888SOL    HW132688   2.824   1.528   7.873
10888SOL    HW232689   2.866   1.476   8.023
10889SOL     OW32690   2.213   1.801   8.301
10889SOL    HW132691   2.263   1.715   8.307
10889SOL    HW232692   2.278   1.878   8.298
10890SOL     OW32693   3.657   1.066   8.321
10890SOL    HW132694   3.595   1.051   8.245
10890SOL    HW232695   3.605   1.077   8.406
10891SOL     OW32696   3.089   1.550   8.954
10891SOL    HW132697   3.095   1.473   9.018
10891SOL    HW232698   3.037   1.524   8.874
10892SOL     OW32699   2.183   0.943   7.690
10892SOL    HW132700   2.265   0.982   7.648
10892SOL    HW232701   2.156   0.861   7.641
10893SOL     OW32702   3.320   0.735   8.176
10893SOL    HW132703   3.315   0.670   8.251
10893SOL    HW232704   3.400   0.794   8.189
10894SOL     OW32705   2.323   1.266   9.175
10894SOL    HW132706   2.273   1.267   9.089
10894SOL    HW232707   2.260   1.248   9.251
10895SOL     OW32708   2.973   1.776   7.685
10895SOL    HW132709   2.913   1.714   7.735
10895SOL    HW232710   3.004   1.732   7.600
10896SOL     OW32711   2.064   0.285   8.946
10896SOL    HW132712   1.984   0.345   8.933
10896SOL    HW232713   2.054   0.236   9.032
10897SOL     OW32714   3.494   1.377   7.529
10897SOL    HW132715   3.462   1.471   7.519
10897SOL    HW232716   3.418   1.314   7.517
10898SOL     OW32717   2.326   1.743   7.771
10898SOL    HW132718   2.359   1.782   7.857
10898SOL    HW232719   2.402   1.736   7.706
10899SOL     OW32720   3.262   0.107   7.874
10899SOL    HW132721   3.238   0.070   7.784
10899SOL    HW232722   3.361   0.123   7.878
10900SOL     OW32723   2.111   1.785   8.689
10900SOL    HW132724   2.168   1.720   8.739
10900SOL    HW232725   2.095   1.752   8.596
10901SOL     OW32726   2.802   1.698   8.352
10901SOL    HW132727   2.882   1.641   8.373
10901SOL    HW232728   2.753   1.658   8.275
10902SOL     OW32729   2.244   0.700   7.928
10902SOL    HW132730   2.289   0.610   7.925
10902SOL    HW232731   2.150   0.689   7.961
10903SOL     OW32732   3.409   0.222   9.177
10903SOL    HW132733   3.404   0.259   9.269
10903SOL    HW232734   3.337   0.153   9.165
10904SOL     OW32735   2.476   0.122   7.565
10904SOL    HW132736   2.574   0.100   7.572
10904SOL    HW232737   2.445   0.105   7.472
10905SOL     OW32738   2.643   0.264   9.197
10905SOL    HW132739   2.710   0.203   9.240
10905SOL    HW232740   2.570   0.283   9.262
10906SOL     OW32741   2.750   1.514   8.643
10906SOL    HW132742   2.727   1.489   8.549
10906SOL    HW232743   2.811   1.445   8.682
10907SOL     OW32744   3.213   0.590   8.881
10907SOL    HW132745   3.241   0.547   8.966
10907SOL    HW232746   3.238   0.686   8.882
10908SOL     OW32747   2.665   1.402   8.372
10908SOL    HW132748   2.755   1.416   8.330
10908SOL    HW232749   2.594   1.404   8.301
10909SOL     OW32750   2.784   0.503   8.347
10909SOL    HW132751   2.759   0.494   8.251
10909SOL    HW232752   2.832   0.421   8.378
10910SOL     OW32753   2.401   0.064   7.960
10910SOL    HW132754   2.320   0.065   8.018
10910SOL    HW232755   2.404   0.147   7.905
10911SOL     OW32756   3.296   1.188   7.489
10911SOL    HW132757   3.328   1.112   7.546
10911SOL    HW232758   3.204   1.215   7.519
10912SOL     OW32759   2.159   0.035   7.619
10912SOL    HW132760   2.208   0.119   7.598
10912SOL    HW232761   2.221  -0.030   7.664
10913SOL     OW32762   2.797   0.236   7.928
10913SOL    HW132763   2.749   0.277   7.850
10913SOL    HW232764   2.896   0.234   7.909
10914SOL     OW32765   2.938   0.683   8.912
10914SOL    HW132766   2.858   0.622   8.915
10914SOL    HW232767   3.019   0.630   8.888
10915SOL     OW32768   3.089   1.570   8.241
10915SOL    HW132769   3.110   1.644   8.176
10915SOL    HW232770   3.157   1.570   8.314
10916SOL     OW32771   2.321   1.152   8.189
10916SOL    HW132772   2.250   1.125   8.254
10916SOL    HW232773   2.295   1.124   8.096
10917SOL     OW32774   3.133   1.797   8.039
10917SOL    HW132775   3.177   1.861   7.975
10917SOL    HW232776   3.083   1.849   8.109
10918SOL     OW32777   2.894   0.549   7.464
10918SOL    HW132778   2.853   0.631   7.425
10918SOL    HW232779   2.958   0.575   7.537
10919SOL     OW32780   1.940   0.556   8.834
10919SOL    HW132781   2.032   0.555   8.793
10919SOL    HW232782   1.934   0.630   8.901
10920SOL     OW32783   2.423   0.222   8.595
10920SOL    HW132784   2.461   0.138   8.632
10920SOL    HW232785   2.335   0.241   8.639
10921SOL     OW32786   2.728   0.454   8.090
10921SOL    HW132787   2.696   0.526   8.028
10921SOL    HW232788   2.752   0.373   8.037
10922SOL     OW32789   2.879   0.039   8.201
10922SOL    HW132790   2.807   0.044   8.132
10922SOL    HW232791   2.855  -0.030   8.270
10923SOL     OW32792   3.291   1.173   8.315
10923SOL    HW132793   3.236   1.089   8.308
10923SOL    HW232794   3.317   1.202   8.223
10924SOL     OW32795   3.328   0.590   8.440
10924SOL    HW132796   3.298   0.495   8.447
10924SOL    HW232797   3.401   0.606   8.506
10925SOL     OW32798   3.719   0.833   7.825
10925SOL    HW132799   3.761   0.769   7.889
10925SOL    HW232800   3.681   0.782   7.747
10926SOL     OW32801   2.350   1.385   7.622
10926SOL    HW132802   2.263   1.370   7.669
10926SOL    HW232803   2.333   1.411   7.527
10927SOL     OW32804   3.526   1.280   8.105
10927SOL    HW132805   3.625   1.288   8.119
10927SOL    HW232806   3.481   1.364   8.136
10928SOL     OW32807   3.252   0.575   7.526
10928SOL    HW132808   3.198   0.554   7.607
10928SOL    HW232809   3.343   0.534   7.535
10929SOL     OW32810   2.389   0.256   7.776
10929SOL    HW132811   2.416   0.197   7.701
10929SOL    HW232812   2.389   0.351   7.745
10930SOL     OW32813   3.616   1.223   9.036
10930SOL    HW132814   3.707   1.184   9.023
10930SOL    HW232815   3.624   1.319   9.060
10931SOL     OW32816   2.926   1.347   8.788
10931SOL    HW132817   2.846   1.324   8.843
10931SOL    HW232818   3.009   1.321   8.837
10932SOL     OW32819   3.454   1.629   9.073
10932SOL    HW132820   3.481   1.663   8.983
10932SOL    HW232821   3.533   1.591   9.119
10933SOL     OW32822   2.973   1.195   8.548
10933SOL    HW132823   2.933   1.239   8.629
10933SOL    HW232824   2.932   1.232   8.465
10934SOL     OW32825   3.500   1.099   8.527
10934SOL    HW132826   3.505   1.180   8.586
10934SOL    HW232827   3.414   1.101   8.476
10935SOL     OW32828   2.777   0.089   8.850
10935SOL    HW132829   2.802   0.069   8.755
10935SOL    HW232830   2.849   0.145   8.892
10936SOL     OW32831   2.842   1.116   9.167
10936SOL    HW132832   2.743   1.122   9.177
10936SOL    HW232833   2.865   1.036   9.111
10937SOL     OW32834   2.567   1.050   7.816
10937SOL    HW132835   2.553   1.057   7.915
10937SOL    HW232836   2.651   0.999   7.798
10938SOL     OW32837   2.272   0.813   8.699
10938SOL    HW132838   2.358   0.825   8.749
10938SOL    HW232839   2.230   0.726   8.726
10939SOL     OW32840   3.136   0.386   8.710
10939SOL    HW132841   3.157   0.460   8.774
10939SOL    HW232842   3.047   0.403   8.667
10940SOL     OW32843   1.926   1.564   8.779
10940SOL    HW132844   1.880   1.646   8.745
10940SOL    HW232845   2.024   1.583   8.788
10941SOL     OW32846   2.229   1.100   7.949
10941SOL    HW132847   2.222   1.183   7.893
10941SOL    HW232848   2.233   1.020   7.889
10942SOL     OW32849   2.428   0.537   8.313
10942SOL    HW132850   2.440   0.603   8.239
10942SOL    HW232851   2.474   0.571   8.396
10943SOL     OW32852   3.114   1.348   7.836
10943SOL    HW132853   3.164   1.425   7.876
10943SOL    HW232854   3.019   1.350   7.868
10944SOL     OW32855   3.134   1.445   8.590
10944SOL    HW132856   3.181   1.458   8.677
10944SOL    HW232857   3.068   1.371   8.599
10945SOL     OW32858   3.444   0.639   7.920
10945SOL    HW132859   3.413   0.700   7.993
10945SOL    HW232860   3.494   0.691   7.851
10946SOL     OW32861   2.216   1.510   8.777
10946SOL    HW132862   2.195   1.466   8.690
10946SOL    HW232863   2.313   1.536   8.780
10947SOL     OW32864   2.264   0.751   9.046
10947SOL    HW132865   2.332   0.806   8.999
10947SOL    HW232866   2.304   0.663   9.073
10948SOL     OW32867   3.449   0.779   9.118
10948SOL    HW132868   3.357   0.817   9.113
10948SOL    HW232869   3.509   0.826   9.053
10949SOL     OW32870   2.875   0.105   9.218
10949SOL    HW132871   2.881   0.190   9.166
10949SOL    HW232872   2.907   0.029   9.161
10950SOL     OW32873   2.366   0.050   9.188
10950SOL    HW132874   2.324  -0.007   9.118
10950SOL    HW232875   2.300   0.119   9.220
10951SOL     OW32876   2.435   0.870   8.477
10951SOL    HW132877   2.479   0.959   8.468
10951SOL    HW232878   2.372   0.870   8.554
10952SOL     OW32879   3.222   0.862   8.493
10952SOL    HW132880   3.147   0.862   8.427
10952SOL    HW232881   3.259   0.770   8.502
10953SOL     OW32882   3.071   0.525   7.723
10953SOL    HW132883   3.084   0.441   7.777
10953SOL    HW232884   3.042   0.599   7.783
10954SOL     OW32885   2.169   0.213   8.679
10954SOL    HW132886   2.146   0.250   8.769
10954SOL    HW232887   2.139   0.118   8.673
10955SOL     OW32888   1.899   1.310   8.730
10955SOL    HW132889   1.952   1.261   8.798
10955SOL    HW232890   1.921   1.408   8.735
10956SOL     OW32891   2.594   0.634   8.512
10956SOL    HW132892   2.653   0.608   8.436
10956SOL    HW232893   2.566   0.730   8.501
10957SOL     OW32894   3.590   0.935   9.302
10957SOL    HW132895   3.544   0.928   9.213
10957SOL    HW232896   3.528   0.979   9.368
10958SOL     OW32897   2.169   0.063   8.066
10958SOL    HW132898   2.158   0.157   8.099
10958SOL    HW232899   2.164   0.000   8.143
10959SOL     OW32900   3.484   0.367   7.822
10959SOL    HW132901   3.486   0.291   7.886
10959SOL    HW232902   3.436   0.444   7.862
10960SOL     OW32903   2.885   0.766   8.414
10960SOL    HW132904   2.900   0.787   8.510
10960SOL    HW232905   2.855   0.671   8.405
10961SOL     OW32906   2.842   1.573   9.148
10961SOL    HW132907   2.822   1.617   9.060
10961SOL    HW232908   2.881   1.482   9.132
10962SOL     OW32909   3.721   1.518   9.053
10962SOL    HW132910   3.735   1.545   8.958
10962SOL    HW232911   3.804   1.540   9.106
10963SOL     OW32912   2.212   0.898   9.252
10963SOL    HW132913   2.288   0.942   9.300
10963SOL    HW232914   2.247   0.851   9.170
10964SOL     OW32915   3.402   0.274   7.573
10964SOL    HW132916   3.341   0.199   7.596
10964SOL    HW232917   3.424   0.326   7.656
10965SOL     OW32918   3.165   0.838   7.490
10965SOL    HW132919   3.199   0.745   7.505
10965SOL    HW232920   3.183   0.865   7.395
10966SOL     OW32921   2.930   1.333   8.297
10966SOL    HW132922   2.937   1.249   8.242
10966SOL    HW232923   2.992   1.402   8.261
10967SOL     OW32924   2.181   0.810   8.397
10967SOL    HW132925   2.274   0.846   8.402
10967SOL    HW232926   2.175   0.725   8.449
10968SOL     OW32927   2.201   0.509   8.454
10968SOL    HW132928   2.149   0.426   8.437
10968SOL    HW232929   2.278   0.514   8.390
10969SOL     OW32930   3.000   0.380   9.126
10969SOL    HW132931   2.955   0.443   9.190
10969SOL    HW232932   3.093   0.411   9.109
10970SOL     OW32933   3.022   0.207   8.925
10970SOL    HW132934   3.022   0.271   9.002
10970SOL    HW232935   3.050   0.255   8.842
10971SOL     OW32936   1.870   1.326   7.648
10971SOL    HW132937   1.777   1.347   7.617
10971SOL    HW232938   1.880   1.227   7.661
10972SOL     OW32939   1.950   1.801   8.375
10972SOL    HW132940   1.908   1.715   8.348
10972SOL    HW232941   2.044   1.804   8.341
10973SOL     OW32942   2.366   1.568   8.358
10973SOL    HW132943   2.432   1.642   8.367
10973SOL    HW232944   2.410   1.489   8.316
10974SOL     OW32945   2.864   0.796   8.686
10974SOL    HW132946   2.905   0.764   8.772
10974SOL    HW232947   2.768   0.769   8.683
10975SOL     OW32948   1.902   0.544   8.562
10975SOL    HW132949   1.987   0.511   8.521
10975SOL    HW232950   1.915   0.559   8.660
10976SOL     OW32951   2.051   0.520   9.170
10976SOL    HW132952   2.110   0.480   9.100
10976SOL    HW232953   1.993   0.591   9.129
10977SOL     OW32954   3.231   0.950   9.108
10977SOL    HW132955   3.270   1.039   9.128
10977SOL    HW232956   3.241   0.930   9.011
10978SOL     OW32957   2.677   0.572   7.773
10978SOL    HW132958   2.684   0.483   7.727
10978SOL    HW232959   2.583   0.606   7.765
10979SOL     OW32960   3.519   0.604   8.654
10979SOL    HW132961   3.481   0.535   8.716
10979SOL    HW232962   3.601   0.568   8.610
10980SOL     OW32963   2.114   1.564   9.192
10980SOL    HW132964   2.084   1.621   9.268
10980SOL    HW232965   2.107   1.467   9.218
10981SOL     OW32966   2.533   0.464   8.717
10981SOL    HW132967   2.499   0.375   8.687
10981SOL    HW232968   2.559   0.518   8.637
10982SOL     OW32969   2.792   1.678   8.913
10982SOL    HW132970   2.768   1.660   8.818
10982SOL    HW232971   2.822   1.772   8.923
10983SOL     OW32972   2.335   0.500   7.639
10983SOL    HW132973   2.396   0.580   7.643
10983SOL    HW232974   2.240   0.531   7.646
10984SOL     OW32975   2.021   1.137   8.914
10984SOL    HW132976   2.043   1.076   8.990
10984SOL    HW232977   2.031   1.088   8.828
10985SOL     OW32978   3.209   1.059   8.682
10985SOL    HW132979   3.233   0.996   8.608
10985SOL    HW232980   3.119   1.099   8.664
10986SOL     OW32981   3.164   0.855   7.757
10986SOL    HW132982   3.078   0.824   7.799
10986SOL    HW232983   3.160   0.841   7.658
10987SOL     OW32984   3.621   1.747   8.602
10987SOL    HW132985   3.682   1.777   8.529
10987SOL    HW232986   3.583   1.658   8.580
10988SOL     OW32987   3.114   1.731   8.576
10988SOL    HW132988   3.198   1.736   8.522
10988SOL    HW232989   3.091   1.635   8.594
10989SOL     OW32990   1.945   1.258   8.470
10989SOL    HW132991   1.940   1.257   8.570
10989SOL    HW232992   1.862   1.217   8.432
10990SOL     OW32993   2.550   1.662   9.164
10990SOL    HW132994   2.494   1.743   9.173
10990SOL    HW232995   2.602   1.666   9.078
10991SOL     OW32996   3.588   0.135   7.971
10991SOL    HW132997   3.661   0.118   7.904
10991SOL    HW232998   3.557   0.048   8.009
10992SOL     OW32999   3.250   1.573   7.925
10992SOL    HW133000   3.317   1.585   7.851
10992SOL    HW233001   3.210   1.662   7.948
10993SOL     OW33002   1.992   1.794   9.299
10993SOL    HW133003   1.951   1.720   9.352
10993SOL    HW233004   2.056   1.845   9.357
10994SOL     OW33005   3.142   0.927   8.120
10994SOL    HW133006   3.202   0.846   8.122
10994SOL    HW233007   3.182   0.996   8.060
10995SOL     OW33008   2.692   1.273   8.870
10995SOL    HW133009   2.687   1.306   8.965
10995SOL    HW233010   2.606   1.292   8.824
10996SOL     OW33011   2.534   1.616   7.602
10996SOL    HW133012   2.543   1.626   7.503
10996SOL    HW233013   2.494   1.527   7.623
10997SOL     OW33014   3.512   1.720   8.842
10997SOL    HW133015   3.565   1.730   8.758
10997SOL    HW233016   3.485   1.810   8.876
10998SOL     OW33017   3.703   0.175   8.411
10998SOL    HW133018   3.742   0.090   8.375
10998SOL    HW233019   3.605   0.177   8.392
10999SOL     OW33020   2.125   0.326   8.168
10999SOL    HW133021   2.046   0.377   8.134
10999SOL    HW233022   2.116   0.311   8.266
11000SOL     OW33023   3.056   1.612   7.479
11000SOL    HW133024   3.062   1.519   7.516
11000SOL    HW233025   2.997   1.612   7.399
11001SOL     OW33026   2.684   1.002   8.820
11001SOL    HW133027   2.724   1.001   8.728
11001SOL    HW233028   2.694   1.094   8.860
11002SOL     OW33029   2.778   0.910   7.739
11002SOL    HW133030   2.841   0.948   7.671
11002SOL    HW233031   2.818   0.827   7.778
11003SOL     OW33032   3.366   1.607   7.492
11003SOL    HW133033   3.274   1.644   7.499
11003SOL    HW233034   3.404   1.627   7.402
11004SOL     OW33035   2.234   1.288   8.938
11004SOL    HW133036   2.221   1.381   8.904
11004SOL    HW233037   2.150   1.236   8.925
11005SOL     OW33038   3.476   1.292   8.737
11005SOL    HW133039   3.536   1.295   8.817
11005SOL    HW233040   3.401   1.356   8.750
11006SOL     OW33041   2.901   1.098   8.144
11006SOL    HW133042   2.831   1.051   8.198
11006SOL    HW233043   2.960   1.030   8.101
11007SOL     OW33044   2.876   0.236   8.419
11007SOL    HW133045   2.868   0.200   8.326
11007SOL    HW233046   2.874   0.160   8.484
11008SOL     OW33047   2.452   1.487   7.939
11008SOL    HW133048   2.494   1.429   7.869
11008SOL    HW233049   2.408   1.566   7.895
11009SOL     OW33050   3.571   0.385   8.829
11009SOL    HW133051   3.644   0.454   8.833
11009SOL    HW233052   3.599   0.310   8.770
11010SOL     OW33053   2.117   1.348   7.738
11010SOL    HW133054   2.021   1.349   7.711
11010SOL    HW233055   2.129   1.401   7.822
11011SOL     OW33056   1.967   1.013   9.174
11011SOL    HW133057   1.890   0.980   9.228
11011SOL    HW233058   2.052   0.983   9.216
11012SOL     OW33059   2.534   0.203   8.937
11012SOL    HW133060   2.624   0.187   8.897
11012SOL    HW233061   2.542   0.208   9.036
11013SOL     OW33062   1.937   0.345   7.481
11013SOL    HW133063   1.845   0.317   7.452
11013SOL    HW233064   1.968   0.422   7.425
11014SOL     OW33065   3.302   0.856   8.846
11014SOL    HW133066   3.245   0.908   8.783
11014SOL    HW233067   3.398   0.868   8.822
11015SOL     OW33068   1.934   0.166   7.766
11015SOL    HW133069   1.917   0.249   7.712
11015SOL    HW233070   2.024   0.129   7.744
11016SOL     OW33071   3.045   1.335   7.567
11016SOL    HW133072   2.946   1.324   7.569
11016SOL    HW233073   3.079   1.350   7.660
11017SOL     OW33074   2.475   0.842   8.879
11017SOL    HW133075   2.531   0.923   8.862
11017SOL    HW233076   2.534   0.762   8.882
11018SOL     OW33077   3.355   1.767   8.407
11018SOL    HW133078   3.388   1.831   8.338
11018SOL    HW233079   3.421   1.761   8.482
11019SOL     OW33080   2.578   0.565   9.156
11019SOL    HW133081   2.597   0.630   9.230
11019SOL    HW233082   2.638   0.485   9.165
11020SOL     OW33083   3.312   1.220   9.081
11020SOL    HW133084   3.303   1.210   9.180
11020SOL    HW233085   3.408   1.213   9.055
11021SOL     OW33086   2.252   1.741   9.008
11021SOL    HW133087   2.161   1.782   9.006
11021SOL    HW233088   2.245   1.647   9.040
11022SOL     OW33089   3.536   0.883   8.702
11022SOL    HW133090   3.509   0.794   8.665
11022SOL    HW233091   3.537   0.951   8.629
11023SOL     OW33092   3.087   0.325   7.897
11023SOL    HW133093   3.152   0.251   7.886
11023SOL    HW233094   3.107   0.375   7.981
11024SOL     OW33095   2.456   0.745   8.100
11024SOL    HW133096   2.506   0.830   8.081
11024SOL    HW233097   2.368   0.747   8.052
11025SOL     OW33098   3.639   0.342   9.090
11025SOL    HW133099   3.622   0.373   8.996
11025SOL    HW233100   3.555   0.305   9.128
11026SOL     OW33101   3.592   0.934   8.965
11026SOL    HW133102   3.630   1.025   8.980
11026SOL    HW233103   3.584   0.917   8.866
11027SOL     OW33104   2.721   1.374   7.464
11027SOL    HW133105   2.675   1.389   7.552
11027SOL    HW233106   2.765   1.459   7.434
11028SOL     OW33107   2.523   1.790   8.401
11028SOL    HW133108   2.477   1.878   8.388
11028SOL    HW233109   2.622   1.802   8.394
11029SOL     OW33110   2.721   0.956   8.309
11029SOL    HW133111   2.775   0.887   8.357
11029SOL    HW233112   2.689   1.025   8.375
11030SOL     OW33113   2.945   0.984   7.535
11030SOL    HW133114   2.922   1.037   7.453
11030SOL    HW233115   3.026   0.928   7.516
11031SOL     OW33116   3.723   1.569   8.299
11031SOL    HW133117   3.652   1.557   8.229
11031SOL    HW233118   3.724   1.490   8.359
11032SOL     OW33119   2.083   1.314   9.292
11032SOL    HW133120   2.018   1.241   9.271
11032SOL    HW233121   2.087   1.328   9.390
11033SOL     OW33122   1.941   1.240   8.101
11033SOL    HW133123   1.940   1.193   8.189
11033SOL    HW233124   2.023   1.212   8.050
11034SOL     OW33125   2.534   1.391   9.072
11034SOL    HW133126   2.456   1.341   9.110
11034SOL    HW233127   2.531   1.486   9.103
11035SOL     OW33128   3.686   0.192   8.675
11035SOL    HW133129   3.682   0.102   8.719
11035SOL    HW233130   3.689   0.181   8.576
11036SOL     OW33131   2.290   0.424   7.968
11036SOL    HW133132   2.320   0.352   7.906
11036SOL    HW233133   2.251   0.384   8.051
11037SOL     OW33134   3.567   1.487   8.552
11037SOL    HW133135   3.474   1.462   8.525
11037SOL    HW233136   3.593   1.437   8.634
11038SOL     OW33137   2.179   0.547   8.728
11038SOL    HW133138   2.217   0.488   8.800
11038SOL    HW233139   2.219   0.521   8.640
11039SOL     OW33140   2.674   1.586   8.135
11039SOL    HW133141   2.706   1.596   8.041
11039SOL    HW233142   2.595   1.524   8.137
11040SOL     OW33143   3.286   0.214   8.560
11040SOL    HW133144   3.338   0.149   8.615
11040SOL    HW233145   3.237   0.277   8.621
11041SOL     OW33146   2.863   0.034   8.602
11041SOL    HW133147   2.800  -0.038   8.571
11041SOL    HW233148   2.956  -0.002   8.602
11042SOL     OW33149   2.632   1.330   7.749
11042SOL    HW133150   2.586   1.243   7.766
11042SOL    HW233151   2.723   1.327   7.790
11043SOL     OW33152   2.480   1.567   8.732
11043SOL    HW133153   2.475   1.649   8.789
11043SOL    HW233154   2.569   1.564   8.687
11044SOL     OW33155   3.214   0.052   7.616
11044SOL    HW133156   3.249   0.011   7.532
11044SOL    HW233157   3.124   0.014   7.636
11045SOL     OW33158   3.162   0.453   8.139
11045SOL    HW133159   3.103   0.533   8.143
11045SOL    HW233160   3.177   0.418   8.232
11046SOL     OW33161   3.455   0.221   8.330
11046SOL    HW133162   3.371   0.220   8.384
11046SOL    HW233163   3.457   0.304   8.274
11047SOL     OW33164   1.901   1.077   7.748
11047SOL    HW133165   2.000   1.066   7.739
11047SOL    HW233166   1.861   0.991   7.780
11048SOL     OW33167   2.737   1.646   7.785
11048SOL    HW133168   2.660   1.611   7.731
11048SOL    HW233169   2.705   1.717   7.847
11049SOL     OW33170   2.092   0.628   9.423
11049SOL    HW133171   1.999   0.626   9.460
11049SOL    HW233172   2.093   0.589   9.331
11050SOL     OW33173   2.087   0.275  10.306
11050SOL    HW133174   2.122   0.258  10.398
11050SOL    HW233175   1.999   0.230  10.294
11051SOL     OW33176   1.881   0.368   9.957
11051SOL    HW133177   1.799   0.411   9.996
11051SOL    HW233178   1.853   0.295   9.894
11052SOL     OW33179   2.431   1.275  10.475
11052SOL    HW133180   2.338   1.268  10.438
11052SOL    HW233181   2.442   1.364  10.519
11053SOL     OW33182   3.417   1.511  10.013
11053SOL    HW133183   3.360   1.495  10.094
11053SOL    HW233184   3.358   1.521   9.933
11054SOL     OW33185   2.997   0.703  10.027
11054SOL    HW133186   3.054   0.781  10.002
11054SOL    HW233187   2.937   0.729  10.103
11055SOL     OW33188   3.617   0.607   9.541
11055SOL    HW133189   3.605   0.594   9.442
11055SOL    HW233190   3.587   0.526   9.590
11056SOL     OW33191   2.630   1.144  10.333
11056SOL    HW133192   2.552   1.161  10.393
11056SOL    HW233193   2.664   1.231  10.297
11057SOL     OW33194   2.712   0.798  11.133
11057SOL    HW133195   2.708   0.874  11.198
11057SOL    HW233196   2.734   0.834  11.042
11058SOL     OW33197   2.547   1.012   9.975
11058SOL    HW133198   2.616   0.996  10.045
11058SOL    HW233199   2.474   1.069  10.013
11059SOL     OW33200   2.548   1.161  11.113
11059SOL    HW133201   2.608   1.240  11.127
11059SOL    HW233202   2.462   1.192  11.072
11060SOL     OW33203   2.197   1.435  10.371
11060SOL    HW133204   2.119   1.404  10.318
11060SOL    HW233205   2.255   1.493  10.314
11061SOL     OW33206   3.322   1.505  10.649
11061SOL    HW133207   3.346   1.599  10.675
11061SOL    HW233208   3.306   1.451  10.731
11062SOL     OW33209   2.300   0.392  10.809
11062SOL    HW133210   2.382   0.336  10.818
11062SOL    HW233211   2.219   0.334  10.813
11063SOL     OW33212   3.465   0.447  10.047
11063SOL    HW133213   3.391   0.493   9.997
11063SOL    HW233214   3.516   0.515  10.100
11064SOL     OW33215   2.093   1.713   9.793
11064SOL    HW133216   2.127   1.790   9.847
11064SOL    HW233217   2.137   1.713   9.703
11065SOL     OW33218   2.989   1.341  11.000
11065SOL    HW133219   3.036   1.341  11.088
11065SOL    HW233220   2.941   1.254  10.989
11066SOL     OW33221   2.092   1.434   9.848
11066SOL    HW133222   2.066   1.530   9.848
11066SOL    HW233223   2.021   1.380   9.893
11067SOL     OW33224   2.102   1.091  10.196
11067SOL    HW133225   2.116   1.007  10.248
11067SOL    HW233226   2.047   1.155  10.251
11068SOL     OW33227   2.482   1.786  10.749
11068SOL    HW133228   2.390   1.769  10.784
11068SOL    HW233229   2.510   1.878  10.775
11069SOL     OW33230   2.468   0.964   9.433
11069SOL    HW133231   2.475   1.048   9.379
11069SOL    HW233232   2.514   0.977   9.521
11070SOL     OW33233   3.456   0.114  10.790
11070SOL    HW133234   3.438   0.181  10.718
11070SOL    HW233235   3.453   0.160  10.879
11071SOL     OW33236   1.984   0.643   9.873
11071SOL    HW133237   1.939   0.555   9.890
11071SOL    HW233238   1.983   0.697   9.957
11072SOL     OW33239   3.704   1.767   9.669
11072SOL    HW133240   3.758   1.738   9.749
11072SOL    HW233241   3.734   1.857   9.640
11073SOL     OW33242   1.889   1.596   9.427
11073SOL    HW133243   1.870   1.500   9.448
11073SOL    HW233244   1.856   1.654   9.502
11074SOL     OW33245   3.551   0.922   9.922
11074SOL    HW133246   3.646   0.893   9.930
11074SOL    HW233247   3.543   0.987   9.847
11075SOL     OW33248   3.503   1.108   9.742
11075SOL    HW133249   3.589   1.110   9.690
11075SOL    HW233250   3.517   1.155   9.830
11076SOL     OW33251   1.975   0.737  10.907
11076SOL    HW133252   2.063   0.724  10.952
11076SOL    HW233253   1.962   0.834  10.885
11077SOL     OW33254   2.475   1.365  10.036
11077SOL    HW133255   2.426   1.278  10.045
11077SOL    HW233256   2.452   1.408   9.949
11078SOL     OW33257   3.155   1.228  10.733
11078SOL    HW133258   3.192   1.155  10.675
11078SOL    HW233259   3.207   1.233  10.818
11079SOL     OW33260   2.671   0.004   9.812
11079SOL    HW133261   2.711   0.095   9.803
11079SOL    HW233262   2.571   0.012   9.818
11080SOL     OW33263   2.059   0.976  10.574
11080SOL    HW133264   2.148   0.931  10.560
11080SOL    HW233265   1.986   0.911  10.555
11081SOL     OW33266   3.387   0.999   9.500
11081SOL    HW133267   3.324   0.923   9.513
11081SOL    HW233268   3.435   1.017   9.586
11082SOL     OW33269   3.049   1.792  10.926
11082SOL    HW133270   3.073   1.852  10.850
11082SOL    HW233271   3.056   1.697  10.896
11083SOL     OW33272   2.179   0.251  11.111
11083SOL    HW133273   2.250   0.322  11.117
11083SOL    HW233274   2.091   0.290  11.139
11084SOL     OW33275   3.328   1.417  10.263
11084SOL    HW133276   3.269   1.423  10.343
11084SOL    HW233277   3.313   1.329  10.217
11085SOL     OW33278   3.529   1.714   9.882
11085SOL    HW133279   3.488   1.691   9.794
11085SOL    HW233280   3.511   1.640   9.947
11086SOL     OW33281   2.460   0.729   9.580
11086SOL    HW133282   2.484   0.798   9.512
11086SOL    HW233283   2.382   0.762   9.634
11087SOL     OW33284   3.143   0.345  10.254
11087SOL    HW133285   3.057   0.295  10.241
11087SOL    HW233286   3.205   0.291  10.310
11088SOL     OW33287   3.438   1.662   9.617
11088SOL    HW133288   3.527   1.708   9.620
11088SOL    HW233289   3.417   1.638   9.522
11089SOL     OW33290   2.669   0.605  10.775
11089SOL    HW133291   2.622   0.602  10.864
11089SOL    HW233292   2.618   0.550  10.709
11090SOL     OW33293   3.256   0.469  10.984
11090SOL    HW133294   3.236   0.512  11.072
11090SOL    HW233295   3.334   0.407  10.993
11091SOL     OW33296   2.835   0.890  10.882
11091SOL    HW133297   2.881   0.806  10.853
11091SOL    HW233298   2.779   0.924  10.807
11092SOL     OW33299   2.853   0.410  10.552
11092SOL    HW133300   2.776   0.444  10.606
11092SOL    HW233301   2.819   0.359  10.473
11093SOL     OW33302   2.903   0.701   9.739
11093SOL    HW133303   2.929   0.697   9.835
11093SOL    HW233304   2.818   0.650   9.725
11094SOL     OW33305   1.938   0.811  10.099
11094SOL    HW133306   2.037   0.799  10.108
11094SOL    HW233307   1.914   0.906  10.120
11095SOL     OW33308   1.992   1.821  10.881
11095SOL    HW133309   1.982   1.806  10.980
11095SOL    HW233310   1.906   1.857  10.845
11096SOL     OW33311   2.727   0.348   9.505
11096SOL    HW133312   2.786   0.411   9.456
11096SOL    HW233313   2.746   0.254   9.476
11097SOL     OW33314   3.581   0.585  11.141
11097SOL    HW133315   3.555   0.674  11.105
11097SOL    HW233316   3.579   0.517  11.068
11098SOL     OW33317   3.224   1.144   9.855
11098SOL    HW133318   3.307   1.115   9.807
11098SOL    HW233319   3.175   1.211   9.799
11099SOL     OW33320   2.412   0.196  10.195
11099SOL    HW133321   2.407   0.191  10.295
11099SOL    HW233322   2.414   0.292  10.166
11100SOL     OW33323   2.870   1.456   9.787
11100SOL    HW133324   2.824   1.528   9.735
11100SOL    HW233325   2.866   1.476   9.885
11101SOL     OW33326   2.213   1.801  10.163
11101SOL    HW133327   2.263   1.715  10.169
11101SOL    HW233328   2.278   1.878  10.160
11102SOL     OW33329   3.657   1.066  10.183
11102SOL    HW133330   3.595   1.051  10.107
11102SOL    HW233331   3.605   1.077  10.268
11103SOL     OW33332   3.089   1.550  10.816
11103SOL    HW133333   3.095   1.473  10.880
11103SOL    HW233334   3.037   1.524  10.736
11104SOL     OW33335   2.183   0.943   9.552
11104SOL    HW133336   2.265   0.982   9.510
11104SOL    HW233337   2.156   0.861   9.503
11105SOL     OW33338   3.320   0.735  10.038
11105SOL    HW133339   3.315   0.670  10.113
11105SOL    HW233340   3.400   0.794  10.051
11106SOL     OW33341   2.323   1.266  11.037
11106SOL    HW133342   2.273   1.267  10.951
11106SOL    HW233343   2.260   1.248  11.113
11107SOL     OW33344   2.973   1.776   9.547
11107SOL    HW133345   2.913   1.714   9.597
11107SOL    HW233346   3.004   1.732   9.462
11108SOL     OW33347   2.064   0.285  10.808
11108SOL    HW133348   1.984   0.345  10.795
11108SOL    HW233349   2.054   0.236  10.894
11109SOL     OW33350   3.494   1.377   9.391
11109SOL    HW133351   3.462   1.471   9.381
11109SOL    HW233352   3.418   1.314   9.379
11110SOL     OW33353   2.326   1.743   9.633
11110SOL    HW133354   2.359   1.782   9.719
11110SOL    HW233355   2.402   1.736   9.568
11111SOL     OW33356   3.262   0.107   9.736
11111SOL    HW133357   3.238   0.070   9.646
11111SOL    HW233358   3.361   0.123   9.740
11112SOL     OW33359   2.111   1.785  10.551
11112SOL    HW133360   2.168   1.720  10.601
11112SOL    HW233361   2.095   1.752  10.458
11113SOL     OW33362   2.802   1.698  10.214
11113SOL    HW133363   2.882   1.641  10.235
11113SOL    HW233364   2.753   1.658  10.137
11114SOL     OW33365   2.244   0.700   9.790
11114SOL    HW133366   2.289   0.610   9.787
11114SOL    HW233367   2.150   0.689   9.823
11115SOL     OW33368   3.409   0.222  11.039
11115SOL    HW133369   3.404   0.259  11.131
11115SOL    HW233370   3.337   0.153  11.027
11116SOL     OW33371   2.476   0.122   9.427
11116SOL    HW133372   2.574   0.100   9.434
11116SOL    HW233373   2.445   0.105   9.334
11117SOL     OW33374   2.643   0.264  11.059
11117SOL    HW133375   2.710   0.203  11.102
11117SOL    HW233376   2.570   0.283  11.124
11118SOL     OW33377   2.750   1.514  10.505
11118SOL    HW133378   2.727   1.489  10.411
11118SOL    HW233379   2.811   1.445  10.544
11119SOL     OW33380   3.213   0.590  10.743
11119SOL    HW133381   3.241   0.547  10.828
11119SOL    HW233382   3.238   0.686  10.744
11120SOL     OW33383   2.665   1.402  10.234
11120SOL    HW133384   2.755   1.416  10.192
11120SOL    HW233385   2.594   1.404  10.163
11121SOL     OW33386   2.784   0.503  10.209
11121SOL    HW133387   2.759   0.494  10.113
11121SOL    HW233388   2.832   0.421  10.240
11122SOL     OW33389   2.401   0.064   9.822
11122SOL    HW133390   2.320   0.065   9.880
11122SOL    HW233391   2.404   0.147   9.767
11123SOL     OW33392   3.296   1.188   9.351
11123SOL    HW133393   3.328   1.112   9.408
11123SOL    HW233394   3.204   1.215   9.381
11124SOL     OW33395   2.159   0.035   9.481
11124SOL    HW133396   2.208   0.119   9.460
11124SOL    HW233397   2.221  -0.030   9.526
11125SOL     OW33398   2.797   0.236   9.790
11125SOL    HW133399   2.749   0.277   9.712
11125SOL    HW233400   2.896   0.234   9.771
11126SOL     OW33401   2.938   0.683  10.774
11126SOL    HW133402   2.858   0.622  10.777
11126SOL    HW233403   3.019   0.630  10.750
11127SOL     OW33404   3.089   1.570  10.103
11127SOL    HW133405   3.110   1.644  10.038
11127SOL    HW233406   3.157   1.570  10.176
11128SOL     OW33407   2.321   1.152  10.051
11128SOL    HW133408   2.250   1.125  10.116
11128SOL    HW233409   2.295   1.124   9.958
11129SOL     OW33410   3.133   1.797   9.901
11129SOL    HW133411   3.177   1.861   9.837
11129SOL    HW233412   3.083   1.849   9.971
11130SOL     OW33413   2.894   0.549   9.326
11130SOL    HW133414   2.853   0.631   9.287
11130SOL    HW233415   2.958   0.575   9.399
11131SOL     OW33416   1.940   0.556  10.696
11131SOL    HW133417   2.032   0.555  10.655
11131SOL    HW233418   1.934   0.630  10.763
11132SOL     OW33419   2.423   0.222  10.457
11132SOL    HW133420   2.461   0.138  10.494
11132SOL    HW233421   2.335   0.241  10.501
11133SOL     OW33422   2.728   0.454   9.952
11133SOL    HW133423   2.696   0.526   9.890
11133SOL    HW233424   2.752   0.373   9.899
11134SOL     OW33425   2.879   0.039  10.063
11134SOL    HW133426   2.807   0.044   9.994
11134SOL    HW233427   2.855  -0.030  10.132
11135SOL     OW33428   3.291   1.173  10.177
11135SOL    HW133429   3.236   1.089  10.170
11135SOL    HW233430   3.317   1.202  10.085
11136SOL     OW33431   3.328   0.590  10.302
11136SOL    HW133432   3.298   0.495  10.309
11136SOL    HW233433   3.401   0.606  10.368
11137SOL     OW33434   3.719   0.833   9.687
11137SOL    HW133435   3.761   0.769   9.751
11137SOL    HW233436   3.681   0.782   9.609
11138SOL     OW33437   2.350   1.385   9.484
11138SOL    HW133438   2.263   1.370   9.531
11138SOL    HW233439   2.333   1.411   9.389
11139SOL     OW33440   3.526   1.280   9.967
11139SOL    HW133441   3.625   1.288   9.981
11139SOL    HW233442   3.481   1.364   9.998
11140SOL     OW33443   3.252   0.575   9.388
11140SOL    HW133444   3.198   0.554   9.469
11140SOL    HW233445   3.343   0.534   9.397
11141SOL     OW33446   2.389   0.256   9.638
11141SOL    HW133447   2.416   0.197   9.563
11141SOL    HW233448   2.389   0.351   9.607
11142SOL     OW33449   3.616   1.223  10.898
11142SOL    HW133450   3.707   1.184  10.885
11142SOL    HW233451   3.624   1.319  10.922
11143SOL     OW33452   2.926   1.347  10.650
11143SOL    HW133453   2.846   1.324  10.705
11143SOL    HW233454   3.009   1.321  10.699
11144SOL     OW33455   3.454   1.629  10.935
11144SOL    HW133456   3.481   1.663  10.845
11144SOL    HW233457   3.533   1.591  10.981
11145SOL     OW33458   2.973   1.195  10.410
11145SOL    HW133459   2.933   1.239  10.491
11145SOL    HW233460   2.932   1.232  10.327
11146SOL     OW33461   3.500   1.099  10.389
11146SOL    HW133462   3.505   1.180  10.448
11146SOL    HW233463   3.414   1.101  10.338
11147SOL     OW33464   2.777   0.089  10.712
11147SOL    HW133465   2.802   0.069  10.617
11147SOL    HW233466   2.849   0.145  10.754
11148SOL     OW33467   2.842   1.116  11.029
11148SOL    HW133468   2.743   1.122  11.039
11148SOL    HW233469   2.865   1.036  10.973
11149SOL     OW33470   2.567   1.050   9.678
11149SOL    HW133471   2.553   1.057   9.777
11149SOL    HW233472   2.651   0.999   9.660
11150SOL     OW33473   2.272   0.813  10.561
11150SOL    HW133474   2.358   0.825  10.611
11150SOL    HW233475   2.230   0.726  10.588
11151SOL     OW33476   3.136   0.386  10.572
11151SOL    HW133477   3.157   0.460  10.636
11151SOL    HW233478   3.047   0.403  10.529
11152SOL     OW33479   1.926   1.564  10.641
11152SOL    HW133480   1.880   1.646  10.607
11152SOL    HW233481   2.024   1.583  10.650
11153SOL     OW33482   2.229   1.100   9.811
11153SOL    HW133483   2.222   1.183   9.755
11153SOL    HW233484   2.233   1.020   9.751
11154SOL     OW33485   2.428   0.537  10.175
11154SOL    HW133486   2.440   0.603  10.101
11154SOL    HW233487   2.474   0.571  10.258
11155SOL     OW33488   3.114   1.348   9.698
11155SOL    HW133489   3.164   1.425   9.738
11155SOL    HW233490   3.019   1.350   9.730
11156SOL     OW33491   3.134   1.445  10.452
11156SOL    HW133492   3.181   1.458  10.539
11156SOL    HW233493   3.068   1.371  10.461
11157SOL     OW33494   3.444   0.639   9.782
11157SOL    HW133495   3.413   0.700   9.855
11157SOL    HW233496   3.494   0.691   9.713
11158SOL     OW33497   2.216   1.510  10.639
11158SOL    HW133498   2.195   1.466  10.552
11158SOL    HW233499   2.313   1.536  10.642
11159SOL     OW33500   2.264   0.751  10.908
11159SOL    HW133501   2.332   0.806  10.861
11159SOL    HW233502   2.304   0.663  10.935
11160SOL     OW33503   3.449   0.779  10.980
11160SOL    HW133504   3.357   0.817  10.975
11160SOL    HW233505   3.509   0.826  10.915
11161SOL     OW33506   2.875   0.105  11.080
11161SOL    HW133507   2.881   0.190  11.028
11161SOL    HW233508   2.907   0.029  11.023
11162SOL     OW33509   2.366   0.050  11.050
11162SOL    HW133510   2.324  -0.007  10.980
11162SOL    HW233511   2.300   0.119  11.082
11163SOL     OW33512   3.222   0.862  10.355
11163SOL    HW133513   3.147   0.862  10.289
11163SOL    HW233514   3.259   0.770  10.364
11164SOL     OW33515   3.071   0.525   9.585
11164SOL    HW133516   3.084   0.441   9.639
11164SOL    HW233517   3.042   0.599   9.645
11165SOL     OW33518   2.169   0.213  10.541
11165SOL    HW133519   2.146   0.250  10.631
11165SOL    HW233520   2.139   0.118  10.535
11166SOL     OW33521   1.899   1.310  10.592
11166SOL    HW133522   1.952   1.261  10.660
11166SOL    HW233523   1.921   1.408  10.597
11167SOL     OW33524   2.594   0.634  10.374
11167SOL    HW133525   2.653   0.608  10.298
11167SOL    HW233526   2.566   0.730  10.363
11168SOL     OW33527   3.590   0.935  11.164
11168SOL    HW133528   3.544   0.928  11.075
11168SOL    HW233529   3.528   0.979  11.230
11169SOL     OW33530   2.169   0.063   9.928
11169SOL    HW133531   2.158   0.157   9.961
11169SOL    HW233532   2.164   0.000  10.005
11170SOL     OW33533   3.484   0.367   9.684
11170SOL    HW133534   3.486   0.291   9.748
11170SOL    HW233535   3.436   0.444   9.724
11171SOL     OW33536   2.885   0.766  10.276
11171SOL    HW133537   2.900   0.787  10.372
11171SOL    HW233538   2.855   0.671  10.267
11172SOL     OW33539   2.842   1.573  11.010
11172SOL    HW133540   2.822   1.617  10.922
11172SOL    HW233541   2.881   1.482  10.994
11173SOL     OW33542   3.721   1.518  10.915
11173SOL    HW133543   3.735   1.545  10.820
11173SOL    HW233544   3.804   1.540  10.968
11174SOL     OW33545   2.212   0.898  11.114
11174SOL    HW133546   2.288   0.942  11.162
11174SOL    HW233547   2.247   0.851  11.032
11175SOL     OW33548   3.402   0.274   9.435
11175SOL    HW133549   3.341   0.199   9.458
11175SOL    HW233550   3.424   0.326   9.518
11176SOL     OW33551   3.165   0.838   9.352
11176SOL    HW133552   3.199   0.745   9.367
11176SOL    HW233553   3.183   0.865   9.257
11177SOL     OW33554   2.930   1.333  10.159
11177SOL    HW133555   2.937   1.249  10.104
11177SOL    HW233556   2.992   1.402  10.123
11178SOL     OW33557   2.181   0.810  10.259
11178SOL    HW133558   2.274   0.846  10.264
11178SOL    HW233559   2.175   0.725  10.311
11179SOL     OW33560   2.201   0.509  10.316
11179SOL    HW133561   2.149   0.426  10.299
11179SOL    HW233562   2.278   0.514  10.252
11180SOL     OW33563   3.000   0.380  10.988
11180SOL    HW133564   2.955   0.443  11.052
11180SOL    HW233565   3.093   0.411  10.971
11181SOL     OW33566   3.022   0.207  10.787
11181SOL    HW133567   3.022   0.271  10.864
11181SOL    HW233568   3.050   0.255  10.704
11182SOL     OW33569   1.870   1.326   9.510
11182SOL    HW133570   1.777   1.347   9.479
11182SOL    HW233571   1.880   1.227   9.523
11183SOL     OW33572   1.950   1.801  10.237
11183SOL    HW133573   1.908   1.715  10.210
11183SOL    HW233574   2.044   1.804  10.203
11184SOL     OW33575   2.366   1.568  10.220
11184SOL    HW133576   2.432   1.642  10.229
11184SOL    HW233577   2.410   1.489  10.178
11185SOL     OW33578   2.864   0.796  10.548
11185SOL    HW133579   2.905   0.764  10.634
11185SOL    HW233580   2.768   0.769  10.545
11186SOL     OW33581   1.902   0.544  10.424
11186SOL    HW133582   1.987   0.511  10.383
11186SOL    HW233583   1.915   0.559  10.522
11187SOL     OW33584   2.051   0.520  11.032
11187SOL    HW133585   2.110   0.480  10.962
11187SOL    HW233586   1.993   0.591  10.991
11188SOL     OW33587   3.231   0.950  10.970
11188SOL    HW133588   3.270   1.039  10.990
11188SOL    HW233589   3.241   0.930  10.873
11189SOL     OW33590   2.677   0.572   9.635
11189SOL    HW133591   2.684   0.483   9.589
11189SOL    HW233592   2.583   0.606   9.627
11190SOL     OW33593   3.519   0.604  10.516
11190SOL    HW133594   3.481   0.535  10.578
11190SOL    HW233595   3.601   0.568  10.472
11191SOL     OW33596   2.114   1.564  11.054
11191SOL    HW133597   2.084   1.621  11.130
11191SOL    HW233598   2.107   1.467  11.080
11192SOL     OW33599   2.533   0.464  10.579
11192SOL    HW133600   2.499   0.375  10.549
11192SOL    HW233601   2.559   0.518  10.499
11193SOL     OW33602   2.792   1.678  10.775
11193SOL    HW133603   2.768   1.660  10.680
11193SOL    HW233604   2.822   1.772  10.785
11194SOL     OW33605   2.335   0.500   9.501
11194SOL    HW133606   2.396   0.580   9.505
11194SOL    HW233607   2.240   0.531   9.508
11195SOL     OW33608   2.021   1.137  10.776
11195SOL    HW133609   2.043   1.076  10.852
11195SOL    HW233610   2.031   1.088  10.690
11196SOL     OW33611   3.209   1.059  10.544
11196SOL    HW133612   3.233   0.996  10.470
11196SOL    HW233613   3.119   1.099  10.526
11197SOL     OW33614   3.164   0.855   9.619
11197SOL    HW133615   3.078   0.824   9.661
11197SOL    HW233616   3.160   0.841   9.520
11198SOL     OW33617   3.621   1.747  10.464
11198SOL    HW133618   3.682   1.777  10.391
11198SOL    HW233619   3.583   1.658  10.442
11199SOL     OW33620   3.114   1.731  10.438
11199SOL    HW133621   3.198   1.736  10.384
11199SOL    HW233622   3.091   1.635  10.456
11200SOL     OW33623   2.550   1.662  11.026
11200SOL    HW133624   2.494   1.743  11.035
11200SOL    HW233625   2.602   1.666  10.940
11201SOL     OW33626   3.588   0.135   9.833
11201SOL    HW133627   3.661   0.118   9.766
11201SOL    HW233628   3.557   0.048   9.871
11202SOL     OW33629   3.250   1.573   9.787
11202SOL    HW133630   3.317   1.585   9.713
11202SOL    HW233631   3.210   1.662   9.810
11203SOL     OW33632   1.992   1.794  11.161
11203SOL    HW133633   1.951   1.720  11.214
11203SOL    HW233634   2.056   1.845  11.219
11204SOL     OW33635   3.142   0.927   9.982
11204SOL    HW133636   3.202   0.846   9.984
11204SOL    HW233637   3.182   0.996   9.922
11205SOL     OW33638   2.692   1.273  10.732
11205SOL    HW133639   2.687   1.306  10.827
11205SOL    HW233640   2.606   1.292  10.686
11206SOL     OW33641   2.534   1.616   9.464
11206SOL    HW133642   2.543   1.626   9.365
11206SOL    HW233643   2.494   1.527   9.485
11207SOL     OW33644   3.512   1.720  10.704
11207SOL    HW133645   3.565   1.730  10.620
11207SOL    HW233646   3.485   1.810  10.738
11208SOL     OW33647   3.703   0.175  10.273
11208SOL    HW133648   3.742   0.090  10.237
11208SOL    HW233649   3.605   0.177  10.254
11209SOL     OW33650   2.125   0.326  10.030
11209SOL    HW133651   2.046   0.377   9.996
11209SOL    HW233652   2.116   0.311  10.128
11210SOL     OW33653   3.056   1.612   9.341
11210SOL    HW133654   3.062   1.519   9.378
11210SOL    HW233655   2.997   1.612   9.261
11211SOL     OW33656   2.684   1.002  10.682
11211SOL    HW133657   2.724   1.001  10.590
11211SOL    HW233658   2.694   1.094  10.722
11212SOL     OW33659   2.778   0.910   9.601
11212SOL    HW133660   2.841   0.948   9.533
11212SOL    HW233661   2.818   0.827   9.640
11213SOL     OW33662   3.366   1.607   9.354
11213SOL    HW133663   3.274   1.644   9.361
11213SOL    HW233664   3.404   1.627   9.264
11214SOL     OW33665   2.234   1.288  10.800
11214SOL    HW133666   2.221   1.381  10.766
11214SOL    HW233667   2.150   1.236  10.787
11215SOL     OW33668   3.476   1.292  10.599
11215SOL    HW133669   3.536   1.295  10.679
11215SOL    HW233670   3.401   1.356  10.612
11216SOL     OW33671   2.901   1.098  10.006
11216SOL    HW133672   2.831   1.051  10.060
11216SOL    HW233673   2.960   1.030   9.963
11217SOL     OW33674   2.876   0.236  10.281
11217SOL    HW133675   2.868   0.200  10.188
11217SOL    HW233676   2.874   0.160  10.346
11218SOL     OW33677   2.452   1.487   9.801
11218SOL    HW133678   2.494   1.429   9.731
11218SOL    HW233679   2.408   1.566   9.757
11219SOL     OW33680   3.571   0.385  10.691
11219SOL    HW133681   3.644   0.454  10.695
11219SOL    HW233682   3.599   0.310  10.632
11220SOL     OW33683   2.117   1.348   9.600
11220SOL    HW133684   2.021   1.349   9.573
11220SOL    HW233685   2.129   1.401   9.684
11221SOL     OW33686   1.967   1.013  11.036
11221SOL    HW133687   1.890   0.980  11.090
11221SOL    HW233688   2.052   0.983  11.078
11222SOL     OW33689   2.534   0.203  10.799
11222SOL    HW133690   2.624   0.187  10.759
11222SOL    HW233691   2.542   0.208  10.898
11223SOL     OW33692   1.937   0.345   9.343
11223SOL    HW133693   1.845   0.317   9.314
11223SOL    HW233694   1.968   0.422   9.287
11224SOL     OW33695   3.302   0.856  10.708
11224SOL    HW133696   3.245   0.908  10.645
11224SOL    HW233697   3.398   0.868  10.684
11225SOL     OW33698   1.934   0.166   9.628
11225SOL    HW133699   1.917   0.249   9.574
11225SOL    HW233700   2.024   0.129   9.606
11226SOL     OW33701   3.045   1.335   9.429
11226SOL    HW133702   2.946   1.324   9.431
11226SOL    HW233703   3.079   1.350   9.522
11227SOL     OW33704   2.475   0.842  10.741
11227SOL    HW133705   2.531   0.923  10.724
11227SOL    HW233706   2.534   0.762  10.744
11228SOL     OW33707   3.355   1.767  10.269
11228SOL    HW133708   3.388   1.831  10.200
11228SOL    HW233709   3.421   1.761  10.344
11229SOL     OW33710   2.578   0.565  11.018
11229SOL    HW133711   2.597   0.630  11.092
11229SOL    HW233712   2.638   0.485  11.027
11230SOL     OW33713   3.312   1.220  10.943
11230SOL    HW133714   3.303   1.210  11.042
11230SOL    HW233715   3.408   1.213  10.917
11231SOL     OW33716   2.252   1.741  10.870
11231SOL    HW133717   2.161   1.782  10.868
11231SOL    HW233718   2.245   1.647  10.902
11232SOL     OW33719   3.536   0.883  10.564
11232SOL    HW133720   3.509   0.794  10.527
11232SOL    HW233721   3.537   0.951  10.491
11233SOL     OW33722   3.087   0.325   9.759
11233SOL    HW133723   3.152   0.251   9.748
11233SOL    HW233724   3.107   0.375   9.843
11234SOL     OW33725   2.456   0.745   9.962
11234SOL    HW133726   2.506   0.830   9.943
11234SOL    HW233727   2.368   0.747   9.914
11235SOL     OW33728   3.639   0.342  10.952
11235SOL    HW133729   3.622   0.373  10.858
11235SOL    HW233730   3.555   0.305  10.990
11236SOL     OW33731   3.592   0.934  10.827
11236SOL    HW133732   3.630   1.025  10.842
11236SOL    HW233733   3.584   0.917  10.728
11237SOL     OW33734   2.721   1.374   9.326
11237SOL    HW133735   2.675   1.389   9.414
11237SOL    HW233736   2.765   1.459   9.296
11238SOL     OW33737   2.523   1.790  10.263
11238SOL    HW133738   2.477   1.878  10.250
11238SOL    HW233739   2.622   1.802  10.256
11239SOL     OW33740   2.721   0.956  10.171
11239SOL    HW133741   2.775   0.887  10.219
11239SOL    HW233742   2.689   1.025  10.237
11240SOL     OW33743   2.945   0.984   9.397
11240SOL    HW133744   2.922   1.037   9.315
11240SOL    HW233745   3.026   0.928   9.378
11241SOL     OW33746   3.723   1.569  10.161
11241SOL    HW133747   3.652   1.557  10.091
11241SOL    HW233748   3.724   1.490  10.221
11242SOL     OW33749   2.083   1.314  11.154
11242SOL    HW133750   2.018   1.241  11.133
11242SOL    HW233751   2.087   1.328  11.252
11243SOL     OW33752   1.941   1.240   9.963
11243SOL    HW133753   1.940   1.193  10.051
11243SOL    HW233754   2.023   1.212   9.912
11244SOL     OW33755   2.534   1.391  10.934
11244SOL    HW133756   2.456   1.341  10.972
11244SOL    HW233757   2.531   1.486  10.965
11245SOL     OW33758   3.686   0.192  10.537
11245SOL    HW133759   3.682   0.102  10.581
11245SOL    HW233760   3.689   0.181  10.438
11246SOL     OW33761   2.290   0.424   9.830
11246SOL    HW133762   2.320   0.352   9.768
11246SOL    HW233763   2.251   0.384   9.913
11247SOL     OW33764   3.567   1.487  10.414
11247SOL    HW133765   3.474   1.462  10.387
11247SOL    HW233766   3.593   1.437  10.496
11248SOL     OW33767   2.179   0.547  10.590
11248SOL    HW133768   2.217   0.488  10.662
11248SOL    HW233769   2.219   0.521  10.502
11249SOL     OW33770   2.674   1.586   9.997
11249SOL    HW133771   2.706   1.596   9.903
11249SOL    HW233772   2.595   1.524   9.999
11250SOL     OW33773   3.286   0.214  10.422
11250SOL    HW133774   3.338   0.149  10.477
11250SOL    HW233775   3.237   0.277  10.483
11251SOL     OW33776   2.863   0.034  10.464
11251SOL    HW133777   2.800  -0.038  10.433
11251SOL    HW233778   2.956  -0.002  10.464
11252SOL     OW33779   2.632   1.330   9.611
11252SOL    HW133780   2.586   1.243   9.628
11252SOL    HW233781   2.723   1.327   9.652
11253SOL     OW33782   2.480   1.567  10.594
11253SOL    HW133783   2.475   1.649  10.651
11253SOL    HW233784   2.569   1.564  10.549
11254SOL     OW33785   3.214   0.052   9.478
11254SOL    HW133786   3.249   0.011   9.394
11254SOL    HW233787   3.124   0.014   9.498
11255SOL     OW33788   3.162   0.453  10.001
11255SOL    HW133789   3.103   0.533  10.005
11255SOL    HW233790   3.177   0.418  10.094
11256SOL     OW33791   3.455   0.221  10.192
11256SOL    HW133792   3.371   0.220  10.246
11256SOL    HW233793   3.457   0.304  10.136
11257SOL     OW33794   1.901   1.077   9.610
11257SOL    HW133795   2.000   1.066   9.601
11257SOL    HW233796   1.861   0.991   9.642
11258SOL     OW33797   2.737   1.646   9.647
11258SOL    HW133798   2.660   1.611   9.593
11258SOL    HW233799   2.705   1.717   9.709
11259SOL     OW33800   2.092   0.628  11.285
11259SOL    HW133801   1.999   0.626  11.322
11259SOL    HW233802   2.093   0.589  11.193
11260SOL     OW33803   2.087   0.275  12.168
11260SOL    HW133804   2.122   0.258  12.260
11260SOL    HW233805   1.999   0.230  12.156
11261SOL     OW33806   1.881   0.368  11.819
11261SOL    HW133807   1.799   0.411  11.858
11261SOL    HW233808   1.853   0.295  11.756
11262SOL     OW33809   2.431   1.275  12.337
11262SOL    HW133810   2.338   1.268  12.300
11262SOL    HW233811   2.442   1.364  12.381
11263SOL     OW33812   3.417   1.511  11.875
11263SOL    HW133813   3.360   1.495  11.956
11263SOL    HW233814   3.358   1.521  11.795
11264SOL     OW33815   2.997   0.703  11.889
11264SOL    HW133816   3.054   0.781  11.864
11264SOL    HW233817   2.937   0.729  11.965
11265SOL     OW33818   3.617   0.607  11.403
11265SOL    HW133819   3.605   0.594  11.304
11265SOL    HW233820   3.587   0.526  11.452
11266SOL     OW33821   2.630   1.144  12.195
11266SOL    HW133822   2.552   1.161  12.255
11266SOL    HW233823   2.664   1.231  12.159
11267SOL     OW33824   2.547   1.012  11.837
11267SOL    HW133825   2.616   0.996  11.907
11267SOL    HW233826   2.474   1.069  11.875
11268SOL     OW33827   2.197   1.435  12.233
11268SOL    HW133828   2.119   1.404  12.180
11268SOL    HW233829   2.255   1.493  12.176
11269SOL     OW33830   3.322   1.505  12.511
11269SOL    HW133831   3.346   1.599  12.537
11269SOL    HW233832   3.306   1.451  12.593
11270SOL     OW33833   2.300   0.392  12.671
11270SOL    HW133834   2.382   0.336  12.680
11270SOL    HW233835   2.219   0.334  12.675
11271SOL     OW33836   3.465   0.447  11.909
11271SOL    HW133837   3.391   0.493  11.859
11271SOL    HW233838   3.516   0.515  11.962
11272SOL     OW33839   2.093   1.713  11.655
11272SOL    HW133840   2.127   1.790  11.709
11272SOL    HW233841   2.137   1.713  11.565
11273SOL     OW33842   2.092   1.434  11.710
11273SOL    HW133843   2.066   1.530  11.710
11273SOL    HW233844   2.021   1.380  11.755
11274SOL     OW33845   2.102   1.091  12.058
11274SOL    HW133846   2.116   1.007  12.110
11274SOL    HW233847   2.047   1.155  12.113
11275SOL     OW33848   2.482   1.786  12.611
11275SOL    HW133849   2.390   1.769  12.646
11275SOL    HW233850   2.510   1.878  12.637
11276SOL     OW33851   2.468   0.964  11.295
11276SOL    HW133852   2.475   1.048  11.241
11276SOL    HW233853   2.514   0.977  11.383
11277SOL     OW33854   3.456   0.114  12.652
11277SOL    HW133855   3.438   0.181  12.580
11277SOL    HW233856   3.453   0.160  12.741
11278SOL     OW33857   1.984   0.643  11.735
11278SOL    HW133858   1.939   0.555  11.752
11278SOL    HW233859   1.983   0.697  11.819
11279SOL     OW33860   3.704   1.767  11.531
11279SOL    HW133861   3.758   1.738  11.611
11279SOL    HW233862   3.734   1.857  11.502
11280SOL     OW33863   1.889   1.596  11.289
11280SOL    HW133864   1.870   1.500  11.310
11280SOL    HW233865   1.856   1.654  11.364
11281SOL     OW33866   3.551   0.922  11.784
11281SOL    HW133867   3.646   0.893  11.792
11281SOL    HW233868   3.543   0.987  11.709
11282SOL     OW33869   3.503   1.108  11.604
11282SOL    HW133870   3.589   1.110  11.552
11282SOL    HW233871   3.517   1.155  11.692
11283SOL     OW33872   1.975   0.737  12.769
11283SOL    HW133873   2.063   0.724  12.814
11283SOL    HW233874   1.962   0.834  12.747
11284SOL     OW33875   2.475   1.365  11.898
11284SOL    HW133876   2.426   1.278  11.907
11284SOL    HW233877   2.452   1.408  11.811
11285SOL     OW33878   3.155   1.228  12.595
11285SOL    HW133879   3.192   1.155  12.537
11285SOL    HW233880   3.207   1.233  12.680
11286SOL     OW33881   2.671   0.004  11.674
11286SOL    HW133882   2.711   0.095  11.665
11286SOL    HW233883   2.571   0.012  11.680
11287SOL     OW33884   2.059   0.976  12.436
11287SOL    HW133885   2.148   0.931  12.422
11287SOL    HW233886   1.986   0.911  12.417
11288SOL     OW33887   3.387   0.999  11.362
11288SOL    HW133888   3.324   0.923  11.375
11288SOL    HW233889   3.435   1.017  11.448
11289SOL     OW33890   3.328   1.417  12.125
11289SOL    HW133891   3.269   1.423  12.205
11289SOL    HW233892   3.313   1.329  12.079
11290SOL     OW33893   3.529   1.714  11.744
11290SOL    HW133894   3.488   1.691  11.656
11290SOL    HW233895   3.511   1.640  11.809
11291SOL     OW33896   2.460   0.729  11.442
11291SOL    HW133897   2.484   0.798  11.374
11291SOL    HW233898   2.382   0.762  11.496
11292SOL     OW33899   3.143   0.345  12.116
11292SOL    HW133900   3.057   0.295  12.103
11292SOL    HW233901   3.205   0.291  12.172
11293SOL     OW33902   3.438   1.662  11.479
11293SOL    HW133903   3.527   1.708  11.482
11293SOL    HW233904   3.417   1.638  11.384
11294SOL     OW33905   2.669   0.605  12.637
11294SOL    HW133906   2.622   0.602  12.726
11294SOL    HW233907   2.618   0.550  12.571
11295SOL     OW33908   2.835   0.890  12.744
11295SOL    HW133909   2.881   0.806  12.715
11295SOL    HW233910   2.779   0.924  12.669
11296SOL     OW33911   2.853   0.410  12.414
11296SOL    HW133912   2.776   0.444  12.468
11296SOL    HW233913   2.819   0.359  12.335
11297SOL     OW33914   2.903   0.701  11.601
11297SOL    HW133915   2.929   0.697  11.697
11297SOL    HW233916   2.818   0.650  11.587
11298SOL     OW33917   1.938   0.811  11.961
11298SOL    HW133918   2.037   0.799  11.970
11298SOL    HW233919   1.914   0.906  11.982
11299SOL     OW33920   1.992   1.821  12.743
11299SOL    HW133921   1.982   1.806  12.842
11299SOL    HW233922   1.906   1.857  12.707
11300SOL     OW33923   2.727   0.348  11.367
11300SOL    HW133924   2.786   0.411  11.318
11300SOL    HW233925   2.746   0.254  11.338
11301SOL     OW33926   3.224   1.144  11.717
11301SOL    HW133927   3.307   1.115  11.669
11301SOL    HW233928   3.175   1.211  11.661
11302SOL     OW33929   2.412   0.196  12.057
11302SOL    HW133930   2.407   0.191  12.157
11302SOL    HW233931   2.414   0.292  12.028
11303SOL     OW33932   2.870   1.456  11.649
11303SOL    HW133933   2.824   1.528  11.597
11303SOL    HW233934   2.866   1.476  11.747
11304SOL     OW33935   2.213   1.801  12.025
11304SOL    HW133936   2.263   1.715  12.031
11304SOL    HW233937   2.278   1.878  12.022
11305SOL     OW33938   3.657   1.066  12.045
11305SOL    HW133939   3.595   1.051  11.969
11305SOL    HW233940   3.605   1.077  12.130
11306SOL     OW33941   3.089   1.550  12.678
11306SOL    HW133942   3.095   1.473  12.742
11306SOL    HW233943   3.037   1.524  12.598
11307SOL     OW33944   2.183   0.943  11.414
11307SOL    HW133945   2.265   0.982  11.372
11307SOL    HW233946   2.156   0.861  11.365
11308SOL     OW33947   3.320   0.735  11.900
11308SOL    HW133948   3.315   0.670  11.975
11308SOL    HW233949   3.400   0.794  11.913
11309SOL     OW33950   2.973   1.776  11.409
11309SOL    HW133951   2.913   1.714  11.459
11309SOL    HW233952   3.004   1.732  11.324
11310SOL     OW33953   2.064   0.285  12.670
11310SOL    HW133954   1.984   0.345  12.657
11310SOL    HW233955   2.054   0.236  12.756
11311SOL     OW33956   3.494   1.377  11.253
11311SOL    HW133957   3.462   1.471  11.243
11311SOL    HW233958   3.418   1.314  11.241
11312SOL     OW33959   2.326   1.743  11.495
11312SOL    HW133960   2.359   1.782  11.581
11312SOL    HW233961   2.402   1.736  11.430
11313SOL     OW33962   3.262   0.107  11.598
11313SOL    HW133963   3.238   0.070  11.508
11313SOL    HW233964   3.361   0.123  11.602
11314SOL     OW33965   2.111   1.785  12.413
11314SOL    HW133966   2.168   1.720  12.463
11314SOL    HW233967   2.095   1.752  12.320
11315SOL     OW33968   2.802   1.698  12.076
11315SOL    HW133969   2.882   1.641  12.097
11315SOL    HW233970   2.753   1.658  11.999
11316SOL     OW33971   2.244   0.700  11.652
11316SOL    HW133972   2.289   0.610  11.649
11316SOL    HW233973   2.150   0.689  11.685
11317SOL     OW33974   2.476   0.122  11.289
11317SOL    HW133975   2.574   0.100  11.296
11317SOL    HW233976   2.445   0.105  11.196
11318SOL     OW33977   2.750   1.514  12.367
11318SOL    HW133978   2.727   1.489  12.273
11318SOL    HW233979   2.811   1.445  12.406
11319SOL     OW33980   3.213   0.590  12.605
11319SOL    HW133981   3.241   0.547  12.690
11319SOL    HW233982   3.238   0.686  12.606
11320SOL     OW33983   2.665   1.402  12.096
11320SOL    HW133984   2.755   1.416  12.054
11320SOL    HW233985   2.594   1.404  12.025
11321SOL     OW33986   2.784   0.503  12.071
11321SOL    HW133987   2.759   0.494  11.975
11321SOL    HW233988   2.832   0.421  12.102
11322SOL     OW33989   2.401   0.064  11.684
11322SOL    HW133990   2.320   0.065  11.742
11322SOL    HW233991   2.404   0.147  11.629
11323SOL     OW33992   3.296   1.188  11.213
11323SOL    HW133993   3.328   1.112  11.270
11323SOL    HW233994   3.204   1.215  11.243
11324SOL     OW33995   2.159   0.035  11.343
11324SOL    HW133996   2.208   0.119  11.322
11324SOL    HW233997   2.221  -0.030  11.388
11325SOL     OW33998   2.797   0.236  11.652
11325SOL    HW133999   2.749   0.277  11.574
11325SOL    HW234000   2.896   0.234  11.633
11326SOL     OW34001   2.938   0.683  12.636
11326SOL    HW134002   2.858   0.622  12.639
11326SOL    HW234003   3.019   0.630  12.612
11327SOL     OW34004   3.089   1.570  11.965
11327SOL    HW134005   3.110   1.644  11.900
11327SOL    HW234006   3.157   1.570  12.038
11328SOL     OW34007   2.321   1.152  11.913
11328SOL    HW134008   2.250   1.125  11.978
11328SOL    HW234009   2.295   1.124  11.820
11329SOL     OW34010   3.133   1.797  11.763
11329SOL    HW134011   3.177   1.861  11.699
11329SOL    HW234012   3.083   1.849  11.833
11330SOL     OW34013   2.894   0.549  11.188
11330SOL    HW134014   2.853   0.631  11.149
11330SOL    HW234015   2.958   0.575  11.261
11331SOL     OW34016   1.940   0.556  12.558
11331SOL    HW134017   2.032   0.555  12.517
11331SOL    HW234018   1.934   0.630  12.625
11332SOL     OW34019   2.423   0.222  12.319
11332SOL    HW134020   2.461   0.138  12.356
11332SOL    HW234021   2.335   0.241  12.363
11333SOL     OW34022   2.728   0.454  11.814
11333SOL    HW134023   2.696   0.526  11.752
11333SOL    HW234024   2.752   0.373  11.761
11334SOL     OW34025   2.879   0.039  11.925
11334SOL    HW134026   2.807   0.044  11.856
11334SOL    HW234027   2.855  -0.030  11.994
11335SOL     OW34028   3.291   1.173  12.039
11335SOL    HW134029   3.236   1.089  12.032
11335SOL    HW234030   3.317   1.202  11.947
11336SOL     OW34031   3.328   0.590  12.164
11336SOL    HW134032   3.298   0.495  12.171
11336SOL    HW234033   3.401   0.606  12.230
11337SOL     OW34034   3.719   0.833  11.549
11337SOL    HW134035   3.761   0.769  11.613
11337SOL    HW234036   3.681   0.782  11.471
11338SOL     OW34037   2.350   1.385  11.346
11338SOL    HW134038   2.263   1.370  11.393
11338SOL    HW234039   2.333   1.411  11.251
11339SOL     OW34040   3.526   1.280  11.829
11339SOL    HW134041   3.625   1.288  11.843
11339SOL    HW234042   3.481   1.364  11.860
11340SOL     OW34043   3.252   0.575  11.250
11340SOL    HW134044   3.198   0.554  11.331
11340SOL    HW234045   3.343   0.534  11.259
11341SOL     OW34046   2.389   0.256  11.500
11341SOL    HW134047   2.416   0.197  11.425
11341SOL    HW234048   2.389   0.351  11.469
11342SOL     OW34049   3.616   1.223  12.760
11342SOL    HW134050   3.707   1.184  12.747
11342SOL    HW234051   3.624   1.319  12.784
11343SOL     OW34052   2.926   1.347  12.512
11343SOL    HW134053   2.846   1.324  12.567
11343SOL    HW234054   3.009   1.321  12.561
11344SOL     OW34055   2.973   1.195  12.272
11344SOL    HW134056   2.933   1.239  12.353
11344SOL    HW234057   2.932   1.232  12.189
11345SOL     OW34058   3.500   1.099  12.251
11345SOL    HW134059   3.505   1.180  12.310
11345SOL    HW234060   3.414   1.101  12.200
11346SOL     OW34061   2.777   0.089  12.574
11346SOL    HW134062   2.802   0.069  12.479
11346SOL    HW234063   2.849   0.145  12.616
11347SOL     OW34064   2.567   1.050  11.540
11347SOL    HW134065   2.553   1.057  11.639
11347SOL    HW234066   2.651   0.999  11.522
11348SOL     OW34067   2.272   0.813  12.423
11348SOL    HW134068   2.358   0.825  12.473
11348SOL    HW234069   2.230   0.726  12.450
11349SOL     OW34070   3.136   0.386  12.434
11349SOL    HW134071   3.157   0.460  12.498
11349SOL    HW234072   3.047   0.403  12.391
11350SOL     OW34073   1.926   1.564  12.503
11350SOL    HW134074   1.880   1.646  12.469
11350SOL    HW234075   2.024   1.583  12.512
11351SOL     OW34076   2.229   1.100  11.673
11351SOL    HW134077   2.222   1.183  11.617
11351SOL    HW234078   2.233   1.020  11.613
11352SOL     OW34079   2.428   0.537  12.037
11352SOL    HW134080   2.440   0.603  11.963
11352SOL    HW234081   2.474   0.571  12.120
11353SOL     OW34082   3.114   1.348  11.560
11353SOL    HW134083   3.164   1.425  11.600
11353SOL    HW234084   3.019   1.350  11.592
11354SOL     OW34085   3.134   1.445  12.314
11354SOL    HW134086   3.181   1.458  12.401
11354SOL    HW234087   3.068   1.371  12.323
11355SOL     OW34088   3.444   0.639  11.644
11355SOL    HW134089   3.413   0.700  11.717
11355SOL    HW234090   3.494   0.691  11.575
11356SOL     OW34091   2.216   1.510  12.501
11356SOL    HW134092   2.195   1.466  12.414
11356SOL    HW234093   2.313   1.536  12.504
11357SOL     OW34094   2.264   0.751  12.770
11357SOL    HW134095   2.332   0.806  12.723
11357SOL    HW234096   2.304   0.663  12.797
11358SOL     OW34097   3.449   0.779  12.842
11358SOL    HW134098   3.357   0.817  12.837
11358SOL    HW234099   3.509   0.826  12.777
11359SOL     OW34100   2.435   0.870  12.201
11359SOL    HW134101   2.479   0.959  12.192
11359SOL    HW234102   2.372   0.870  12.278
11360SOL     OW34103   3.222   0.862  12.217
11360SOL    HW134104   3.147   0.862  12.151
11360SOL    HW234105   3.259   0.770  12.226
11361SOL     OW34106   3.071   0.525  11.447
11361SOL    HW134107   3.084   0.441  11.501
11361SOL    HW234108   3.042   0.599  11.507
11362SOL     OW34109   2.169   0.213  12.403
11362SOL    HW134110   2.146   0.250  12.493
11362SOL    HW234111   2.139   0.118  12.397
11363SOL     OW34112   1.899   1.310  12.454
11363SOL    HW134113   1.952   1.261  12.522
11363SOL    HW234114   1.921   1.408  12.459
11364SOL     OW34115   2.594   0.634  12.236
11364SOL    HW134116   2.653   0.608  12.160
11364SOL    HW234117   2.566   0.730  12.225
11365SOL     OW34118   2.169   0.063  11.790
11365SOL    HW134119   2.158   0.157  11.823
11365SOL    HW234120   2.164   0.000  11.867
11366SOL     OW34121   3.484   0.367  11.546
11366SOL    HW134122   3.486   0.291  11.610
11366SOL    HW234123   3.436   0.444  11.586
11367SOL     OW34124   2.885   0.766  12.138
11367SOL    HW134125   2.900   0.787  12.234
11367SOL    HW234126   2.855   0.671  12.129
11368SOL     OW34127   3.402   0.274  11.297
11368SOL    HW134128   3.341   0.199  11.320
11368SOL    HW234129   3.424   0.326  11.380
11369SOL     OW34130   3.165   0.838  11.214
11369SOL    HW134131   3.199   0.745  11.229
11369SOL    HW234132   3.183   0.865  11.119
11370SOL     OW34133   2.930   1.333  12.021
11370SOL    HW134134   2.937   1.249  11.966
11370SOL    HW234135   2.992   1.402  11.985
11371SOL     OW34136   2.181   0.810  12.121
11371SOL    HW134137   2.274   0.846  12.126
11371SOL    HW234138   2.175   0.725  12.173
11372SOL     OW34139   2.201   0.509  12.178
11372SOL    HW134140   2.149   0.426  12.161
11372SOL    HW234141   2.278   0.514  12.114
11373SOL     OW34142   3.022   0.207  12.649
11373SOL    HW134143   3.022   0.271  12.726
11373SOL    HW234144   3.050   0.255  12.566
11374SOL     OW34145   1.870   1.326  11.372
11374SOL    HW134146   1.777   1.347  11.341
11374SOL    HW234147   1.880   1.227  11.385
11375SOL     OW34148   1.950   1.801  12.099
11375SOL    HW134149   1.908   1.715  12.072
11375SOL    HW234150   2.044   1.804  12.065
11376SOL     OW34151   2.366   1.568  12.082
11376SOL    HW134152   2.432   1.642  12.091
11376SOL    HW234153   2.410   1.489  12.040
11377SOL     OW34154   2.864   0.796  12.410
11377SOL    HW134155   2.905   0.764  12.496
11377SOL    HW234156   2.768   0.769  12.407
11378SOL     OW34157   1.902   0.544  12.286
11378SOL    HW134158   1.987   0.511  12.245
11378SOL    HW234159   1.915   0.559  12.384
11379SOL     OW34160   2.677   0.572  11.497
11379SOL    HW134161   2.684   0.483  11.451
11379SOL    HW234162   2.583   0.606  11.489
11380SOL     OW34163   3.519   0.604  12.378
11380SOL    HW134164   3.481   0.535  12.440
11380SOL    HW234165   3.601   0.568  12.334
11381SOL     OW34166   2.114   1.564  12.916
11381SOL    HW134167   2.084   1.621  12.992
11381SOL    HW234168   2.107   1.467  12.942
11382SOL     OW34169   2.533   0.464  12.441
11382SOL    HW134170   2.499   0.375  12.411
11382SOL    HW234171   2.559   0.518  12.361
11383SOL     OW34172   2.792   1.678  12.637
11383SOL    HW134173   2.768   1.660  12.542
11383SOL    HW234174   2.822   1.772  12.647
11384SOL     OW34175   2.335   0.500  11.363
11384SOL    HW134176   2.396   0.580  11.367
11384SOL    HW234177   2.240   0.531  11.370
11385SOL     OW34178   2.021   1.137  12.638
11385SOL    HW134179   2.043   1.076  12.714
11385SOL    HW234180   2.031   1.088  12.552
11386SOL     OW34181   3.209   1.059  12.406
11386SOL    HW134182   3.233   0.996  12.332
11386SOL    HW234183   3.119   1.099  12.388
11387SOL     OW34184   3.164   0.855  11.481
11387SOL    HW134185   3.078   0.824  11.523
11387SOL    HW234186   3.160   0.841  11.382
11388SOL     OW34187   3.621   1.747  12.326
11388SOL    HW134188   3.682   1.777  12.253
11388SOL    HW234189   3.583   1.658  12.304
11389SOL     OW34190   3.114   1.731  12.300
11389SOL    HW134191   3.198   1.736  12.246
11389SOL    HW234192   3.091   1.635  12.318
11390SOL     OW34193   1.945   1.258  12.194
11390SOL    HW134194   1.940   1.257  12.294
11390SOL    HW234195   1.862   1.217  12.156
11391SOL     OW34196   3.588   0.135  11.695
11391SOL    HW134197   3.661   0.118  11.628
11391SOL    HW234198   3.557   0.048  11.733
11392SOL     OW34199   3.250   1.573  11.649
11392SOL    HW134200   3.317   1.585  11.575
11392SOL    HW234201   3.210   1.662  11.672
11393SOL     OW34202   3.142   0.927  11.844
11393SOL    HW134203   3.202   0.846  11.846
11393SOL    HW234204   3.182   0.996  11.784
11394SOL     OW34205   2.692   1.273  12.594
11394SOL    HW134206   2.687   1.306  12.689
11394SOL    HW234207   2.606   1.292  12.548
11395SOL     OW34208   2.534   1.616  11.326
11395SOL    HW134209   2.543   1.626  11.227
11395SOL    HW234210   2.494   1.527  11.347
11396SOL     OW34211   3.512   1.720  12.566
11396SOL    HW134212   3.565   1.730  12.482
11396SOL    HW234213   3.485   1.810  12.600
11397SOL     OW34214   3.703   0.175  12.135
11397SOL    HW134215   3.742   0.090  12.099
11397SOL    HW234216   3.605   0.177  12.116
11398SOL     OW34217   2.125   0.326  11.892
11398SOL    HW134218   2.046   0.377  11.858
11398SOL    HW234219   2.116   0.311  11.990
11399SOL     OW34220   3.056   1.612  11.203
11399SOL    HW134221   3.062   1.519  11.240
11399SOL    HW234222   2.997   1.612  11.123
11400SOL     OW34223   2.778   0.910  11.463
11400SOL    HW134224   2.841   0.948  11.395
11400SOL    HW234225   2.818   0.827  11.502
11401SOL     OW34226   3.366   1.607  11.216
11401SOL    HW134227   3.274   1.644  11.223
11401SOL    HW234228   3.404   1.627  11.126
11402SOL     OW34229   2.234   1.288  12.662
11402SOL    HW134230   2.221   1.381  12.628
11402SOL    HW234231   2.150   1.236  12.649
11403SOL     OW34232   3.476   1.292  12.461
11403SOL    HW134233   3.536   1.295  12.541
11403SOL    HW234234   3.401   1.356  12.474
11404SOL     OW34235   2.901   1.098  11.868
11404SOL    HW134236   2.831   1.051  11.922
11404SOL    HW234237   2.960   1.030  11.825
11405SOL     OW34238   2.876   0.236  12.143
11405SOL    HW134239   2.868   0.200  12.050
11405SOL    HW234240   2.874   0.160  12.208
11406SOL     OW34241   2.452   1.487  11.663
11406SOL    HW134242   2.494   1.429  11.593
11406SOL    HW234243   2.408   1.566  11.619
11407SOL     OW34244   3.571   0.385  12.553
11407SOL    HW134245   3.644   0.454  12.557
11407SOL    HW234246   3.599   0.310  12.494
11408SOL     OW34247   2.117   1.348  11.462
11408SOL    HW134248   2.021   1.349  11.435
11408SOL    HW234249   2.129   1.401  11.546
11409SOL     OW34250   1.967   1.013  12.898
11409SOL    HW134251   1.890   0.980  12.952
11409SOL    HW234252   2.052   0.983  12.940
11410SOL     OW34253   2.534   0.203  12.661
11410SOL    HW134254   2.624   0.187  12.621
11410SOL    HW234255   2.542   0.208  12.760
11411SOL     OW34256   1.937   0.345  11.205
11411SOL    HW134257   1.845   0.317  11.176
11411SOL    HW234258   1.968   0.422  11.149
11412SOL     OW34259   3.302   0.856  12.570
11412SOL    HW134260   3.245   0.908  12.507
11412SOL    HW234261   3.398   0.868  12.546
11413SOL     OW34262   1.934   0.166  11.490
11413SOL    HW134263   1.917   0.249  11.436
11413SOL    HW234264   2.024   0.129  11.468
11414SOL     OW34265   3.045   1.335  11.291
11414SOL    HW134266   2.946   1.324  11.293
11414SOL    HW234267   3.079   1.350  11.384
11415SOL     OW34268   2.475   0.842  12.603
11415SOL    HW134269   2.531   0.923  12.586
11415SOL    HW234270   2.534   0.762  12.606
11416SOL     OW34271   3.355   1.767  12.131
11416SOL    HW134272   3.388   1.831  12.062
11416SOL    HW234273   3.421   1.761  12.206
11417SOL     OW34274   2.578   0.565  12.880
11417SOL    HW134275   2.597   0.630  12.954
11417SOL    HW234276   2.638   0.485  12.889
11418SOL     OW34277   2.252   1.741  12.732
11418SOL    HW134278   2.161   1.782  12.730
11418SOL    HW234279   2.245   1.647  12.764
11419SOL     OW34280   3.536   0.883  12.426
11419SOL    HW134281   3.509   0.794  12.389
11419SOL    HW234282   3.537   0.951  12.353
11420SOL     OW34283   3.087   0.325  11.621
11420SOL    HW134284   3.152   0.251  11.610
11420SOL    HW234285   3.107   0.375  11.705
11421SOL     OW34286   2.456   0.745  11.824
11421SOL    HW134287   2.506   0.830  11.805
11421SOL    HW234288   2.368   0.747  11.776
11422SOL     OW34289   3.639   0.342  12.814
11422SOL    HW134290   3.622   0.373  12.720
11422SOL    HW234291   3.555   0.305  12.852
11423SOL     OW34292   3.592   0.934  12.689
11423SOL    HW134293   3.630   1.025  12.704
11423SOL    HW234294   3.584   0.917  12.590
11424SOL     OW34295   2.721   1.374  11.188
11424SOL    HW134296   2.675   1.389  11.276
11424SOL    HW234297   2.765   1.459  11.158
11425SOL     OW34298   2.523   1.790  12.125
11425SOL    HW134299   2.477   1.878  12.112
11425SOL    HW234300   2.622   1.802  12.118
11426SOL     OW34301   2.721   0.956  12.033
11426SOL    HW134302   2.775   0.887  12.081
11426SOL    HW234303   2.689   1.025  12.099
11427SOL     OW34304   2.945   0.984  11.259
11427SOL    HW134305   2.922   1.037  11.177
11427SOL    HW234306   3.026   0.928  11.240
11428SOL     OW34307   3.723   1.569  12.023
11428SOL    HW134308   3.652   1.557  11.953
11428SOL    HW234309   3.724   1.490  12.083
11429SOL     OW34310   1.941   1.240  11.825
11429SOL    HW134311   1.940   1.193  11.913
11429SOL    HW234312   2.023   1.212  11.774
11430SOL     OW34313   2.534   1.391  12.796
11430SOL    HW134314   2.456   1.341  12.834
11430SOL    HW234315   2.531   1.486  12.827
11431SOL     OW34316   3.686   0.192  12.399
11431SOL    HW134317   3.682   0.102  12.443
11431SOL    HW234318   3.689   0.181  12.300
11432SOL     OW34319   2.290   0.424  11.692
11432SOL    HW134320   2.320   0.352  11.630
11432SOL    HW234321   2.251   0.384  11.775
11433SOL     OW34322   3.567   1.487  12.276
11433SOL    HW134323   3.474   1.462  12.249
11433SOL    HW234324   3.593   1.437  12.358
11434SOL     OW34325   2.179   0.547  12.452
11434SOL    HW134326   2.217   0.488  12.524
11434SOL    HW234327   2.219   0.521  12.364
11435SOL     OW34328   2.674   1.586  11.859
11435SOL    HW134329   2.706   1.596  11.765
11435SOL    HW234330   2.595   1.524  11.861
11436SOL     OW34331   3.286   0.214  12.284
11436SOL    HW134332   3.338   0.149  12.339
11436SOL    HW234333   3.237   0.277  12.345
11437SOL     OW34334   2.863   0.034  12.326
11437SOL    HW134335   2.800  -0.038  12.295
11437SOL    HW234336   2.956  -0.002  12.326
11438SOL     OW34337   2.632   1.330  11.473
11438SOL    HW134338   2.586   1.243  11.490
11438SOL    HW234339   2.723   1.327  11.514
11439SOL     OW34340   2.480   1.567  12.456
11439SOL    HW134341   2.475   1.649  12.513
11439SOL    HW234342   2.569   1.564  12.411
11440SOL     OW34343   3.214   0.052  11.340
11440SOL    HW134344   3.249   0.011  11.256
11440SOL    HW234345   3.124   0.014  11.360
11441SOL     OW34346   3.162   0.453  11.863
11441SOL    HW134347   3.103   0.533  11.867
11441SOL    HW234348   3.177   0.418  11.956
11442SOL     OW34349   3.455   0.221  12.054
11442SOL    HW134350   3.371   0.220  12.108
11442SOL    HW234351   3.457   0.304  11.998
11443SOL     OW34352   1.901   1.077  11.472
11443SOL    HW134353   2.000   1.066  11.463
11443SOL    HW234354   1.861   0.991  11.504
11444SOL     OW34355   2.737   1.646  11.509
11444SOL    HW134356   2.660   1.611  11.455
11444SOL    HW234357   2.705   1.717  11.571
11445SOL     OW34358   2.092   2.490   0.113
11445SOL    HW134359   1.999   2.488   0.150
11445SOL    HW234360   2.093   2.451   0.021
11446SOL     OW34361   2.087   2.137   0.996
11446SOL    HW134362   2.122   2.120   1.088
11446SOL    HW234363   1.999   2.092   0.984
11447SOL     OW34364   1.881   2.230   0.647
11447SOL    HW134365   1.799   2.273   0.686
11447SOL    HW234366   1.853   2.157   0.584
11448SOL     OW34367   2.431   3.137   1.165
11448SOL    HW134368   2.338   3.130   1.128
11448SOL    HW234369   2.442   3.226   1.209
11449SOL     OW34370   3.417   3.373   0.703
11449SOL    HW134371   3.360   3.357   0.784
11449SOL    HW234372   3.358   3.383   0.623
11450SOL     OW34373   2.997   2.565   0.717
11450SOL    HW134374   3.054   2.643   0.692
11450SOL    HW234375   2.937   2.591   0.793
11451SOL     OW34376   3.617   2.469   0.231
11451SOL    HW134377   3.605   2.456   0.132
11451SOL    HW234378   3.587   2.388   0.280
11452SOL     OW34379   2.630   3.006   1.023
11452SOL    HW134380   2.552   3.023   1.083
11452SOL    HW234381   2.664   3.093   0.987
11453SOL     OW34382   2.712   2.660   1.823
11453SOL    HW134383   2.708   2.736   1.888
11453SOL    HW234384   2.734   2.696   1.732
11454SOL     OW34385   2.547   2.874   0.665
11454SOL    HW134386   2.616   2.858   0.735
11454SOL    HW234387   2.474   2.931   0.703
11455SOL     OW34388   2.548   3.023   1.803
11455SOL    HW134389   2.608   3.102   1.817
11455SOL    HW234390   2.462   3.054   1.762
11456SOL     OW34391   2.197   3.297   1.061
11456SOL    HW134392   2.119   3.266   1.008
11456SOL    HW234393   2.255   3.355   1.004
11457SOL     OW34394   3.322   3.367   1.339
11457SOL    HW134395   3.346   3.461   1.365
11457SOL    HW234396   3.306   3.313   1.421
11458SOL     OW34397   2.300   2.254   1.499
11458SOL    HW134398   2.382   2.198   1.508
11458SOL    HW234399   2.219   2.196   1.503
11459SOL     OW34400   3.465   2.309   0.737
11459SOL    HW134401   3.391   2.355   0.687
11459SOL    HW234402   3.516   2.377   0.790
11460SOL     OW34403   2.093   3.575   0.483
11460SOL    HW134404   2.127   3.652   0.537
11460SOL    HW234405   2.137   3.575   0.393
11461SOL     OW34406   2.989   3.203   1.690
11461SOL    HW134407   3.036   3.203   1.778
11461SOL    HW234408   2.941   3.116   1.679
11462SOL     OW34409   2.092   3.296   0.538
11462SOL    HW134410   2.066   3.392   0.538
11462SOL    HW234411   2.021   3.242   0.583
11463SOL     OW34412   2.102   2.953   0.886
11463SOL    HW134413   2.116   2.869   0.938
11463SOL    HW234414   2.047   3.017   0.941
11464SOL     OW34415   2.482   3.648   1.439
11464SOL    HW134416   2.390   3.631   1.474
11464SOL    HW234417   2.510   3.740   1.465
11465SOL     OW34418   2.468   2.826   0.123
11465SOL    HW134419   2.475   2.910   0.069
11465SOL    HW234420   2.514   2.839   0.211
11466SOL     OW34421   3.456   1.976   1.480
11466SOL    HW134422   3.438   2.043   1.408
11466SOL    HW234423   3.453   2.022   1.569
11467SOL     OW34424   1.984   2.505   0.563
11467SOL    HW134425   1.939   2.417   0.580
11467SOL    HW234426   1.983   2.559   0.647
11468SOL     OW34427   3.704   3.629   0.359
11468SOL    HW134428   3.758   3.600   0.439
11468SOL    HW234429   3.734   3.719   0.330
11469SOL     OW34430   1.889   3.458   0.117
11469SOL    HW134431   1.870   3.362   0.138
11469SOL    HW234432   1.856   3.516   0.192
11470SOL     OW34433   3.551   2.784   0.612
11470SOL    HW134434   3.646   2.755   0.620
11470SOL    HW234435   3.543   2.849   0.537
11471SOL     OW34436   3.503   2.970   0.432
11471SOL    HW134437   3.589   2.972   0.380
11471SOL    HW234438   3.517   3.017   0.520
11472SOL     OW34439   1.975   2.599   1.597
11472SOL    HW134440   2.063   2.586   1.642
11472SOL    HW234441   1.962   2.696   1.575
11473SOL     OW34442   2.475   3.227   0.726
11473SOL    HW134443   2.426   3.140   0.735
11473SOL    HW234444   2.452   3.270   0.639
11474SOL     OW34445   3.155   3.090   1.423
11474SOL    HW134446   3.192   3.017   1.365
11474SOL    HW234447   3.207   3.095   1.508
11475SOL     OW34448   2.671   1.866   0.502
11475SOL    HW134449   2.711   1.957   0.493
11475SOL    HW234450   2.571   1.874   0.508
11476SOL     OW34451   2.059   2.838   1.264
11476SOL    HW134452   2.148   2.793   1.250
11476SOL    HW234453   1.986   2.773   1.245
11477SOL     OW34454   3.387   2.861   0.190
11477SOL    HW134455   3.324   2.785   0.203
11477SOL    HW234456   3.435   2.879   0.276
11478SOL     OW34457   3.049   3.654   1.616
11478SOL    HW134458   3.073   3.714   1.540
11478SOL    HW234459   3.056   3.559   1.586
11479SOL     OW34460   2.179   2.113   1.801
11479SOL    HW134461   2.250   2.184   1.807
11479SOL    HW234462   2.091   2.152   1.829
11480SOL     OW34463   3.328   3.279   0.953
11480SOL    HW134464   3.269   3.285   1.033
11480SOL    HW234465   3.313   3.191   0.907
11481SOL     OW34466   3.529   3.576   0.572
11481SOL    HW134467   3.488   3.553   0.484
11481SOL    HW234468   3.511   3.502   0.637
11482SOL     OW34469   2.460   2.591   0.270
11482SOL    HW134470   2.484   2.660   0.202
11482SOL    HW234471   2.382   2.624   0.324
11483SOL     OW34472   3.143   2.207   0.944
11483SOL    HW134473   3.057   2.157   0.931
11483SOL    HW234474   3.205   2.153   1.000
11484SOL     OW34475   3.438   3.524   0.307
11484SOL    HW134476   3.527   3.570   0.310
11484SOL    HW234477   3.417   3.500   0.212
11485SOL     OW34478   2.669   2.467   1.465
11485SOL    HW134479   2.622   2.464   1.554
11485SOL    HW234480   2.618   2.412   1.399
11486SOL     OW34481   3.256   2.331   1.674
11486SOL    HW134482   3.236   2.374   1.762
11486SOL    HW234483   3.334   2.269   1.683
11487SOL     OW34484   2.835   2.752   1.572
11487SOL    HW134485   2.881   2.668   1.543
11487SOL    HW234486   2.779   2.786   1.497
11488SOL     OW34487   2.853   2.272   1.242
11488SOL    HW134488   2.776   2.306   1.296
11488SOL    HW234489   2.819   2.221   1.163
11489SOL     OW34490   2.903   2.563   0.429
11489SOL    HW134491   2.929   2.559   0.525
11489SOL    HW234492   2.818   2.512   0.415
11490SOL     OW34493   1.938   2.673   0.789
11490SOL    HW134494   2.037   2.661   0.798
11490SOL    HW234495   1.914   2.768   0.810
11491SOL     OW34496   1.992   3.683   1.571
11491SOL    HW134497   1.982   3.668   1.670
11491SOL    HW234498   1.906   3.719   1.535
11492SOL     OW34499   2.727   2.210   0.195
11492SOL    HW134500   2.786   2.273   0.146
11492SOL    HW234501   2.746   2.116   0.166
11493SOL     OW34502   3.581   2.447   1.831
11493SOL    HW134503   3.555   2.536   1.795
11493SOL    HW234504   3.579   2.379   1.758
11494SOL     OW34505   3.224   3.006   0.545
11494SOL    HW134506   3.307   2.977   0.497
11494SOL    HW234507   3.175   3.073   0.489
11495SOL     OW34508   2.412   2.058   0.885
11495SOL    HW134509   2.407   2.053   0.985
11495SOL    HW234510   2.414   2.154   0.856
11496SOL     OW34511   2.870   3.318   0.477
11496SOL    HW134512   2.824   3.390   0.425
11496SOL    HW234513   2.866   3.338   0.575
11497SOL     OW34514   2.213   3.663   0.853
11497SOL    HW134515   2.263   3.577   0.859
11497SOL    HW234516   2.278   3.740   0.850
11498SOL     OW34517   3.657   2.928   0.873
11498SOL    HW134518   3.595   2.913   0.797
11498SOL    HW234519   3.605   2.939   0.958
11499SOL     OW34520   3.089   3.412   1.506
11499SOL    HW134521   3.095   3.335   1.570
11499SOL    HW234522   3.037   3.386   1.426
11500SOL     OW34523   2.183   2.805   0.242
11500SOL    HW134524   2.265   2.844   0.200
11500SOL    HW234525   2.156   2.723   0.193
11501SOL     OW34526   3.320   2.597   0.728
11501SOL    HW134527   3.315   2.532   0.803
11501SOL    HW234528   3.400   2.656   0.741
11502SOL     OW34529   2.323   3.128   1.727
11502SOL    HW134530   2.273   3.129   1.641
11502SOL    HW234531   2.260   3.110   1.803
11503SOL     OW34532   2.973   3.638   0.237
11503SOL    HW134533   2.913   3.576   0.287
11503SOL    HW234534   3.004   3.594   0.152
11504SOL     OW34535   2.064   2.147   1.498
11504SOL    HW134536   1.984   2.207   1.485
11504SOL    HW234537   2.054   2.098   1.584
11505SOL     OW34538   3.494   3.239   0.081
11505SOL    HW134539   3.462   3.333   0.071
11505SOL    HW234540   3.418   3.176   0.069
11506SOL     OW34541   2.326   3.605   0.323
11506SOL    HW134542   2.359   3.644   0.409
11506SOL    HW234543   2.402   3.598   0.258
11507SOL     OW34544   3.262   1.969   0.426
11507SOL    HW134545   3.238   1.932   0.336
11507SOL    HW234546   3.361   1.985   0.430
11508SOL     OW34547   2.111   3.647   1.241
11508SOL    HW134548   2.168   3.582   1.291
11508SOL    HW234549   2.095   3.614   1.148
11509SOL     OW34550   2.802   3.560   0.904
11509SOL    HW134551   2.882   3.503   0.925
11509SOL    HW234552   2.753   3.520   0.827
11510SOL     OW34553   2.244   2.562   0.480
11510SOL    HW134554   2.289   2.472   0.477
11510SOL    HW234555   2.150   2.551   0.513
11511SOL     OW34556   3.409   2.084   1.729
11511SOL    HW134557   3.404   2.121   1.821
11511SOL    HW234558   3.337   2.015   1.717
11512SOL     OW34559   2.476   1.984   0.117
11512SOL    HW134560   2.574   1.962   0.124
11512SOL    HW234561   2.445   1.967   0.024
11513SOL     OW34562   2.643   2.126   1.749
11513SOL    HW134563   2.710   2.065   1.792
11513SOL    HW234564   2.570   2.145   1.814
11514SOL     OW34565   2.750   3.376   1.195
11514SOL    HW134566   2.727   3.351   1.101
11514SOL    HW234567   2.811   3.307   1.234
11515SOL     OW34568   3.213   2.452   1.433
11515SOL    HW134569   3.241   2.409   1.518
11515SOL    HW234570   3.238   2.548   1.434
11516SOL     OW34571   2.665   3.264   0.924
11516SOL    HW134572   2.755   3.278   0.882
11516SOL    HW234573   2.594   3.266   0.853
11517SOL     OW34574   2.784   2.365   0.899
11517SOL    HW134575   2.759   2.356   0.803
11517SOL    HW234576   2.832   2.283   0.930
11518SOL     OW34577   2.401   1.926   0.512
11518SOL    HW134578   2.320   1.927   0.570
11518SOL    HW234579   2.404   2.009   0.457
11519SOL     OW34580   3.296   3.050   0.041
11519SOL    HW134581   3.328   2.974   0.098
11519SOL    HW234582   3.204   3.077   0.071
11520SOL     OW34583   2.159   1.897   0.171
11520SOL    HW134584   2.208   1.981   0.150
11520SOL    HW234585   2.221   1.832   0.216
11521SOL     OW34586   2.797   2.098   0.480
11521SOL    HW134587   2.749   2.139   0.402
11521SOL    HW234588   2.896   2.096   0.461
11522SOL     OW34589   2.938   2.545   1.464
11522SOL    HW134590   2.858   2.484   1.467
11522SOL    HW234591   3.019   2.492   1.440
11523SOL     OW34592   3.089   3.432   0.793
11523SOL    HW134593   3.110   3.506   0.728
11523SOL    HW234594   3.157   3.432   0.866
11524SOL     OW34595   2.321   3.014   0.741
11524SOL    HW134596   2.250   2.987   0.806
11524SOL    HW234597   2.295   2.986   0.648
11525SOL     OW34598   3.133   3.659   0.591
11525SOL    HW134599   3.177   3.723   0.527
11525SOL    HW234600   3.083   3.711   0.661
11526SOL     OW34601   2.894   2.411   0.016
11526SOL    HW134602   2.853   2.493  -0.023
11526SOL    HW234603   2.958   2.437   0.089
11527SOL     OW34604   1.940   2.418   1.386
11527SOL    HW134605   2.032   2.417   1.345
11527SOL    HW234606   1.934   2.492   1.453
11528SOL     OW34607   2.423   2.084   1.147
11528SOL    HW134608   2.461   2.000   1.184
11528SOL    HW234609   2.335   2.103   1.191
11529SOL     OW34610   2.728   2.316   0.642
11529SOL    HW134611   2.696   2.388   0.580
11529SOL    HW234612   2.752   2.235   0.589
11530SOL     OW34613   2.879   1.901   0.753
11530SOL    HW134614   2.807   1.906   0.684
11530SOL    HW234615   2.855   1.832   0.822
11531SOL     OW34616   3.291   3.035   0.867
11531SOL    HW134617   3.236   2.951   0.860
11531SOL    HW234618   3.317   3.064   0.775
11532SOL     OW34619   3.328   2.452   0.992
11532SOL    HW134620   3.298   2.357   0.999
11532SOL    HW234621   3.401   2.468   1.058
11533SOL     OW34622   3.719   2.695   0.377
11533SOL    HW134623   3.761   2.631   0.441
11533SOL    HW234624   3.681   2.644   0.299
11534SOL     OW34625   2.350   3.247   0.174
11534SOL    HW134626   2.263   3.232   0.221
11534SOL    HW234627   2.333   3.273   0.079
11535SOL     OW34628   3.526   3.142   0.657
11535SOL    HW134629   3.625   3.150   0.671
11535SOL    HW234630   3.481   3.226   0.688
11536SOL     OW34631   3.252   2.437   0.078
11536SOL    HW134632   3.198   2.416   0.159
11536SOL    HW234633   3.343   2.396   0.087
11537SOL     OW34634   2.389   2.118   0.328
11537SOL    HW134635   2.416   2.059   0.253
11537SOL    HW234636   2.389   2.213   0.297
11538SOL     OW34637   3.616   3.085   1.588
11538SOL    HW134638   3.707   3.046   1.575
11538SOL    HW234639   3.624   3.181   1.612
11539SOL     OW34640   2.926   3.209   1.340
11539SOL    HW134641   2.846   3.186   1.395
11539SOL    HW234642   3.009   3.183   1.389
11540SOL     OW34643   3.454   3.491   1.625
11540SOL    HW134644   3.481   3.525   1.535
11540SOL    HW234645   3.533   3.453   1.671
11541SOL     OW34646   2.973   3.057   1.100
11541SOL    HW134647   2.933   3.101   1.181
11541SOL    HW234648   2.932   3.094   1.017
11542SOL     OW34649   3.500   2.961   1.079
11542SOL    HW134650   3.505   3.042   1.138
11542SOL    HW234651   3.414   2.963   1.028
11543SOL     OW34652   2.777   1.951   1.402
11543SOL    HW134653   2.802   1.931   1.307
11543SOL    HW234654   2.849   2.007   1.444
11544SOL     OW34655   2.842   2.978   1.719
11544SOL    HW134656   2.743   2.984   1.729
11544SOL    HW234657   2.865   2.898   1.663
11545SOL     OW34658   2.567   2.912   0.368
11545SOL    HW134659   2.553   2.919   0.467
11545SOL    HW234660   2.651   2.861   0.350
11546SOL     OW34661   2.272   2.675   1.251
11546SOL    HW134662   2.358   2.687   1.301
11546SOL    HW234663   2.230   2.588   1.278
11547SOL     OW34664   3.136   2.248   1.262
11547SOL    HW134665   3.157   2.322   1.326
11547SOL    HW234666   3.047   2.265   1.219
11548SOL     OW34667   1.926   3.426   1.331
11548SOL    HW134668   1.880   3.508   1.297
11548SOL    HW234669   2.024   3.445   1.340
11549SOL     OW34670   2.229   2.962   0.501
11549SOL    HW134671   2.222   3.045   0.445
11549SOL    HW234672   2.233   2.882   0.441
11550SOL     OW34673   2.428   2.399   0.865
11550SOL    HW134674   2.440   2.465   0.791
11550SOL    HW234675   2.474   2.433   0.948
11551SOL     OW34676   3.114   3.210   0.388
11551SOL    HW134677   3.164   3.287   0.428
11551SOL    HW234678   3.019   3.212   0.420
11552SOL     OW34679   3.134   3.307   1.142
11552SOL    HW134680   3.181   3.320   1.229
11552SOL    HW234681   3.068   3.233   1.151
11553SOL     OW34682   3.444   2.501   0.472
11553SOL    HW134683   3.413   2.562   0.545
11553SOL    HW234684   3.494   2.553   0.403
11554SOL     OW34685   2.216   3.372   1.329
11554SOL    HW134686   2.195   3.328   1.242
11554SOL    HW234687   2.313   3.398   1.332
11555SOL     OW34688   2.264   2.613   1.598
11555SOL    HW134689   2.332   2.668   1.551
11555SOL    HW234690   2.304   2.525   1.625
11556SOL     OW34691   3.449   2.641   1.670
11556SOL    HW134692   3.357   2.679   1.665
11556SOL    HW234693   3.509   2.688   1.605
11557SOL     OW34694   2.875   1.967   1.770
11557SOL    HW134695   2.881   2.052   1.718
11557SOL    HW234696   2.907   1.891   1.713
11558SOL     OW34697   2.366   1.912   1.740
11558SOL    HW134698   2.324   1.855   1.670
11558SOL    HW234699   2.300   1.981   1.772
11559SOL     OW34700   2.435   2.732   1.029
11559SOL    HW134701   2.479   2.821   1.020
11559SOL    HW234702   2.372   2.732   1.106
11560SOL     OW34703   3.222   2.724   1.045
11560SOL    HW134704   3.147   2.724   0.979
11560SOL    HW234705   3.259   2.632   1.054
11561SOL     OW34706   3.071   2.387   0.275
11561SOL    HW134707   3.084   2.303   0.329
11561SOL    HW234708   3.042   2.461   0.335
11562SOL     OW34709   2.169   2.075   1.231
11562SOL    HW134710   2.146   2.112   1.321
11562SOL    HW234711   2.139   1.980   1.225
11563SOL     OW34712   1.899   3.172   1.282
11563SOL    HW134713   1.952   3.123   1.350
11563SOL    HW234714   1.921   3.270   1.287
11564SOL     OW34715   2.594   2.496   1.064
11564SOL    HW134716   2.653   2.470   0.988
11564SOL    HW234717   2.566   2.592   1.053
11565SOL     OW34718   3.590   2.797   1.854
11565SOL    HW134719   3.544   2.790   1.765
11565SOL    HW234720   3.528   2.841   1.920
11566SOL     OW34721   2.169   1.925   0.618
11566SOL    HW134722   2.158   2.019   0.651
11566SOL    HW234723   2.164   1.862   0.695
11567SOL     OW34724   3.484   2.229   0.374
11567SOL    HW134725   3.486   2.153   0.438
11567SOL    HW234726   3.436   2.306   0.414
11568SOL     OW34727   2.885   2.628   0.966
11568SOL    HW134728   2.900   2.649   1.062
11568SOL    HW234729   2.855   2.533   0.957
11569SOL     OW34730   2.842   3.435   1.700
11569SOL    HW134731   2.822   3.479   1.612
11569SOL    HW234732   2.881   3.344   1.684
11570SOL     OW34733   3.721   3.380   1.605
11570SOL    HW134734   3.735   3.407   1.510
11570SOL    HW234735   3.804   3.402   1.658
11571SOL     OW34736   2.212   2.760   1.804
11571SOL    HW134737   2.288   2.804   1.852
11571SOL    HW234738   2.247   2.713   1.722
11572SOL     OW34739   3.402   2.136   0.125
11572SOL    HW134740   3.341   2.061   0.148
11572SOL    HW234741   3.424   2.188   0.208
11573SOL     OW34742   3.165   2.700   0.042
11573SOL    HW134743   3.199   2.607   0.057
11573SOL    HW234744   3.183   2.727  -0.053
11574SOL     OW34745   2.930   3.195   0.849
11574SOL    HW134746   2.937   3.111   0.794
11574SOL    HW234747   2.992   3.264   0.813
11575SOL     OW34748   2.181   2.672   0.949
11575SOL    HW134749   2.274   2.708   0.954
11575SOL    HW234750   2.175   2.587   1.001
11576SOL     OW34751   2.201   2.371   1.006
11576SOL    HW134752   2.149   2.288   0.989
11576SOL    HW234753   2.278   2.376   0.942
11577SOL     OW34754   3.000   2.242   1.678
11577SOL    HW134755   2.955   2.305   1.742
11577SOL    HW234756   3.093   2.273   1.661
11578SOL     OW34757   3.022   2.069   1.477
11578SOL    HW134758   3.022   2.133   1.554
11578SOL    HW234759   3.050   2.117   1.394
11579SOL     OW34760   1.870   3.188   0.200
11579SOL    HW134761   1.777   3.209   0.169
11579SOL    HW234762   1.880   3.089   0.213
11580SOL     OW34763   1.950   3.663   0.927
11580SOL    HW134764   1.908   3.577   0.900
11580SOL    HW234765   2.044   3.666   0.893
11581SOL     OW34766   2.366   3.430   0.910
11581SOL    HW134767   2.432   3.504   0.919
11581SOL    HW234768   2.410   3.351   0.868
11582SOL     OW34769   2.864   2.658   1.238
11582SOL    HW134770   2.905   2.626   1.324
11582SOL    HW234771   2.768   2.631   1.235
11583SOL     OW34772   1.902   2.406   1.114
11583SOL    HW134773   1.987   2.373   1.073
11583SOL    HW234774   1.915   2.421   1.212
11584SOL     OW34775   2.051   2.382   1.722
11584SOL    HW134776   2.110   2.342   1.652
11584SOL    HW234777   1.993   2.453   1.681
11585SOL     OW34778   3.231   2.812   1.660
11585SOL    HW134779   3.270   2.901   1.680
11585SOL    HW234780   3.241   2.792   1.563
11586SOL     OW34781   2.677   2.434   0.325
11586SOL    HW134782   2.684   2.345   0.279
11586SOL    HW234783   2.583   2.468   0.317
11587SOL     OW34784   3.519   2.466   1.206
11587SOL    HW134785   3.481   2.397   1.268
11587SOL    HW234786   3.601   2.430   1.162
11588SOL     OW34787   2.114   3.426   1.744
11588SOL    HW134788   2.084   3.483   1.820
11588SOL    HW234789   2.107   3.329   1.770
11589SOL     OW34790   2.533   2.326   1.269
11589SOL    HW134791   2.499   2.237   1.239
11589SOL    HW234792   2.559   2.380   1.189
11590SOL     OW34793   2.792   3.540   1.465
11590SOL    HW134794   2.768   3.522   1.370
11590SOL    HW234795   2.822   3.634   1.475
11591SOL     OW34796   2.335   2.362   0.191
11591SOL    HW134797   2.396   2.442   0.195
11591SOL    HW234798   2.240   2.393   0.198
11592SOL     OW34799   2.021   2.999   1.466
11592SOL    HW134800   2.043   2.938   1.542
11592SOL    HW234801   2.031   2.950   1.380
11593SOL     OW34802   3.209   2.921   1.234
11593SOL    HW134803   3.233   2.858   1.160
11593SOL    HW234804   3.119   2.961   1.216
11594SOL     OW34805   3.164   2.717   0.309
11594SOL    HW134806   3.078   2.686   0.351
11594SOL    HW234807   3.160   2.703   0.210
11595SOL     OW34808   3.621   3.609   1.154
11595SOL    HW134809   3.682   3.639   1.081
11595SOL    HW234810   3.583   3.520   1.132
11596SOL     OW34811   3.114   3.593   1.128
11596SOL    HW134812   3.198   3.598   1.074
11596SOL    HW234813   3.091   3.497   1.146
11597SOL     OW34814   1.945   3.120   1.022
11597SOL    HW134815   1.940   3.119   1.122
11597SOL    HW234816   1.862   3.079   0.984
11598SOL     OW34817   2.550   3.524   1.716
11598SOL    HW134818   2.494   3.605   1.725
11598SOL    HW234819   2.602   3.528   1.630
11599SOL     OW34820   2.765   1.948   0.133
11599SOL    HW134821   2.816   1.949   0.047
11599SOL    HW234822   2.821   1.906   0.204
11600SOL     OW34823   3.588   1.997   0.523
11600SOL    HW134824   3.661   1.980   0.456
11600SOL    HW234825   3.557   1.910   0.561
11601SOL     OW34826   3.250   3.435   0.477
11601SOL    HW134827   3.317   3.447   0.403
11601SOL    HW234828   3.210   3.524   0.500
11602SOL     OW34829   1.992   3.656   1.851
11602SOL    HW134830   1.951   3.582   1.904
11602SOL    HW234831   2.056   3.707   1.909
11603SOL     OW34832   3.142   2.789   0.672
11603SOL    HW134833   3.202   2.708   0.674
11603SOL    HW234834   3.182   2.858   0.612
11604SOL     OW34835   2.692   3.135   1.422
11604SOL    HW134836   2.687   3.168   1.517
11604SOL    HW234837   2.606   3.154   1.376
11605SOL     OW34838   2.534   3.478   0.154
11605SOL    HW134839   2.543   3.488   0.055
11605SOL    HW234840   2.494   3.389   0.175
11606SOL     OW34841   3.512   3.582   1.394
11606SOL    HW134842   3.565   3.592   1.310
11606SOL    HW234843   3.485   3.672   1.428
11607SOL     OW34844   3.703   2.037   0.963
11607SOL    HW134845   3.742   1.952   0.927
11607SOL    HW234846   3.605   2.039   0.944
11608SOL     OW34847   2.125   2.188   0.720
11608SOL    HW134848   2.046   2.239   0.686
11608SOL    HW234849   2.116   2.173   0.818
11609SOL     OW34850   3.056   3.474   0.031
11609SOL    HW134851   3.062   3.381   0.068
11609SOL    HW234852   2.997   3.474  -0.049
11610SOL     OW34853   2.684   2.864   1.372
11610SOL    HW134854   2.724   2.863   1.280
11610SOL    HW234855   2.694   2.956   1.412
11611SOL     OW34856   2.778   2.772   0.291
11611SOL    HW134857   2.841   2.810   0.223
11611SOL    HW234858   2.818   2.689   0.330
11612SOL     OW34859   3.366   3.469   0.044
11612SOL    HW134860   3.274   3.506   0.051
11612SOL    HW234861   3.404   3.489  -0.046
11613SOL     OW34862   2.234   3.150   1.490
11613SOL    HW134863   2.221   3.243   1.456
11613SOL    HW234864   2.150   3.098   1.477
11614SOL     OW34865   3.476   3.154   1.289
11614SOL    HW134866   3.536   3.157   1.369
11614SOL    HW234867   3.401   3.218   1.302
11615SOL     OW34868   2.901   2.960   0.696
11615SOL    HW134869   2.831   2.913   0.750
11615SOL    HW234870   2.960   2.892   0.653
11616SOL     OW34871   2.876   2.098   0.971
11616SOL    HW134872   2.868   2.062   0.878
11616SOL    HW234873   2.874   2.022   1.036
11617SOL     OW34874   2.452   3.349   0.491
11617SOL    HW134875   2.494   3.291   0.421
11617SOL    HW234876   2.408   3.428   0.447
11618SOL     OW34877   3.571   2.247   1.381
11618SOL    HW134878   3.644   2.316   1.385
11618SOL    HW234879   3.599   2.172   1.322
11619SOL     OW34880   2.117   3.210   0.290
11619SOL    HW134881   2.021   3.211   0.263
11619SOL    HW234882   2.129   3.263   0.374
11620SOL     OW34883   1.967   2.875   1.726
11620SOL    HW134884   1.890   2.842   1.780
11620SOL    HW234885   2.052   2.845   1.768
11621SOL     OW34886   2.534   2.065   1.489
11621SOL    HW134887   2.624   2.049   1.449
11621SOL    HW234888   2.542   2.070   1.588
11622SOL     OW34889   3.302   2.718   1.398
11622SOL    HW134890   3.245   2.770   1.335
11622SOL    HW234891   3.398   2.730   1.374
11623SOL     OW34892   1.934   2.028   0.318
11623SOL    HW134893   1.917   2.111   0.264
11623SOL    HW234894   2.024   1.991   0.296
11624SOL     OW34895   3.045   3.197   0.119
11624SOL    HW134896   2.946   3.186   0.121
11624SOL    HW234897   3.079   3.212   0.212
11625SOL     OW34898   2.475   2.704   1.431
11625SOL    HW134899   2.531   2.785   1.414
11625SOL    HW234900   2.534   2.624   1.434
11626SOL     OW34901   3.355   3.629   0.959
11626SOL    HW134902   3.388   3.693   0.890
11626SOL    HW234903   3.421   3.623   1.034
11627SOL     OW34904   2.578   2.427   1.708
11627SOL    HW134905   2.597   2.492   1.782
11627SOL    HW234906   2.638   2.347   1.717
11628SOL     OW34907   3.312   3.082   1.633
11628SOL    HW134908   3.303   3.072   1.732
11628SOL    HW234909   3.408   3.075   1.607
11629SOL     OW34910   2.252   3.603   1.560
11629SOL    HW134911   2.161   3.644   1.558
11629SOL    HW234912   2.245   3.509   1.592
11630SOL     OW34913   3.536   2.745   1.254
11630SOL    HW134914   3.509   2.656   1.217
11630SOL    HW234915   3.537   2.813   1.181
11631SOL     OW34916   3.087   2.187   0.449
11631SOL    HW134917   3.152   2.113   0.438
11631SOL    HW234918   3.107   2.237   0.533
11632SOL     OW34919   2.456   2.607   0.652
11632SOL    HW134920   2.506   2.692   0.633
11632SOL    HW234921   2.368   2.609   0.604
11633SOL     OW34922   3.639   2.204   1.642
11633SOL    HW134923   3.622   2.235   1.548
11633SOL    HW234924   3.555   2.167   1.680
11634SOL     OW34925   3.592   2.796   1.517
11634SOL    HW134926   3.630   2.887   1.532
11634SOL    HW234927   3.584   2.779   1.418
11635SOL     OW34928   2.721   3.236   0.016
11635SOL    HW134929   2.675   3.251   0.104
11635SOL    HW234930   2.765   3.321  -0.014
11636SOL     OW34931   2.523   3.652   0.953
11636SOL    HW134932   2.477   3.740   0.940
11636SOL    HW234933   2.622   3.664   0.946
11637SOL     OW34934   2.721   2.818   0.861
11637SOL    HW134935   2.775   2.749   0.909
11637SOL    HW234936   2.689   2.887   0.927
11638SOL     OW34937   2.945   2.846   0.087
11638SOL    HW134938   2.922   2.899   0.005
11638SOL    HW234939   3.026   2.790   0.068
11639SOL     OW34940   3.723   3.431   0.851
11639SOL    HW134941   3.652   3.419   0.781
11639SOL    HW234942   3.724   3.352   0.911
11640SOL     OW34943   2.083   3.176   1.844
11640SOL    HW134944   2.018   3.103   1.823
11640SOL    HW234945   2.087   3.190   1.942
11641SOL     OW34946   1.941   3.102   0.653
11641SOL    HW134947   1.940   3.055   0.741
11641SOL    HW234948   2.023   3.074   0.602
11642SOL     OW34949   2.534   3.253   1.624
11642SOL    HW134950   2.456   3.203   1.662
11642SOL    HW234951   2.531   3.348   1.655
11643SOL     OW34952   3.686   2.054   1.227
11643SOL    HW134953   3.682   1.964   1.271
11643SOL    HW234954   3.689   2.043   1.128
11644SOL     OW34955   2.290   2.286   0.520
11644SOL    HW134956   2.320   2.214   0.458
11644SOL    HW234957   2.251   2.246   0.603
11645SOL     OW34958   3.567   3.349   1.104
11645SOL    HW134959   3.474   3.324   1.077
11645SOL    HW234960   3.593   3.299   1.186
11646SOL     OW34961   2.179   2.409   1.280
11646SOL    HW134962   2.217   2.350   1.352
11646SOL    HW234963   2.219   2.383   1.192
11647SOL     OW34964   2.674   3.448   0.687
11647SOL    HW134965   2.706   3.458   0.593
11647SOL    HW234966   2.595   3.386   0.689
11648SOL     OW34967   3.286   2.076   1.112
11648SOL    HW134968   3.338   2.011   1.167
11648SOL    HW234969   3.237   2.139   1.173
11649SOL     OW34970   2.863   1.896   1.154
11649SOL    HW134971   2.800   1.824   1.123
11649SOL    HW234972   2.956   1.860   1.154
11650SOL     OW34973   2.632   3.192   0.301
11650SOL    HW134974   2.586   3.105   0.318
11650SOL    HW234975   2.723   3.189   0.342
11651SOL     OW34976   2.480   3.429   1.284
11651SOL    HW134977   2.475   3.511   1.341
11651SOL    HW234978   2.569   3.426   1.239
11652SOL     OW34979   3.214   1.914   0.168
11652SOL    HW134980   3.249   1.873   0.084
11652SOL    HW234981   3.124   1.876   0.188
11653SOL     OW34982   3.162   2.315   0.691
11653SOL    HW134983   3.103   2.395   0.695
11653SOL    HW234984   3.177   2.280   0.784
11654SOL     OW34985   3.455   2.083   0.882
11654SOL    HW134986   3.371   2.082   0.936
11654SOL    HW234987   3.457   2.166   0.826
11655SOL     OW34988   1.901   2.939   0.300
11655SOL    HW134989   2.000   2.928   0.291
11655SOL    HW234990   1.861   2.853   0.332
11656SOL     OW34991   2.737   3.508   0.337
11656SOL    HW134992   2.660   3.473   0.283
11656SOL    HW234993   2.705   3.579   0.399
11657SOL     OW34994   2.092   2.490   1.975
11657SOL    HW134995   1.999   2.488   2.012
11657SOL    HW234996   2.093   2.451   1.883
11658SOL     OW34997   2.087   2.137   2.858
11658SOL    HW134998   2.122   2.120   2.950
11658SOL    HW234999   1.999   2.092   2.846
11659SOL     OW35000   1.881   2.230   2.509
11659SOL    HW135001   1.799   2.273   2.548
11659SOL    HW235002   1.853   2.157   2.446
11660SOL     OW35003   2.431   3.137   3.027
11660SOL    HW135004   2.338   3.130   2.990
11660SOL    HW235005   2.442   3.226   3.071
11661SOL     OW35006   3.417   3.373   2.565
11661SOL    HW135007   3.360   3.357   2.646
11661SOL    HW235008   3.358   3.383   2.485
11662SOL     OW35009   2.997   2.565   2.579
11662SOL    HW135010   3.054   2.643   2.554
11662SOL    HW235011   2.937   2.591   2.655
11663SOL     OW35012   3.617   2.469   2.093
11663SOL    HW135013   3.605   2.456   1.994
11663SOL    HW235014   3.587   2.388   2.142
11664SOL     OW35015   2.630   3.006   2.885
11664SOL    HW135016   2.552   3.023   2.945
11664SOL    HW235017   2.664   3.093   2.849
11665SOL     OW35018   2.712   2.660   3.685
11665SOL    HW135019   2.708   2.736   3.750
11665SOL    HW235020   2.734   2.696   3.594
11666SOL     OW35021   2.547   2.874   2.527
11666SOL    HW135022   2.616   2.858   2.597
11666SOL    HW235023   2.474   2.931   2.565
11667SOL     OW35024   2.548   3.023   3.665
11667SOL    HW135025   2.608   3.102   3.679
11667SOL    HW235026   2.462   3.054   3.624
11668SOL     OW35027   2.197   3.297   2.923
11668SOL    HW135028   2.119   3.266   2.870
11668SOL    HW235029   2.255   3.355   2.866
11669SOL     OW35030   3.322   3.367   3.201
11669SOL    HW135031   3.346   3.461   3.227
11669SOL    HW235032   3.306   3.313   3.283
11670SOL     OW35033   2.300   2.254   3.361
11670SOL    HW135034   2.382   2.198   3.370
11670SOL    HW235035   2.219   2.196   3.365
11671SOL     OW35036   3.465   2.309   2.599
11671SOL    HW135037   3.391   2.355   2.549
11671SOL    HW235038   3.516   2.377   2.652
11672SOL     OW35039   2.093   3.575   2.345
11672SOL    HW135040   2.127   3.652   2.399
11672SOL    HW235041   2.137   3.575   2.255
11673SOL     OW35042   2.989   3.203   3.552
11673SOL    HW135043   3.036   3.203   3.640
11673SOL    HW235044   2.941   3.116   3.541
11674SOL     OW35045   2.092   3.296   2.400
11674SOL    HW135046   2.066   3.392   2.400
11674SOL    HW235047   2.021   3.242   2.445
11675SOL     OW35048   2.102   2.953   2.748
11675SOL    HW135049   2.116   2.869   2.800
11675SOL    HW235050   2.047   3.017   2.803
11676SOL     OW35051   2.482   3.648   3.301
11676SOL    HW135052   2.390   3.631   3.336
11676SOL    HW235053   2.510   3.740   3.327
11677SOL     OW35054   2.468   2.826   1.985
11677SOL    HW135055   2.475   2.910   1.931
11677SOL    HW235056   2.514   2.839   2.073
11678SOL     OW35057   3.456   1.976   3.342
11678SOL    HW135058   3.438   2.043   3.270
11678SOL    HW235059   3.453   2.022   3.431
11679SOL     OW35060   1.984   2.505   2.425
11679SOL    HW135061   1.939   2.417   2.442
11679SOL    HW235062   1.983   2.559   2.509
11680SOL     OW35063   3.704   3.629   2.221
11680SOL    HW135064   3.758   3.600   2.301
11680SOL    HW235065   3.734   3.719   2.192
11681SOL     OW35066   1.889   3.458   1.979
11681SOL    HW135067   1.870   3.362   2.000
11681SOL    HW235068   1.856   3.516   2.054
11682SOL     OW35069   3.551   2.784   2.474
11682SOL    HW135070   3.646   2.755   2.482
11682SOL    HW235071   3.543   2.849   2.399
11683SOL     OW35072   3.503   2.970   2.294
11683SOL    HW135073   3.589   2.972   2.242
11683SOL    HW235074   3.517   3.017   2.382
11684SOL     OW35075   1.975   2.599   3.459
11684SOL    HW135076   2.063   2.586   3.504
11684SOL    HW235077   1.962   2.696   3.437
11685SOL     OW35078   2.475   3.227   2.588
11685SOL    HW135079   2.426   3.140   2.597
11685SOL    HW235080   2.452   3.270   2.501
11686SOL     OW35081   3.155   3.090   3.285
11686SOL    HW135082   3.192   3.017   3.227
11686SOL    HW235083   3.207   3.095   3.370
11687SOL     OW35084   2.671   1.866   2.364
11687SOL    HW135085   2.711   1.957   2.355
11687SOL    HW235086   2.571   1.874   2.370
11688SOL     OW35087   2.059   2.838   3.126
11688SOL    HW135088   2.148   2.793   3.112
11688SOL    HW235089   1.986   2.773   3.107
11689SOL     OW35090   3.387   2.861   2.052
11689SOL    HW135091   3.324   2.785   2.065
11689SOL    HW235092   3.435   2.879   2.138
11690SOL     OW35093   3.049   3.654   3.478
11690SOL    HW135094   3.073   3.714   3.402
11690SOL    HW235095   3.056   3.559   3.448
11691SOL     OW35096   2.179   2.113   3.663
11691SOL    HW135097   2.250   2.184   3.669
11691SOL    HW235098   2.091   2.152   3.691
11692SOL     OW35099   3.328   3.279   2.815
11692SOL    HW135100   3.269   3.285   2.895
11692SOL    HW235101   3.313   3.191   2.769
11693SOL     OW35102   3.529   3.576   2.434
11693SOL    HW135103   3.488   3.553   2.346
11693SOL    HW235104   3.511   3.502   2.499
11694SOL     OW35105   2.460   2.591   2.132
11694SOL    HW135106   2.484   2.660   2.064
11694SOL    HW235107   2.382   2.624   2.186
11695SOL     OW35108   3.143   2.207   2.806
11695SOL    HW135109   3.057   2.157   2.793
11695SOL    HW235110   3.205   2.153   2.862
11696SOL     OW35111   3.438   3.524   2.169
11696SOL    HW135112   3.527   3.570   2.172
11696SOL    HW235113   3.417   3.500   2.074
11697SOL     OW35114   2.669   2.467   3.327
11697SOL    HW135115   2.622   2.464   3.416
11697SOL    HW235116   2.618   2.412   3.261
11698SOL     OW35117   3.256   2.331   3.536
11698SOL    HW135118   3.236   2.374   3.624
11698SOL    HW235119   3.334   2.269   3.545
11699SOL     OW35120   2.835   2.752   3.434
11699SOL    HW135121   2.881   2.668   3.405
11699SOL    HW235122   2.779   2.786   3.359
11700SOL     OW35123   2.853   2.272   3.104
11700SOL    HW135124   2.776   2.306   3.158
11700SOL    HW235125   2.819   2.221   3.025
11701SOL     OW35126   2.903   2.563   2.291
11701SOL    HW135127   2.929   2.559   2.387
11701SOL    HW235128   2.818   2.512   2.277
11702SOL     OW35129   1.938   2.673   2.651
11702SOL    HW135130   2.037   2.661   2.660
11702SOL    HW235131   1.914   2.768   2.672
11703SOL     OW35132   1.992   3.683   3.433
11703SOL    HW135133   1.982   3.668   3.532
11703SOL    HW235134   1.906   3.719   3.397
11704SOL     OW35135   2.727   2.210   2.057
11704SOL    HW135136   2.786   2.273   2.008
11704SOL    HW235137   2.746   2.116   2.028
11705SOL     OW35138   3.581   2.447   3.693
11705SOL    HW135139   3.555   2.536   3.657
11705SOL    HW235140   3.579   2.379   3.620
11706SOL     OW35141   3.224   3.006   2.407
11706SOL    HW135142   3.307   2.977   2.359
11706SOL    HW235143   3.175   3.073   2.351
11707SOL     OW35144   2.412   2.058   2.747
11707SOL    HW135145   2.407   2.053   2.847
11707SOL    HW235146   2.414   2.154   2.718
11708SOL     OW35147   2.870   3.318   2.339
11708SOL    HW135148   2.824   3.390   2.287
11708SOL    HW235149   2.866   3.338   2.437
11709SOL     OW35150   2.213   3.663   2.715
11709SOL    HW135151   2.263   3.577   2.721
11709SOL    HW235152   2.278   3.740   2.712
11710SOL     OW35153   3.657   2.928   2.735
11710SOL    HW135154   3.595   2.913   2.659
11710SOL    HW235155   3.605   2.939   2.820
11711SOL     OW35156   3.089   3.412   3.368
11711SOL    HW135157   3.095   3.335   3.432
11711SOL    HW235158   3.037   3.386   3.288
11712SOL     OW35159   2.183   2.805   2.104
11712SOL    HW135160   2.265   2.844   2.062
11712SOL    HW235161   2.156   2.723   2.055
11713SOL     OW35162   3.320   2.597   2.590
11713SOL    HW135163   3.315   2.532   2.665
11713SOL    HW235164   3.400   2.656   2.603
11714SOL     OW35165   2.323   3.128   3.589
11714SOL    HW135166   2.273   3.129   3.503
11714SOL    HW235167   2.260   3.110   3.665
11715SOL     OW35168   2.973   3.638   2.099
11715SOL    HW135169   2.913   3.576   2.149
11715SOL    HW235170   3.004   3.594   2.014
11716SOL     OW35171   2.064   2.147   3.360
11716SOL    HW135172   1.984   2.207   3.347
11716SOL    HW235173   2.054   2.098   3.446
11717SOL     OW35174   3.494   3.239   1.943
11717SOL    HW135175   3.462   3.333   1.933
11717SOL    HW235176   3.418   3.176   1.931
11718SOL     OW35177   2.326   3.605   2.185
11718SOL    HW135178   2.359   3.644   2.271
11718SOL    HW235179   2.402   3.598   2.120
11719SOL     OW35180   3.262   1.969   2.288
11719SOL    HW135181   3.238   1.932   2.198
11719SOL    HW235182   3.361   1.985   2.292
11720SOL     OW35183   2.111   3.647   3.103
11720SOL    HW135184   2.168   3.582   3.153
11720SOL    HW235185   2.095   3.614   3.010
11721SOL     OW35186   2.802   3.560   2.766
11721SOL    HW135187   2.882   3.503   2.787
11721SOL    HW235188   2.753   3.520   2.689
11722SOL     OW35189   2.244   2.562   2.342
11722SOL    HW135190   2.289   2.472   2.339
11722SOL    HW235191   2.150   2.551   2.375
11723SOL     OW35192   3.409   2.084   3.591
11723SOL    HW135193   3.404   2.121   3.683
11723SOL    HW235194   3.337   2.015   3.579
11724SOL     OW35195   2.476   1.984   1.979
11724SOL    HW135196   2.574   1.962   1.986
11724SOL    HW235197   2.445   1.967   1.886
11725SOL     OW35198   2.643   2.126   3.611
11725SOL    HW135199   2.710   2.065   3.654
11725SOL    HW235200   2.570   2.145   3.676
11726SOL     OW35201   2.750   3.376   3.057
11726SOL    HW135202   2.727   3.351   2.963
11726SOL    HW235203   2.811   3.307   3.096
11727SOL     OW35204   3.213   2.452   3.295
11727SOL    HW135205   3.241   2.409   3.380
11727SOL    HW235206   3.238   2.548   3.296
11728SOL     OW35207   2.665   3.264   2.786
11728SOL    HW135208   2.755   3.278   2.744
11728SOL    HW235209   2.594   3.266   2.715
11729SOL     OW35210   2.784   2.365   2.761
11729SOL    HW135211   2.759   2.356   2.665
11729SOL    HW235212   2.832   2.283   2.792
11730SOL     OW35213   2.401   1.926   2.374
11730SOL    HW135214   2.320   1.927   2.432
11730SOL    HW235215   2.404   2.009   2.319
11731SOL     OW35216   3.296   3.050   1.903
11731SOL    HW135217   3.328   2.974   1.960
11731SOL    HW235218   3.204   3.077   1.933
11732SOL     OW35219   2.159   1.897   2.033
11732SOL    HW135220   2.208   1.981   2.012
11732SOL    HW235221   2.221   1.832   2.078
11733SOL     OW35222   2.797   2.098   2.342
11733SOL    HW135223   2.749   2.139   2.264
11733SOL    HW235224   2.896   2.096   2.323
11734SOL     OW35225   2.938   2.545   3.326
11734SOL    HW135226   2.858   2.484   3.329
11734SOL    HW235227   3.019   2.492   3.302
11735SOL     OW35228   3.089   3.432   2.655
11735SOL    HW135229   3.110   3.506   2.590
11735SOL    HW235230   3.157   3.432   2.728
11736SOL     OW35231   2.321   3.014   2.603
11736SOL    HW135232   2.250   2.987   2.668
11736SOL    HW235233   2.295   2.986   2.510
11737SOL     OW35234   3.133   3.659   2.453
11737SOL    HW135235   3.177   3.723   2.389
11737SOL    HW235236   3.083   3.711   2.523
11738SOL     OW35237   2.894   2.411   1.878
11738SOL    HW135238   2.853   2.493   1.839
11738SOL    HW235239   2.958   2.437   1.951
11739SOL     OW35240   1.940   2.418   3.248
11739SOL    HW135241   2.032   2.417   3.207
11739SOL    HW235242   1.934   2.492   3.315
11740SOL     OW35243   2.423   2.084   3.009
11740SOL    HW135244   2.461   2.000   3.046
11740SOL    HW235245   2.335   2.103   3.053
11741SOL     OW35246   2.728   2.316   2.504
11741SOL    HW135247   2.696   2.388   2.442
11741SOL    HW235248   2.752   2.235   2.451
11742SOL     OW35249   2.879   1.901   2.615
11742SOL    HW135250   2.807   1.906   2.546
11742SOL    HW235251   2.855   1.832   2.684
11743SOL     OW35252   3.291   3.035   2.729
11743SOL    HW135253   3.236   2.951   2.722
11743SOL    HW235254   3.317   3.064   2.637
11744SOL     OW35255   3.328   2.452   2.854
11744SOL    HW135256   3.298   2.357   2.861
11744SOL    HW235257   3.401   2.468   2.920
11745SOL     OW35258   3.719   2.695   2.239
11745SOL    HW135259   3.761   2.631   2.303
11745SOL    HW235260   3.681   2.644   2.161
11746SOL     OW35261   2.350   3.247   2.036
11746SOL    HW135262   2.263   3.232   2.083
11746SOL    HW235263   2.333   3.273   1.941
11747SOL     OW35264   3.526   3.142   2.519
11747SOL    HW135265   3.625   3.150   2.533
11747SOL    HW235266   3.481   3.226   2.550
11748SOL     OW35267   3.252   2.437   1.940
11748SOL    HW135268   3.198   2.416   2.021
11748SOL    HW235269   3.343   2.396   1.949
11749SOL     OW35270   2.389   2.118   2.190
11749SOL    HW135271   2.416   2.059   2.115
11749SOL    HW235272   2.389   2.213   2.159
11750SOL     OW35273   3.616   3.085   3.450
11750SOL    HW135274   3.707   3.046   3.437
11750SOL    HW235275   3.624   3.181   3.474
11751SOL     OW35276   2.926   3.209   3.202
11751SOL    HW135277   2.846   3.186   3.257
11751SOL    HW235278   3.009   3.183   3.251
11752SOL     OW35279   3.454   3.491   3.487
11752SOL    HW135280   3.481   3.525   3.397
11752SOL    HW235281   3.533   3.453   3.533
11753SOL     OW35282   2.973   3.057   2.962
11753SOL    HW135283   2.933   3.101   3.043
11753SOL    HW235284   2.932   3.094   2.879
11754SOL     OW35285   3.500   2.961   2.941
11754SOL    HW135286   3.505   3.042   3.000
11754SOL    HW235287   3.414   2.963   2.890
11755SOL     OW35288   2.777   1.951   3.264
11755SOL    HW135289   2.802   1.931   3.169
11755SOL    HW235290   2.849   2.007   3.306
11756SOL     OW35291   2.842   2.978   3.581
11756SOL    HW135292   2.743   2.984   3.591
11756SOL    HW235293   2.865   2.898   3.525
11757SOL     OW35294   2.567   2.912   2.230
11757SOL    HW135295   2.553   2.919   2.329
11757SOL    HW235296   2.651   2.861   2.212
11758SOL     OW35297   2.272   2.675   3.113
11758SOL    HW135298   2.358   2.687   3.163
11758SOL    HW235299   2.230   2.588   3.140
11759SOL     OW35300   3.136   2.248   3.124
11759SOL    HW135301   3.157   2.322   3.188
11759SOL    HW235302   3.047   2.265   3.081
11760SOL     OW35303   1.926   3.426   3.193
11760SOL    HW135304   1.880   3.508   3.159
11760SOL    HW235305   2.024   3.445   3.202
11761SOL     OW35306   2.229   2.962   2.363
11761SOL    HW135307   2.222   3.045   2.307
11761SOL    HW235308   2.233   2.882   2.303
11762SOL     OW35309   2.428   2.399   2.727
11762SOL    HW135310   2.440   2.465   2.653
11762SOL    HW235311   2.474   2.433   2.810
11763SOL     OW35312   3.114   3.210   2.250
11763SOL    HW135313   3.164   3.287   2.290
11763SOL    HW235314   3.019   3.212   2.282
11764SOL     OW35315   3.134   3.307   3.004
11764SOL    HW135316   3.181   3.320   3.091
11764SOL    HW235317   3.068   3.233   3.013
11765SOL     OW35318   3.444   2.501   2.334
11765SOL    HW135319   3.413   2.562   2.407
11765SOL    HW235320   3.494   2.553   2.265
11766SOL     OW35321   2.216   3.372   3.191
11766SOL    HW135322   2.195   3.328   3.104
11766SOL    HW235323   2.313   3.398   3.194
11767SOL     OW35324   2.264   2.613   3.460
11767SOL    HW135325   2.332   2.668   3.413
11767SOL    HW235326   2.304   2.525   3.487
11768SOL     OW35327   3.449   2.641   3.532
11768SOL    HW135328   3.357   2.679   3.527
11768SOL    HW235329   3.509   2.688   3.467
11769SOL     OW35330   2.875   1.967   3.632
11769SOL    HW135331   2.881   2.052   3.580
11769SOL    HW235332   2.907   1.891   3.575
11770SOL     OW35333   2.366   1.912   3.602
11770SOL    HW135334   2.324   1.855   3.532
11770SOL    HW235335   2.300   1.981   3.634
11771SOL     OW35336   2.435   2.732   2.891
11771SOL    HW135337   2.479   2.821   2.882
11771SOL    HW235338   2.372   2.732   2.968
11772SOL     OW35339   3.222   2.724   2.907
11772SOL    HW135340   3.147   2.724   2.841
11772SOL    HW235341   3.259   2.632   2.916
11773SOL     OW35342   3.071   2.387   2.137
11773SOL    HW135343   3.084   2.303   2.191
11773SOL    HW235344   3.042   2.461   2.197
11774SOL     OW35345   2.169   2.075   3.093
11774SOL    HW135346   2.146   2.112   3.183
11774SOL    HW235347   2.139   1.980   3.087
11775SOL     OW35348   1.899   3.172   3.144
11775SOL    HW135349   1.952   3.123   3.212
11775SOL    HW235350   1.921   3.270   3.149
11776SOL     OW35351   2.594   2.496   2.926
11776SOL    HW135352   2.653   2.470   2.850
11776SOL    HW235353   2.566   2.592   2.915
11777SOL     OW35354   3.590   2.797   3.716
11777SOL    HW135355   3.544   2.790   3.627
11777SOL    HW235356   3.528   2.841   3.782
11778SOL     OW35357   2.169   1.925   2.480
11778SOL    HW135358   2.158   2.019   2.513
11778SOL    HW235359   2.164   1.862   2.557
11779SOL     OW35360   3.484   2.229   2.236
11779SOL    HW135361   3.486   2.153   2.300
11779SOL    HW235362   3.436   2.306   2.276
11780SOL     OW35363   2.885   2.628   2.828
11780SOL    HW135364   2.900   2.649   2.924
11780SOL    HW235365   2.855   2.533   2.819
11781SOL     OW35366   2.842   3.435   3.562
11781SOL    HW135367   2.822   3.479   3.474
11781SOL    HW235368   2.881   3.344   3.546
11782SOL     OW35369   3.721   3.380   3.467
11782SOL    HW135370   3.735   3.407   3.372
11782SOL    HW235371   3.804   3.402   3.520
11783SOL     OW35372   2.212   2.760   3.666
11783SOL    HW135373   2.288   2.804   3.714
11783SOL    HW235374   2.247   2.713   3.584
11784SOL     OW35375   3.402   2.136   1.987
11784SOL    HW135376   3.341   2.061   2.010
11784SOL    HW235377   3.424   2.188   2.070
11785SOL     OW35378   3.165   2.700   1.904
11785SOL    HW135379   3.199   2.607   1.919
11785SOL    HW235380   3.183   2.727   1.809
11786SOL     OW35381   2.930   3.195   2.711
11786SOL    HW135382   2.937   3.111   2.656
11786SOL    HW235383   2.992   3.264   2.675
11787SOL     OW35384   2.181   2.672   2.811
11787SOL    HW135385   2.274   2.708   2.816
11787SOL    HW235386   2.175   2.587   2.863
11788SOL     OW35387   2.201   2.371   2.868
11788SOL    HW135388   2.149   2.288   2.851
11788SOL    HW235389   2.278   2.376   2.804
11789SOL     OW35390   3.000   2.242   3.540
11789SOL    HW135391   2.955   2.305   3.604
11789SOL    HW235392   3.093   2.273   3.523
11790SOL     OW35393   3.022   2.069   3.339
11790SOL    HW135394   3.022   2.133   3.416
11790SOL    HW235395   3.050   2.117   3.256
11791SOL     OW35396   1.870   3.188   2.062
11791SOL    HW135397   1.777   3.209   2.031
11791SOL    HW235398   1.880   3.089   2.075
11792SOL     OW35399   1.950   3.663   2.789
11792SOL    HW135400   1.908   3.577   2.762
11792SOL    HW235401   2.044   3.666   2.755
11793SOL     OW35402   2.366   3.430   2.772
11793SOL    HW135403   2.432   3.504   2.781
11793SOL    HW235404   2.410   3.351   2.730
11794SOL     OW35405   2.864   2.658   3.100
11794SOL    HW135406   2.905   2.626   3.186
11794SOL    HW235407   2.768   2.631   3.097
11795SOL     OW35408   1.902   2.406   2.976
11795SOL    HW135409   1.987   2.373   2.935
11795SOL    HW235410   1.915   2.421   3.074
11796SOL     OW35411   2.051   2.382   3.584
11796SOL    HW135412   2.110   2.342   3.514
11796SOL    HW235413   1.993   2.453   3.543
11797SOL     OW35414   3.231   2.812   3.522
11797SOL    HW135415   3.270   2.901   3.542
11797SOL    HW235416   3.241   2.792   3.425
11798SOL     OW35417   2.677   2.434   2.187
11798SOL    HW135418   2.684   2.345   2.141
11798SOL    HW235419   2.583   2.468   2.179
11799SOL     OW35420   3.519   2.466   3.068
11799SOL    HW135421   3.481   2.397   3.130
11799SOL    HW235422   3.601   2.430   3.024
11800SOL     OW35423   2.114   3.426   3.606
11800SOL    HW135424   2.084   3.483   3.682
11800SOL    HW235425   2.107   3.329   3.632
11801SOL     OW35426   2.533   2.326   3.131
11801SOL    HW135427   2.499   2.237   3.101
11801SOL    HW235428   2.559   2.380   3.051
11802SOL     OW35429   2.792   3.540   3.327
11802SOL    HW135430   2.768   3.522   3.232
11802SOL    HW235431   2.822   3.634   3.337
11803SOL     OW35432   2.335   2.362   2.053
11803SOL    HW135433   2.396   2.442   2.057
11803SOL    HW235434   2.240   2.393   2.060
11804SOL     OW35435   2.021   2.999   3.328
11804SOL    HW135436   2.043   2.938   3.404
11804SOL    HW235437   2.031   2.950   3.242
11805SOL     OW35438   3.209   2.921   3.096
11805SOL    HW135439   3.233   2.858   3.022
11805SOL    HW235440   3.119   2.961   3.078
11806SOL     OW35441   3.164   2.717   2.171
11806SOL    HW135442   3.078   2.686   2.213
11806SOL    HW235443   3.160   2.703   2.072
11807SOL     OW35444   3.621   3.609   3.016
11807SOL    HW135445   3.682   3.639   2.943
11807SOL    HW235446   3.583   3.520   2.994
11808SOL     OW35447   3.114   3.593   2.990
11808SOL    HW135448   3.198   3.598   2.936
11808SOL    HW235449   3.091   3.497   3.008
11809SOL     OW35450   1.945   3.120   2.884
11809SOL    HW135451   1.940   3.119   2.984
11809SOL    HW235452   1.862   3.079   2.846
11810SOL     OW35453   2.550   3.524   3.578
11810SOL    HW135454   2.494   3.605   3.587
11810SOL    HW235455   2.602   3.528   3.492
11811SOL     OW35456   3.588   1.997   2.385
11811SOL    HW135457   3.661   1.980   2.318
11811SOL    HW235458   3.557   1.910   2.423
11812SOL     OW35459   3.250   3.435   2.339
11812SOL    HW135460   3.317   3.447   2.265
11812SOL    HW235461   3.210   3.524   2.362
11813SOL     OW35462   1.992   3.656   3.713
11813SOL    HW135463   1.951   3.582   3.766
11813SOL    HW235464   2.056   3.707   3.771
11814SOL     OW35465   3.142   2.789   2.534
11814SOL    HW135466   3.202   2.708   2.536
11814SOL    HW235467   3.182   2.858   2.474
11815SOL     OW35468   2.692   3.135   3.284
11815SOL    HW135469   2.687   3.168   3.379
11815SOL    HW235470   2.606   3.154   3.238
11816SOL     OW35471   2.534   3.478   2.016
11816SOL    HW135472   2.543   3.488   1.917
11816SOL    HW235473   2.494   3.389   2.037
11817SOL     OW35474   3.512   3.582   3.256
11817SOL    HW135475   3.565   3.592   3.172
11817SOL    HW235476   3.485   3.672   3.290
11818SOL     OW35477   3.703   2.037   2.825
11818SOL    HW135478   3.742   1.952   2.789
11818SOL    HW235479   3.605   2.039   2.806
11819SOL     OW35480   2.125   2.188   2.582
11819SOL    HW135481   2.046   2.239   2.548
11819SOL    HW235482   2.116   2.173   2.680
11820SOL     OW35483   2.684   2.864   3.234
11820SOL    HW135484   2.724   2.863   3.142
11820SOL    HW235485   2.694   2.956   3.274
11821SOL     OW35486   2.778   2.772   2.153
11821SOL    HW135487   2.841   2.810   2.085
11821SOL    HW235488   2.818   2.689   2.192
11822SOL     OW35489   3.366   3.469   1.906
11822SOL    HW135490   3.274   3.506   1.913
11822SOL    HW235491   3.404   3.489   1.816
11823SOL     OW35492   2.234   3.150   3.352
11823SOL    HW135493   2.221   3.243   3.318
11823SOL    HW235494   2.150   3.098   3.339
11824SOL     OW35495   3.476   3.154   3.151
11824SOL    HW135496   3.536   3.157   3.231
11824SOL    HW235497   3.401   3.218   3.164
11825SOL     OW35498   2.901   2.960   2.558
11825SOL    HW135499   2.831   2.913   2.612
11825SOL    HW235500   2.960   2.892   2.515
11826SOL     OW35501   2.876   2.098   2.833
11826SOL    HW135502   2.868   2.062   2.740
11826SOL    HW235503   2.874   2.022   2.898
11827SOL     OW35504   2.452   3.349   2.353
11827SOL    HW135505   2.494   3.291   2.283
11827SOL    HW235506   2.408   3.428   2.309
11828SOL     OW35507   3.571   2.247   3.243
11828SOL    HW135508   3.644   2.316   3.247
11828SOL    HW235509   3.599   2.172   3.184
11829SOL     OW35510   2.117   3.210   2.152
11829SOL    HW135511   2.021   3.211   2.125
11829SOL    HW235512   2.129   3.263   2.236
11830SOL     OW35513   1.967   2.875   3.588
11830SOL    HW135514   1.890   2.842   3.642
11830SOL    HW235515   2.052   2.845   3.630
11831SOL     OW35516   2.534   2.065   3.351
11831SOL    HW135517   2.624   2.049   3.311
11831SOL    HW235518   2.542   2.070   3.450
11832SOL     OW35519   1.937   2.207   1.895
11832SOL    HW135520   1.845   2.179   1.866
11832SOL    HW235521   1.968   2.284   1.839
11833SOL     OW35522   3.302   2.718   3.260
11833SOL    HW135523   3.245   2.770   3.197
11833SOL    HW235524   3.398   2.730   3.236
11834SOL     OW35525   1.934   2.028   2.180
11834SOL    HW135526   1.917   2.111   2.126
11834SOL    HW235527   2.024   1.991   2.158
11835SOL     OW35528   3.045   3.197   1.981
11835SOL    HW135529   2.946   3.186   1.983
11835SOL    HW235530   3.079   3.212   2.074
11836SOL     OW35531   2.475   2.704   3.293
11836SOL    HW135532   2.531   2.785   3.276
11836SOL    HW235533   2.534   2.624   3.296
11837SOL     OW35534   3.355   3.629   2.821
11837SOL    HW135535   3.388   3.693   2.752
11837SOL    HW235536   3.421   3.623   2.896
11838SOL     OW35537   2.578   2.427   3.570
11838SOL    HW135538   2.597   2.492   3.644
11838SOL    HW235539   2.638   2.347   3.579
11839SOL     OW35540   3.312   3.082   3.495
11839SOL    HW135541   3.303   3.072   3.594
11839SOL    HW235542   3.408   3.075   3.469
11840SOL     OW35543   2.252   3.603   3.422
11840SOL    HW135544   2.161   3.644   3.420
11840SOL    HW235545   2.245   3.509   3.454
11841SOL     OW35546   3.536   2.745   3.116
11841SOL    HW135547   3.509   2.656   3.079
11841SOL    HW235548   3.537   2.813   3.043
11842SOL     OW35549   3.087   2.187   2.311
11842SOL    HW135550   3.152   2.113   2.300
11842SOL    HW235551   3.107   2.237   2.395
11843SOL     OW35552   2.456   2.607   2.514
11843SOL    HW135553   2.506   2.692   2.495
11843SOL    HW235554   2.368   2.609   2.466
11844SOL     OW35555   3.639   2.204   3.504
11844SOL    HW135556   3.622   2.235   3.410
11844SOL    HW235557   3.555   2.167   3.542
11845SOL     OW35558   3.592   2.796   3.379
11845SOL    HW135559   3.630   2.887   3.394
11845SOL    HW235560   3.584   2.779   3.280
11846SOL     OW35561   2.721   3.236   1.878
11846SOL    HW135562   2.675   3.251   1.966
11846SOL    HW235563   2.765   3.321   1.848
11847SOL     OW35564   2.523   3.652   2.815
11847SOL    HW135565   2.477   3.740   2.802
11847SOL    HW235566   2.622   3.664   2.808
11848SOL     OW35567   2.721   2.818   2.723
11848SOL    HW135568   2.775   2.749   2.771
11848SOL    HW235569   2.689   2.887   2.789
11849SOL     OW35570   2.945   2.846   1.949
11849SOL    HW135571   2.922   2.899   1.867
11849SOL    HW235572   3.026   2.790   1.930
11850SOL     OW35573   3.723   3.431   2.713
11850SOL    HW135574   3.652   3.419   2.643
11850SOL    HW235575   3.724   3.352   2.773
11851SOL     OW35576   2.083   3.176   3.706
11851SOL    HW135577   2.018   3.103   3.685
11851SOL    HW235578   2.087   3.190   3.804
11852SOL     OW35579   1.941   3.102   2.515
11852SOL    HW135580   1.940   3.055   2.603
11852SOL    HW235581   2.023   3.074   2.464
11853SOL     OW35582   2.534   3.253   3.486
11853SOL    HW135583   2.456   3.203   3.524
11853SOL    HW235584   2.531   3.348   3.517
11854SOL     OW35585   3.686   2.054   3.089
11854SOL    HW135586   3.682   1.964   3.133
11854SOL    HW235587   3.689   2.043   2.990
11855SOL     OW35588   2.290   2.286   2.382
11855SOL    HW135589   2.320   2.214   2.320
11855SOL    HW235590   2.251   2.246   2.465
11856SOL     OW35591   3.567   3.349   2.966
11856SOL    HW135592   3.474   3.324   2.939
11856SOL    HW235593   3.593   3.299   3.048
11857SOL     OW35594   2.179   2.409   3.142
11857SOL    HW135595   2.217   2.350   3.214
11857SOL    HW235596   2.219   2.383   3.054
11858SOL     OW35597   2.674   3.448   2.549
11858SOL    HW135598   2.706   3.458   2.455
11858SOL    HW235599   2.595   3.386   2.551
11859SOL     OW35600   3.286   2.076   2.974
11859SOL    HW135601   3.338   2.011   3.029
11859SOL    HW235602   3.237   2.139   3.035
11860SOL     OW35603   2.863   1.896   3.016
11860SOL    HW135604   2.800   1.824   2.985
11860SOL    HW235605   2.956   1.860   3.016
11861SOL     OW35606   2.632   3.192   2.163
11861SOL    HW135607   2.586   3.105   2.180
11861SOL    HW235608   2.723   3.189   2.204
11862SOL     OW35609   2.480   3.429   3.146
11862SOL    HW135610   2.475   3.511   3.203
11862SOL    HW235611   2.569   3.426   3.101
11863SOL     OW35612   3.214   1.914   2.030
11863SOL    HW135613   3.249   1.873   1.946
11863SOL    HW235614   3.124   1.876   2.050
11864SOL     OW35615   3.162   2.315   2.553
11864SOL    HW135616   3.103   2.395   2.557
11864SOL    HW235617   3.177   2.280   2.646
11865SOL     OW35618   3.455   2.083   2.744
11865SOL    HW135619   3.371   2.082   2.798
11865SOL    HW235620   3.457   2.166   2.688
11866SOL     OW35621   1.901   2.939   2.162
11866SOL    HW135622   2.000   2.928   2.153
11866SOL    HW235623   1.861   2.853   2.194
11867SOL     OW35624   2.737   3.508   2.199
11867SOL    HW135625   2.660   3.473   2.145
11867SOL    HW235626   2.705   3.579   2.261
11868SOL     OW35627   2.092   2.490   3.837
11868SOL    HW135628   1.999   2.488   3.874
11868SOL    HW235629   2.093   2.451   3.745
11869SOL     OW35630   2.087   2.137   4.720
11869SOL    HW135631   2.122   2.120   4.812
11869SOL    HW235632   1.999   2.092   4.708
11870SOL     OW35633   1.881   2.230   4.371
11870SOL    HW135634   1.799   2.273   4.410
11870SOL    HW235635   1.853   2.157   4.308
11871SOL     OW35636   2.431   3.137   4.889
11871SOL    HW135637   2.338   3.130   4.852
11871SOL    HW235638   2.442   3.226   4.933
11872SOL     OW35639   3.417   3.373   4.427
11872SOL    HW135640   3.360   3.357   4.508
11872SOL    HW235641   3.358   3.383   4.347
11873SOL     OW35642   2.997   2.565   4.441
11873SOL    HW135643   3.054   2.643   4.416
11873SOL    HW235644   2.937   2.591   4.517
11874SOL     OW35645   3.617   2.469   3.955
11874SOL    HW135646   3.605   2.456   3.856
11874SOL    HW235647   3.587   2.388   4.004
11875SOL     OW35648   2.630   3.006   4.747
11875SOL    HW135649   2.552   3.023   4.807
11875SOL    HW235650   2.664   3.093   4.711
11876SOL     OW35651   2.712   2.660   5.547
11876SOL    HW135652   2.708   2.736   5.612
11876SOL    HW235653   2.734   2.696   5.456
11877SOL     OW35654   2.547   2.874   4.389
11877SOL    HW135655   2.616   2.858   4.459
11877SOL    HW235656   2.474   2.931   4.427
11878SOL     OW35657   2.548   3.023   5.527
11878SOL    HW135658   2.608   3.102   5.541
11878SOL    HW235659   2.462   3.054   5.486
11879SOL     OW35660   2.197   3.297   4.785
11879SOL    HW135661   2.119   3.266   4.732
11879SOL    HW235662   2.255   3.355   4.728
11880SOL     OW35663   3.322   3.367   5.063
11880SOL    HW135664   3.346   3.461   5.089
11880SOL    HW235665   3.306   3.313   5.145
11881SOL     OW35666   2.300   2.254   5.223
11881SOL    HW135667   2.382   2.198   5.232
11881SOL    HW235668   2.219   2.196   5.227
11882SOL     OW35669   3.465   2.309   4.461
11882SOL    HW135670   3.391   2.355   4.411
11882SOL    HW235671   3.516   2.377   4.514
11883SOL     OW35672   2.093   3.575   4.207
11883SOL    HW135673   2.127   3.652   4.261
11883SOL    HW235674   2.137   3.575   4.117
11884SOL     OW35675   2.989   3.203   5.414
11884SOL    HW135676   3.036   3.203   5.502
11884SOL    HW235677   2.941   3.116   5.403
11885SOL     OW35678   2.092   3.296   4.262
11885SOL    HW135679   2.066   3.392   4.262
11885SOL    HW235680   2.021   3.242   4.307
11886SOL     OW35681   2.102   2.953   4.610
11886SOL    HW135682   2.116   2.869   4.662
11886SOL    HW235683   2.047   3.017   4.665
11887SOL     OW35684   2.482   3.648   5.163
11887SOL    HW135685   2.390   3.631   5.198
11887SOL    HW235686   2.510   3.740   5.189
11888SOL     OW35687   2.468   2.826   3.847
11888SOL    HW135688   2.475   2.910   3.793
11888SOL    HW235689   2.514   2.839   3.935
11889SOL     OW35690   3.456   1.976   5.204
11889SOL    HW135691   3.438   2.043   5.132
11889SOL    HW235692   3.453   2.022   5.293
11890SOL     OW35693   1.984   2.505   4.287
11890SOL    HW135694   1.939   2.417   4.304
11890SOL    HW235695   1.983   2.559   4.371
11891SOL     OW35696   3.704   3.629   4.083
11891SOL    HW135697   3.758   3.600   4.163
11891SOL    HW235698   3.734   3.719   4.054
11892SOL     OW35699   1.889   3.458   3.841
11892SOL    HW135700   1.870   3.362   3.862
11892SOL    HW235701   1.856   3.516   3.916
11893SOL     OW35702   3.551   2.784   4.336
11893SOL    HW135703   3.646   2.755   4.344
11893SOL    HW235704   3.543   2.849   4.261
11894SOL     OW35705   3.503   2.970   4.156
11894SOL    HW135706   3.589   2.972   4.104
11894SOL    HW235707   3.517   3.017   4.244
11895SOL     OW35708   1.975   2.599   5.321
11895SOL    HW135709   2.063   2.586   5.366
11895SOL    HW235710   1.962   2.696   5.299
11896SOL     OW35711   2.475   3.227   4.450
11896SOL    HW135712   2.426   3.140   4.459
11896SOL    HW235713   2.452   3.270   4.363
11897SOL     OW35714   3.155   3.090   5.147
11897SOL    HW135715   3.192   3.017   5.089
11897SOL    HW235716   3.207   3.095   5.232
11898SOL     OW35717   2.671   1.866   4.226
11898SOL    HW135718   2.711   1.957   4.217
11898SOL    HW235719   2.571   1.874   4.232
11899SOL     OW35720   2.059   2.838   4.988
11899SOL    HW135721   2.148   2.793   4.974
11899SOL    HW235722   1.986   2.773   4.969
11900SOL     OW35723   3.387   2.861   3.914
11900SOL    HW135724   3.324   2.785   3.927
11900SOL    HW235725   3.435   2.879   4.000
11901SOL     OW35726   3.049   3.654   5.340
11901SOL    HW135727   3.073   3.714   5.264
11901SOL    HW235728   3.056   3.559   5.310
11902SOL     OW35729   2.179   2.113   5.525
11902SOL    HW135730   2.250   2.184   5.531
11902SOL    HW235731   2.091   2.152   5.553
11903SOL     OW35732   3.328   3.279   4.677
11903SOL    HW135733   3.269   3.285   4.757
11903SOL    HW235734   3.313   3.191   4.631
11904SOL     OW35735   3.529   3.576   4.296
11904SOL    HW135736   3.488   3.553   4.208
11904SOL    HW235737   3.511   3.502   4.361
11905SOL     OW35738   2.460   2.591   3.994
11905SOL    HW135739   2.484   2.660   3.926
11905SOL    HW235740   2.382   2.624   4.048
11906SOL     OW35741   3.143   2.207   4.668
11906SOL    HW135742   3.057   2.157   4.655
11906SOL    HW235743   3.205   2.153   4.724
11907SOL     OW35744   3.438   3.524   4.031
11907SOL    HW135745   3.527   3.570   4.034
11907SOL    HW235746   3.417   3.500   3.936
11908SOL     OW35747   2.669   2.467   5.189
11908SOL    HW135748   2.622   2.464   5.278
11908SOL    HW235749   2.618   2.412   5.123
11909SOL     OW35750   3.256   2.331   5.398
11909SOL    HW135751   3.236   2.374   5.486
11909SOL    HW235752   3.334   2.269   5.407
11910SOL     OW35753   2.835   2.752   5.296
11910SOL    HW135754   2.881   2.668   5.267
11910SOL    HW235755   2.779   2.786   5.221
11911SOL     OW35756   2.853   2.272   4.966
11911SOL    HW135757   2.776   2.306   5.020
11911SOL    HW235758   2.819   2.221   4.887
11912SOL     OW35759   2.903   2.563   4.153
11912SOL    HW135760   2.929   2.559   4.249
11912SOL    HW235761   2.818   2.512   4.139
11913SOL     OW35762   1.938   2.673   4.513
11913SOL    HW135763   2.037   2.661   4.522
11913SOL    HW235764   1.914   2.768   4.534
11914SOL     OW35765   1.992   3.683   5.295
11914SOL    HW135766   1.982   3.668   5.394
11914SOL    HW235767   1.906   3.719   5.259
11915SOL     OW35768   2.727   2.210   3.919
11915SOL    HW135769   2.786   2.273   3.870
11915SOL    HW235770   2.746   2.116   3.890
11916SOL     OW35771   3.581   2.447   5.555
11916SOL    HW135772   3.555   2.536   5.519
11916SOL    HW235773   3.579   2.379   5.482
11917SOL     OW35774   3.224   3.006   4.269
11917SOL    HW135775   3.307   2.977   4.221
11917SOL    HW235776   3.175   3.073   4.213
11918SOL     OW35777   2.412   2.058   4.609
11918SOL    HW135778   2.407   2.053   4.709
11918SOL    HW235779   2.414   2.154   4.580
11919SOL     OW35780   2.870   3.318   4.201
11919SOL    HW135781   2.824   3.390   4.149
11919SOL    HW235782   2.866   3.338   4.299
11920SOL     OW35783   2.213   3.663   4.577
11920SOL    HW135784   2.263   3.577   4.583
11920SOL    HW235785   2.278   3.740   4.574
11921SOL     OW35786   3.657   2.928   4.597
11921SOL    HW135787   3.595   2.913   4.521
11921SOL    HW235788   3.605   2.939   4.682
11922SOL     OW35789   3.089   3.412   5.230
11922SOL    HW135790   3.095   3.335   5.294
11922SOL    HW235791   3.037   3.386   5.150
11923SOL     OW35792   2.183   2.805   3.966
11923SOL    HW135793   2.265   2.844   3.924
11923SOL    HW235794   2.156   2.723   3.917
11924SOL     OW35795   3.320   2.597   4.452
11924SOL    HW135796   3.315   2.532   4.527
11924SOL    HW235797   3.400   2.656   4.465
11925SOL     OW35798   2.323   3.128   5.451
11925SOL    HW135799   2.273   3.129   5.365
11925SOL    HW235800   2.260   3.110   5.527
11926SOL     OW35801   2.973   3.638   3.961
11926SOL    HW135802   2.913   3.576   4.011
11926SOL    HW235803   3.004   3.594   3.876
11927SOL     OW35804   2.064   2.147   5.222
11927SOL    HW135805   1.984   2.207   5.209
11927SOL    HW235806   2.054   2.098   5.308
11928SOL     OW35807   3.494   3.239   3.805
11928SOL    HW135808   3.462   3.333   3.795
11928SOL    HW235809   3.418   3.176   3.793
11929SOL     OW35810   2.326   3.605   4.047
11929SOL    HW135811   2.359   3.644   4.133
11929SOL    HW235812   2.402   3.598   3.982
11930SOL     OW35813   3.262   1.969   4.150
11930SOL    HW135814   3.238   1.932   4.060
11930SOL    HW235815   3.361   1.985   4.154
11931SOL     OW35816   2.111   3.647   4.965
11931SOL    HW135817   2.168   3.582   5.015
11931SOL    HW235818   2.095   3.614   4.872
11932SOL     OW35819   2.802   3.560   4.628
11932SOL    HW135820   2.882   3.503   4.649
11932SOL    HW235821   2.753   3.520   4.551
11933SOL     OW35822   2.244   2.562   4.204
11933SOL    HW135823   2.289   2.472   4.201
11933SOL    HW235824   2.150   2.551   4.237
11934SOL     OW35825   3.409   2.084   5.453
11934SOL    HW135826   3.404   2.121   5.545
11934SOL    HW235827   3.337   2.015   5.441
11935SOL     OW35828   2.476   1.984   3.841
11935SOL    HW135829   2.574   1.962   3.848
11935SOL    HW235830   2.445   1.967   3.748
11936SOL     OW35831   2.643   2.126   5.473
11936SOL    HW135832   2.710   2.065   5.516
11936SOL    HW235833   2.570   2.145   5.538
11937SOL     OW35834   2.750   3.376   4.919
11937SOL    HW135835   2.727   3.351   4.825
11937SOL    HW235836   2.811   3.307   4.958
11938SOL     OW35837   3.213   2.452   5.157
11938SOL    HW135838   3.241   2.409   5.242
11938SOL    HW235839   3.238   2.548   5.158
11939SOL     OW35840   2.665   3.264   4.648
11939SOL    HW135841   2.755   3.278   4.606
11939SOL    HW235842   2.594   3.266   4.577
11940SOL     OW35843   2.784   2.365   4.623
11940SOL    HW135844   2.759   2.356   4.527
11940SOL    HW235845   2.832   2.283   4.654
11941SOL     OW35846   2.401   1.926   4.236
11941SOL    HW135847   2.320   1.927   4.294
11941SOL    HW235848   2.404   2.009   4.181
11942SOL     OW35849   3.296   3.050   3.765
11942SOL    HW135850   3.328   2.974   3.822
11942SOL    HW235851   3.204   3.077   3.795
11943SOL     OW35852   2.159   1.897   3.895
11943SOL    HW135853   2.208   1.981   3.874
11943SOL    HW235854   2.221   1.832   3.940
11944SOL     OW35855   2.797   2.098   4.204
11944SOL    HW135856   2.749   2.139   4.126
11944SOL    HW235857   2.896   2.096   4.185
11945SOL     OW35858   2.938   2.545   5.188
11945SOL    HW135859   2.858   2.484   5.191
11945SOL    HW235860   3.019   2.492   5.164
11946SOL     OW35861   3.089   3.432   4.517
11946SOL    HW135862   3.110   3.506   4.452
11946SOL    HW235863   3.157   3.432   4.590
11947SOL     OW35864   2.321   3.014   4.465
11947SOL    HW135865   2.250   2.987   4.530
11947SOL    HW235866   2.295   2.986   4.372
11948SOL     OW35867   3.133   3.659   4.315
11948SOL    HW135868   3.177   3.723   4.251
11948SOL    HW235869   3.083   3.711   4.385
11949SOL     OW35870   2.894   2.411   3.740
11949SOL    HW135871   2.853   2.493   3.701
11949SOL    HW235872   2.958   2.437   3.813
11950SOL     OW35873   1.940   2.418   5.110
11950SOL    HW135874   2.032   2.417   5.069
11950SOL    HW235875   1.934   2.492   5.177
11951SOL     OW35876   2.423   2.084   4.871
11951SOL    HW135877   2.461   2.000   4.908
11951SOL    HW235878   2.335   2.103   4.915
11952SOL     OW35879   2.728   2.316   4.366
11952SOL    HW135880   2.696   2.388   4.304
11952SOL    HW235881   2.752   2.235   4.313
11953SOL     OW35882   2.879   1.901   4.477
11953SOL    HW135883   2.807   1.906   4.408
11953SOL    HW235884   2.855   1.832   4.546
11954SOL     OW35885   3.291   3.035   4.591
11954SOL    HW135886   3.236   2.951   4.584
11954SOL    HW235887   3.317   3.064   4.499
11955SOL     OW35888   3.328   2.452   4.716
11955SOL    HW135889   3.298   2.357   4.723
11955SOL    HW235890   3.401   2.468   4.782
11956SOL     OW35891   3.719   2.695   4.101
11956SOL    HW135892   3.761   2.631   4.165
11956SOL    HW235893   3.681   2.644   4.023
11957SOL     OW35894   2.350   3.247   3.898
11957SOL    HW135895   2.263   3.232   3.945
11957SOL    HW235896   2.333   3.273   3.803
11958SOL     OW35897   3.526   3.142   4.381
11958SOL    HW135898   3.625   3.150   4.395
11958SOL    HW235899   3.481   3.226   4.412
11959SOL     OW35900   3.252   2.437   3.802
11959SOL    HW135901   3.198   2.416   3.883
11959SOL    HW235902   3.343   2.396   3.811
11960SOL     OW35903   2.389   2.118   4.052
11960SOL    HW135904   2.416   2.059   3.977
11960SOL    HW235905   2.389   2.213   4.021
11961SOL     OW35906   3.616   3.085   5.312
11961SOL    HW135907   3.707   3.046   5.299
11961SOL    HW235908   3.624   3.181   5.336
11962SOL     OW35909   2.926   3.209   5.064
11962SOL    HW135910   2.846   3.186   5.119
11962SOL    HW235911   3.009   3.183   5.113
11963SOL     OW35912   3.454   3.491   5.349
11963SOL    HW135913   3.481   3.525   5.259
11963SOL    HW235914   3.533   3.453   5.395
11964SOL     OW35915   2.973   3.057   4.824
11964SOL    HW135916   2.933   3.101   4.905
11964SOL    HW235917   2.932   3.094   4.741
11965SOL     OW35918   3.500   2.961   4.803
11965SOL    HW135919   3.505   3.042   4.862
11965SOL    HW235920   3.414   2.963   4.752
11966SOL     OW35921   2.777   1.951   5.126
11966SOL    HW135922   2.802   1.931   5.031
11966SOL    HW235923   2.849   2.007   5.168
11967SOL     OW35924   2.842   2.978   5.443
11967SOL    HW135925   2.743   2.984   5.453
11967SOL    HW235926   2.865   2.898   5.387
11968SOL     OW35927   2.567   2.912   4.092
11968SOL    HW135928   2.553   2.919   4.191
11968SOL    HW235929   2.651   2.861   4.074
11969SOL     OW35930   2.272   2.675   4.975
11969SOL    HW135931   2.358   2.687   5.025
11969SOL    HW235932   2.230   2.588   5.002
11970SOL     OW35933   3.136   2.248   4.986
11970SOL    HW135934   3.157   2.322   5.050
11970SOL    HW235935   3.047   2.265   4.943
11971SOL     OW35936   1.926   3.426   5.055
11971SOL    HW135937   1.880   3.508   5.021
11971SOL    HW235938   2.024   3.445   5.064
11972SOL     OW35939   2.229   2.962   4.225
11972SOL    HW135940   2.222   3.045   4.169
11972SOL    HW235941   2.233   2.882   4.165
11973SOL     OW35942   2.428   2.399   4.589
11973SOL    HW135943   2.440   2.465   4.515
11973SOL    HW235944   2.474   2.433   4.672
11974SOL     OW35945   3.114   3.210   4.112
11974SOL    HW135946   3.164   3.287   4.152
11974SOL    HW235947   3.019   3.212   4.144
11975SOL     OW35948   3.134   3.307   4.866
11975SOL    HW135949   3.181   3.320   4.953
11975SOL    HW235950   3.068   3.233   4.875
11976SOL     OW35951   3.444   2.501   4.196
11976SOL    HW135952   3.413   2.562   4.269
11976SOL    HW235953   3.494   2.553   4.127
11977SOL     OW35954   2.216   3.372   5.053
11977SOL    HW135955   2.195   3.328   4.966
11977SOL    HW235956   2.313   3.398   5.056
11978SOL     OW35957   2.264   2.613   5.322
11978SOL    HW135958   2.332   2.668   5.275
11978SOL    HW235959   2.304   2.525   5.349
11979SOL     OW35960   3.449   2.641   5.394
11979SOL    HW135961   3.357   2.679   5.389
11979SOL    HW235962   3.509   2.688   5.329
11980SOL     OW35963   2.875   1.967   5.494
11980SOL    HW135964   2.881   2.052   5.442
11980SOL    HW235965   2.907   1.891   5.437
11981SOL     OW35966   2.366   1.912   5.464
11981SOL    HW135967   2.324   1.855   5.394
11981SOL    HW235968   2.300   1.981   5.496
11982SOL     OW35969   2.435   2.732   4.753
11982SOL    HW135970   2.479   2.821   4.744
11982SOL    HW235971   2.372   2.732   4.830
11983SOL     OW35972   3.222   2.724   4.769
11983SOL    HW135973   3.147   2.724   4.703
11983SOL    HW235974   3.259   2.632   4.778
11984SOL     OW35975   3.071   2.387   3.999
11984SOL    HW135976   3.084   2.303   4.053
11984SOL    HW235977   3.042   2.461   4.059
11985SOL     OW35978   2.169   2.075   4.955
11985SOL    HW135979   2.146   2.112   5.045
11985SOL    HW235980   2.139   1.980   4.949
11986SOL     OW35981   1.899   3.172   5.006
11986SOL    HW135982   1.952   3.123   5.074
11986SOL    HW235983   1.921   3.270   5.011
11987SOL     OW35984   2.594   2.496   4.788
11987SOL    HW135985   2.653   2.470   4.712
11987SOL    HW235986   2.566   2.592   4.777
11988SOL     OW35987   3.590   2.797   5.578
11988SOL    HW135988   3.544   2.790   5.489
11988SOL    HW235989   3.528   2.841   5.644
11989SOL     OW35990   2.169   1.925   4.342
11989SOL    HW135991   2.158   2.019   4.375
11989SOL    HW235992   2.164   1.862   4.419
11990SOL     OW35993   3.484   2.229   4.098
11990SOL    HW135994   3.486   2.153   4.162
11990SOL    HW235995   3.436   2.306   4.138
11991SOL     OW35996   2.885   2.628   4.690
11991SOL    HW135997   2.900   2.649   4.786
11991SOL    HW235998   2.855   2.533   4.681
11992SOL     OW35999   2.842   3.435   5.424
11992SOL    HW136000   2.822   3.479   5.336
11992SOL    HW236001   2.881   3.344   5.408
11993SOL     OW36002   2.212   2.760   5.528
11993SOL    HW136003   2.288   2.804   5.576
11993SOL    HW236004   2.247   2.713   5.446
11994SOL     OW36005   3.402   2.136   3.849
11994SOL    HW136006   3.341   2.061   3.872
11994SOL    HW236007   3.424   2.188   3.932
11995SOL     OW36008   3.165   2.700   3.766
11995SOL    HW136009   3.199   2.607   3.781
11995SOL    HW236010   3.183   2.727   3.671
11996SOL     OW36011   2.930   3.195   4.573
11996SOL    HW136012   2.937   3.111   4.518
11996SOL    HW236013   2.992   3.264   4.537
11997SOL     OW36014   2.181   2.672   4.673
11997SOL    HW136015   2.274   2.708   4.678
11997SOL    HW236016   2.175   2.587   4.725
11998SOL     OW36017   2.201   2.371   4.730
11998SOL    HW136018   2.149   2.288   4.713
11998SOL    HW236019   2.278   2.376   4.666
11999SOL     OW36020   3.000   2.242   5.402
11999SOL    HW136021   2.955   2.305   5.466
11999SOL    HW236022   3.093   2.273   5.385
12000SOL     OW36023   3.022   2.069   5.201
12000SOL    HW136024   3.022   2.133   5.278
12000SOL    HW236025   3.050   2.117   5.118
12001SOL     OW36026   1.870   3.188   3.924
12001SOL    HW136027   1.777   3.209   3.893
12001SOL    HW236028   1.880   3.089   3.937
12002SOL     OW36029   1.950   3.663   4.651
12002SOL    HW136030   1.908   3.577   4.624
12002SOL    HW236031   2.044   3.666   4.617
12003SOL     OW36032   2.366   3.430   4.634
12003SOL    HW136033   2.432   3.504   4.643
12003SOL    HW236034   2.410   3.351   4.592
12004SOL     OW36035   2.864   2.658   4.962
12004SOL    HW136036   2.905   2.626   5.048
12004SOL    HW236037   2.768   2.631   4.959
12005SOL     OW36038   1.902   2.406   4.838
12005SOL    HW136039   1.987   2.373   4.797
12005SOL    HW236040   1.915   2.421   4.936
12006SOL     OW36041   2.051   2.382   5.446
12006SOL    HW136042   2.110   2.342   5.376
12006SOL    HW236043   1.993   2.453   5.405
12007SOL     OW36044   3.231   2.812   5.384
12007SOL    HW136045   3.270   2.901   5.404
12007SOL    HW236046   3.241   2.792   5.287
12008SOL     OW36047   2.677   2.434   4.049
12008SOL    HW136048   2.684   2.345   4.003
12008SOL    HW236049   2.583   2.468   4.041
12009SOL     OW36050   3.519   2.466   4.930
12009SOL    HW136051   3.481   2.397   4.992
12009SOL    HW236052   3.601   2.430   4.886
12010SOL     OW36053   2.114   3.426   5.468
12010SOL    HW136054   2.084   3.483   5.544
12010SOL    HW236055   2.107   3.329   5.494
12011SOL     OW36056   2.533   2.326   4.993
12011SOL    HW136057   2.499   2.237   4.963
12011SOL    HW236058   2.559   2.380   4.913
12012SOL     OW36059   2.792   3.540   5.189
12012SOL    HW136060   2.768   3.522   5.094
12012SOL    HW236061   2.822   3.634   5.199
12013SOL     OW36062   2.335   2.362   3.915
12013SOL    HW136063   2.396   2.442   3.919
12013SOL    HW236064   2.240   2.393   3.922
12014SOL     OW36065   2.021   2.999   5.190
12014SOL    HW136066   2.043   2.938   5.266
12014SOL    HW236067   2.031   2.950   5.104
12015SOL     OW36068   3.209   2.921   4.958
12015SOL    HW136069   3.233   2.858   4.884
12015SOL    HW236070   3.119   2.961   4.940
12016SOL     OW36071   3.164   2.717   4.033
12016SOL    HW136072   3.078   2.686   4.075
12016SOL    HW236073   3.160   2.703   3.934
12017SOL     OW36074   3.621   3.609   4.878
12017SOL    HW136075   3.682   3.639   4.805
12017SOL    HW236076   3.583   3.520   4.856
12018SOL     OW36077   3.114   3.593   4.852
12018SOL    HW136078   3.198   3.598   4.798
12018SOL    HW236079   3.091   3.497   4.870
12019SOL     OW36080   1.945   3.120   4.746
12019SOL    HW136081   1.940   3.119   4.846
12019SOL    HW236082   1.862   3.079   4.708
12020SOL     OW36083   2.550   3.524   5.440
12020SOL    HW136084   2.494   3.605   5.449
12020SOL    HW236085   2.602   3.528   5.354
12021SOL     OW36086   3.588   1.997   4.247
12021SOL    HW136087   3.661   1.980   4.180
12021SOL    HW236088   3.557   1.910   4.285
12022SOL     OW36089   3.250   3.435   4.201
12022SOL    HW136090   3.317   3.447   4.127
12022SOL    HW236091   3.210   3.524   4.224
12023SOL     OW36092   1.992   3.656   5.575
12023SOL    HW136093   1.951   3.582   5.628
12023SOL    HW236094   2.056   3.707   5.633
12024SOL     OW36095   3.142   2.789   4.396
12024SOL    HW136096   3.202   2.708   4.398
12024SOL    HW236097   3.182   2.858   4.336
12025SOL     OW36098   2.692   3.135   5.146
12025SOL    HW136099   2.687   3.168   5.241
12025SOL    HW236100   2.606   3.154   5.100
12026SOL     OW36101   2.534   3.478   3.878
12026SOL    HW136102   2.543   3.488   3.779
12026SOL    HW236103   2.494   3.389   3.899
12027SOL     OW36104   3.512   3.582   5.118
12027SOL    HW136105   3.565   3.592   5.034
12027SOL    HW236106   3.485   3.672   5.152
12028SOL     OW36107   3.703   2.037   4.687
12028SOL    HW136108   3.742   1.952   4.651
12028SOL    HW236109   3.605   2.039   4.668
12029SOL     OW36110   2.125   2.188   4.444
12029SOL    HW136111   2.046   2.239   4.410
12029SOL    HW236112   2.116   2.173   4.542
12030SOL     OW36113   3.056   3.474   3.755
12030SOL    HW136114   3.062   3.381   3.792
12030SOL    HW236115   2.997   3.474   3.675
12031SOL     OW36116   2.684   2.864   5.096
12031SOL    HW136117   2.724   2.863   5.004
12031SOL    HW236118   2.694   2.956   5.136
12032SOL     OW36119   2.778   2.772   4.015
12032SOL    HW136120   2.841   2.810   3.947
12032SOL    HW236121   2.818   2.689   4.054
12033SOL     OW36122   3.366   3.469   3.768
12033SOL    HW136123   3.274   3.506   3.775
12033SOL    HW236124   3.404   3.489   3.678
12034SOL     OW36125   2.234   3.150   5.214
12034SOL    HW136126   2.221   3.243   5.180
12034SOL    HW236127   2.150   3.098   5.201
12035SOL     OW36128   3.476   3.154   5.013
12035SOL    HW136129   3.536   3.157   5.093
12035SOL    HW236130   3.401   3.218   5.026
12036SOL     OW36131   2.901   2.960   4.420
12036SOL    HW136132   2.831   2.913   4.474
12036SOL    HW236133   2.960   2.892   4.377
12037SOL     OW36134   2.876   2.098   4.695
12037SOL    HW136135   2.868   2.062   4.602
12037SOL    HW236136   2.874   2.022   4.760
12038SOL     OW36137   2.452   3.349   4.215
12038SOL    HW136138   2.494   3.291   4.145
12038SOL    HW236139   2.408   3.428   4.171
12039SOL     OW36140   3.571   2.247   5.105
12039SOL    HW136141   3.644   2.316   5.109
12039SOL    HW236142   3.599   2.172   5.046
12040SOL     OW36143   2.117   3.210   4.014
12040SOL    HW136144   2.021   3.211   3.987
12040SOL    HW236145   2.129   3.263   4.098
12041SOL     OW36146   1.967   2.875   5.450
12041SOL    HW136147   1.890   2.842   5.504
12041SOL    HW236148   2.052   2.845   5.492
12042SOL     OW36149   2.534   2.065   5.213
12042SOL    HW136150   2.624   2.049   5.173
12042SOL    HW236151   2.542   2.070   5.312
12043SOL     OW36152   1.937   2.207   3.757
12043SOL    HW136153   1.845   2.179   3.728
12043SOL    HW236154   1.968   2.284   3.701
12044SOL     OW36155   3.302   2.718   5.122
12044SOL    HW136156   3.245   2.770   5.059
12044SOL    HW236157   3.398   2.730   5.098
12045SOL     OW36158   1.934   2.028   4.042
12045SOL    HW136159   1.917   2.111   3.988
12045SOL    HW236160   2.024   1.991   4.020
12046SOL     OW36161   3.045   3.197   3.843
12046SOL    HW136162   2.946   3.186   3.845
12046SOL    HW236163   3.079   3.212   3.936
12047SOL     OW36164   2.475   2.704   5.155
12047SOL    HW136165   2.531   2.785   5.138
12047SOL    HW236166   2.534   2.624   5.158
12048SOL     OW36167   3.355   3.629   4.683
12048SOL    HW136168   3.388   3.693   4.614
12048SOL    HW236169   3.421   3.623   4.758
12049SOL     OW36170   2.578   2.427   5.432
12049SOL    HW136171   2.597   2.492   5.506
12049SOL    HW236172   2.638   2.347   5.441
12050SOL     OW36173   3.312   3.082   5.357
12050SOL    HW136174   3.303   3.072   5.456
12050SOL    HW236175   3.408   3.075   5.331
12051SOL     OW36176   2.252   3.603   5.284
12051SOL    HW136177   2.161   3.644   5.282
12051SOL    HW236178   2.245   3.509   5.316
12052SOL     OW36179   3.536   2.745   4.978
12052SOL    HW136180   3.509   2.656   4.941
12052SOL    HW236181   3.537   2.813   4.905
12053SOL     OW36182   3.087   2.187   4.173
12053SOL    HW136183   3.152   2.113   4.162
12053SOL    HW236184   3.107   2.237   4.257
12054SOL     OW36185   2.456   2.607   4.376
12054SOL    HW136186   2.506   2.692   4.357
12054SOL    HW236187   2.368   2.609   4.328
12055SOL     OW36188   3.639   2.204   5.366
12055SOL    HW136189   3.622   2.235   5.272
12055SOL    HW236190   3.555   2.167   5.404
12056SOL     OW36191   3.592   2.796   5.241
12056SOL    HW136192   3.630   2.887   5.256
12056SOL    HW236193   3.584   2.779   5.142
12057SOL     OW36194   2.721   3.236   3.740
12057SOL    HW136195   2.675   3.251   3.828
12057SOL    HW236196   2.765   3.321   3.710
12058SOL     OW36197   2.523   3.652   4.677
12058SOL    HW136198   2.477   3.740   4.664
12058SOL    HW236199   2.622   3.664   4.670
12059SOL     OW36200   2.721   2.818   4.585
12059SOL    HW136201   2.775   2.749   4.633
12059SOL    HW236202   2.689   2.887   4.651
12060SOL     OW36203   2.945   2.846   3.811
12060SOL    HW136204   2.922   2.899   3.729
12060SOL    HW236205   3.026   2.790   3.792
12061SOL     OW36206   3.723   3.431   4.575
12061SOL    HW136207   3.652   3.419   4.505
12061SOL    HW236208   3.724   3.352   4.635
12062SOL     OW36209   2.083   3.176   5.568
12062SOL    HW136210   2.018   3.103   5.547
12062SOL    HW236211   2.087   3.190   5.666
12063SOL     OW36212   1.941   3.102   4.377
12063SOL    HW136213   1.940   3.055   4.465
12063SOL    HW236214   2.023   3.074   4.326
12064SOL     OW36215   2.534   3.253   5.348
12064SOL    HW136216   2.456   3.203   5.386
12064SOL    HW236217   2.531   3.348   5.379
12065SOL     OW36218   3.686   2.054   4.951
12065SOL    HW136219   3.682   1.964   4.995
12065SOL    HW236220   3.689   2.043   4.852
12066SOL     OW36221   2.290   2.286   4.244
12066SOL    HW136222   2.320   2.214   4.182
12066SOL    HW236223   2.251   2.246   4.327
12067SOL     OW36224   3.567   3.349   4.828
12067SOL    HW136225   3.474   3.324   4.801
12067SOL    HW236226   3.593   3.299   4.910
12068SOL     OW36227   2.179   2.409   5.004
12068SOL    HW136228   2.217   2.350   5.076
12068SOL    HW236229   2.219   2.383   4.916
12069SOL     OW36230   2.674   3.448   4.411
12069SOL    HW136231   2.706   3.458   4.317
12069SOL    HW236232   2.595   3.386   4.413
12070SOL     OW36233   3.286   2.076   4.836
12070SOL    HW136234   3.338   2.011   4.891
12070SOL    HW236235   3.237   2.139   4.897
12071SOL     OW36236   2.863   1.896   4.878
12071SOL    HW136237   2.800   1.824   4.847
12071SOL    HW236238   2.956   1.860   4.878
12072SOL     OW36239   2.480   3.429   5.008
12072SOL    HW136240   2.475   3.511   5.065
12072SOL    HW236241   2.569   3.426   4.963
12073SOL     OW36242   3.214   1.914   3.892
12073SOL    HW136243   3.249   1.873   3.808
12073SOL    HW236244   3.124   1.876   3.912
12074SOL     OW36245   3.162   2.315   4.415
12074SOL    HW136246   3.103   2.395   4.419
12074SOL    HW236247   3.177   2.280   4.508
12075SOL     OW36248   3.455   2.083   4.606
12075SOL    HW136249   3.371   2.082   4.660
12075SOL    HW236250   3.457   2.166   4.550
12076SOL     OW36251   1.901   2.939   4.024
12076SOL    HW136252   2.000   2.928   4.015
12076SOL    HW236253   1.861   2.853   4.056
12077SOL     OW36254   2.737   3.508   4.061
12077SOL    HW136255   2.660   3.473   4.007
12077SOL    HW236256   2.705   3.579   4.123
12078SOL     OW36257   2.092   2.490   5.699
12078SOL    HW136258   1.999   2.488   5.736
12078SOL    HW236259   2.093   2.451   5.607
12079SOL     OW36260   2.087   2.137   6.582
12079SOL    HW136261   2.122   2.120   6.674
12079SOL    HW236262   1.999   2.092   6.570
12080SOL     OW36263   1.881   2.230   6.233
12080SOL    HW136264   1.799   2.273   6.272
12080SOL    HW236265   1.853   2.157   6.170
12081SOL     OW36266   2.431   3.137   6.751
12081SOL    HW136267   2.338   3.130   6.714
12081SOL    HW236268   2.442   3.226   6.795
12082SOL     OW36269   3.417   3.373   6.289
12082SOL    HW136270   3.360   3.357   6.370
12082SOL    HW236271   3.358   3.383   6.209
12083SOL     OW36272   2.997   2.565   6.303
12083SOL    HW136273   3.054   2.643   6.278
12083SOL    HW236274   2.937   2.591   6.379
12084SOL     OW36275   3.617   2.469   5.817
12084SOL    HW136276   3.605   2.456   5.718
12084SOL    HW236277   3.587   2.388   5.866
12085SOL     OW36278   2.630   3.006   6.609
12085SOL    HW136279   2.552   3.023   6.669
12085SOL    HW236280   2.664   3.093   6.573
12086SOL     OW36281   2.712   2.660   7.409
12086SOL    HW136282   2.708   2.736   7.474
12086SOL    HW236283   2.734   2.696   7.318
12087SOL     OW36284   2.547   2.874   6.251
12087SOL    HW136285   2.616   2.858   6.321
12087SOL    HW236286   2.474   2.931   6.289
12088SOL     OW36287   2.548   3.023   7.389
12088SOL    HW136288   2.608   3.102   7.403
12088SOL    HW236289   2.462   3.054   7.348
12089SOL     OW36290   2.197   3.297   6.647
12089SOL    HW136291   2.119   3.266   6.594
12089SOL    HW236292   2.255   3.355   6.590
12090SOL     OW36293   3.322   3.367   6.925
12090SOL    HW136294   3.346   3.461   6.951
12090SOL    HW236295   3.306   3.313   7.007
12091SOL     OW36296   2.300   2.254   7.085
12091SOL    HW136297   2.382   2.198   7.094
12091SOL    HW236298   2.219   2.196   7.089
12092SOL     OW36299   3.465   2.309   6.323
12092SOL    HW136300   3.391   2.355   6.273
12092SOL    HW236301   3.516   2.377   6.376
12093SOL     OW36302   2.093   3.575   6.069
12093SOL    HW136303   2.127   3.652   6.123
12093SOL    HW236304   2.137   3.575   5.979
12094SOL     OW36305   2.989   3.203   7.276
12094SOL    HW136306   3.036   3.203   7.364
12094SOL    HW236307   2.941   3.116   7.265
12095SOL     OW36308   2.092   3.296   6.124
12095SOL    HW136309   2.066   3.392   6.124
12095SOL    HW236310   2.021   3.242   6.169
12096SOL     OW36311   2.102   2.953   6.472
12096SOL    HW136312   2.116   2.869   6.524
12096SOL    HW236313   2.047   3.017   6.527
12097SOL     OW36314   2.482   3.648   7.025
12097SOL    HW136315   2.390   3.631   7.060
12097SOL    HW236316   2.510   3.740   7.051
12098SOL     OW36317   2.468   2.826   5.709
12098SOL    HW136318   2.475   2.910   5.655
12098SOL    HW236319   2.514   2.839   5.797
12099SOL     OW36320   3.456   1.976   7.066
12099SOL    HW136321   3.438   2.043   6.994
12099SOL    HW236322   3.453   2.022   7.155
12100SOL     OW36323   1.984   2.505   6.149
12100SOL    HW136324   1.939   2.417   6.166
12100SOL    HW236325   1.983   2.559   6.233
12101SOL     OW36326   3.704   3.629   5.945
12101SOL    HW136327   3.758   3.600   6.025
12101SOL    HW236328   3.734   3.719   5.916
12102SOL     OW36329   1.889   3.458   5.703
12102SOL    HW136330   1.870   3.362   5.724
12102SOL    HW236331   1.856   3.516   5.778
12103SOL     OW36332   3.551   2.784   6.198
12103SOL    HW136333   3.646   2.755   6.206
12103SOL    HW236334   3.543   2.849   6.123
12104SOL     OW36335   3.503   2.970   6.018
12104SOL    HW136336   3.589   2.972   5.966
12104SOL    HW236337   3.517   3.017   6.106
12105SOL     OW36338   1.975   2.599   7.183
12105SOL    HW136339   2.063   2.586   7.228
12105SOL    HW236340   1.962   2.696   7.161
12106SOL     OW36341   2.475   3.227   6.312
12106SOL    HW136342   2.426   3.140   6.321
12106SOL    HW236343   2.452   3.270   6.225
12107SOL     OW36344   3.155   3.090   7.009
12107SOL    HW136345   3.192   3.017   6.951
12107SOL    HW236346   3.207   3.095   7.094
12108SOL     OW36347   2.671   1.866   6.088
12108SOL    HW136348   2.711   1.957   6.079
12108SOL    HW236349   2.571   1.874   6.094
12109SOL     OW36350   2.059   2.838   6.850
12109SOL    HW136351   2.148   2.793   6.836
12109SOL    HW236352   1.986   2.773   6.831
12110SOL     OW36353   3.387   2.861   5.776
12110SOL    HW136354   3.324   2.785   5.789
12110SOL    HW236355   3.435   2.879   5.862
12111SOL     OW36356   3.049   3.654   7.202
12111SOL    HW136357   3.073   3.714   7.126
12111SOL    HW236358   3.056   3.559   7.172
12112SOL     OW36359   2.179   2.113   7.387
12112SOL    HW136360   2.250   2.184   7.393
12112SOL    HW236361   2.091   2.152   7.415
12113SOL     OW36362   3.529   3.576   6.158
12113SOL    HW136363   3.488   3.553   6.070
12113SOL    HW236364   3.511   3.502   6.223
12114SOL     OW36365   2.460   2.591   5.856
12114SOL    HW136366   2.484   2.660   5.788
12114SOL    HW236367   2.382   2.624   5.910
12115SOL     OW36368   3.143   2.207   6.530
12115SOL    HW136369   3.057   2.157   6.517
12115SOL    HW236370   3.205   2.153   6.586
12116SOL     OW36371   3.438   3.524   5.893
12116SOL    HW136372   3.527   3.570   5.896
12116SOL    HW236373   3.417   3.500   5.798
12117SOL     OW36374   2.669   2.467   7.051
12117SOL    HW136375   2.622   2.464   7.140
12117SOL    HW236376   2.618   2.412   6.985
12118SOL     OW36377   3.256   2.331   7.260
12118SOL    HW136378   3.236   2.374   7.348
12118SOL    HW236379   3.334   2.269   7.269
12119SOL     OW36380   2.835   2.752   7.158
12119SOL    HW136381   2.881   2.668   7.129
12119SOL    HW236382   2.779   2.786   7.083
12120SOL     OW36383   2.853   2.272   6.828
12120SOL    HW136384   2.776   2.306   6.882
12120SOL    HW236385   2.819   2.221   6.749
12121SOL     OW36386   2.903   2.563   6.015
12121SOL    HW136387   2.929   2.559   6.111
12121SOL    HW236388   2.818   2.512   6.001
12122SOL     OW36389   1.938   2.673   6.375
12122SOL    HW136390   2.037   2.661   6.384
12122SOL    HW236391   1.914   2.768   6.396
12123SOL     OW36392   1.992   3.683   7.157
12123SOL    HW136393   1.982   3.668   7.256
12123SOL    HW236394   1.906   3.719   7.121
12124SOL     OW36395   2.727   2.210   5.781
12124SOL    HW136396   2.786   2.273   5.732
12124SOL    HW236397   2.746   2.116   5.752
12125SOL     OW36398   3.581   2.447   7.417
12125SOL    HW136399   3.555   2.536   7.381
12125SOL    HW236400   3.579   2.379   7.344
12126SOL     OW36401   3.224   3.006   6.131
12126SOL    HW136402   3.307   2.977   6.083
12126SOL    HW236403   3.175   3.073   6.075
12127SOL     OW36404   2.412   2.058   6.471
12127SOL    HW136405   2.407   2.053   6.571
12127SOL    HW236406   2.414   2.154   6.442
12128SOL     OW36407   2.870   3.318   6.063
12128SOL    HW136408   2.824   3.390   6.011
12128SOL    HW236409   2.866   3.338   6.161
12129SOL     OW36410   2.213   3.663   6.439
12129SOL    HW136411   2.263   3.577   6.445
12129SOL    HW236412   2.278   3.740   6.436
12130SOL     OW36413   3.657   2.928   6.459
12130SOL    HW136414   3.595   2.913   6.383
12130SOL    HW236415   3.605   2.939   6.544
12131SOL     OW36416   3.089   3.412   7.092
12131SOL    HW136417   3.095   3.335   7.156
12131SOL    HW236418   3.037   3.386   7.012
12132SOL     OW36419   2.183   2.805   5.828
12132SOL    HW136420   2.265   2.844   5.786
12132SOL    HW236421   2.156   2.723   5.779
12133SOL     OW36422   3.320   2.597   6.314
12133SOL    HW136423   3.315   2.532   6.389
12133SOL    HW236424   3.400   2.656   6.327
12134SOL     OW36425   2.323   3.128   7.313
12134SOL    HW136426   2.273   3.129   7.227
12134SOL    HW236427   2.260   3.110   7.389
12135SOL     OW36428   2.973   3.638   5.823
12135SOL    HW136429   2.913   3.576   5.873
12135SOL    HW236430   3.004   3.594   5.738
12136SOL     OW36431   2.064   2.147   7.084
12136SOL    HW136432   1.984   2.207   7.071
12136SOL    HW236433   2.054   2.098   7.170
12137SOL     OW36434   3.494   3.239   5.667
12137SOL    HW136435   3.462   3.333   5.657
12137SOL    HW236436   3.418   3.176   5.655
12138SOL     OW36437   2.326   3.605   5.909
12138SOL    HW136438   2.359   3.644   5.995
12138SOL    HW236439   2.402   3.598   5.844
12139SOL     OW36440   3.262   1.969   6.012
12139SOL    HW136441   3.238   1.932   5.922
12139SOL    HW236442   3.361   1.985   6.016
12140SOL     OW36443   2.111   3.647   6.827
12140SOL    HW136444   2.168   3.582   6.877
12140SOL    HW236445   2.095   3.614   6.734
12141SOL     OW36446   2.802   3.560   6.490
12141SOL    HW136447   2.882   3.503   6.511
12141SOL    HW236448   2.753   3.520   6.413
12142SOL     OW36449   2.244   2.562   6.066
12142SOL    HW136450   2.289   2.472   6.063
12142SOL    HW236451   2.150   2.551   6.099
12143SOL     OW36452   3.409   2.084   7.315
12143SOL    HW136453   3.404   2.121   7.407
12143SOL    HW236454   3.337   2.015   7.303
12144SOL     OW36455   2.476   1.984   5.703
12144SOL    HW136456   2.574   1.962   5.710
12144SOL    HW236457   2.445   1.967   5.610
12145SOL     OW36458   2.643   2.126   7.335
12145SOL    HW136459   2.710   2.065   7.378
12145SOL    HW236460   2.570   2.145   7.400
12146SOL     OW36461   2.750   3.376   6.781
12146SOL    HW136462   2.727   3.351   6.687
12146SOL    HW236463   2.811   3.307   6.820
12147SOL     OW36464   3.213   2.452   7.019
12147SOL    HW136465   3.241   2.409   7.104
12147SOL    HW236466   3.238   2.548   7.020
12148SOL     OW36467   2.665   3.264   6.510
12148SOL    HW136468   2.755   3.278   6.468
12148SOL    HW236469   2.594   3.266   6.439
12149SOL     OW36470   2.784   2.365   6.485
12149SOL    HW136471   2.759   2.356   6.389
12149SOL    HW236472   2.832   2.283   6.516
12150SOL     OW36473   2.401   1.926   6.098
12150SOL    HW136474   2.320   1.927   6.156
12150SOL    HW236475   2.404   2.009   6.043
12151SOL     OW36476   3.296   3.050   5.627
12151SOL    HW136477   3.328   2.974   5.684
12151SOL    HW236478   3.204   3.077   5.657
12152SOL     OW36479   2.159   1.897   5.757
12152SOL    HW136480   2.208   1.981   5.736
12152SOL    HW236481   2.221   1.832   5.802
12153SOL     OW36482   2.797   2.098   6.066
12153SOL    HW136483   2.749   2.139   5.988
12153SOL    HW236484   2.896   2.096   6.047
12154SOL     OW36485   2.938   2.545   7.050
12154SOL    HW136486   2.858   2.484   7.053
12154SOL    HW236487   3.019   2.492   7.026
12155SOL     OW36488   3.089   3.432   6.379
12155SOL    HW136489   3.110   3.506   6.314
12155SOL    HW236490   3.157   3.432   6.452
12156SOL     OW36491   2.321   3.014   6.327
12156SOL    HW136492   2.250   2.987   6.392
12156SOL    HW236493   2.295   2.986   6.234
12157SOL     OW36494   3.133   3.659   6.177
12157SOL    HW136495   3.177   3.723   6.113
12157SOL    HW236496   3.083   3.711   6.247
12158SOL     OW36497   2.894   2.411   5.602
12158SOL    HW136498   2.853   2.493   5.563
12158SOL    HW236499   2.958   2.437   5.675
12159SOL     OW36500   1.940   2.418   6.972
12159SOL    HW136501   2.032   2.417   6.931
12159SOL    HW236502   1.934   2.492   7.039
12160SOL     OW36503   2.423   2.084   6.733
12160SOL    HW136504   2.461   2.000   6.770
12160SOL    HW236505   2.335   2.103   6.777
12161SOL     OW36506   2.728   2.316   6.228
12161SOL    HW136507   2.696   2.388   6.166
12161SOL    HW236508   2.752   2.235   6.175
12162SOL     OW36509   2.879   1.901   6.339
12162SOL    HW136510   2.807   1.906   6.270
12162SOL    HW236511   2.855   1.832   6.408
12163SOL     OW36512   3.291   3.035   6.453
12163SOL    HW136513   3.236   2.951   6.446
12163SOL    HW236514   3.317   3.064   6.361
12164SOL     OW36515   3.328   2.452   6.578
12164SOL    HW136516   3.298   2.357   6.585
12164SOL    HW236517   3.401   2.468   6.644
12165SOL     OW36518   3.719   2.695   5.963
12165SOL    HW136519   3.761   2.631   6.027
12165SOL    HW236520   3.681   2.644   5.885
12166SOL     OW36521   2.350   3.247   5.760
12166SOL    HW136522   2.263   3.232   5.807
12166SOL    HW236523   2.333   3.273   5.665
12167SOL     OW36524   3.526   3.142   6.243
12167SOL    HW136525   3.625   3.150   6.257
12167SOL    HW236526   3.481   3.226   6.274
12168SOL     OW36527   3.252   2.437   5.664
12168SOL    HW136528   3.198   2.416   5.745
12168SOL    HW236529   3.343   2.396   5.673
12169SOL     OW36530   2.389   2.118   5.914
12169SOL    HW136531   2.416   2.059   5.839
12169SOL    HW236532   2.389   2.213   5.883
12170SOL     OW36533   3.616   3.085   7.174
12170SOL    HW136534   3.707   3.046   7.161
12170SOL    HW236535   3.624   3.181   7.198
12171SOL     OW36536   2.926   3.209   6.926
12171SOL    HW136537   2.846   3.186   6.981
12171SOL    HW236538   3.009   3.183   6.975
12172SOL     OW36539   3.454   3.491   7.211
12172SOL    HW136540   3.481   3.525   7.121
12172SOL    HW236541   3.533   3.453   7.257
12173SOL     OW36542   2.973   3.057   6.686
12173SOL    HW136543   2.933   3.101   6.767
12173SOL    HW236544   2.932   3.094   6.603
12174SOL     OW36545   3.500   2.961   6.665
12174SOL    HW136546   3.505   3.042   6.724
12174SOL    HW236547   3.414   2.963   6.614
12175SOL     OW36548   2.777   1.951   6.988
12175SOL    HW136549   2.802   1.931   6.893
12175SOL    HW236550   2.849   2.007   7.030
12176SOL     OW36551   2.842   2.978   7.305
12176SOL    HW136552   2.743   2.984   7.315
12176SOL    HW236553   2.865   2.898   7.249
12177SOL     OW36554   2.567   2.912   5.954
12177SOL    HW136555   2.553   2.919   6.053
12177SOL    HW236556   2.651   2.861   5.936
12178SOL     OW36557   2.272   2.675   6.837
12178SOL    HW136558   2.358   2.687   6.887
12178SOL    HW236559   2.230   2.588   6.864
12179SOL     OW36560   3.136   2.248   6.848
12179SOL    HW136561   3.157   2.322   6.912
12179SOL    HW236562   3.047   2.265   6.805
12180SOL     OW36563   1.926   3.426   6.917
12180SOL    HW136564   1.880   3.508   6.883
12180SOL    HW236565   2.024   3.445   6.926
12181SOL     OW36566   2.229   2.962   6.087
12181SOL    HW136567   2.222   3.045   6.031
12181SOL    HW236568   2.233   2.882   6.027
12182SOL     OW36569   2.428   2.399   6.451
12182SOL    HW136570   2.440   2.465   6.377
12182SOL    HW236571   2.474   2.433   6.534
12183SOL     OW36572   3.114   3.210   5.974
12183SOL    HW136573   3.164   3.287   6.014
12183SOL    HW236574   3.019   3.212   6.006
12184SOL     OW36575   3.134   3.307   6.728
12184SOL    HW136576   3.181   3.320   6.815
12184SOL    HW236577   3.068   3.233   6.737
12185SOL     OW36578   3.444   2.501   6.058
12185SOL    HW136579   3.413   2.562   6.131
12185SOL    HW236580   3.494   2.553   5.989
12186SOL     OW36581   2.216   3.372   6.915
12186SOL    HW136582   2.195   3.328   6.828
12186SOL    HW236583   2.313   3.398   6.918
12187SOL     OW36584   2.264   2.613   7.184
12187SOL    HW136585   2.332   2.668   7.137
12187SOL    HW236586   2.304   2.525   7.211
12188SOL     OW36587   3.449   2.641   7.256
12188SOL    HW136588   3.357   2.679   7.251
12188SOL    HW236589   3.509   2.688   7.191
12189SOL     OW36590   2.875   1.967   7.356
12189SOL    HW136591   2.881   2.052   7.304
12189SOL    HW236592   2.907   1.891   7.299
12190SOL     OW36593   2.366   1.912   7.326
12190SOL    HW136594   2.324   1.855   7.256
12190SOL    HW236595   2.300   1.981   7.358
12191SOL     OW36596   2.435   2.732   6.615
12191SOL    HW136597   2.479   2.821   6.606
12191SOL    HW236598   2.372   2.732   6.692
12192SOL     OW36599   3.222   2.724   6.631
12192SOL    HW136600   3.147   2.724   6.565
12192SOL    HW236601   3.259   2.632   6.640
12193SOL     OW36602   3.071   2.387   5.861
12193SOL    HW136603   3.084   2.303   5.915
12193SOL    HW236604   3.042   2.461   5.921
12194SOL     OW36605   2.169   2.075   6.817
12194SOL    HW136606   2.146   2.112   6.907
12194SOL    HW236607   2.139   1.980   6.811
12195SOL     OW36608   1.899   3.172   6.868
12195SOL    HW136609   1.952   3.123   6.936
12195SOL    HW236610   1.921   3.270   6.873
12196SOL     OW36611   2.594   2.496   6.650
12196SOL    HW136612   2.653   2.470   6.574
12196SOL    HW236613   2.566   2.592   6.639
12197SOL     OW36614   3.590   2.797   7.440
12197SOL    HW136615   3.544   2.790   7.351
12197SOL    HW236616   3.528   2.841   7.506
12198SOL     OW36617   2.169   1.925   6.204
12198SOL    HW136618   2.158   2.019   6.237
12198SOL    HW236619   2.164   1.862   6.281
12199SOL     OW36620   3.484   2.229   5.960
12199SOL    HW136621   3.486   2.153   6.024
12199SOL    HW236622   3.436   2.306   6.000
12200SOL     OW36623   2.885   2.628   6.552
12200SOL    HW136624   2.900   2.649   6.648
12200SOL    HW236625   2.855   2.533   6.543
12201SOL     OW36626   2.842   3.435   7.286
12201SOL    HW136627   2.822   3.479   7.198
12201SOL    HW236628   2.881   3.344   7.270
12202SOL     OW36629   3.721   3.380   7.191
12202SOL    HW136630   3.735   3.407   7.096
12202SOL    HW236631   3.804   3.402   7.244
12203SOL     OW36632   2.212   2.760   7.390
12203SOL    HW136633   2.288   2.804   7.438
12203SOL    HW236634   2.247   2.713   7.308
12204SOL     OW36635   3.402   2.136   5.711
12204SOL    HW136636   3.341   2.061   5.734
12204SOL    HW236637   3.424   2.188   5.794
12205SOL     OW36638   3.165   2.700   5.628
12205SOL    HW136639   3.199   2.607   5.643
12205SOL    HW236640   3.183   2.727   5.533
12206SOL     OW36641   2.930   3.195   6.435
12206SOL    HW136642   2.937   3.111   6.380
12206SOL    HW236643   2.992   3.264   6.399
12207SOL     OW36644   2.181   2.672   6.535
12207SOL    HW136645   2.274   2.708   6.540
12207SOL    HW236646   2.175   2.587   6.587
12208SOL     OW36647   2.201   2.371   6.592
12208SOL    HW136648   2.149   2.288   6.575
12208SOL    HW236649   2.278   2.376   6.528
12209SOL     OW36650   3.000   2.242   7.264
12209SOL    HW136651   2.955   2.305   7.328
12209SOL    HW236652   3.093   2.273   7.247
12210SOL     OW36653   3.022   2.069   7.063
12210SOL    HW136654   3.022   2.133   7.140
12210SOL    HW236655   3.050   2.117   6.980
12211SOL     OW36656   1.870   3.188   5.786
12211SOL    HW136657   1.777   3.209   5.755
12211SOL    HW236658   1.880   3.089   5.799
12212SOL     OW36659   1.950   3.663   6.513
12212SOL    HW136660   1.908   3.577   6.486
12212SOL    HW236661   2.044   3.666   6.479
12213SOL     OW36662   2.366   3.430   6.496
12213SOL    HW136663   2.432   3.504   6.505
12213SOL    HW236664   2.410   3.351   6.454
12214SOL     OW36665   2.864   2.658   6.824
12214SOL    HW136666   2.905   2.626   6.910
12214SOL    HW236667   2.768   2.631   6.821
12215SOL     OW36668   1.902   2.406   6.700
12215SOL    HW136669   1.987   2.373   6.659
12215SOL    HW236670   1.915   2.421   6.798
12216SOL     OW36671   2.051   2.382   7.308
12216SOL    HW136672   2.110   2.342   7.238
12216SOL    HW236673   1.993   2.453   7.267
12217SOL     OW36674   3.231   2.812   7.246
12217SOL    HW136675   3.270   2.901   7.266
12217SOL    HW236676   3.241   2.792   7.149
12218SOL     OW36677   2.677   2.434   5.911
12218SOL    HW136678   2.684   2.345   5.865
12218SOL    HW236679   2.583   2.468   5.903
12219SOL     OW36680   3.519   2.466   6.792
12219SOL    HW136681   3.481   2.397   6.854
12219SOL    HW236682   3.601   2.430   6.748
12220SOL     OW36683   2.114   3.426   7.330
12220SOL    HW136684   2.084   3.483   7.406
12220SOL    HW236685   2.107   3.329   7.356
12221SOL     OW36686   2.533   2.326   6.855
12221SOL    HW136687   2.499   2.237   6.825
12221SOL    HW236688   2.559   2.380   6.775
12222SOL     OW36689   2.792   3.540   7.051
12222SOL    HW136690   2.768   3.522   6.956
12222SOL    HW236691   2.822   3.634   7.061
12223SOL     OW36692   2.335   2.362   5.777
12223SOL    HW136693   2.396   2.442   5.781
12223SOL    HW236694   2.240   2.393   5.784
12224SOL     OW36695   2.021   2.999   7.052
12224SOL    HW136696   2.043   2.938   7.128
12224SOL    HW236697   2.031   2.950   6.966
12225SOL     OW36698   3.209   2.921   6.820
12225SOL    HW136699   3.233   2.858   6.746
12225SOL    HW236700   3.119   2.961   6.802
12226SOL     OW36701   3.164   2.717   5.895
12226SOL    HW136702   3.078   2.686   5.937
12226SOL    HW236703   3.160   2.703   5.796
12227SOL     OW36704   3.621   3.609   6.740
12227SOL    HW136705   3.682   3.639   6.667
12227SOL    HW236706   3.583   3.520   6.718
12228SOL     OW36707   3.114   3.593   6.714
12228SOL    HW136708   3.198   3.598   6.660
12228SOL    HW236709   3.091   3.497   6.732
12229SOL     OW36710   1.945   3.120   6.608
12229SOL    HW136711   1.940   3.119   6.708
12229SOL    HW236712   1.862   3.079   6.570
12230SOL     OW36713   2.550   3.524   7.302
12230SOL    HW136714   2.494   3.605   7.311
12230SOL    HW236715   2.602   3.528   7.216
12231SOL     OW36716   3.588   1.997   6.109
12231SOL    HW136717   3.661   1.980   6.042
12231SOL    HW236718   3.557   1.910   6.147
12232SOL     OW36719   3.250   3.435   6.063
12232SOL    HW136720   3.317   3.447   5.989
12232SOL    HW236721   3.210   3.524   6.086
12233SOL     OW36722   1.992   3.656   7.437
12233SOL    HW136723   1.951   3.582   7.490
12233SOL    HW236724   2.056   3.707   7.495
12234SOL     OW36725   3.142   2.789   6.258
12234SOL    HW136726   3.202   2.708   6.260
12234SOL    HW236727   3.182   2.858   6.198
12235SOL     OW36728   2.692   3.135   7.008
12235SOL    HW136729   2.687   3.168   7.103
12235SOL    HW236730   2.606   3.154   6.962
12236SOL     OW36731   2.534   3.478   5.740
12236SOL    HW136732   2.543   3.488   5.641
12236SOL    HW236733   2.494   3.389   5.761
12237SOL     OW36734   3.512   3.582   6.980
12237SOL    HW136735   3.565   3.592   6.896
12237SOL    HW236736   3.485   3.672   7.014
12238SOL     OW36737   3.703   2.037   6.549
12238SOL    HW136738   3.742   1.952   6.513
12238SOL    HW236739   3.605   2.039   6.530
12239SOL     OW36740   2.125   2.188   6.306
12239SOL    HW136741   2.046   2.239   6.272
12239SOL    HW236742   2.116   2.173   6.404
12240SOL     OW36743   3.056   3.474   5.617
12240SOL    HW136744   3.062   3.381   5.654
12240SOL    HW236745   2.997   3.474   5.537
12241SOL     OW36746   2.684   2.864   6.958
12241SOL    HW136747   2.724   2.863   6.866
12241SOL    HW236748   2.694   2.956   6.998
12242SOL     OW36749   2.778   2.772   5.877
12242SOL    HW136750   2.841   2.810   5.809
12242SOL    HW236751   2.818   2.689   5.916
12243SOL     OW36752   3.366   3.469   5.630
12243SOL    HW136753   3.274   3.506   5.637
12243SOL    HW236754   3.404   3.489   5.540
12244SOL     OW36755   2.234   3.150   7.076
12244SOL    HW136756   2.221   3.243   7.042
12244SOL    HW236757   2.150   3.098   7.063
12245SOL     OW36758   3.476   3.154   6.875
12245SOL    HW136759   3.536   3.157   6.955
12245SOL    HW236760   3.401   3.218   6.888
12246SOL     OW36761   2.901   2.960   6.282
12246SOL    HW136762   2.831   2.913   6.336
12246SOL    HW236763   2.960   2.892   6.239
12247SOL     OW36764   2.876   2.098   6.557
12247SOL    HW136765   2.868   2.062   6.464
12247SOL    HW236766   2.874   2.022   6.622
12248SOL     OW36767   2.452   3.349   6.077
12248SOL    HW136768   2.494   3.291   6.007
12248SOL    HW236769   2.408   3.428   6.033
12249SOL     OW36770   3.571   2.247   6.967
12249SOL    HW136771   3.644   2.316   6.971
12249SOL    HW236772   3.599   2.172   6.908
12250SOL     OW36773   2.117   3.210   5.876
12250SOL    HW136774   2.021   3.211   5.849
12250SOL    HW236775   2.129   3.263   5.960
12251SOL     OW36776   1.967   2.875   7.312
12251SOL    HW136777   1.890   2.842   7.366
12251SOL    HW236778   2.052   2.845   7.354
12252SOL     OW36779   2.534   2.065   7.075
12252SOL    HW136780   2.624   2.049   7.035
12252SOL    HW236781   2.542   2.070   7.174
12253SOL     OW36782   1.937   2.207   5.619
12253SOL    HW136783   1.845   2.179   5.590
12253SOL    HW236784   1.968   2.284   5.563
12254SOL     OW36785   3.302   2.718   6.984
12254SOL    HW136786   3.245   2.770   6.921
12254SOL    HW236787   3.398   2.730   6.960
12255SOL     OW36788   1.934   2.028   5.904
12255SOL    HW136789   1.917   2.111   5.850
12255SOL    HW236790   2.024   1.991   5.882
12256SOL     OW36791   3.045   3.197   5.705
12256SOL    HW136792   2.946   3.186   5.707
12256SOL    HW236793   3.079   3.212   5.798
12257SOL     OW36794   2.475   2.704   7.017
12257SOL    HW136795   2.531   2.785   7.000
12257SOL    HW236796   2.534   2.624   7.020
12258SOL     OW36797   3.355   3.629   6.545
12258SOL    HW136798   3.388   3.693   6.476
12258SOL    HW236799   3.421   3.623   6.620
12259SOL     OW36800   2.578   2.427   7.294
12259SOL    HW136801   2.597   2.492   7.368
12259SOL    HW236802   2.638   2.347   7.303
12260SOL     OW36803   3.312   3.082   7.219
12260SOL    HW136804   3.303   3.072   7.318
12260SOL    HW236805   3.408   3.075   7.193
12261SOL     OW36806   2.252   3.603   7.146
12261SOL    HW136807   2.161   3.644   7.144
12261SOL    HW236808   2.245   3.509   7.178
12262SOL     OW36809   3.536   2.745   6.840
12262SOL    HW136810   3.509   2.656   6.803
12262SOL    HW236811   3.537   2.813   6.767
12263SOL     OW36812   3.087   2.187   6.035
12263SOL    HW136813   3.152   2.113   6.024
12263SOL    HW236814   3.107   2.237   6.119
12264SOL     OW36815   2.456   2.607   6.238
12264SOL    HW136816   2.506   2.692   6.219
12264SOL    HW236817   2.368   2.609   6.190
12265SOL     OW36818   3.639   2.204   7.228
12265SOL    HW136819   3.622   2.235   7.134
12265SOL    HW236820   3.555   2.167   7.266
12266SOL     OW36821   3.592   2.796   7.103
12266SOL    HW136822   3.630   2.887   7.118
12266SOL    HW236823   3.584   2.779   7.004
12267SOL     OW36824   2.721   3.236   5.602
12267SOL    HW136825   2.675   3.251   5.690
12267SOL    HW236826   2.765   3.321   5.572
12268SOL     OW36827   2.523   3.652   6.539
12268SOL    HW136828   2.477   3.740   6.526
12268SOL    HW236829   2.622   3.664   6.532
12269SOL     OW36830   2.721   2.818   6.447
12269SOL    HW136831   2.775   2.749   6.495
12269SOL    HW236832   2.689   2.887   6.513
12270SOL     OW36833   2.945   2.846   5.673
12270SOL    HW136834   2.922   2.899   5.591
12270SOL    HW236835   3.026   2.790   5.654
12271SOL     OW36836   3.723   3.431   6.437
12271SOL    HW136837   3.652   3.419   6.367
12271SOL    HW236838   3.724   3.352   6.497
12272SOL     OW36839   2.083   3.176   7.430
12272SOL    HW136840   2.018   3.103   7.409
12272SOL    HW236841   2.087   3.190   7.528
12273SOL     OW36842   1.941   3.102   6.239
12273SOL    HW136843   1.940   3.055   6.327
12273SOL    HW236844   2.023   3.074   6.188
12274SOL     OW36845   2.534   3.253   7.210
12274SOL    HW136846   2.456   3.203   7.248
12274SOL    HW236847   2.531   3.348   7.241
12275SOL     OW36848   3.686   2.054   6.813
12275SOL    HW136849   3.682   1.964   6.857
12275SOL    HW236850   3.689   2.043   6.714
12276SOL     OW36851   2.290   2.286   6.106
12276SOL    HW136852   2.320   2.214   6.044
12276SOL    HW236853   2.251   2.246   6.189
12277SOL     OW36854   3.567   3.349   6.690
12277SOL    HW136855   3.474   3.324   6.663
12277SOL    HW236856   3.593   3.299   6.772
12278SOL     OW36857   2.179   2.409   6.866
12278SOL    HW136858   2.217   2.350   6.938
12278SOL    HW236859   2.219   2.383   6.778
12279SOL     OW36860   2.674   3.448   6.273
12279SOL    HW136861   2.706   3.458   6.179
12279SOL    HW236862   2.595   3.386   6.275
12280SOL     OW36863   3.286   2.076   6.698
12280SOL    HW136864   3.338   2.011   6.753
12280SOL    HW236865   3.237   2.139   6.759
12281SOL     OW36866   2.863   1.896   6.740
12281SOL    HW136867   2.800   1.824   6.709
12281SOL    HW236868   2.956   1.860   6.740
12282SOL     OW36869   2.632   3.192   5.887
12282SOL    HW136870   2.586   3.105   5.904
12282SOL    HW236871   2.723   3.189   5.928
12283SOL     OW36872   2.480   3.429   6.870
12283SOL    HW136873   2.475   3.511   6.927
12283SOL    HW236874   2.569   3.426   6.825
12284SOL     OW36875   3.214   1.914   5.754
12284SOL    HW136876   3.249   1.873   5.670
12284SOL    HW236877   3.124   1.876   5.774
12285SOL     OW36878   3.162   2.315   6.277
12285SOL    HW136879   3.103   2.395   6.281
12285SOL    HW236880   3.177   2.280   6.370
12286SOL     OW36881   3.455   2.083   6.468
12286SOL    HW136882   3.371   2.082   6.522
12286SOL    HW236883   3.457   2.166   6.412
12287SOL     OW36884   1.901   2.939   5.886
12287SOL    HW136885   2.000   2.928   5.877
12287SOL    HW236886   1.861   2.853   5.918
12288SOL     OW36887   2.737   3.508   5.923
12288SOL    HW136888   2.660   3.473   5.869
12288SOL    HW236889   2.705   3.579   5.985
12289SOL     OW36890   2.092   2.490   7.561
12289SOL    HW136891   1.999   2.488   7.598
12289SOL    HW236892   2.093   2.451   7.469
12290SOL     OW36893   2.087   2.137   8.444
12290SOL    HW136894   2.122   2.120   8.536
12290SOL    HW236895   1.999   2.092   8.432
12291SOL     OW36896   1.881   2.230   8.095
12291SOL    HW136897   1.799   2.273   8.134
12291SOL    HW236898   1.853   2.157   8.032
12292SOL     OW36899   2.431   3.137   8.613
12292SOL    HW136900   2.338   3.130   8.576
12292SOL    HW236901   2.442   3.226   8.657
12293SOL     OW36902   3.417   3.373   8.151
12293SOL    HW136903   3.360   3.357   8.232
12293SOL    HW236904   3.358   3.383   8.071
12294SOL     OW36905   2.997   2.565   8.165
12294SOL    HW136906   3.054   2.643   8.140
12294SOL    HW236907   2.937   2.591   8.241
12295SOL     OW36908   3.617   2.469   7.679
12295SOL    HW136909   3.605   2.456   7.580
12295SOL    HW236910   3.587   2.388   7.728
12296SOL     OW36911   2.630   3.006   8.471
12296SOL    HW136912   2.552   3.023   8.531
12296SOL    HW236913   2.664   3.093   8.435
12297SOL     OW36914   2.712   2.660   9.271
12297SOL    HW136915   2.708   2.736   9.336
12297SOL    HW236916   2.734   2.696   9.180
12298SOL     OW36917   2.547   2.874   8.113
12298SOL    HW136918   2.616   2.858   8.183
12298SOL    HW236919   2.474   2.931   8.151
12299SOL     OW36920   2.548   3.023   9.251
12299SOL    HW136921   2.608   3.102   9.265
12299SOL    HW236922   2.462   3.054   9.210
12300SOL     OW36923   2.197   3.297   8.509
12300SOL    HW136924   2.119   3.266   8.456
12300SOL    HW236925   2.255   3.355   8.452
12301SOL     OW36926   3.322   3.367   8.787
12301SOL    HW136927   3.346   3.461   8.813
12301SOL    HW236928   3.306   3.313   8.869
12302SOL     OW36929   2.300   2.254   8.947
12302SOL    HW136930   2.382   2.198   8.956
12302SOL    HW236931   2.219   2.196   8.951
12303SOL     OW36932   3.465   2.309   8.185
12303SOL    HW136933   3.391   2.355   8.135
12303SOL    HW236934   3.516   2.377   8.238
12304SOL     OW36935   2.093   3.575   7.931
12304SOL    HW136936   2.127   3.652   7.985
12304SOL    HW236937   2.137   3.575   7.841
12305SOL     OW36938   2.989   3.203   9.138
12305SOL    HW136939   3.036   3.203   9.226
12305SOL    HW236940   2.941   3.116   9.127
12306SOL     OW36941   2.092   3.296   7.986
12306SOL    HW136942   2.066   3.392   7.986
12306SOL    HW236943   2.021   3.242   8.031
12307SOL     OW36944   2.102   2.953   8.334
12307SOL    HW136945   2.116   2.869   8.386
12307SOL    HW236946   2.047   3.017   8.389
12308SOL     OW36947   2.482   3.648   8.887
12308SOL    HW136948   2.390   3.631   8.922
12308SOL    HW236949   2.510   3.740   8.913
12309SOL     OW36950   2.468   2.826   7.571
12309SOL    HW136951   2.475   2.910   7.517
12309SOL    HW236952   2.514   2.839   7.659
12310SOL     OW36953   3.456   1.976   8.928
12310SOL    HW136954   3.438   2.043   8.856
12310SOL    HW236955   3.453   2.022   9.017
12311SOL     OW36956   1.984   2.505   8.011
12311SOL    HW136957   1.939   2.417   8.028
12311SOL    HW236958   1.983   2.559   8.095
12312SOL     OW36959   3.704   3.629   7.807
12312SOL    HW136960   3.758   3.600   7.887
12312SOL    HW236961   3.734   3.719   7.778
12313SOL     OW36962   1.889   3.458   7.565
12313SOL    HW136963   1.870   3.362   7.586
12313SOL    HW236964   1.856   3.516   7.640
12314SOL     OW36965   3.551   2.784   8.060
12314SOL    HW136966   3.646   2.755   8.068
12314SOL    HW236967   3.543   2.849   7.985
12315SOL     OW36968   3.503   2.970   7.880
12315SOL    HW136969   3.589   2.972   7.828
12315SOL    HW236970   3.517   3.017   7.968
12316SOL     OW36971   1.975   2.599   9.045
12316SOL    HW136972   2.063   2.586   9.090
12316SOL    HW236973   1.962   2.696   9.023
12317SOL     OW36974   2.475   3.227   8.174
12317SOL    HW136975   2.426   3.140   8.183
12317SOL    HW236976   2.452   3.270   8.087
12318SOL     OW36977   3.155   3.090   8.871
12318SOL    HW136978   3.192   3.017   8.813
12318SOL    HW236979   3.207   3.095   8.956
12319SOL     OW36980   2.671   1.866   7.950
12319SOL    HW136981   2.711   1.957   7.941
12319SOL    HW236982   2.571   1.874   7.956
12320SOL     OW36983   2.059   2.838   8.712
12320SOL    HW136984   2.148   2.793   8.698
12320SOL    HW236985   1.986   2.773   8.693
12321SOL     OW36986   3.387   2.861   7.638
12321SOL    HW136987   3.324   2.785   7.651
12321SOL    HW236988   3.435   2.879   7.724
12322SOL     OW36989   3.049   3.654   9.064
12322SOL    HW136990   3.073   3.714   8.988
12322SOL    HW236991   3.056   3.559   9.034
12323SOL     OW36992   2.179   2.113   9.249
12323SOL    HW136993   2.250   2.184   9.255
12323SOL    HW236994   2.091   2.152   9.277
12324SOL     OW36995   3.328   3.279   8.401
12324SOL    HW136996   3.269   3.285   8.481
12324SOL    HW236997   3.313   3.191   8.355
12325SOL     OW36998   3.529   3.576   8.020
12325SOL    HW136999   3.488   3.553   7.932
12325SOL    HW237000   3.511   3.502   8.085
12326SOL     OW37001   2.460   2.591   7.718
12326SOL    HW137002   2.484   2.660   7.650
12326SOL    HW237003   2.382   2.624   7.772
12327SOL     OW37004   3.143   2.207   8.392
12327SOL    HW137005   3.057   2.157   8.379
12327SOL    HW237006   3.205   2.153   8.448
12328SOL     OW37007   3.438   3.524   7.755
12328SOL    HW137008   3.527   3.570   7.758
12328SOL    HW237009   3.417   3.500   7.660
12329SOL     OW37010   2.669   2.467   8.913
12329SOL    HW137011   2.622   2.464   9.002
12329SOL    HW237012   2.618   2.412   8.847
12330SOL     OW37013   3.256   2.331   9.122
12330SOL    HW137014   3.236   2.374   9.210
12330SOL    HW237015   3.334   2.269   9.131
12331SOL     OW37016   2.835   2.752   9.020
12331SOL    HW137017   2.881   2.668   8.991
12331SOL    HW237018   2.779   2.786   8.945
12332SOL     OW37019   2.853   2.272   8.690
12332SOL    HW137020   2.776   2.306   8.744
12332SOL    HW237021   2.819   2.221   8.611
12333SOL     OW37022   2.903   2.563   7.877
12333SOL    HW137023   2.929   2.559   7.973
12333SOL    HW237024   2.818   2.512   7.863
12334SOL     OW37025   1.938   2.673   8.237
12334SOL    HW137026   2.037   2.661   8.246
12334SOL    HW237027   1.914   2.768   8.258
12335SOL     OW37028   1.992   3.683   9.019
12335SOL    HW137029   1.982   3.668   9.118
12335SOL    HW237030   1.906   3.719   8.983
12336SOL     OW37031   2.727   2.210   7.643
12336SOL    HW137032   2.786   2.273   7.594
12336SOL    HW237033   2.746   2.116   7.614
12337SOL     OW37034   3.581   2.447   9.279
12337SOL    HW137035   3.555   2.536   9.243
12337SOL    HW237036   3.579   2.379   9.206
12338SOL     OW37037   3.224   3.006   7.993
12338SOL    HW137038   3.307   2.977   7.945
12338SOL    HW237039   3.175   3.073   7.937
12339SOL     OW37040   2.412   2.058   8.333
12339SOL    HW137041   2.407   2.053   8.433
12339SOL    HW237042   2.414   2.154   8.304
12340SOL     OW37043   2.870   3.318   7.925
12340SOL    HW137044   2.824   3.390   7.873
12340SOL    HW237045   2.866   3.338   8.023
12341SOL     OW37046   2.213   3.663   8.301
12341SOL    HW137047   2.263   3.577   8.307
12341SOL    HW237048   2.278   3.740   8.298
12342SOL     OW37049   3.657   2.928   8.321
12342SOL    HW137050   3.595   2.913   8.245
12342SOL    HW237051   3.605   2.939   8.406
12343SOL     OW37052   3.089   3.412   8.954
12343SOL    HW137053   3.095   3.335   9.018
12343SOL    HW237054   3.037   3.386   8.874
12344SOL     OW37055   2.183   2.805   7.690
12344SOL    HW137056   2.265   2.844   7.648
12344SOL    HW237057   2.156   2.723   7.641
12345SOL     OW37058   3.320   2.597   8.176
12345SOL    HW137059   3.315   2.532   8.251
12345SOL    HW237060   3.400   2.656   8.189
12346SOL     OW37061   2.323   3.128   9.175
12346SOL    HW137062   2.273   3.129   9.089
12346SOL    HW237063   2.260   3.110   9.251
12347SOL     OW37064   2.973   3.638   7.685
12347SOL    HW137065   2.913   3.576   7.735
12347SOL    HW237066   3.004   3.594   7.600
12348SOL     OW37067   2.064   2.147   8.946
12348SOL    HW137068   1.984   2.207   8.933
12348SOL    HW237069   2.054   2.098   9.032
12349SOL     OW37070   3.494   3.239   7.529
12349SOL    HW137071   3.462   3.333   7.519
12349SOL    HW237072   3.418   3.176   7.517
12350SOL     OW37073   2.326   3.605   7.771
12350SOL    HW137074   2.359   3.644   7.857
12350SOL    HW237075   2.402   3.598   7.706
12351SOL     OW37076   3.262   1.969   7.874
12351SOL    HW137077   3.238   1.932   7.784
12351SOL    HW237078   3.361   1.985   7.878
12352SOL     OW37079   2.111   3.647   8.689
12352SOL    HW137080   2.168   3.582   8.739
12352SOL    HW237081   2.095   3.614   8.596
12353SOL     OW37082   2.802   3.560   8.352
12353SOL    HW137083   2.882   3.503   8.373
12353SOL    HW237084   2.753   3.520   8.275
12354SOL     OW37085   2.244   2.562   7.928
12354SOL    HW137086   2.289   2.472   7.925
12354SOL    HW237087   2.150   2.551   7.961
12355SOL     OW37088   3.409   2.084   9.177
12355SOL    HW137089   3.404   2.121   9.269
12355SOL    HW237090   3.337   2.015   9.165
12356SOL     OW37091   2.476   1.984   7.565
12356SOL    HW137092   2.574   1.962   7.572
12356SOL    HW237093   2.445   1.967   7.472
12357SOL     OW37094   2.643   2.126   9.197
12357SOL    HW137095   2.710   2.065   9.240
12357SOL    HW237096   2.570   2.145   9.262
12358SOL     OW37097   2.750   3.376   8.643
12358SOL    HW137098   2.727   3.351   8.549
12358SOL    HW237099   2.811   3.307   8.682
12359SOL     OW37100   3.213   2.452   8.881
12359SOL    HW137101   3.241   2.409   8.966
12359SOL    HW237102   3.238   2.548   8.882
12360SOL     OW37103   2.665   3.264   8.372
12360SOL    HW137104   2.755   3.278   8.330
12360SOL    HW237105   2.594   3.266   8.301
12361SOL     OW37106   2.784   2.365   8.347
12361SOL    HW137107   2.759   2.356   8.251
12361SOL    HW237108   2.832   2.283   8.378
12362SOL     OW37109   2.401   1.926   7.960
12362SOL    HW137110   2.320   1.927   8.018
12362SOL    HW237111   2.404   2.009   7.905
12363SOL     OW37112   3.296   3.050   7.489
12363SOL    HW137113   3.328   2.974   7.546
12363SOL    HW237114   3.204   3.077   7.519
12364SOL     OW37115   2.159   1.897   7.619
12364SOL    HW137116   2.208   1.981   7.598
12364SOL    HW237117   2.221   1.832   7.664
12365SOL     OW37118   2.797   2.098   7.928
12365SOL    HW137119   2.749   2.139   7.850
12365SOL    HW237120   2.896   2.096   7.909
12366SOL     OW37121   2.938   2.545   8.912
12366SOL    HW137122   2.858   2.484   8.915
12366SOL    HW237123   3.019   2.492   8.888
12367SOL     OW37124   3.089   3.432   8.241
12367SOL    HW137125   3.110   3.506   8.176
12367SOL    HW237126   3.157   3.432   8.314
12368SOL     OW37127   2.321   3.014   8.189
12368SOL    HW137128   2.250   2.987   8.254
12368SOL    HW237129   2.295   2.986   8.096
12369SOL     OW37130   3.133   3.659   8.039
12369SOL    HW137131   3.177   3.723   7.975
12369SOL    HW237132   3.083   3.711   8.109
12370SOL     OW37133   2.894   2.411   7.464
12370SOL    HW137134   2.853   2.493   7.425
12370SOL    HW237135   2.958   2.437   7.537
12371SOL     OW37136   1.940   2.418   8.834
12371SOL    HW137137   2.032   2.417   8.793
12371SOL    HW237138   1.934   2.492   8.901
12372SOL     OW37139   2.423   2.084   8.595
12372SOL    HW137140   2.461   2.000   8.632
12372SOL    HW237141   2.335   2.103   8.639
12373SOL     OW37142   2.728   2.316   8.090
12373SOL    HW137143   2.696   2.388   8.028
12373SOL    HW237144   2.752   2.235   8.037
12374SOL     OW37145   2.879   1.901   8.201
12374SOL    HW137146   2.807   1.906   8.132
12374SOL    HW237147   2.855   1.832   8.270
12375SOL     OW37148   3.291   3.035   8.315
12375SOL    HW137149   3.236   2.951   8.308
12375SOL    HW237150   3.317   3.064   8.223
12376SOL     OW37151   3.328   2.452   8.440
12376SOL    HW137152   3.298   2.357   8.447
12376SOL    HW237153   3.401   2.468   8.506
12377SOL     OW37154   3.719   2.695   7.825
12377SOL    HW137155   3.761   2.631   7.889
12377SOL    HW237156   3.681   2.644   7.747
12378SOL     OW37157   2.350   3.247   7.622
12378SOL    HW137158   2.263   3.232   7.669
12378SOL    HW237159   2.333   3.273   7.527
12379SOL     OW37160   3.526   3.142   8.105
12379SOL    HW137161   3.625   3.150   8.119
12379SOL    HW237162   3.481   3.226   8.136
12380SOL     OW37163   3.252   2.437   7.526
12380SOL    HW137164   3.198   2.416   7.607
12380SOL    HW237165   3.343   2.396   7.535
12381SOL     OW37166   2.389   2.118   7.776
12381SOL    HW137167   2.416   2.059   7.701
12381SOL    HW237168   2.389   2.213   7.745
12382SOL     OW37169   3.616   3.085   9.036
12382SOL    HW137170   3.707   3.046   9.023
12382SOL    HW237171   3.624   3.181   9.060
12383SOL     OW37172   2.926   3.209   8.788
12383SOL    HW137173   2.846   3.186   8.843
12383SOL    HW237174   3.009   3.183   8.837
12384SOL     OW37175   3.454   3.491   9.073
12384SOL    HW137176   3.481   3.525   8.983
12384SOL    HW237177   3.533   3.453   9.119
12385SOL     OW37178   2.973   3.057   8.548
12385SOL    HW137179   2.933   3.101   8.629
12385SOL    HW237180   2.932   3.094   8.465
12386SOL     OW37181   3.500   2.961   8.527
12386SOL    HW137182   3.505   3.042   8.586
12386SOL    HW237183   3.414   2.963   8.476
12387SOL     OW37184   2.777   1.951   8.850
12387SOL    HW137185   2.802   1.931   8.755
12387SOL    HW237186   2.849   2.007   8.892
12388SOL     OW37187   2.842   2.978   9.167
12388SOL    HW137188   2.743   2.984   9.177
12388SOL    HW237189   2.865   2.898   9.111
12389SOL     OW37190   2.272   2.675   8.699
12389SOL    HW137191   2.358   2.687   8.749
12389SOL    HW237192   2.230   2.588   8.726
12390SOL     OW37193   3.136   2.248   8.710
12390SOL    HW137194   3.157   2.322   8.774
12390SOL    HW237195   3.047   2.265   8.667
12391SOL     OW37196   1.926   3.426   8.779
12391SOL    HW137197   1.880   3.508   8.745
12391SOL    HW237198   2.024   3.445   8.788
12392SOL     OW37199   2.229   2.962   7.949
12392SOL    HW137200   2.222   3.045   7.893
12392SOL    HW237201   2.233   2.882   7.889
12393SOL     OW37202   2.428   2.399   8.313
12393SOL    HW137203   2.440   2.465   8.239
12393SOL    HW237204   2.474   2.433   8.396
12394SOL     OW37205   3.114   3.210   7.836
12394SOL    HW137206   3.164   3.287   7.876
12394SOL    HW237207   3.019   3.212   7.868
12395SOL     OW37208   3.134   3.307   8.590
12395SOL    HW137209   3.181   3.320   8.677
12395SOL    HW237210   3.068   3.233   8.599
12396SOL     OW37211   3.444   2.501   7.920
12396SOL    HW137212   3.413   2.562   7.993
12396SOL    HW237213   3.494   2.553   7.851
12397SOL     OW37214   2.216   3.372   8.777
12397SOL    HW137215   2.195   3.328   8.690
12397SOL    HW237216   2.313   3.398   8.780
12398SOL     OW37217   2.264   2.613   9.046
12398SOL    HW137218   2.332   2.668   8.999
12398SOL    HW237219   2.304   2.525   9.073
12399SOL     OW37220   3.449   2.641   9.118
12399SOL    HW137221   3.357   2.679   9.113
12399SOL    HW237222   3.509   2.688   9.053
12400SOL     OW37223   2.875   1.967   9.218
12400SOL    HW137224   2.881   2.052   9.166
12400SOL    HW237225   2.907   1.891   9.161
12401SOL     OW37226   2.366   1.912   9.188
12401SOL    HW137227   2.324   1.855   9.118
12401SOL    HW237228   2.300   1.981   9.220
12402SOL     OW37229   2.435   2.732   8.477
12402SOL    HW137230   2.479   2.821   8.468
12402SOL    HW237231   2.372   2.732   8.554
12403SOL     OW37232   3.222   2.724   8.493
12403SOL    HW137233   3.147   2.724   8.427
12403SOL    HW237234   3.259   2.632   8.502
12404SOL     OW37235   3.071   2.387   7.723
12404SOL    HW137236   3.084   2.303   7.777
12404SOL    HW237237   3.042   2.461   7.783
12405SOL     OW37238   2.169   2.075   8.679
12405SOL    HW137239   2.146   2.112   8.769
12405SOL    HW237240   2.139   1.980   8.673
12406SOL     OW37241   1.899   3.172   8.730
12406SOL    HW137242   1.952   3.123   8.798
12406SOL    HW237243   1.921   3.270   8.735
12407SOL     OW37244   2.594   2.496   8.512
12407SOL    HW137245   2.653   2.470   8.436
12407SOL    HW237246   2.566   2.592   8.501
12408SOL     OW37247   3.590   2.797   9.302
12408SOL    HW137248   3.544   2.790   9.213
12408SOL    HW237249   3.528   2.841   9.368
12409SOL     OW37250   2.169   1.925   8.066
12409SOL    HW137251   2.158   2.019   8.099
12409SOL    HW237252   2.164   1.862   8.143
12410SOL     OW37253   3.484   2.229   7.822
12410SOL    HW137254   3.486   2.153   7.886
12410SOL    HW237255   3.436   2.306   7.862
12411SOL     OW37256   2.885   2.628   8.414
12411SOL    HW137257   2.900   2.649   8.510
12411SOL    HW237258   2.855   2.533   8.405
12412SOL     OW37259   2.842   3.435   9.148
12412SOL    HW137260   2.822   3.479   9.060
12412SOL    HW237261   2.881   3.344   9.132
12413SOL     OW37262   3.721   3.380   9.053
12413SOL    HW137263   3.735   3.407   8.958
12413SOL    HW237264   3.804   3.402   9.106
12414SOL     OW37265   2.212   2.760   9.252
12414SOL    HW137266   2.288   2.804   9.300
12414SOL    HW237267   2.247   2.713   9.170
12415SOL     OW37268   3.402   2.136   7.573
12415SOL    HW137269   3.341   2.061   7.596
12415SOL    HW237270   3.424   2.188   7.656
12416SOL     OW37271   3.165   2.700   7.490
12416SOL    HW137272   3.199   2.607   7.505
12416SOL    HW237273   3.183   2.727   7.395
12417SOL     OW37274   2.930   3.195   8.297
12417SOL    HW137275   2.937   3.111   8.242
12417SOL    HW237276   2.992   3.264   8.261
12418SOL     OW37277   2.181   2.672   8.397
12418SOL    HW137278   2.274   2.708   8.402
12418SOL    HW237279   2.175   2.587   8.449
12419SOL     OW37280   2.201   2.371   8.454
12419SOL    HW137281   2.149   2.288   8.437
12419SOL    HW237282   2.278   2.376   8.390
12420SOL     OW37283   3.000   2.242   9.126
12420SOL    HW137284   2.955   2.305   9.190
12420SOL    HW237285   3.093   2.273   9.109
12421SOL     OW37286   3.022   2.069   8.925
12421SOL    HW137287   3.022   2.133   9.002
12421SOL    HW237288   3.050   2.117   8.842
12422SOL     OW37289   1.870   3.188   7.648
12422SOL    HW137290   1.777   3.209   7.617
12422SOL    HW237291   1.880   3.089   7.661
12423SOL     OW37292   1.950   3.663   8.375
12423SOL    HW137293   1.908   3.577   8.348
12423SOL    HW237294   2.044   3.666   8.341
12424SOL     OW37295   2.366   3.430   8.358
12424SOL    HW137296   2.432   3.504   8.367
12424SOL    HW237297   2.410   3.351   8.316
12425SOL     OW37298   2.864   2.658   8.686
12425SOL    HW137299   2.905   2.626   8.772
12425SOL    HW237300   2.768   2.631   8.683
12426SOL     OW37301   1.902   2.406   8.562
12426SOL    HW137302   1.987   2.373   8.521
12426SOL    HW237303   1.915   2.421   8.660
12427SOL     OW37304   2.051   2.382   9.170
12427SOL    HW137305   2.110   2.342   9.100
12427SOL    HW237306   1.993   2.453   9.129
12428SOL     OW37307   3.231   2.812   9.108
12428SOL    HW137308   3.270   2.901   9.128
12428SOL    HW237309   3.241   2.792   9.011
12429SOL     OW37310   2.677   2.434   7.773
12429SOL    HW137311   2.684   2.345   7.727
12429SOL    HW237312   2.583   2.468   7.765
12430SOL     OW37313   3.519   2.466   8.654
12430SOL    HW137314   3.481   2.397   8.716
12430SOL    HW237315   3.601   2.430   8.610
12431SOL     OW37316   2.114   3.426   9.192
12431SOL    HW137317   2.084   3.483   9.268
12431SOL    HW237318   2.107   3.329   9.218
12432SOL     OW37319   2.533   2.326   8.717
12432SOL    HW137320   2.499   2.237   8.687
12432SOL    HW237321   2.559   2.380   8.637
12433SOL     OW37322   2.792   3.540   8.913
12433SOL    HW137323   2.768   3.522   8.818
12433SOL    HW237324   2.822   3.634   8.923
12434SOL     OW37325   2.335   2.362   7.639
12434SOL    HW137326   2.396   2.442   7.643
12434SOL    HW237327   2.240   2.393   7.646
12435SOL     OW37328   2.021   2.999   8.914
12435SOL    HW137329   2.043   2.938   8.990
12435SOL    HW237330   2.031   2.950   8.828
12436SOL     OW37331   3.209   2.921   8.682
12436SOL    HW137332   3.233   2.858   8.608
12436SOL    HW237333   3.119   2.961   8.664
12437SOL     OW37334   3.164   2.717   7.757
12437SOL    HW137335   3.078   2.686   7.799
12437SOL    HW237336   3.160   2.703   7.658
12438SOL     OW37337   3.621   3.609   8.602
12438SOL    HW137338   3.682   3.639   8.529
12438SOL    HW237339   3.583   3.520   8.580
12439SOL     OW37340   3.114   3.593   8.576
12439SOL    HW137341   3.198   3.598   8.522
12439SOL    HW237342   3.091   3.497   8.594
12440SOL     OW37343   1.945   3.120   8.470
12440SOL    HW137344   1.940   3.119   8.570
12440SOL    HW237345   1.862   3.079   8.432
12441SOL     OW37346   2.550   3.524   9.164
12441SOL    HW137347   2.494   3.605   9.173
12441SOL    HW237348   2.602   3.528   9.078
12442SOL     OW37349   3.588   1.997   7.971
12442SOL    HW137350   3.661   1.980   7.904
12442SOL    HW237351   3.557   1.910   8.009
12443SOL     OW37352   3.250   3.435   7.925
12443SOL    HW137353   3.317   3.447   7.851
12443SOL    HW237354   3.210   3.524   7.948
12444SOL     OW37355   1.992   3.656   9.299
12444SOL    HW137356   1.951   3.582   9.352
12444SOL    HW237357   2.056   3.707   9.357
12445SOL     OW37358   3.142   2.789   8.120
12445SOL    HW137359   3.202   2.708   8.122
12445SOL    HW237360   3.182   2.858   8.060
12446SOL     OW37361   2.692   3.135   8.870
12446SOL    HW137362   2.687   3.168   8.965
12446SOL    HW237363   2.606   3.154   8.824
12447SOL     OW37364   2.534   3.478   7.602
12447SOL    HW137365   2.543   3.488   7.503
12447SOL    HW237366   2.494   3.389   7.623
12448SOL     OW37367   3.512   3.582   8.842
12448SOL    HW137368   3.565   3.592   8.758
12448SOL    HW237369   3.485   3.672   8.876
12449SOL     OW37370   3.703   2.037   8.411
12449SOL    HW137371   3.742   1.952   8.375
12449SOL    HW237372   3.605   2.039   8.392
12450SOL     OW37373   2.125   2.188   8.168
12450SOL    HW137374   2.046   2.239   8.134
12450SOL    HW237375   2.116   2.173   8.266
12451SOL     OW37376   3.056   3.474   7.479
12451SOL    HW137377   3.062   3.381   7.516
12451SOL    HW237378   2.997   3.474   7.399
12452SOL     OW37379   2.684   2.864   8.820
12452SOL    HW137380   2.724   2.863   8.728
12452SOL    HW237381   2.694   2.956   8.860
12453SOL     OW37382   2.778   2.772   7.739
12453SOL    HW137383   2.841   2.810   7.671
12453SOL    HW237384   2.818   2.689   7.778
12454SOL     OW37385   3.366   3.469   7.492
12454SOL    HW137386   3.274   3.506   7.499
12454SOL    HW237387   3.404   3.489   7.402
12455SOL     OW37388   2.234   3.150   8.938
12455SOL    HW137389   2.221   3.243   8.904
12455SOL    HW237390   2.150   3.098   8.925
12456SOL     OW37391   3.476   3.154   8.737
12456SOL    HW137392   3.536   3.157   8.817
12456SOL    HW237393   3.401   3.218   8.750
12457SOL     OW37394   2.901   2.960   8.144
12457SOL    HW137395   2.831   2.913   8.198
12457SOL    HW237396   2.960   2.892   8.101
12458SOL     OW37397   2.876   2.098   8.419
12458SOL    HW137398   2.868   2.062   8.326
12458SOL    HW237399   2.874   2.022   8.484
12459SOL     OW37400   2.452   3.349   7.939
12459SOL    HW137401   2.494   3.291   7.869
12459SOL    HW237402   2.408   3.428   7.895
12460SOL     OW37403   3.571   2.247   8.829
12460SOL    HW137404   3.644   2.316   8.833
12460SOL    HW237405   3.599   2.172   8.770
12461SOL     OW37406   2.117   3.210   7.738
12461SOL    HW137407   2.021   3.211   7.711
12461SOL    HW237408   2.129   3.263   7.822
12462SOL     OW37409   1.967   2.875   9.174
12462SOL    HW137410   1.890   2.842   9.228
12462SOL    HW237411   2.052   2.845   9.216
12463SOL     OW37412   2.534   2.065   8.937
12463SOL    HW137413   2.624   2.049   8.897
12463SOL    HW237414   2.542   2.070   9.036
12464SOL     OW37415   1.937   2.207   7.481
12464SOL    HW137416   1.845   2.179   7.452
12464SOL    HW237417   1.968   2.284   7.425
12465SOL     OW37418   3.302   2.718   8.846
12465SOL    HW137419   3.245   2.770   8.783
12465SOL    HW237420   3.398   2.730   8.822
12466SOL     OW37421   1.934   2.028   7.766
12466SOL    HW137422   1.917   2.111   7.712
12466SOL    HW237423   2.024   1.991   7.744
12467SOL     OW37424   3.045   3.197   7.567
12467SOL    HW137425   2.946   3.186   7.569
12467SOL    HW237426   3.079   3.212   7.660
12468SOL     OW37427   2.475   2.704   8.879
12468SOL    HW137428   2.531   2.785   8.862
12468SOL    HW237429   2.534   2.624   8.882
12469SOL     OW37430   3.355   3.629   8.407
12469SOL    HW137431   3.388   3.693   8.338
12469SOL    HW237432   3.421   3.623   8.482
12470SOL     OW37433   2.578   2.427   9.156
12470SOL    HW137434   2.597   2.492   9.230
12470SOL    HW237435   2.638   2.347   9.165
12471SOL     OW37436   3.312   3.082   9.081
12471SOL    HW137437   3.303   3.072   9.180
12471SOL    HW237438   3.408   3.075   9.055
12472SOL     OW37439   2.252   3.603   9.008
12472SOL    HW137440   2.161   3.644   9.006
12472SOL    HW237441   2.245   3.509   9.040
12473SOL     OW37442   3.536   2.745   8.702
12473SOL    HW137443   3.509   2.656   8.665
12473SOL    HW237444   3.537   2.813   8.629
12474SOL     OW37445   3.087   2.187   7.897
12474SOL    HW137446   3.152   2.113   7.886
12474SOL    HW237447   3.107   2.237   7.981
12475SOL     OW37448   2.456   2.607   8.100
12475SOL    HW137449   2.506   2.692   8.081
12475SOL    HW237450   2.368   2.609   8.052
12476SOL     OW37451   3.639   2.204   9.090
12476SOL    HW137452   3.622   2.235   8.996
12476SOL    HW237453   3.555   2.167   9.128
12477SOL     OW37454   3.592   2.796   8.965
12477SOL    HW137455   3.630   2.887   8.980
12477SOL    HW237456   3.584   2.779   8.866
12478SOL     OW37457   2.721   3.236   7.464
12478SOL    HW137458   2.675   3.251   7.552
12478SOL    HW237459   2.765   3.321   7.434
12479SOL     OW37460   2.523   3.652   8.401
12479SOL    HW137461   2.477   3.740   8.388
12479SOL    HW237462   2.622   3.664   8.394
12480SOL     OW37463   2.721   2.818   8.309
12480SOL    HW137464   2.775   2.749   8.357
12480SOL    HW237465   2.689   2.887   8.375
12481SOL     OW37466   2.945   2.846   7.535
12481SOL    HW137467   2.922   2.899   7.453
12481SOL    HW237468   3.026   2.790   7.516
12482SOL     OW37469   3.723   3.431   8.299
12482SOL    HW137470   3.652   3.419   8.229
12482SOL    HW237471   3.724   3.352   8.359
12483SOL     OW37472   2.083   3.176   9.292
12483SOL    HW137473   2.018   3.103   9.271
12483SOL    HW237474   2.087   3.190   9.390
12484SOL     OW37475   1.941   3.102   8.101
12484SOL    HW137476   1.940   3.055   8.189
12484SOL    HW237477   2.023   3.074   8.050
12485SOL     OW37478   2.534   3.253   9.072
12485SOL    HW137479   2.456   3.203   9.110
12485SOL    HW237480   2.531   3.348   9.103
12486SOL     OW37481   3.686   2.054   8.675
12486SOL    HW137482   3.682   1.964   8.719
12486SOL    HW237483   3.689   2.043   8.576
12487SOL     OW37484   2.290   2.286   7.968
12487SOL    HW137485   2.320   2.214   7.906
12487SOL    HW237486   2.251   2.246   8.051
12488SOL     OW37487   3.567   3.349   8.552
12488SOL    HW137488   3.474   3.324   8.525
12488SOL    HW237489   3.593   3.299   8.634
12489SOL     OW37490   2.179   2.409   8.728
12489SOL    HW137491   2.217   2.350   8.800
12489SOL    HW237492   2.219   2.383   8.640
12490SOL     OW37493   2.674   3.448   8.135
12490SOL    HW137494   2.706   3.458   8.041
12490SOL    HW237495   2.595   3.386   8.137
12491SOL     OW37496   3.286   2.076   8.560
12491SOL    HW137497   3.338   2.011   8.615
12491SOL    HW237498   3.237   2.139   8.621
12492SOL     OW37499   2.863   1.896   8.602
12492SOL    HW137500   2.800   1.824   8.571
12492SOL    HW237501   2.956   1.860   8.602
12493SOL     OW37502   2.632   3.192   7.749
12493SOL    HW137503   2.586   3.105   7.766
12493SOL    HW237504   2.723   3.189   7.790
12494SOL     OW37505   2.480   3.429   8.732
12494SOL    HW137506   2.475   3.511   8.789
12494SOL    HW237507   2.569   3.426   8.687
12495SOL     OW37508   3.214   1.914   7.616
12495SOL    HW137509   3.249   1.873   7.532
12495SOL    HW237510   3.124   1.876   7.636
12496SOL     OW37511   3.162   2.315   8.139
12496SOL    HW137512   3.103   2.395   8.143
12496SOL    HW237513   3.177   2.280   8.232
12497SOL     OW37514   3.455   2.083   8.330
12497SOL    HW137515   3.371   2.082   8.384
12497SOL    HW237516   3.457   2.166   8.274
12498SOL     OW37517   1.901   2.939   7.748
12498SOL    HW137518   2.000   2.928   7.739
12498SOL    HW237519   1.861   2.853   7.780
12499SOL     OW37520   2.737   3.508   7.785
12499SOL    HW137521   2.660   3.473   7.731
12499SOL    HW237522   2.705   3.579   7.847
12500SOL     OW37523   2.092   2.490   9.423
12500SOL    HW137524   1.999   2.488   9.460
12500SOL    HW237525   2.093   2.451   9.331
12501SOL     OW37526   2.087   2.137  10.306
12501SOL    HW137527   2.122   2.120  10.398
12501SOL    HW237528   1.999   2.092  10.294
12502SOL     OW37529   1.881   2.230   9.957
12502SOL    HW137530   1.799   2.273   9.996
12502SOL    HW237531   1.853   2.157   9.894
12503SOL     OW37532   2.431   3.137  10.475
12503SOL    HW137533   2.338   3.130  10.438
12503SOL    HW237534   2.442   3.226  10.519
12504SOL     OW37535   3.417   3.373  10.013
12504SOL    HW137536   3.360   3.357  10.094
12504SOL    HW237537   3.358   3.383   9.933
12505SOL     OW37538   2.997   2.565  10.027
12505SOL    HW137539   3.054   2.643  10.002
12505SOL    HW237540   2.937   2.591  10.103
12506SOL     OW37541   3.617   2.469   9.541
12506SOL    HW137542   3.605   2.456   9.442
12506SOL    HW237543   3.587   2.388   9.590
12507SOL     OW37544   2.630   3.006  10.333
12507SOL    HW137545   2.552   3.023  10.393
12507SOL    HW237546   2.664   3.093  10.297
12508SOL     OW37547   2.712   2.660  11.133
12508SOL    HW137548   2.708   2.736  11.198
12508SOL    HW237549   2.734   2.696  11.042
12509SOL     OW37550   2.547   2.874   9.975
12509SOL    HW137551   2.616   2.858  10.045
12509SOL    HW237552   2.474   2.931  10.013
12510SOL     OW37553   2.548   3.023  11.113
12510SOL    HW137554   2.608   3.102  11.127
12510SOL    HW237555   2.462   3.054  11.072
12511SOL     OW37556   2.197   3.297  10.371
12511SOL    HW137557   2.119   3.266  10.318
12511SOL    HW237558   2.255   3.355  10.314
12512SOL     OW37559   3.322   3.367  10.649
12512SOL    HW137560   3.346   3.461  10.675
12512SOL    HW237561   3.306   3.313  10.731
12513SOL     OW37562   2.300   2.254  10.809
12513SOL    HW137563   2.382   2.198  10.818
12513SOL    HW237564   2.219   2.196  10.813
12514SOL     OW37565   3.465   2.309  10.047
12514SOL    HW137566   3.391   2.355   9.997
12514SOL    HW237567   3.516   2.377  10.100
12515SOL     OW37568   2.093   3.575   9.793
12515SOL    HW137569   2.127   3.652   9.847
12515SOL    HW237570   2.137   3.575   9.703
12516SOL     OW37571   2.989   3.203  11.000
12516SOL    HW137572   3.036   3.203  11.088
12516SOL    HW237573   2.941   3.116  10.989
12517SOL     OW37574   2.092   3.296   9.848
12517SOL    HW137575   2.066   3.392   9.848
12517SOL    HW237576   2.021   3.242   9.893
12518SOL     OW37577   2.102   2.953  10.196
12518SOL    HW137578   2.116   2.869  10.248
12518SOL    HW237579   2.047   3.017  10.251
12519SOL     OW37580   2.482   3.648  10.749
12519SOL    HW137581   2.390   3.631  10.784
12519SOL    HW237582   2.510   3.740  10.775
12520SOL     OW37583   2.468   2.826   9.433
12520SOL    HW137584   2.475   2.910   9.379
12520SOL    HW237585   2.514   2.839   9.521
12521SOL     OW37586   3.456   1.976  10.790
12521SOL    HW137587   3.438   2.043  10.718
12521SOL    HW237588   3.453   2.022  10.879
12522SOL     OW37589   1.984   2.505   9.873
12522SOL    HW137590   1.939   2.417   9.890
12522SOL    HW237591   1.983   2.559   9.957
12523SOL     OW37592   3.704   3.629   9.669
12523SOL    HW137593   3.758   3.600   9.749
12523SOL    HW237594   3.734   3.719   9.640
12524SOL     OW37595   1.889   3.458   9.427
12524SOL    HW137596   1.870   3.362   9.448
12524SOL    HW237597   1.856   3.516   9.502
12525SOL     OW37598   3.551   2.784   9.922
12525SOL    HW137599   3.646   2.755   9.930
12525SOL    HW237600   3.543   2.849   9.847
12526SOL     OW37601   3.503   2.970   9.742
12526SOL    HW137602   3.589   2.972   9.690
12526SOL    HW237603   3.517   3.017   9.830
12527SOL     OW37604   1.975   2.599  10.907
12527SOL    HW137605   2.063   2.586  10.952
12527SOL    HW237606   1.962   2.696  10.885
12528SOL     OW37607   2.475   3.227  10.036
12528SOL    HW137608   2.426   3.140  10.045
12528SOL    HW237609   2.452   3.270   9.949
12529SOL     OW37610   3.155   3.090  10.733
12529SOL    HW137611   3.192   3.017  10.675
12529SOL    HW237612   3.207   3.095  10.818
12530SOL     OW37613   2.671   1.866   9.812
12530SOL    HW137614   2.711   1.957   9.803
12530SOL    HW237615   2.571   1.874   9.818
12531SOL     OW37616   2.059   2.838  10.574
12531SOL    HW137617   2.148   2.793  10.560
12531SOL    HW237618   1.986   2.773  10.555
12532SOL     OW37619   3.387   2.861   9.500
12532SOL    HW137620   3.324   2.785   9.513
12532SOL    HW237621   3.435   2.879   9.586
12533SOL     OW37622   3.049   3.654  10.926
12533SOL    HW137623   3.073   3.714  10.850
12533SOL    HW237624   3.056   3.559  10.896
12534SOL     OW37625   2.179   2.113  11.111
12534SOL    HW137626   2.250   2.184  11.117
12534SOL    HW237627   2.091   2.152  11.139
12535SOL     OW37628   3.328   3.279  10.263
12535SOL    HW137629   3.269   3.285  10.343
12535SOL    HW237630   3.313   3.191  10.217
12536SOL     OW37631   3.529   3.576   9.882
12536SOL    HW137632   3.488   3.553   9.794
12536SOL    HW237633   3.511   3.502   9.947
12537SOL     OW37634   2.460   2.591   9.580
12537SOL    HW137635   2.484   2.660   9.512
12537SOL    HW237636   2.382   2.624   9.634
12538SOL     OW37637   3.143   2.207  10.254
12538SOL    HW137638   3.057   2.157  10.241
12538SOL    HW237639   3.205   2.153  10.310
12539SOL     OW37640   3.438   3.524   9.617
12539SOL    HW137641   3.527   3.570   9.620
12539SOL    HW237642   3.417   3.500   9.522
12540SOL     OW37643   2.669   2.467  10.775
12540SOL    HW137644   2.622   2.464  10.864
12540SOL    HW237645   2.618   2.412  10.709
12541SOL     OW37646   3.256   2.331  10.984
12541SOL    HW137647   3.236   2.374  11.072
12541SOL    HW237648   3.334   2.269  10.993
12542SOL     OW37649   2.835   2.752  10.882
12542SOL    HW137650   2.881   2.668  10.853
12542SOL    HW237651   2.779   2.786  10.807
12543SOL     OW37652   2.853   2.272  10.552
12543SOL    HW137653   2.776   2.306  10.606
12543SOL    HW237654   2.819   2.221  10.473
12544SOL     OW37655   2.903   2.563   9.739
12544SOL    HW137656   2.929   2.559   9.835
12544SOL    HW237657   2.818   2.512   9.725
12545SOL     OW37658   1.938   2.673  10.099
12545SOL    HW137659   2.037   2.661  10.108
12545SOL    HW237660   1.914   2.768  10.120
12546SOL     OW37661   1.992   3.683  10.881
12546SOL    HW137662   1.982   3.668  10.980
12546SOL    HW237663   1.906   3.719  10.845
12547SOL     OW37664   2.727   2.210   9.505
12547SOL    HW137665   2.786   2.273   9.456
12547SOL    HW237666   2.746   2.116   9.476
12548SOL     OW37667   3.581   2.447  11.141
12548SOL    HW137668   3.555   2.536  11.105
12548SOL    HW237669   3.579   2.379  11.068
12549SOL     OW37670   3.224   3.006   9.855
12549SOL    HW137671   3.307   2.977   9.807
12549SOL    HW237672   3.175   3.073   9.799
12550SOL     OW37673   2.412   2.058  10.195
12550SOL    HW137674   2.407   2.053  10.295
12550SOL    HW237675   2.414   2.154  10.166
12551SOL     OW37676   2.870   3.318   9.787
12551SOL    HW137677   2.824   3.390   9.735
12551SOL    HW237678   2.866   3.338   9.885
12552SOL     OW37679   2.213   3.663  10.163
12552SOL    HW137680   2.263   3.577  10.169
12552SOL    HW237681   2.278   3.740  10.160
12553SOL     OW37682   3.657   2.928  10.183
12553SOL    HW137683   3.595   2.913  10.107
12553SOL    HW237684   3.605   2.939  10.268
12554SOL     OW37685   3.089   3.412  10.816
12554SOL    HW137686   3.095   3.335  10.880
12554SOL    HW237687   3.037   3.386  10.736
12555SOL     OW37688   2.183   2.805   9.552
12555SOL    HW137689   2.265   2.844   9.510
12555SOL    HW237690   2.156   2.723   9.503
12556SOL     OW37691   3.320   2.597  10.038
12556SOL    HW137692   3.315   2.532  10.113
12556SOL    HW237693   3.400   2.656  10.051
12557SOL     OW37694   2.323   3.128  11.037
12557SOL    HW137695   2.273   3.129  10.951
12557SOL    HW237696   2.260   3.110  11.113
12558SOL     OW37697   2.973   3.638   9.547
12558SOL    HW137698   2.913   3.576   9.597
12558SOL    HW237699   3.004   3.594   9.462
12559SOL     OW37700   2.064   2.147  10.808
12559SOL    HW137701   1.984   2.207  10.795
12559SOL    HW237702   2.054   2.098  10.894
12560SOL     OW37703   3.494   3.239   9.391
12560SOL    HW137704   3.462   3.333   9.381
12560SOL    HW237705   3.418   3.176   9.379
12561SOL     OW37706   2.326   3.605   9.633
12561SOL    HW137707   2.359   3.644   9.719
12561SOL    HW237708   2.402   3.598   9.568
12562SOL     OW37709   3.262   1.969   9.736
12562SOL    HW137710   3.238   1.932   9.646
12562SOL    HW237711   3.361   1.985   9.740
12563SOL     OW37712   2.111   3.647  10.551
12563SOL    HW137713   2.168   3.582  10.601
12563SOL    HW237714   2.095   3.614  10.458
12564SOL     OW37715   2.802   3.560  10.214
12564SOL    HW137716   2.882   3.503  10.235
12564SOL    HW237717   2.753   3.520  10.137
12565SOL     OW37718   2.244   2.562   9.790
12565SOL    HW137719   2.289   2.472   9.787
12565SOL    HW237720   2.150   2.551   9.823
12566SOL     OW37721   3.409   2.084  11.039
12566SOL    HW137722   3.404   2.121  11.131
12566SOL    HW237723   3.337   2.015  11.027
12567SOL     OW37724   2.476   1.984   9.427
12567SOL    HW137725   2.574   1.962   9.434
12567SOL    HW237726   2.445   1.967   9.334
12568SOL     OW37727   2.643   2.126  11.059
12568SOL    HW137728   2.710   2.065  11.102
12568SOL    HW237729   2.570   2.145  11.124
12569SOL     OW37730   2.750   3.376  10.505
12569SOL    HW137731   2.727   3.351  10.411
12569SOL    HW237732   2.811   3.307  10.544
12570SOL     OW37733   3.213   2.452  10.743
12570SOL    HW137734   3.241   2.409  10.828
12570SOL    HW237735   3.238   2.548  10.744
12571SOL     OW37736   2.665   3.264  10.234
12571SOL    HW137737   2.755   3.278  10.192
12571SOL    HW237738   2.594   3.266  10.163
12572SOL     OW37739   2.784   2.365  10.209
12572SOL    HW137740   2.759   2.356  10.113
12572SOL    HW237741   2.832   2.283  10.240
12573SOL     OW37742   2.401   1.926   9.822
12573SOL    HW137743   2.320   1.927   9.880
12573SOL    HW237744   2.404   2.009   9.767
12574SOL     OW37745   3.296   3.050   9.351
12574SOL    HW137746   3.328   2.974   9.408
12574SOL    HW237747   3.204   3.077   9.381
12575SOL     OW37748   2.159   1.897   9.481
12575SOL    HW137749   2.208   1.981   9.460
12575SOL    HW237750   2.221   1.832   9.526
12576SOL     OW37751   2.797   2.098   9.790
12576SOL    HW137752   2.749   2.139   9.712
12576SOL    HW237753   2.896   2.096   9.771
12577SOL     OW37754   2.938   2.545  10.774
12577SOL    HW137755   2.858   2.484  10.777
12577SOL    HW237756   3.019   2.492  10.750
12578SOL     OW37757   3.089   3.432  10.103
12578SOL    HW137758   3.110   3.506  10.038
12578SOL    HW237759   3.157   3.432  10.176
12579SOL     OW37760   2.321   3.014  10.051
12579SOL    HW137761   2.250   2.987  10.116
12579SOL    HW237762   2.295   2.986   9.958
12580SOL     OW37763   3.133   3.659   9.901
12580SOL    HW137764   3.177   3.723   9.837
12580SOL    HW237765   3.083   3.711   9.971
12581SOL     OW37766   2.894   2.411   9.326
12581SOL    HW137767   2.853   2.493   9.287
12581SOL    HW237768   2.958   2.437   9.399
12582SOL     OW37769   1.940   2.418  10.696
12582SOL    HW137770   2.032   2.417  10.655
12582SOL    HW237771   1.934   2.492  10.763
12583SOL     OW37772   2.423   2.084  10.457
12583SOL    HW137773   2.461   2.000  10.494
12583SOL    HW237774   2.335   2.103  10.501
12584SOL     OW37775   2.728   2.316   9.952
12584SOL    HW137776   2.696   2.388   9.890
12584SOL    HW237777   2.752   2.235   9.899
12585SOL     OW37778   2.879   1.901  10.063
12585SOL    HW137779   2.807   1.906   9.994
12585SOL    HW237780   2.855   1.832  10.132
12586SOL     OW37781   3.291   3.035  10.177
12586SOL    HW137782   3.236   2.951  10.170
12586SOL    HW237783   3.317   3.064  10.085
12587SOL     OW37784   3.328   2.452  10.302
12587SOL    HW137785   3.298   2.357  10.309
12587SOL    HW237786   3.401   2.468  10.368
12588SOL     OW37787   3.719   2.695   9.687
12588SOL    HW137788   3.761   2.631   9.751
12588SOL    HW237789   3.681   2.644   9.609
12589SOL     OW37790   2.350   3.247   9.484
12589SOL    HW137791   2.263   3.232   9.531
12589SOL    HW237792   2.333   3.273   9.389
12590SOL     OW37793   3.526   3.142   9.967
12590SOL    HW137794   3.625   3.150   9.981
12590SOL    HW237795   3.481   3.226   9.998
12591SOL     OW37796   3.252   2.437   9.388
12591SOL    HW137797   3.198   2.416   9.469
12591SOL    HW237798   3.343   2.396   9.397
12592SOL     OW37799   2.389   2.118   9.638
12592SOL    HW137800   2.416   2.059   9.563
12592SOL    HW237801   2.389   2.213   9.607
12593SOL     OW37802   3.616   3.085  10.898
12593SOL    HW137803   3.707   3.046  10.885
12593SOL    HW237804   3.624   3.181  10.922
12594SOL     OW37805   2.926   3.209  10.650
12594SOL    HW137806   2.846   3.186  10.705
12594SOL    HW237807   3.009   3.183  10.699
12595SOL     OW37808   3.454   3.491  10.935
12595SOL    HW137809   3.481   3.525  10.845
12595SOL    HW237810   3.533   3.453  10.981
12596SOL     OW37811   2.973   3.057  10.410
12596SOL    HW137812   2.933   3.101  10.491
12596SOL    HW237813   2.932   3.094  10.327
12597SOL     OW37814   3.500   2.961  10.389
12597SOL    HW137815   3.505   3.042  10.448
12597SOL    HW237816   3.414   2.963  10.338
12598SOL     OW37817   2.777   1.951  10.712
12598SOL    HW137818   2.802   1.931  10.617
12598SOL    HW237819   2.849   2.007  10.754
12599SOL     OW37820   2.842   2.978  11.029
12599SOL    HW137821   2.743   2.984  11.039
12599SOL    HW237822   2.865   2.898  10.973
12600SOL     OW37823   2.567   2.912   9.678
12600SOL    HW137824   2.553   2.919   9.777
12600SOL    HW237825   2.651   2.861   9.660
12601SOL     OW37826   2.272   2.675  10.561
12601SOL    HW137827   2.358   2.687  10.611
12601SOL    HW237828   2.230   2.588  10.588
12602SOL     OW37829   3.136   2.248  10.572
12602SOL    HW137830   3.157   2.322  10.636
12602SOL    HW237831   3.047   2.265  10.529
12603SOL     OW37832   1.926   3.426  10.641
12603SOL    HW137833   1.880   3.508  10.607
12603SOL    HW237834   2.024   3.445  10.650
12604SOL     OW37835   2.229   2.962   9.811
12604SOL    HW137836   2.222   3.045   9.755
12604SOL    HW237837   2.233   2.882   9.751
12605SOL     OW37838   2.428   2.399  10.175
12605SOL    HW137839   2.440   2.465  10.101
12605SOL    HW237840   2.474   2.433  10.258
12606SOL     OW37841   3.114   3.210   9.698
12606SOL    HW137842   3.164   3.287   9.738
12606SOL    HW237843   3.019   3.212   9.730
12607SOL     OW37844   3.134   3.307  10.452
12607SOL    HW137845   3.181   3.320  10.539
12607SOL    HW237846   3.068   3.233  10.461
12608SOL     OW37847   3.444   2.501   9.782
12608SOL    HW137848   3.413   2.562   9.855
12608SOL    HW237849   3.494   2.553   9.713
12609SOL     OW37850   2.216   3.372  10.639
12609SOL    HW137851   2.195   3.328  10.552
12609SOL    HW237852   2.313   3.398  10.642
12610SOL     OW37853   2.264   2.613  10.908
12610SOL    HW137854   2.332   2.668  10.861
12610SOL    HW237855   2.304   2.525  10.935
12611SOL     OW37856   3.449   2.641  10.980
12611SOL    HW137857   3.357   2.679  10.975
12611SOL    HW237858   3.509   2.688  10.915
12612SOL     OW37859   2.875   1.967  11.080
12612SOL    HW137860   2.881   2.052  11.028
12612SOL    HW237861   2.907   1.891  11.023
12613SOL     OW37862   2.366   1.912  11.050
12613SOL    HW137863   2.324   1.855  10.980
12613SOL    HW237864   2.300   1.981  11.082
12614SOL     OW37865   2.435   2.732  10.339
12614SOL    HW137866   2.479   2.821  10.330
12614SOL    HW237867   2.372   2.732  10.416
12615SOL     OW37868   3.222   2.724  10.355
12615SOL    HW137869   3.147   2.724  10.289
12615SOL    HW237870   3.259   2.632  10.364
12616SOL     OW37871   3.071   2.387   9.585
12616SOL    HW137872   3.084   2.303   9.639
12616SOL    HW237873   3.042   2.461   9.645
12617SOL     OW37874   2.169   2.075  10.541
12617SOL    HW137875   2.146   2.112  10.631
12617SOL    HW237876   2.139   1.980  10.535
12618SOL     OW37877   1.899   3.172  10.592
12618SOL    HW137878   1.952   3.123  10.660
12618SOL    HW237879   1.921   3.270  10.597
12619SOL     OW37880   2.594   2.496  10.374
12619SOL    HW137881   2.653   2.470  10.298
12619SOL    HW237882   2.566   2.592  10.363
12620SOL     OW37883   3.590   2.797  11.164
12620SOL    HW137884   3.544   2.790  11.075
12620SOL    HW237885   3.528   2.841  11.230
12621SOL     OW37886   2.169   1.925   9.928
12621SOL    HW137887   2.158   2.019   9.961
12621SOL    HW237888   2.164   1.862  10.005
12622SOL     OW37889   3.484   2.229   9.684
12622SOL    HW137890   3.486   2.153   9.748
12622SOL    HW237891   3.436   2.306   9.724
12623SOL     OW37892   2.885   2.628  10.276
12623SOL    HW137893   2.900   2.649  10.372
12623SOL    HW237894   2.855   2.533  10.267
12624SOL     OW37895   2.842   3.435  11.010
12624SOL    HW137896   2.822   3.479  10.922
12624SOL    HW237897   2.881   3.344  10.994
12625SOL     OW37898   3.721   3.380  10.915
12625SOL    HW137899   3.735   3.407  10.820
12625SOL    HW237900   3.804   3.402  10.968
12626SOL     OW37901   2.212   2.760  11.114
12626SOL    HW137902   2.288   2.804  11.162
12626SOL    HW237903   2.247   2.713  11.032
12627SOL     OW37904   3.402   2.136   9.435
12627SOL    HW137905   3.341   2.061   9.458
12627SOL    HW237906   3.424   2.188   9.518
12628SOL     OW37907   3.165   2.700   9.352
12628SOL    HW137908   3.199   2.607   9.367
12628SOL    HW237909   3.183   2.727   9.257
12629SOL     OW37910   2.930   3.195  10.159
12629SOL    HW137911   2.937   3.111  10.104
12629SOL    HW237912   2.992   3.264  10.123
12630SOL     OW37913   2.181   2.672  10.259
12630SOL    HW137914   2.274   2.708  10.264
12630SOL    HW237915   2.175   2.587  10.311
12631SOL     OW37916   2.201   2.371  10.316
12631SOL    HW137917   2.149   2.288  10.299
12631SOL    HW237918   2.278   2.376  10.252
12632SOL     OW37919   3.000   2.242  10.988
12632SOL    HW137920   2.955   2.305  11.052
12632SOL    HW237921   3.093   2.273  10.971
12633SOL     OW37922   3.022   2.069  10.787
12633SOL    HW137923   3.022   2.133  10.864
12633SOL    HW237924   3.050   2.117  10.704
12634SOL     OW37925   1.870   3.188   9.510
12634SOL    HW137926   1.777   3.209   9.479
12634SOL    HW237927   1.880   3.089   9.523
12635SOL     OW37928   1.950   3.663  10.237
12635SOL    HW137929   1.908   3.577  10.210
12635SOL    HW237930   2.044   3.666  10.203
12636SOL     OW37931   2.366   3.430  10.220
12636SOL    HW137932   2.432   3.504  10.229
12636SOL    HW237933   2.410   3.351  10.178
12637SOL     OW37934   2.864   2.658  10.548
12637SOL    HW137935   2.905   2.626  10.634
12637SOL    HW237936   2.768   2.631  10.545
12638SOL     OW37937   1.902   2.406  10.424
12638SOL    HW137938   1.987   2.373  10.383
12638SOL    HW237939   1.915   2.421  10.522
12639SOL     OW37940   2.051   2.382  11.032
12639SOL    HW137941   2.110   2.342  10.962
12639SOL    HW237942   1.993   2.453  10.991
12640SOL     OW37943   3.231   2.812  10.970
12640SOL    HW137944   3.270   2.901  10.990
12640SOL    HW237945   3.241   2.792  10.873
12641SOL     OW37946   2.677   2.434   9.635
12641SOL    HW137947   2.684   2.345   9.589
12641SOL    HW237948   2.583   2.468   9.627
12642SOL     OW37949   3.519   2.466  10.516
12642SOL    HW137950   3.481   2.397  10.578
12642SOL    HW237951   3.601   2.430  10.472
12643SOL     OW37952   2.114   3.426  11.054
12643SOL    HW137953   2.084   3.483  11.130
12643SOL    HW237954   2.107   3.329  11.080
12644SOL     OW37955   2.533   2.326  10.579
12644SOL    HW137956   2.499   2.237  10.549
12644SOL    HW237957   2.559   2.380  10.499
12645SOL     OW37958   2.792   3.540  10.775
12645SOL    HW137959   2.768   3.522  10.680
12645SOL    HW237960   2.822   3.634  10.785
12646SOL     OW37961   2.335   2.362   9.501
12646SOL    HW137962   2.396   2.442   9.505
12646SOL    HW237963   2.240   2.393   9.508
12647SOL     OW37964   2.021   2.999  10.776
12647SOL    HW137965   2.043   2.938  10.852
12647SOL    HW237966   2.031   2.950  10.690
12648SOL     OW37967   3.209   2.921  10.544
12648SOL    HW137968   3.233   2.858  10.470
12648SOL    HW237969   3.119   2.961  10.526
12649SOL     OW37970   3.164   2.717   9.619
12649SOL    HW137971   3.078   2.686   9.661
12649SOL    HW237972   3.160   2.703   9.520
12650SOL     OW37973   3.621   3.609  10.464
12650SOL    HW137974   3.682   3.639  10.391
12650SOL    HW237975   3.583   3.520  10.442
12651SOL     OW37976   3.114   3.593  10.438
12651SOL    HW137977   3.198   3.598  10.384
12651SOL    HW237978   3.091   3.497  10.456
12652SOL     OW37979   1.945   3.120  10.332
12652SOL    HW137980   1.940   3.119  10.432
12652SOL    HW237981   1.862   3.079  10.294
12653SOL     OW37982   2.550   3.524  11.026
12653SOL    HW137983   2.494   3.605  11.035
12653SOL    HW237984   2.602   3.528  10.940
12654SOL     OW37985   3.588   1.997   9.833
12654SOL    HW137986   3.661   1.980   9.766
12654SOL    HW237987   3.557   1.910   9.871
12655SOL     OW37988   3.250   3.435   9.787
12655SOL    HW137989   3.317   3.447   9.713
12655SOL    HW237990   3.210   3.524   9.810
12656SOL     OW37991   1.992   3.656  11.161
12656SOL    HW137992   1.951   3.582  11.214
12656SOL    HW237993   2.056   3.707  11.219
12657SOL     OW37994   3.142   2.789   9.982
12657SOL    HW137995   3.202   2.708   9.984
12657SOL    HW237996   3.182   2.858   9.922
12658SOL     OW37997   2.692   3.135  10.732
12658SOL    HW137998   2.687   3.168  10.827
12658SOL    HW237999   2.606   3.154  10.686
12659SOL     OW38000   2.534   3.478   9.464
12659SOL    HW138001   2.543   3.488   9.365
12659SOL    HW238002   2.494   3.389   9.485
12660SOL     OW38003   3.512   3.582  10.704
12660SOL    HW138004   3.565   3.592  10.620
12660SOL    HW238005   3.485   3.672  10.738
12661SOL     OW38006   2.125   2.188  10.030
12661SOL    HW138007   2.046   2.239   9.996
12661SOL    HW238008   2.116   2.173  10.128
12662SOL     OW38009   3.056   3.474   9.341
12662SOL    HW138010   3.062   3.381   9.378
12662SOL    HW238011   2.997   3.474   9.261
12663SOL     OW38012   2.684   2.864  10.682
12663SOL    HW138013   2.724   2.863  10.590
12663SOL    HW238014   2.694   2.956  10.722
12664SOL     OW38015   2.778   2.772   9.601
12664SOL    HW138016   2.841   2.810   9.533
12664SOL    HW238017   2.818   2.689   9.640
12665SOL     OW38018   3.366   3.469   9.354
12665SOL    HW138019   3.274   3.506   9.361
12665SOL    HW238020   3.404   3.489   9.264
12666SOL     OW38021   2.234   3.150  10.800
12666SOL    HW138022   2.221   3.243  10.766
12666SOL    HW238023   2.150   3.098  10.787
12667SOL     OW38024   3.476   3.154  10.599
12667SOL    HW138025   3.536   3.157  10.679
12667SOL    HW238026   3.401   3.218  10.612
12668SOL     OW38027   2.901   2.960  10.006
12668SOL    HW138028   2.831   2.913  10.060
12668SOL    HW238029   2.960   2.892   9.963
12669SOL     OW38030   2.876   2.098  10.281
12669SOL    HW138031   2.868   2.062  10.188
12669SOL    HW238032   2.874   2.022  10.346
12670SOL     OW38033   2.452   3.349   9.801
12670SOL    HW138034   2.494   3.291   9.731
12670SOL    HW238035   2.408   3.428   9.757
12671SOL     OW38036   3.571   2.247  10.691
12671SOL    HW138037   3.644   2.316  10.695
12671SOL    HW238038   3.599   2.172  10.632
12672SOL     OW38039   2.117   3.210   9.600
12672SOL    HW138040   2.021   3.211   9.573
12672SOL    HW238041   2.129   3.263   9.684
12673SOL     OW38042   1.967   2.875  11.036
12673SOL    HW138043   1.890   2.842  11.090
12673SOL    HW238044   2.052   2.845  11.078
12674SOL     OW38045   2.534   2.065  10.799
12674SOL    HW138046   2.624   2.049  10.759
12674SOL    HW238047   2.542   2.070  10.898
12675SOL     OW38048   1.937   2.207   9.343
12675SOL    HW138049   1.845   2.179   9.314
12675SOL    HW238050   1.968   2.284   9.287
12676SOL     OW38051   3.302   2.718  10.708
12676SOL    HW138052   3.245   2.770  10.645
12676SOL    HW238053   3.398   2.730  10.684
12677SOL     OW38054   1.934   2.028   9.628
12677SOL    HW138055   1.917   2.111   9.574
12677SOL    HW238056   2.024   1.991   9.606
12678SOL     OW38057   3.045   3.197   9.429
12678SOL    HW138058   2.946   3.186   9.431
12678SOL    HW238059   3.079   3.212   9.522
12679SOL     OW38060   2.475   2.704  10.741
12679SOL    HW138061   2.531   2.785  10.724
12679SOL    HW238062   2.534   2.624  10.744
12680SOL     OW38063   3.355   3.629  10.269
12680SOL    HW138064   3.388   3.693  10.200
12680SOL    HW238065   3.421   3.623  10.344
12681SOL     OW38066   2.578   2.427  11.018
12681SOL    HW138067   2.597   2.492  11.092
12681SOL    HW238068   2.638   2.347  11.027
12682SOL     OW38069   3.312   3.082  10.943
12682SOL    HW138070   3.303   3.072  11.042
12682SOL    HW238071   3.408   3.075  10.917
12683SOL     OW38072   2.252   3.603  10.870
12683SOL    HW138073   2.161   3.644  10.868
12683SOL    HW238074   2.245   3.509  10.902
12684SOL     OW38075   3.536   2.745  10.564
12684SOL    HW138076   3.509   2.656  10.527
12684SOL    HW238077   3.537   2.813  10.491
12685SOL     OW38078   3.087   2.187   9.759
12685SOL    HW138079   3.152   2.113   9.748
12685SOL    HW238080   3.107   2.237   9.843
12686SOL     OW38081   2.456   2.607   9.962
12686SOL    HW138082   2.506   2.692   9.943
12686SOL    HW238083   2.368   2.609   9.914
12687SOL     OW38084   3.639   2.204  10.952
12687SOL    HW138085   3.622   2.235  10.858
12687SOL    HW238086   3.555   2.167  10.990
12688SOL     OW38087   3.592   2.796  10.827
12688SOL    HW138088   3.630   2.887  10.842
12688SOL    HW238089   3.584   2.779  10.728
12689SOL     OW38090   2.721   3.236   9.326
12689SOL    HW138091   2.675   3.251   9.414
12689SOL    HW238092   2.765   3.321   9.296
12690SOL     OW38093   2.523   3.652  10.263
12690SOL    HW138094   2.477   3.740  10.250
12690SOL    HW238095   2.622   3.664  10.256
12691SOL     OW38096   2.721   2.818  10.171
12691SOL    HW138097   2.775   2.749  10.219
12691SOL    HW238098   2.689   2.887  10.237
12692SOL     OW38099   2.945   2.846   9.397
12692SOL    HW138100   2.922   2.899   9.315
12692SOL    HW238101   3.026   2.790   9.378
12693SOL     OW38102   3.723   3.431  10.161
12693SOL    HW138103   3.652   3.419  10.091
12693SOL    HW238104   3.724   3.352  10.221
12694SOL     OW38105   2.083   3.176  11.154
12694SOL    HW138106   2.018   3.103  11.133
12694SOL    HW238107   2.087   3.190  11.252
12695SOL     OW38108   1.941   3.102   9.963
12695SOL    HW138109   1.940   3.055  10.051
12695SOL    HW238110   2.023   3.074   9.912
12696SOL     OW38111   2.534   3.253  10.934
12696SOL    HW138112   2.456   3.203  10.972
12696SOL    HW238113   2.531   3.348  10.965
12697SOL     OW38114   3.686   2.054  10.537
12697SOL    HW138115   3.682   1.964  10.581
12697SOL    HW238116   3.689   2.043  10.438
12698SOL     OW38117   2.290   2.286   9.830
12698SOL    HW138118   2.320   2.214   9.768
12698SOL    HW238119   2.251   2.246   9.913
12699SOL     OW38120   3.567   3.349  10.414
12699SOL    HW138121   3.474   3.324  10.387
12699SOL    HW238122   3.593   3.299  10.496
12700SOL     OW38123   2.179   2.409  10.590
12700SOL    HW138124   2.217   2.350  10.662
12700SOL    HW238125   2.219   2.383  10.502
12701SOL     OW38126   2.674   3.448   9.997
12701SOL    HW138127   2.706   3.458   9.903
12701SOL    HW238128   2.595   3.386   9.999
12702SOL     OW38129   3.286   2.076  10.422
12702SOL    HW138130   3.338   2.011  10.477
12702SOL    HW238131   3.237   2.139  10.483
12703SOL     OW38132   2.863   1.896  10.464
12703SOL    HW138133   2.800   1.824  10.433
12703SOL    HW238134   2.956   1.860  10.464
12704SOL     OW38135   2.632   3.192   9.611
12704SOL    HW138136   2.586   3.105   9.628
12704SOL    HW238137   2.723   3.189   9.652
12705SOL     OW38138   2.480   3.429  10.594
12705SOL    HW138139   2.475   3.511  10.651
12705SOL    HW238140   2.569   3.426  10.549
12706SOL     OW38141   3.214   1.914   9.478
12706SOL    HW138142   3.249   1.873   9.394
12706SOL    HW238143   3.124   1.876   9.498
12707SOL     OW38144   3.162   2.315  10.001
12707SOL    HW138145   3.103   2.395  10.005
12707SOL    HW238146   3.177   2.280  10.094
12708SOL     OW38147   3.455   2.083  10.192
12708SOL    HW138148   3.371   2.082  10.246
12708SOL    HW238149   3.457   2.166  10.136
12709SOL     OW38150   1.901   2.939   9.610
12709SOL    HW138151   2.000   2.928   9.601
12709SOL    HW238152   1.861   2.853   9.642
12710SOL     OW38153   2.737   3.508   9.647
12710SOL    HW138154   2.660   3.473   9.593
12710SOL    HW238155   2.705   3.579   9.709
12711SOL     OW38156   2.092   2.490  11.285
12711SOL    HW138157   1.999   2.488  11.322
12711SOL    HW238158   2.093   2.451  11.193
12712SOL     OW38159   2.087   2.137  12.168
12712SOL    HW138160   2.122   2.120  12.260
12712SOL    HW238161   1.999   2.092  12.156
12713SOL     OW38162   1.881   2.230  11.819
12713SOL    HW138163   1.799   2.273  11.858
12713SOL    HW238164   1.853   2.157  11.756
12714SOL     OW38165   2.431   3.137  12.337
12714SOL    HW138166   2.338   3.130  12.300
12714SOL    HW238167   2.442   3.226  12.381
12715SOL     OW38168   3.417   3.373  11.875
12715SOL    HW138169   3.360   3.357  11.956
12715SOL    HW238170   3.358   3.383  11.795
12716SOL     OW38171   2.997   2.565  11.889
12716SOL    HW138172   3.054   2.643  11.864
12716SOL    HW238173   2.937   2.591  11.965
12717SOL     OW38174   3.617   2.469  11.403
12717SOL    HW138175   3.605   2.456  11.304
12717SOL    HW238176   3.587   2.388  11.452
12718SOL     OW38177   2.630   3.006  12.195
12718SOL    HW138178   2.552   3.023  12.255
12718SOL    HW238179   2.664   3.093  12.159
12719SOL     OW38180   2.547   2.874  11.837
12719SOL    HW138181   2.616   2.858  11.907
12719SOL    HW238182   2.474   2.931  11.875
12720SOL     OW38183   2.197   3.297  12.233
12720SOL    HW138184   2.119   3.266  12.180
12720SOL    HW238185   2.255   3.355  12.176
12721SOL     OW38186   3.322   3.367  12.511
12721SOL    HW138187   3.346   3.461  12.537
12721SOL    HW238188   3.306   3.313  12.593
12722SOL     OW38189   2.300   2.254  12.671
12722SOL    HW138190   2.382   2.198  12.680
12722SOL    HW238191   2.219   2.196  12.675
12723SOL     OW38192   3.465   2.309  11.909
12723SOL    HW138193   3.391   2.355  11.859
12723SOL    HW238194   3.516   2.377  11.962
12724SOL     OW38195   2.093   3.575  11.655
12724SOL    HW138196   2.127   3.652  11.709
12724SOL    HW238197   2.137   3.575  11.565
12725SOL     OW38198   2.092   3.296  11.710
12725SOL    HW138199   2.066   3.392  11.710
12725SOL    HW238200   2.021   3.242  11.755
12726SOL     OW38201   2.102   2.953  12.058
12726SOL    HW138202   2.116   2.869  12.110
12726SOL    HW238203   2.047   3.017  12.113
12727SOL     OW38204   2.482   3.648  12.611
12727SOL    HW138205   2.390   3.631  12.646
12727SOL    HW238206   2.510   3.740  12.637
12728SOL     OW38207   2.468   2.826  11.295
12728SOL    HW138208   2.475   2.910  11.241
12728SOL    HW238209   2.514   2.839  11.383
12729SOL     OW38210   3.456   1.976  12.652
12729SOL    HW138211   3.438   2.043  12.580
12729SOL    HW238212   3.453   2.022  12.741
12730SOL     OW38213   1.984   2.505  11.735
12730SOL    HW138214   1.939   2.417  11.752
12730SOL    HW238215   1.983   2.559  11.819
12731SOL     OW38216   3.704   3.629  11.531
12731SOL    HW138217   3.758   3.600  11.611
12731SOL    HW238218   3.734   3.719  11.502
12732SOL     OW38219   1.889   3.458  11.289
12732SOL    HW138220   1.870   3.362  11.310
12732SOL    HW238221   1.856   3.516  11.364
12733SOL     OW38222   3.551   2.784  11.784
12733SOL    HW138223   3.646   2.755  11.792
12733SOL    HW238224   3.543   2.849  11.709
12734SOL     OW38225   3.503   2.970  11.604
12734SOL    HW138226   3.589   2.972  11.552
12734SOL    HW238227   3.517   3.017  11.692
12735SOL     OW38228   1.975   2.599  12.769
12735SOL    HW138229   2.063   2.586  12.814
12735SOL    HW238230   1.962   2.696  12.747
12736SOL     OW38231   2.475   3.227  11.898
12736SOL    HW138232   2.426   3.140  11.907
12736SOL    HW238233   2.452   3.270  11.811
12737SOL     OW38234   3.155   3.090  12.595
12737SOL    HW138235   3.192   3.017  12.537
12737SOL    HW238236   3.207   3.095  12.680
12738SOL     OW38237   2.671   1.866  11.674
12738SOL    HW138238   2.711   1.957  11.665
12738SOL    HW238239   2.571   1.874  11.680
12739SOL     OW38240   2.059   2.838  12.436
12739SOL    HW138241   2.148   2.793  12.422
12739SOL    HW238242   1.986   2.773  12.417
12740SOL     OW38243   3.387   2.861  11.362
12740SOL    HW138244   3.324   2.785  11.375
12740SOL    HW238245   3.435   2.879  11.448
12741SOL     OW38246   3.328   3.279  12.125
12741SOL    HW138247   3.269   3.285  12.205
12741SOL    HW238248   3.313   3.191  12.079
12742SOL     OW38249   3.529   3.576  11.744
12742SOL    HW138250   3.488   3.553  11.656
12742SOL    HW238251   3.511   3.502  11.809
12743SOL     OW38252   2.460   2.591  11.442
12743SOL    HW138253   2.484   2.660  11.374
12743SOL    HW238254   2.382   2.624  11.496
12744SOL     OW38255   3.143   2.207  12.116
12744SOL    HW138256   3.057   2.157  12.103
12744SOL    HW238257   3.205   2.153  12.172
12745SOL     OW38258   3.438   3.524  11.479
12745SOL    HW138259   3.527   3.570  11.482
12745SOL    HW238260   3.417   3.500  11.384
12746SOL     OW38261   2.669   2.467  12.637
12746SOL    HW138262   2.622   2.464  12.726
12746SOL    HW238263   2.618   2.412  12.571
12747SOL     OW38264   2.835   2.752  12.744
12747SOL    HW138265   2.881   2.668  12.715
12747SOL    HW238266   2.779   2.786  12.669
12748SOL     OW38267   2.853   2.272  12.414
12748SOL    HW138268   2.776   2.306  12.468
12748SOL    HW238269   2.819   2.221  12.335
12749SOL     OW38270   2.903   2.563  11.601
12749SOL    HW138271   2.929   2.559  11.697
12749SOL    HW238272   2.818   2.512  11.587
12750SOL     OW38273   1.938   2.673  11.961
12750SOL    HW138274   2.037   2.661  11.970
12750SOL    HW238275   1.914   2.768  11.982
12751SOL     OW38276   1.992   3.683  12.743
12751SOL    HW138277   1.982   3.668  12.842
12751SOL    HW238278   1.906   3.719  12.707
12752SOL     OW38279   2.727   2.210  11.367
12752SOL    HW138280   2.786   2.273  11.318
12752SOL    HW238281   2.746   2.116  11.338
12753SOL     OW38282   3.224   3.006  11.717
12753SOL    HW138283   3.307   2.977  11.669
12753SOL    HW238284   3.175   3.073  11.661
12754SOL     OW38285   2.412   2.058  12.057
12754SOL    HW138286   2.407   2.053  12.157
12754SOL    HW238287   2.414   2.154  12.028
12755SOL     OW38288   2.870   3.318  11.649
12755SOL    HW138289   2.824   3.390  11.597
12755SOL    HW238290   2.866   3.338  11.747
12756SOL     OW38291   2.213   3.663  12.025
12756SOL    HW138292   2.263   3.577  12.031
12756SOL    HW238293   2.278   3.740  12.022
12757SOL     OW38294   3.657   2.928  12.045
12757SOL    HW138295   3.595   2.913  11.969
12757SOL    HW238296   3.605   2.939  12.130
12758SOL     OW38297   3.089   3.412  12.678
12758SOL    HW138298   3.095   3.335  12.742
12758SOL    HW238299   3.037   3.386  12.598
12759SOL     OW38300   2.183   2.805  11.414
12759SOL    HW138301   2.265   2.844  11.372
12759SOL    HW238302   2.156   2.723  11.365
12760SOL     OW38303   3.320   2.597  11.900
12760SOL    HW138304   3.315   2.532  11.975
12760SOL    HW238305   3.400   2.656  11.913
12761SOL     OW38306   2.973   3.638  11.409
12761SOL    HW138307   2.913   3.576  11.459
12761SOL    HW238308   3.004   3.594  11.324
12762SOL     OW38309   2.064   2.147  12.670
12762SOL    HW138310   1.984   2.207  12.657
12762SOL    HW238311   2.054   2.098  12.756
12763SOL     OW38312   3.494   3.239  11.253
12763SOL    HW138313   3.462   3.333  11.243
12763SOL    HW238314   3.418   3.176  11.241
12764SOL     OW38315   2.326   3.605  11.495
12764SOL    HW138316   2.359   3.644  11.581
12764SOL    HW238317   2.402   3.598  11.430
12765SOL     OW38318   3.262   1.969  11.598
12765SOL    HW138319   3.238   1.932  11.508
12765SOL    HW238320   3.361   1.985  11.602
12766SOL     OW38321   2.111   3.647  12.413
12766SOL    HW138322   2.168   3.582  12.463
12766SOL    HW238323   2.095   3.614  12.320
12767SOL     OW38324   2.802   3.560  12.076
12767SOL    HW138325   2.882   3.503  12.097
12767SOL    HW238326   2.753   3.520  11.999
12768SOL     OW38327   2.244   2.562  11.652
12768SOL    HW138328   2.289   2.472  11.649
12768SOL    HW238329   2.150   2.551  11.685
12769SOL     OW38330   2.476   1.984  11.289
12769SOL    HW138331   2.574   1.962  11.296
12769SOL    HW238332   2.445   1.967  11.196
12770SOL     OW38333   2.750   3.376  12.367
12770SOL    HW138334   2.727   3.351  12.273
12770SOL    HW238335   2.811   3.307  12.406
12771SOL     OW38336   3.213   2.452  12.605
12771SOL    HW138337   3.241   2.409  12.690
12771SOL    HW238338   3.238   2.548  12.606
12772SOL     OW38339   2.665   3.264  12.096
12772SOL    HW138340   2.755   3.278  12.054
12772SOL    HW238341   2.594   3.266  12.025
12773SOL     OW38342   2.784   2.365  12.071
12773SOL    HW138343   2.759   2.356  11.975
12773SOL    HW238344   2.832   2.283  12.102
12774SOL     OW38345   2.401   1.926  11.684
12774SOL    HW138346   2.320   1.927  11.742
12774SOL    HW238347   2.404   2.009  11.629
12775SOL     OW38348   3.296   3.050  11.213
12775SOL    HW138349   3.328   2.974  11.270
12775SOL    HW238350   3.204   3.077  11.243
12776SOL     OW38351   2.159   1.897  11.343
12776SOL    HW138352   2.208   1.981  11.322
12776SOL    HW238353   2.221   1.832  11.388
12777SOL     OW38354   2.797   2.098  11.652
12777SOL    HW138355   2.749   2.139  11.574
12777SOL    HW238356   2.896   2.096  11.633
12778SOL     OW38357   2.938   2.545  12.636
12778SOL    HW138358   2.858   2.484  12.639
12778SOL    HW238359   3.019   2.492  12.612
12779SOL     OW38360   3.089   3.432  11.965
12779SOL    HW138361   3.110   3.506  11.900
12779SOL    HW238362   3.157   3.432  12.038
12780SOL     OW38363   2.321   3.014  11.913
12780SOL    HW138364   2.250   2.987  11.978
12780SOL    HW238365   2.295   2.986  11.820
12781SOL     OW38366   3.133   3.659  11.763
12781SOL    HW138367   3.177   3.723  11.699
12781SOL    HW238368   3.083   3.711  11.833
12782SOL     OW38369   2.894   2.411  11.188
12782SOL    HW138370   2.853   2.493  11.149
12782SOL    HW238371   2.958   2.437  11.261
12783SOL     OW38372   1.940   2.418  12.558
12783SOL    HW138373   2.032   2.417  12.517
12783SOL    HW238374   1.934   2.492  12.625
12784SOL     OW38375   2.423   2.084  12.319
12784SOL    HW138376   2.461   2.000  12.356
12784SOL    HW238377   2.335   2.103  12.363
12785SOL     OW38378   2.728   2.316  11.814
12785SOL    HW138379   2.696   2.388  11.752
12785SOL    HW238380   2.752   2.235  11.761
12786SOL     OW38381   2.879   1.901  11.925
12786SOL    HW138382   2.807   1.906  11.856
12786SOL    HW238383   2.855   1.832  11.994
12787SOL     OW38384   3.291   3.035  12.039
12787SOL    HW138385   3.236   2.951  12.032
12787SOL    HW238386   3.317   3.064  11.947
12788SOL     OW38387   3.328   2.452  12.164
12788SOL    HW138388   3.298   2.357  12.171
12788SOL    HW238389   3.401   2.468  12.230
12789SOL     OW38390   3.719   2.695  11.549
12789SOL    HW138391   3.761   2.631  11.613
12789SOL    HW238392   3.681   2.644  11.471
12790SOL     OW38393   2.350   3.247  11.346
12790SOL    HW138394   2.263   3.232  11.393
12790SOL    HW238395   2.333   3.273  11.251
12791SOL     OW38396   3.526   3.142  11.829
12791SOL    HW138397   3.625   3.150  11.843
12791SOL    HW238398   3.481   3.226  11.860
12792SOL     OW38399   3.252   2.437  11.250
12792SOL    HW138400   3.198   2.416  11.331
12792SOL    HW238401   3.343   2.396  11.259
12793SOL     OW38402   2.389   2.118  11.500
12793SOL    HW138403   2.416   2.059  11.425
12793SOL    HW238404   2.389   2.213  11.469
12794SOL     OW38405   3.616   3.085  12.760
12794SOL    HW138406   3.707   3.046  12.747
12794SOL    HW238407   3.624   3.181  12.784
12795SOL     OW38408   2.973   3.057  12.272
12795SOL    HW138409   2.933   3.101  12.353
12795SOL    HW238410   2.932   3.094  12.189
12796SOL     OW38411   3.500   2.961  12.251
12796SOL    HW138412   3.505   3.042  12.310
12796SOL    HW238413   3.414   2.963  12.200
12797SOL     OW38414   2.777   1.951  12.574
12797SOL    HW138415   2.802   1.931  12.479
12797SOL    HW238416   2.849   2.007  12.616
12798SOL     OW38417   2.567   2.912  11.540
12798SOL    HW138418   2.553   2.919  11.639
12798SOL    HW238419   2.651   2.861  11.522
12799SOL     OW38420   2.272   2.675  12.423
12799SOL    HW138421   2.358   2.687  12.473
12799SOL    HW238422   2.230   2.588  12.450
12800SOL     OW38423   3.136   2.248  12.434
12800SOL    HW138424   3.157   2.322  12.498
12800SOL    HW238425   3.047   2.265  12.391
12801SOL     OW38426   1.926   3.426  12.503
12801SOL    HW138427   1.880   3.508  12.469
12801SOL    HW238428   2.024   3.445  12.512
12802SOL     OW38429   2.229   2.962  11.673
12802SOL    HW138430   2.222   3.045  11.617
12802SOL    HW238431   2.233   2.882  11.613
12803SOL     OW38432   2.428   2.399  12.037
12803SOL    HW138433   2.440   2.465  11.963
12803SOL    HW238434   2.474   2.433  12.120
12804SOL     OW38435   3.114   3.210  11.560
12804SOL    HW138436   3.164   3.287  11.600
12804SOL    HW238437   3.019   3.212  11.592
12805SOL     OW38438   3.134   3.307  12.314
12805SOL    HW138439   3.181   3.320  12.401
12805SOL    HW238440   3.068   3.233  12.323
12806SOL     OW38441   3.444   2.501  11.644
12806SOL    HW138442   3.413   2.562  11.717
12806SOL    HW238443   3.494   2.553  11.575
12807SOL     OW38444   2.216   3.372  12.501
12807SOL    HW138445   2.195   3.328  12.414
12807SOL    HW238446   2.313   3.398  12.504
12808SOL     OW38447   2.264   2.613  12.770
12808SOL    HW138448   2.332   2.668  12.723
12808SOL    HW238449   2.304   2.525  12.797
12809SOL     OW38450   3.449   2.641  12.842
12809SOL    HW138451   3.357   2.679  12.837
12809SOL    HW238452   3.509   2.688  12.777
12810SOL     OW38453   2.435   2.732  12.201
12810SOL    HW138454   2.479   2.821  12.192
12810SOL    HW238455   2.372   2.732  12.278
12811SOL     OW38456   3.222   2.724  12.217
12811SOL    HW138457   3.147   2.724  12.151
12811SOL    HW238458   3.259   2.632  12.226
12812SOL     OW38459   3.071   2.387  11.447
12812SOL    HW138460   3.084   2.303  11.501
12812SOL    HW238461   3.042   2.461  11.507
12813SOL     OW38462   2.169   2.075  12.403
12813SOL    HW138463   2.146   2.112  12.493
12813SOL    HW238464   2.139   1.980  12.397
12814SOL     OW38465   1.899   3.172  12.454
12814SOL    HW138466   1.952   3.123  12.522
12814SOL    HW238467   1.921   3.270  12.459
12815SOL     OW38468   2.594   2.496  12.236
12815SOL    HW138469   2.653   2.470  12.160
12815SOL    HW238470   2.566   2.592  12.225
12816SOL     OW38471   2.169   1.925  11.790
12816SOL    HW138472   2.158   2.019  11.823
12816SOL    HW238473   2.164   1.862  11.867
12817SOL     OW38474   3.484   2.229  11.546
12817SOL    HW138475   3.486   2.153  11.610
12817SOL    HW238476   3.436   2.306  11.586
12818SOL     OW38477   2.885   2.628  12.138
12818SOL    HW138478   2.900   2.649  12.234
12818SOL    HW238479   2.855   2.533  12.129
12819SOL     OW38480   3.402   2.136  11.297
12819SOL    HW138481   3.341   2.061  11.320
12819SOL    HW238482   3.424   2.188  11.380
12820SOL     OW38483   3.165   2.700  11.214
12820SOL    HW138484   3.199   2.607  11.229
12820SOL    HW238485   3.183   2.727  11.119
12821SOL     OW38486   2.930   3.195  12.021
12821SOL    HW138487   2.937   3.111  11.966
12821SOL    HW238488   2.992   3.264  11.985
12822SOL     OW38489   2.181   2.672  12.121
12822SOL    HW138490   2.274   2.708  12.126
12822SOL    HW238491   2.175   2.587  12.173
12823SOL     OW38492   2.201   2.371  12.178
12823SOL    HW138493   2.149   2.288  12.161
12823SOL    HW238494   2.278   2.376  12.114
12824SOL     OW38495   3.022   2.069  12.649
12824SOL    HW138496   3.022   2.133  12.726
12824SOL    HW238497   3.050   2.117  12.566
12825SOL     OW38498   1.870   3.188  11.372
12825SOL    HW138499   1.777   3.209  11.341
12825SOL    HW238500   1.880   3.089  11.385
12826SOL     OW38501   1.950   3.663  12.099
12826SOL    HW138502   1.908   3.577  12.072
12826SOL    HW238503   2.044   3.666  12.065
12827SOL     OW38504   2.366   3.430  12.082
12827SOL    HW138505   2.432   3.504  12.091
12827SOL    HW238506   2.410   3.351  12.040
12828SOL     OW38507   2.864   2.658  12.410
12828SOL    HW138508   2.905   2.626  12.496
12828SOL    HW238509   2.768   2.631  12.407
12829SOL     OW38510   1.902   2.406  12.286
12829SOL    HW138511   1.987   2.373  12.245
12829SOL    HW238512   1.915   2.421  12.384
12830SOL     OW38513   2.677   2.434  11.497
12830SOL    HW138514   2.684   2.345  11.451
12830SOL    HW238515   2.583   2.468  11.489
12831SOL     OW38516   3.519   2.466  12.378
12831SOL    HW138517   3.481   2.397  12.440
12831SOL    HW238518   3.601   2.430  12.334
12832SOL     OW38519   2.114   3.426  12.916
12832SOL    HW138520   2.084   3.483  12.992
12832SOL    HW238521   2.107   3.329  12.942
12833SOL     OW38522   2.533   2.326  12.441
12833SOL    HW138523   2.499   2.237  12.411
12833SOL    HW238524   2.559   2.380  12.361
12834SOL     OW38525   2.792   3.540  12.637
12834SOL    HW138526   2.768   3.522  12.542
12834SOL    HW238527   2.822   3.634  12.647
12835SOL     OW38528   2.335   2.362  11.363
12835SOL    HW138529   2.396   2.442  11.367
12835SOL    HW238530   2.240   2.393  11.370
12836SOL     OW38531   2.021   2.999  12.638
12836SOL    HW138532   2.043   2.938  12.714
12836SOL    HW238533   2.031   2.950  12.552
12837SOL     OW38534   3.209   2.921  12.406
12837SOL    HW138535   3.233   2.858  12.332
12837SOL    HW238536   3.119   2.961  12.388
12838SOL     OW38537   3.164   2.717  11.481
12838SOL    HW138538   3.078   2.686  11.523
12838SOL    HW238539   3.160   2.703  11.382
12839SOL     OW38540   3.621   3.609  12.326
12839SOL    HW138541   3.682   3.639  12.253
12839SOL    HW238542   3.583   3.520  12.304
12840SOL     OW38543   3.114   3.593  12.300
12840SOL    HW138544   3.198   3.598  12.246
12840SOL    HW238545   3.091   3.497  12.318
12841SOL     OW38546   1.945   3.120  12.194
12841SOL    HW138547   1.940   3.119  12.294
12841SOL    HW238548   1.862   3.079  12.156
12842SOL     OW38549   3.588   1.997  11.695
12842SOL    HW138550   3.661   1.980  11.628
12842SOL    HW238551   3.557   1.910  11.733
12843SOL     OW38552   3.250   3.435  11.649
12843SOL    HW138553   3.317   3.447  11.575
12843SOL    HW238554   3.210   3.524  11.672
12844SOL     OW38555   3.142   2.789  11.844
12844SOL    HW138556   3.202   2.708  11.846
12844SOL    HW238557   3.182   2.858  11.784
12845SOL     OW38558   2.692   3.135  12.594
12845SOL    HW138559   2.687   3.168  12.689
12845SOL    HW238560   2.606   3.154  12.548
12846SOL     OW38561   2.534   3.478  11.326
12846SOL    HW138562   2.543   3.488  11.227
12846SOL    HW238563   2.494   3.389  11.347
12847SOL     OW38564   3.512   3.582  12.566
12847SOL    HW138565   3.565   3.592  12.482
12847SOL    HW238566   3.485   3.672  12.600
12848SOL     OW38567   3.703   2.037  12.135
12848SOL    HW138568   3.742   1.952  12.099
12848SOL    HW238569   3.605   2.039  12.116
12849SOL     OW38570   2.125   2.188  11.892
12849SOL    HW138571   2.046   2.239  11.858
12849SOL    HW238572   2.116   2.173  11.990
12850SOL     OW38573   3.056   3.474  11.203
12850SOL    HW138574   3.062   3.381  11.240
12850SOL    HW238575   2.997   3.474  11.123
12851SOL     OW38576   2.684   2.864  12.544
12851SOL    HW138577   2.724   2.863  12.452
12851SOL    HW238578   2.694   2.956  12.584
12852SOL     OW38579   2.778   2.772  11.463
12852SOL    HW138580   2.841   2.810  11.395
12852SOL    HW238581   2.818   2.689  11.502
12853SOL     OW38582   3.366   3.469  11.216
12853SOL    HW138583   3.274   3.506  11.223
12853SOL    HW238584   3.404   3.489  11.126
12854SOL     OW38585   2.234   3.150  12.662
12854SOL    HW138586   2.221   3.243  12.628
12854SOL    HW238587   2.150   3.098  12.649
12855SOL     OW38588   3.476   3.154  12.461
12855SOL    HW138589   3.536   3.157  12.541
12855SOL    HW238590   3.401   3.218  12.474
12856SOL     OW38591   2.901   2.960  11.868
12856SOL    HW138592   2.831   2.913  11.922
12856SOL    HW238593   2.960   2.892  11.825
12857SOL     OW38594   2.876   2.098  12.143
12857SOL    HW138595   2.868   2.062  12.050
12857SOL    HW238596   2.874   2.022  12.208
12858SOL     OW38597   2.452   3.349  11.663
12858SOL    HW138598   2.494   3.291  11.593
12858SOL    HW238599   2.408   3.428  11.619
12859SOL     OW38600   3.571   2.247  12.553
12859SOL    HW138601   3.644   2.316  12.557
12859SOL    HW238602   3.599   2.172  12.494
12860SOL     OW38603   2.117   3.210  11.462
12860SOL    HW138604   2.021   3.211  11.435
12860SOL    HW238605   2.129   3.263  11.546
12861SOL     OW38606   1.967   2.875  12.898
12861SOL    HW138607   1.890   2.842  12.952
12861SOL    HW238608   2.052   2.845  12.940
12862SOL     OW38609   2.534   2.065  12.661
12862SOL    HW138610   2.624   2.049  12.621
12862SOL    HW238611   2.542   2.070  12.760
12863SOL     OW38612   1.937   2.207  11.205
12863SOL    HW138613   1.845   2.179  11.176
12863SOL    HW238614   1.968   2.284  11.149
12864SOL     OW38615   3.302   2.718  12.570
12864SOL    HW138616   3.245   2.770  12.507
12864SOL    HW238617   3.398   2.730  12.546
12865SOL     OW38618   1.934   2.028  11.490
12865SOL    HW138619   1.917   2.111  11.436
12865SOL    HW238620   2.024   1.991  11.468
12866SOL     OW38621   3.045   3.197  11.291
12866SOL    HW138622   2.946   3.186  11.293
12866SOL    HW238623   3.079   3.212  11.384
12867SOL     OW38624   2.475   2.704  12.603
12867SOL    HW138625   2.531   2.785  12.586
12867SOL    HW238626   2.534   2.624  12.606
12868SOL     OW38627   3.355   3.629  12.131
12868SOL    HW138628   3.388   3.693  12.062
12868SOL    HW238629   3.421   3.623  12.206
12869SOL     OW38630   2.578   2.427  12.880
12869SOL    HW138631   2.597   2.492  12.954
12869SOL    HW238632   2.638   2.347  12.889
12870SOL     OW38633   2.252   3.603  12.732
12870SOL    HW138634   2.161   3.644  12.730
12870SOL    HW238635   2.245   3.509  12.764
12871SOL     OW38636   3.536   2.745  12.426
12871SOL    HW138637   3.509   2.656  12.389
12871SOL    HW238638   3.537   2.813  12.353
12872SOL     OW38639   3.087   2.187  11.621
12872SOL    HW138640   3.152   2.113  11.610
12872SOL    HW238641   3.107   2.237  11.705
12873SOL     OW38642   2.456   2.607  11.824
12873SOL    HW138643   2.506   2.692  11.805
12873SOL    HW238644   2.368   2.609  11.776
12874SOL     OW38645   3.639   2.204  12.814
12874SOL    HW138646   3.622   2.235  12.720
12874SOL    HW238647   3.555   2.167  12.852
12875SOL     OW38648   3.592   2.796  12.689
12875SOL    HW138649   3.630   2.887  12.704
12875SOL    HW238650   3.584   2.779  12.590
12876SOL     OW38651   2.721   3.236  11.188
12876SOL    HW138652   2.675   3.251  11.276
12876SOL    HW238653   2.765   3.321  11.158
12877SOL     OW38654   2.523   3.652  12.125
12877SOL    HW138655   2.477   3.740  12.112
12877SOL    HW238656   2.622   3.664  12.118
12878SOL     OW38657   2.721   2.818  12.033
12878SOL    HW138658   2.775   2.749  12.081
12878SOL    HW238659   2.689   2.887  12.099
12879SOL     OW38660   2.945   2.846  11.259
12879SOL    HW138661   2.922   2.899  11.177
12879SOL    HW238662   3.026   2.790  11.240
12880SOL     OW38663   3.723   3.431  12.023
12880SOL    HW138664   3.652   3.419  11.953
12880SOL    HW238665   3.724   3.352  12.083
12881SOL     OW38666   1.941   3.102  11.825
12881SOL    HW138667   1.940   3.055  11.913
12881SOL    HW238668   2.023   3.074  11.774
12882SOL     OW38669   2.534   3.253  12.796
12882SOL    HW138670   2.456   3.203  12.834
12882SOL    HW238671   2.531   3.348  12.827
12883SOL     OW38672   3.686   2.054  12.399
12883SOL    HW138673   3.682   1.964  12.443
12883SOL    HW238674   3.689   2.043  12.300
12884SOL     OW38675   2.290   2.286  11.692
12884SOL    HW138676   2.320   2.214  11.630
12884SOL    HW238677   2.251   2.246  11.775
12885SOL     OW38678   3.567   3.349  12.276
12885SOL    HW138679   3.474   3.324  12.249
12885SOL    HW238680   3.593   3.299  12.358
12886SOL     OW38681   2.179   2.409  12.452
12886SOL    HW138682   2.217   2.350  12.524
12886SOL    HW238683   2.219   2.383  12.364
12887SOL     OW38684   2.674   3.448  11.859
12887SOL    HW138685   2.706   3.458  11.765
12887SOL    HW238686   2.595   3.386  11.861
12888SOL     OW38687   3.286   2.076  12.284
12888SOL    HW138688   3.338   2.011  12.339
12888SOL    HW238689   3.237   2.139  12.345
12889SOL     OW38690   2.863   1.896  12.326
12889SOL    HW138691   2.800   1.824  12.295
12889SOL    HW238692   2.956   1.860  12.326
12890SOL     OW38693   2.632   3.192  11.473
12890SOL    HW138694   2.586   3.105  11.490
12890SOL    HW238695   2.723   3.189  11.514
12891SOL     OW38696   2.480   3.429  12.456
12891SOL    HW138697   2.475   3.511  12.513
12891SOL    HW238698   2.569   3.426  12.411
12892SOL     OW38699   3.214   1.914  11.340
12892SOL    HW138700   3.249   1.873  11.256
12892SOL    HW238701   3.124   1.876  11.360
12893SOL     OW38702   3.162   2.315  11.863
12893SOL    HW138703   3.103   2.395  11.867
12893SOL    HW238704   3.177   2.280  11.956
12894SOL     OW38705   3.455   2.083  12.054
12894SOL    HW138706   3.371   2.082  12.108
12894SOL    HW238707   3.457   2.166  11.998
12895SOL     OW38708   1.901   2.939  11.472
12895SOL    HW138709   2.000   2.928  11.463
12895SOL    HW238710   1.861   2.853  11.504
12896SOL     OW38711   2.737   3.508  11.509
12896SOL    HW138712   2.660   3.473  11.455
12896SOL    HW238713   2.705   3.579  11.571
12897SOL     OW38714   2.092   4.352   0.113
12897SOL    HW138715   1.999   4.350   0.150
12897SOL    HW238716   2.093   4.313   0.021
12898SOL     OW38717   2.087   3.999   0.996
12898SOL    HW138718   2.122   3.982   1.088
12898SOL    HW238719   1.999   3.954   0.984
12899SOL     OW38720   1.881   4.092   0.647
12899SOL    HW138721   1.799   4.135   0.686
12899SOL    HW238722   1.853   4.019   0.584
12900SOL     OW38723   2.431   4.999   1.165
12900SOL    HW138724   2.338   4.992   1.128
12900SOL    HW238725   2.442   5.088   1.209
12901SOL     OW38726   3.417   5.235   0.703
12901SOL    HW138727   3.360   5.219   0.784
12901SOL    HW238728   3.358   5.245   0.623
12902SOL     OW38729   2.997   4.427   0.717
12902SOL    HW138730   3.054   4.505   0.692
12902SOL    HW238731   2.937   4.453   0.793
12903SOL     OW38732   3.617   4.331   0.231
12903SOL    HW138733   3.605   4.318   0.132
12903SOL    HW238734   3.587   4.250   0.280
12904SOL     OW38735   2.630   4.868   1.023
12904SOL    HW138736   2.552   4.885   1.083
12904SOL    HW238737   2.664   4.955   0.987
12905SOL     OW38738   2.712   4.522   1.823
12905SOL    HW138739   2.708   4.598   1.888
12905SOL    HW238740   2.734   4.558   1.732
12906SOL     OW38741   2.547   4.736   0.665
12906SOL    HW138742   2.616   4.720   0.735
12906SOL    HW238743   2.474   4.793   0.703
12907SOL     OW38744   2.548   4.885   1.803
12907SOL    HW138745   2.608   4.964   1.817
12907SOL    HW238746   2.462   4.916   1.762
12908SOL     OW38747   2.197   5.159   1.061
12908SOL    HW138748   2.119   5.128   1.008
12908SOL    HW238749   2.255   5.217   1.004
12909SOL     OW38750   3.322   5.229   1.339
12909SOL    HW138751   3.346   5.323   1.365
12909SOL    HW238752   3.306   5.175   1.421
12910SOL     OW38753   2.300   4.116   1.499
12910SOL    HW138754   2.382   4.060   1.508
12910SOL    HW238755   2.219   4.058   1.503
12911SOL     OW38756   3.465   4.171   0.737
12911SOL    HW138757   3.391   4.217   0.687
12911SOL    HW238758   3.516   4.239   0.790
12912SOL     OW38759   2.093   5.437   0.483
12912SOL    HW138760   2.127   5.514   0.537
12912SOL    HW238761   2.137   5.437   0.393
12913SOL     OW38762   2.989   5.065   1.690
12913SOL    HW138763   3.036   5.065   1.778
12913SOL    HW238764   2.941   4.978   1.679
12914SOL     OW38765   2.092   5.158   0.538
12914SOL    HW138766   2.066   5.254   0.538
12914SOL    HW238767   2.021   5.104   0.583
12915SOL     OW38768   2.102   4.815   0.886
12915SOL    HW138769   2.116   4.731   0.938
12915SOL    HW238770   2.047   4.879   0.941
12916SOL     OW38771   2.482   5.510   1.439
12916SOL    HW138772   2.390   5.493   1.474
12916SOL    HW238773   2.510   5.602   1.465
12917SOL     OW38774   2.468   4.688   0.123
12917SOL    HW138775   2.475   4.772   0.069
12917SOL    HW238776   2.514   4.701   0.211
12918SOL     OW38777   3.456   3.838   1.480
12918SOL    HW138778   3.438   3.905   1.408
12918SOL    HW238779   3.453   3.884   1.569
12919SOL     OW38780   1.984   4.367   0.563
12919SOL    HW138781   1.939   4.279   0.580
12919SOL    HW238782   1.983   4.421   0.647
12920SOL     OW38783   3.704   5.491   0.359
12920SOL    HW138784   3.758   5.462   0.439
12920SOL    HW238785   3.734   5.581   0.330
12921SOL     OW38786   1.889   5.320   0.117
12921SOL    HW138787   1.870   5.224   0.138
12921SOL    HW238788   1.856   5.378   0.192
12922SOL     OW38789   3.551   4.646   0.612
12922SOL    HW138790   3.646   4.617   0.620
12922SOL    HW238791   3.543   4.711   0.537
12923SOL     OW38792   3.503   4.832   0.432
12923SOL    HW138793   3.589   4.834   0.380
12923SOL    HW238794   3.517   4.879   0.520
12924SOL     OW38795   1.975   4.461   1.597
12924SOL    HW138796   2.063   4.448   1.642
12924SOL    HW238797   1.962   4.558   1.575
12925SOL     OW38798   2.475   5.089   0.726
12925SOL    HW138799   2.426   5.002   0.735
12925SOL    HW238800   2.452   5.132   0.639
12926SOL     OW38801   3.155   4.952   1.423
12926SOL    HW138802   3.192   4.879   1.365
12926SOL    HW238803   3.207   4.957   1.508
12927SOL     OW38804   2.671   3.728   0.502
12927SOL    HW138805   2.711   3.819   0.493
12927SOL    HW238806   2.571   3.736   0.508
12928SOL     OW38807   2.059   4.700   1.264
12928SOL    HW138808   2.148   4.655   1.250
12928SOL    HW238809   1.986   4.635   1.245
12929SOL     OW38810   3.387   4.723   0.190
12929SOL    HW138811   3.324   4.647   0.203
12929SOL    HW238812   3.435   4.741   0.276
12930SOL     OW38813   3.049   5.516   1.616
12930SOL    HW138814   3.073   5.576   1.540
12930SOL    HW238815   3.056   5.421   1.586
12931SOL     OW38816   2.179   3.975   1.801
12931SOL    HW138817   2.250   4.046   1.807
12931SOL    HW238818   2.091   4.014   1.829
12932SOL     OW38819   3.328   5.141   0.953
12932SOL    HW138820   3.269   5.147   1.033
12932SOL    HW238821   3.313   5.053   0.907
12933SOL     OW38822   3.529   5.438   0.572
12933SOL    HW138823   3.488   5.415   0.484
12933SOL    HW238824   3.511   5.364   0.637
12934SOL     OW38825   2.460   4.453   0.270
12934SOL    HW138826   2.484   4.522   0.202
12934SOL    HW238827   2.382   4.486   0.324
12935SOL     OW38828   3.143   4.069   0.944
12935SOL    HW138829   3.057   4.019   0.931
12935SOL    HW238830   3.205   4.015   1.000
12936SOL     OW38831   3.438   5.386   0.307
12936SOL    HW138832   3.527   5.432   0.310
12936SOL    HW238833   3.417   5.362   0.212
12937SOL     OW38834   2.669   4.329   1.465
12937SOL    HW138835   2.622   4.326   1.554
12937SOL    HW238836   2.618   4.274   1.399
12938SOL     OW38837   3.256   4.193   1.674
12938SOL    HW138838   3.236   4.236   1.762
12938SOL    HW238839   3.334   4.131   1.683
12939SOL     OW38840   2.835   4.614   1.572
12939SOL    HW138841   2.881   4.530   1.543
12939SOL    HW238842   2.779   4.648   1.497
12940SOL     OW38843   2.903   4.425   0.429
12940SOL    HW138844   2.929   4.421   0.525
12940SOL    HW238845   2.818   4.374   0.415
12941SOL     OW38846   1.938   4.535   0.789
12941SOL    HW138847   2.037   4.523   0.798
12941SOL    HW238848   1.914   4.630   0.810
12942SOL     OW38849   1.992   5.545   1.571
12942SOL    HW138850   1.982   5.530   1.670
12942SOL    HW238851   1.906   5.581   1.535
12943SOL     OW38852   2.727   4.072   0.195
12943SOL    HW138853   2.786   4.135   0.146
12943SOL    HW238854   2.746   3.978   0.166
12944SOL     OW38855   3.581   4.309   1.831
12944SOL    HW138856   3.555   4.398   1.795
12944SOL    HW238857   3.579   4.241   1.758
12945SOL     OW38858   3.224   4.868   0.545
12945SOL    HW138859   3.307   4.839   0.497
12945SOL    HW238860   3.175   4.935   0.489
12946SOL     OW38861   2.412   3.920   0.885
12946SOL    HW138862   2.407   3.915   0.985
12946SOL    HW238863   2.414   4.016   0.856
12947SOL     OW38864   2.870   5.180   0.477
12947SOL    HW138865   2.824   5.252   0.425
12947SOL    HW238866   2.866   5.200   0.575
12948SOL     OW38867   2.213   5.525   0.853
12948SOL    HW138868   2.263   5.439   0.859
12948SOL    HW238869   2.278   5.602   0.850
12949SOL     OW38870   3.657   4.790   0.873
12949SOL    HW138871   3.595   4.775   0.797
12949SOL    HW238872   3.605   4.801   0.958
12950SOL     OW38873   3.089   5.274   1.506
12950SOL    HW138874   3.095   5.197   1.570
12950SOL    HW238875   3.037   5.248   1.426
12951SOL     OW38876   2.183   4.667   0.242
12951SOL    HW138877   2.265   4.706   0.200
12951SOL    HW238878   2.156   4.585   0.193
12952SOL     OW38879   3.320   4.459   0.728
12952SOL    HW138880   3.315   4.394   0.803
12952SOL    HW238881   3.400   4.518   0.741
12953SOL     OW38882   2.323   4.990   1.727
12953SOL    HW138883   2.273   4.991   1.641
12953SOL    HW238884   2.260   4.972   1.803
12954SOL     OW38885   2.973   5.500   0.237
12954SOL    HW138886   2.913   5.438   0.287
12954SOL    HW238887   3.004   5.456   0.152
12955SOL     OW38888   2.064   4.009   1.498
12955SOL    HW138889   1.984   4.069   1.485
12955SOL    HW238890   2.054   3.960   1.584
12956SOL     OW38891   3.494   5.101   0.081
12956SOL    HW138892   3.462   5.195   0.071
12956SOL    HW238893   3.418   5.038   0.069
12957SOL     OW38894   2.326   5.467   0.323
12957SOL    HW138895   2.359   5.506   0.409
12957SOL    HW238896   2.402   5.460   0.258
12958SOL     OW38897   3.262   3.831   0.426
12958SOL    HW138898   3.238   3.794   0.336
12958SOL    HW238899   3.361   3.847   0.430
12959SOL     OW38900   2.111   5.509   1.241
12959SOL    HW138901   2.168   5.444   1.291
12959SOL    HW238902   2.095   5.476   1.148
12960SOL     OW38903   2.802   5.422   0.904
12960SOL    HW138904   2.882   5.365   0.925
12960SOL    HW238905   2.753   5.382   0.827
12961SOL     OW38906   2.244   4.424   0.480
12961SOL    HW138907   2.289   4.334   0.477
12961SOL    HW238908   2.150   4.413   0.513
12962SOL     OW38909   3.409   3.946   1.729
12962SOL    HW138910   3.404   3.983   1.821
12962SOL    HW238911   3.337   3.877   1.717
12963SOL     OW38912   2.476   3.846   0.117
12963SOL    HW138913   2.574   3.824   0.124
12963SOL    HW238914   2.445   3.829   0.024
12964SOL     OW38915   2.643   3.988   1.749
12964SOL    HW138916   2.710   3.927   1.792
12964SOL    HW238917   2.570   4.007   1.814
12965SOL     OW38918   2.750   5.238   1.195
12965SOL    HW138919   2.727   5.213   1.101
12965SOL    HW238920   2.811   5.169   1.234
12966SOL     OW38921   3.213   4.314   1.433
12966SOL    HW138922   3.241   4.271   1.518
12966SOL    HW238923   3.238   4.410   1.434
12967SOL     OW38924   2.665   5.126   0.924
12967SOL    HW138925   2.755   5.140   0.882
12967SOL    HW238926   2.594   5.128   0.853
12968SOL     OW38927   2.784   4.227   0.899
12968SOL    HW138928   2.759   4.218   0.803
12968SOL    HW238929   2.832   4.145   0.930
12969SOL     OW38930   2.401   3.788   0.512
12969SOL    HW138931   2.320   3.789   0.570
12969SOL    HW238932   2.404   3.871   0.457
12970SOL     OW38933   3.296   4.912   0.041
12970SOL    HW138934   3.328   4.836   0.098
12970SOL    HW238935   3.204   4.939   0.071
12971SOL     OW38936   2.159   3.759   0.171
12971SOL    HW138937   2.208   3.843   0.150
12971SOL    HW238938   2.221   3.694   0.216
12972SOL     OW38939   2.797   3.960   0.480
12972SOL    HW138940   2.749   4.001   0.402
12972SOL    HW238941   2.896   3.958   0.461
12973SOL     OW38942   2.938   4.407   1.464
12973SOL    HW138943   2.858   4.346   1.467
12973SOL    HW238944   3.019   4.354   1.440
12974SOL     OW38945   3.089   5.294   0.793
12974SOL    HW138946   3.110   5.368   0.728
12974SOL    HW238947   3.157   5.294   0.866
12975SOL     OW38948   2.321   4.876   0.741
12975SOL    HW138949   2.250   4.849   0.806
12975SOL    HW238950   2.295   4.848   0.648
12976SOL     OW38951   3.133   5.521   0.591
12976SOL    HW138952   3.177   5.585   0.527
12976SOL    HW238953   3.083   5.573   0.661
12977SOL     OW38954   2.894   4.273   0.016
12977SOL    HW138955   2.853   4.355  -0.023
12977SOL    HW238956   2.958   4.299   0.089
12978SOL     OW38957   1.940   4.280   1.386
12978SOL    HW138958   2.032   4.279   1.345
12978SOL    HW238959   1.934   4.354   1.453
12979SOL     OW38960   2.423   3.946   1.147
12979SOL    HW138961   2.461   3.862   1.184
12979SOL    HW238962   2.335   3.965   1.191
12980SOL     OW38963   2.728   4.178   0.642
12980SOL    HW138964   2.696   4.250   0.580
12980SOL    HW238965   2.752   4.097   0.589
12981SOL     OW38966   2.879   3.763   0.753
12981SOL    HW138967   2.807   3.768   0.684
12981SOL    HW238968   2.855   3.694   0.822
12982SOL     OW38969   3.291   4.897   0.867
12982SOL    HW138970   3.236   4.813   0.860
12982SOL    HW238971   3.317   4.926   0.775
12983SOL     OW38972   3.328   4.314   0.992
12983SOL    HW138973   3.298   4.219   0.999
12983SOL    HW238974   3.401   4.330   1.058
12984SOL     OW38975   3.719   4.557   0.377
12984SOL    HW138976   3.761   4.493   0.441
12984SOL    HW238977   3.681   4.506   0.299
12985SOL     OW38978   2.350   5.109   0.174
12985SOL    HW138979   2.263   5.094   0.221
12985SOL    HW238980   2.333   5.135   0.079
12986SOL     OW38981   3.526   5.004   0.657
12986SOL    HW138982   3.625   5.012   0.671
12986SOL    HW238983   3.481   5.088   0.688
12987SOL     OW38984   3.252   4.299   0.078
12987SOL    HW138985   3.198   4.278   0.159
12987SOL    HW238986   3.343   4.258   0.087
12988SOL     OW38987   2.389   3.980   0.328
12988SOL    HW138988   2.416   3.921   0.253
12988SOL    HW238989   2.389   4.075   0.297
12989SOL     OW38990   3.616   4.947   1.588
12989SOL    HW138991   3.707   4.908   1.575
12989SOL    HW238992   3.624   5.043   1.612
12990SOL     OW38993   2.926   5.071   1.340
12990SOL    HW138994   2.846   5.048   1.395
12990SOL    HW238995   3.009   5.045   1.389
12991SOL     OW38996   3.454   5.353   1.625
12991SOL    HW138997   3.481   5.387   1.535
12991SOL    HW238998   3.533   5.315   1.671
12992SOL     OW38999   2.973   4.919   1.100
12992SOL    HW139000   2.933   4.963   1.181
12992SOL    HW239001   2.932   4.956   1.017
12993SOL     OW39002   3.500   4.823   1.079
12993SOL    HW139003   3.505   4.904   1.138
12993SOL    HW239004   3.414   4.825   1.028
12994SOL     OW39005   2.777   3.813   1.402
12994SOL    HW139006   2.802   3.793   1.307
12994SOL    HW239007   2.849   3.869   1.444
12995SOL     OW39008   2.842   4.840   1.719
12995SOL    HW139009   2.743   4.846   1.729
12995SOL    HW239010   2.865   4.760   1.663
12996SOL     OW39011   2.567   4.774   0.368
12996SOL    HW139012   2.553   4.781   0.467
12996SOL    HW239013   2.651   4.723   0.350
12997SOL     OW39014   2.272   4.537   1.251
12997SOL    HW139015   2.358   4.549   1.301
12997SOL    HW239016   2.230   4.450   1.278
12998SOL     OW39017   3.136   4.110   1.262
12998SOL    HW139018   3.157   4.184   1.326
12998SOL    HW239019   3.047   4.127   1.219
12999SOL     OW39020   1.926   5.288   1.331
12999SOL    HW139021   1.880   5.370   1.297
12999SOL    HW239022   2.024   5.307   1.340
13000SOL     OW39023   2.229   4.824   0.501
13000SOL    HW139024   2.222   4.907   0.445
13000SOL    HW239025   2.233   4.744   0.441
13001SOL     OW39026   2.428   4.261   0.865
13001SOL    HW139027   2.440   4.327   0.791
13001SOL    HW239028   2.474   4.295   0.948
13002SOL     OW39029   3.114   5.072   0.388
13002SOL    HW139030   3.164   5.149   0.428
13002SOL    HW239031   3.019   5.074   0.420
13003SOL     OW39032   3.134   5.169   1.142
13003SOL    HW139033   3.181   5.182   1.229
13003SOL    HW239034   3.068   5.095   1.151
13004SOL     OW39035   3.444   4.363   0.472
13004SOL    HW139036   3.413   4.424   0.545
13004SOL    HW239037   3.494   4.415   0.403
13005SOL     OW39038   2.216   5.234   1.329
13005SOL    HW139039   2.195   5.190   1.242
13005SOL    HW239040   2.313   5.260   1.332
13006SOL     OW39041   2.264   4.475   1.598
13006SOL    HW139042   2.332   4.530   1.551
13006SOL    HW239043   2.304   4.387   1.625
13007SOL     OW39044   3.449   4.503   1.670
13007SOL    HW139045   3.357   4.541   1.665
13007SOL    HW239046   3.509   4.550   1.605
13008SOL     OW39047   2.875   3.829   1.770
13008SOL    HW139048   2.881   3.914   1.718
13008SOL    HW239049   2.907   3.753   1.713
13009SOL     OW39050   2.366   3.774   1.740
13009SOL    HW139051   2.324   3.717   1.670
13009SOL    HW239052   2.300   3.843   1.772
13010SOL     OW39053   2.435   4.594   1.029
13010SOL    HW139054   2.479   4.683   1.020
13010SOL    HW239055   2.372   4.594   1.106
13011SOL     OW39056   3.222   4.586   1.045
13011SOL    HW139057   3.147   4.586   0.979
13011SOL    HW239058   3.259   4.494   1.054
13012SOL     OW39059   3.071   4.249   0.275
13012SOL    HW139060   3.084   4.165   0.329
13012SOL    HW239061   3.042   4.323   0.335
13013SOL     OW39062   2.169   3.937   1.231
13013SOL    HW139063   2.146   3.974   1.321
13013SOL    HW239064   2.139   3.842   1.225
13014SOL     OW39065   1.899   5.034   1.282
13014SOL    HW139066   1.952   4.985   1.350
13014SOL    HW239067   1.921   5.132   1.287
13015SOL     OW39068   2.594   4.358   1.064
13015SOL    HW139069   2.653   4.332   0.988
13015SOL    HW239070   2.566   4.454   1.053
13016SOL     OW39071   3.590   4.659   1.854
13016SOL    HW139072   3.544   4.652   1.765
13016SOL    HW239073   3.528   4.703   1.920
13017SOL     OW39074   2.169   3.787   0.618
13017SOL    HW139075   2.158   3.881   0.651
13017SOL    HW239076   2.164   3.724   0.695
13018SOL     OW39077   3.484   4.091   0.374
13018SOL    HW139078   3.486   4.015   0.438
13018SOL    HW239079   3.436   4.168   0.414
13019SOL     OW39080   2.885   4.490   0.966
13019SOL    HW139081   2.900   4.511   1.062
13019SOL    HW239082   2.855   4.395   0.957
13020SOL     OW39083   2.842   5.297   1.700
13020SOL    HW139084   2.822   5.341   1.612
13020SOL    HW239085   2.881   5.206   1.684
13021SOL     OW39086   3.721   5.242   1.605
13021SOL    HW139087   3.735   5.269   1.510
13021SOL    HW239088   3.804   5.264   1.658
13022SOL     OW39089   2.212   4.622   1.804
13022SOL    HW139090   2.288   4.666   1.852
13022SOL    HW239091   2.247   4.575   1.722
13023SOL     OW39092   3.402   3.998   0.125
13023SOL    HW139093   3.341   3.923   0.148
13023SOL    HW239094   3.424   4.050   0.208
13024SOL     OW39095   3.165   4.562   0.042
13024SOL    HW139096   3.199   4.469   0.057
13024SOL    HW239097   3.183   4.589  -0.053
13025SOL     OW39098   2.930   5.057   0.849
13025SOL    HW139099   2.937   4.973   0.794
13025SOL    HW239100   2.992   5.126   0.813
13026SOL     OW39101   2.181   4.534   0.949
13026SOL    HW139102   2.274   4.570   0.954
13026SOL    HW239103   2.175   4.449   1.001
13027SOL     OW39104   2.201   4.233   1.006
13027SOL    HW139105   2.149   4.150   0.989
13027SOL    HW239106   2.278   4.238   0.942
13028SOL     OW39107   3.000   4.104   1.678
13028SOL    HW139108   2.955   4.167   1.742
13028SOL    HW239109   3.093   4.135   1.661
13029SOL     OW39110   3.022   3.931   1.477
13029SOL    HW139111   3.022   3.995   1.554
13029SOL    HW239112   3.050   3.979   1.394
13030SOL     OW39113   1.870   5.050   0.200
13030SOL    HW139114   1.777   5.071   0.169
13030SOL    HW239115   1.880   4.951   0.213
13031SOL     OW39116   1.950   5.525   0.927
13031SOL    HW139117   1.908   5.439   0.900
13031SOL    HW239118   2.044   5.528   0.893
13032SOL     OW39119   2.366   5.292   0.910
13032SOL    HW139120   2.432   5.366   0.919
13032SOL    HW239121   2.410   5.213   0.868
13033SOL     OW39122   2.864   4.520   1.238
13033SOL    HW139123   2.905   4.488   1.324
13033SOL    HW239124   2.768   4.493   1.235
13034SOL     OW39125   1.902   4.268   1.114
13034SOL    HW139126   1.987   4.235   1.073
13034SOL    HW239127   1.915   4.283   1.212
13035SOL     OW39128   2.051   4.244   1.722
13035SOL    HW139129   2.110   4.204   1.652
13035SOL    HW239130   1.993   4.315   1.681
13036SOL     OW39131   3.231   4.674   1.660
13036SOL    HW139132   3.270   4.763   1.680
13036SOL    HW239133   3.241   4.654   1.563
13037SOL     OW39134   2.677   4.296   0.325
13037SOL    HW139135   2.684   4.207   0.279
13037SOL    HW239136   2.583   4.330   0.317
13038SOL     OW39137   3.519   4.328   1.206
13038SOL    HW139138   3.481   4.259   1.268
13038SOL    HW239139   3.601   4.292   1.162
13039SOL     OW39140   2.114   5.288   1.744
13039SOL    HW139141   2.084   5.345   1.820
13039SOL    HW239142   2.107   5.191   1.770
13040SOL     OW39143   2.533   4.188   1.269
13040SOL    HW139144   2.499   4.099   1.239
13040SOL    HW239145   2.559   4.242   1.189
13041SOL     OW39146   2.792   5.402   1.465
13041SOL    HW139147   2.768   5.384   1.370
13041SOL    HW239148   2.822   5.496   1.475
13042SOL     OW39149   2.335   4.224   0.191
13042SOL    HW139150   2.396   4.304   0.195
13042SOL    HW239151   2.240   4.255   0.198
13043SOL     OW39152   2.021   4.861   1.466
13043SOL    HW139153   2.043   4.800   1.542
13043SOL    HW239154   2.031   4.812   1.380
13044SOL     OW39155   3.209   4.783   1.234
13044SOL    HW139156   3.233   4.720   1.160
13044SOL    HW239157   3.119   4.823   1.216
13045SOL     OW39158   3.164   4.579   0.309
13045SOL    HW139159   3.078   4.548   0.351
13045SOL    HW239160   3.160   4.565   0.210
13046SOL     OW39161   3.621   5.471   1.154
13046SOL    HW139162   3.682   5.501   1.081
13046SOL    HW239163   3.583   5.382   1.132
13047SOL     OW39164   3.114   5.455   1.128
13047SOL    HW139165   3.198   5.460   1.074
13047SOL    HW239166   3.091   5.359   1.146
13048SOL     OW39167   1.945   4.982   1.022
13048SOL    HW139168   1.940   4.981   1.122
13048SOL    HW239169   1.862   4.941   0.984
13049SOL     OW39170   2.550   5.386   1.716
13049SOL    HW139171   2.494   5.467   1.725
13049SOL    HW239172   2.602   5.390   1.630
13050SOL     OW39173   2.765   3.810   0.133
13050SOL    HW139174   2.816   3.811   0.047
13050SOL    HW239175   2.821   3.768   0.204
13051SOL     OW39176   3.588   3.859   0.523
13051SOL    HW139177   3.661   3.842   0.456
13051SOL    HW239178   3.557   3.772   0.561
13052SOL     OW39179   3.250   5.297   0.477
13052SOL    HW139180   3.317   5.309   0.403
13052SOL    HW239181   3.210   5.386   0.500
13053SOL     OW39182   1.992   5.518   1.851
13053SOL    HW139183   1.951   5.444   1.904
13053SOL    HW239184   2.056   5.569   1.909
13054SOL     OW39185   3.142   4.651   0.672
13054SOL    HW139186   3.202   4.570   0.674
13054SOL    HW239187   3.182   4.720   0.612
13055SOL     OW39188   2.692   4.997   1.422
13055SOL    HW139189   2.687   5.030   1.517
13055SOL    HW239190   2.606   5.016   1.376
13056SOL     OW39191   2.534   5.340   0.154
13056SOL    HW139192   2.543   5.350   0.055
13056SOL    HW239193   2.494   5.251   0.175
13057SOL     OW39194   3.512   5.444   1.394
13057SOL    HW139195   3.565   5.454   1.310
13057SOL    HW239196   3.485   5.534   1.428
13058SOL     OW39197   3.703   3.899   0.963
13058SOL    HW139198   3.742   3.814   0.927
13058SOL    HW239199   3.605   3.901   0.944
13059SOL     OW39200   2.125   4.050   0.720
13059SOL    HW139201   2.046   4.101   0.686
13059SOL    HW239202   2.116   4.035   0.818
13060SOL     OW39203   3.056   5.336   0.031
13060SOL    HW139204   3.062   5.243   0.068
13060SOL    HW239205   2.997   5.336  -0.049
13061SOL     OW39206   2.684   4.726   1.372
13061SOL    HW139207   2.724   4.725   1.280
13061SOL    HW239208   2.694   4.818   1.412
13062SOL     OW39209   2.778   4.634   0.291
13062SOL    HW139210   2.841   4.672   0.223
13062SOL    HW239211   2.818   4.551   0.330
13063SOL     OW39212   3.366   5.331   0.044
13063SOL    HW139213   3.274   5.368   0.051
13063SOL    HW239214   3.404   5.351  -0.046
13064SOL     OW39215   2.234   5.012   1.490
13064SOL    HW139216   2.221   5.105   1.456
13064SOL    HW239217   2.150   4.960   1.477
13065SOL     OW39218   3.476   5.016   1.289
13065SOL    HW139219   3.536   5.019   1.369
13065SOL    HW239220   3.401   5.080   1.302
13066SOL     OW39221   2.901   4.822   0.696
13066SOL    HW139222   2.831   4.775   0.750
13066SOL    HW239223   2.960   4.754   0.653
13067SOL     OW39224   2.876   3.960   0.971
13067SOL    HW139225   2.868   3.924   0.878
13067SOL    HW239226   2.874   3.884   1.036
13068SOL     OW39227   2.452   5.211   0.491
13068SOL    HW139228   2.494   5.153   0.421
13068SOL    HW239229   2.408   5.290   0.447
13069SOL     OW39230   3.571   4.109   1.381
13069SOL    HW139231   3.644   4.178   1.385
13069SOL    HW239232   3.599   4.034   1.322
13070SOL     OW39233   2.117   5.072   0.290
13070SOL    HW139234   2.021   5.073   0.263
13070SOL    HW239235   2.129   5.125   0.374
13071SOL     OW39236   1.967   4.737   1.726
13071SOL    HW139237   1.890   4.704   1.780
13071SOL    HW239238   2.052   4.707   1.768
13072SOL     OW39239   2.534   3.927   1.489
13072SOL    HW139240   2.624   3.911   1.449
13072SOL    HW239241   2.542   3.932   1.588
13073SOL     OW39242   3.302   4.580   1.398
13073SOL    HW139243   3.245   4.632   1.335
13073SOL    HW239244   3.398   4.592   1.374
13074SOL     OW39245   1.934   3.890   0.318
13074SOL    HW139246   1.917   3.973   0.264
13074SOL    HW239247   2.024   3.853   0.296
13075SOL     OW39248   3.045   5.059   0.119
13075SOL    HW139249   2.946   5.048   0.121
13075SOL    HW239250   3.079   5.074   0.212
13076SOL     OW39251   2.475   4.566   1.431
13076SOL    HW139252   2.531   4.647   1.414
13076SOL    HW239253   2.534   4.486   1.434
13077SOL     OW39254   3.355   5.491   0.959
13077SOL    HW139255   3.388   5.555   0.890
13077SOL    HW239256   3.421   5.485   1.034
13078SOL     OW39257   2.578   4.289   1.708
13078SOL    HW139258   2.597   4.354   1.782
13078SOL    HW239259   2.638   4.209   1.717
13079SOL     OW39260   3.312   4.944   1.633
13079SOL    HW139261   3.303   4.934   1.732
13079SOL    HW239262   3.408   4.937   1.607
13080SOL     OW39263   2.252   5.465   1.560
13080SOL    HW139264   2.161   5.506   1.558
13080SOL    HW239265   2.245   5.371   1.592
13081SOL     OW39266   3.536   4.607   1.254
13081SOL    HW139267   3.509   4.518   1.217
13081SOL    HW239268   3.537   4.675   1.181
13082SOL     OW39269   3.087   4.049   0.449
13082SOL    HW139270   3.152   3.975   0.438
13082SOL    HW239271   3.107   4.099   0.533
13083SOL     OW39272   2.456   4.469   0.652
13083SOL    HW139273   2.506   4.554   0.633
13083SOL    HW239274   2.368   4.471   0.604
13084SOL     OW39275   3.639   4.066   1.642
13084SOL    HW139276   3.622   4.097   1.548
13084SOL    HW239277   3.555   4.029   1.680
13085SOL     OW39278   3.592   4.658   1.517
13085SOL    HW139279   3.630   4.749   1.532
13085SOL    HW239280   3.584   4.641   1.418
13086SOL     OW39281   2.721   5.098   0.016
13086SOL    HW139282   2.675   5.113   0.104
13086SOL    HW239283   2.765   5.183  -0.014
13087SOL     OW39284   2.523   5.514   0.953
13087SOL    HW139285   2.477   5.602   0.940
13087SOL    HW239286   2.622   5.526   0.946
13088SOL     OW39287   2.721   4.680   0.861
13088SOL    HW139288   2.775   4.611   0.909
13088SOL    HW239289   2.689   4.749   0.927
13089SOL     OW39290   2.945   4.708   0.087
13089SOL    HW139291   2.922   4.761   0.005
13089SOL    HW239292   3.026   4.652   0.068
13090SOL     OW39293   3.723   5.293   0.851
13090SOL    HW139294   3.652   5.281   0.781
13090SOL    HW239295   3.724   5.214   0.911
13091SOL     OW39296   2.083   5.038   1.844
13091SOL    HW139297   2.018   4.965   1.823
13091SOL    HW239298   2.087   5.052   1.942
13092SOL     OW39299   1.941   4.964   0.653
13092SOL    HW139300   1.940   4.917   0.741
13092SOL    HW239301   2.023   4.936   0.602
13093SOL     OW39302   2.534   5.115   1.624
13093SOL    HW139303   2.456   5.065   1.662
13093SOL    HW239304   2.531   5.210   1.655
13094SOL     OW39305   3.686   3.916   1.227
13094SOL    HW139306   3.682   3.826   1.271
13094SOL    HW239307   3.689   3.905   1.128
13095SOL     OW39308   2.290   4.148   0.520
13095SOL    HW139309   2.320   4.076   0.458
13095SOL    HW239310   2.251   4.108   0.603
13096SOL     OW39311   3.567   5.211   1.104
13096SOL    HW139312   3.474   5.186   1.077
13096SOL    HW239313   3.593   5.161   1.186
13097SOL     OW39314   2.179   4.271   1.280
13097SOL    HW139315   2.217   4.212   1.352
13097SOL    HW239316   2.219   4.245   1.192
13098SOL     OW39317   2.674   5.310   0.687
13098SOL    HW139318   2.706   5.320   0.593
13098SOL    HW239319   2.595   5.248   0.689
13099SOL     OW39320   3.286   3.938   1.112
13099SOL    HW139321   3.338   3.873   1.167
13099SOL    HW239322   3.237   4.001   1.173
13100SOL     OW39323   2.863   3.758   1.154
13100SOL    HW139324   2.800   3.686   1.123
13100SOL    HW239325   2.956   3.722   1.154
13101SOL     OW39326   2.632   5.054   0.301
13101SOL    HW139327   2.586   4.967   0.318
13101SOL    HW239328   2.723   5.051   0.342
13102SOL     OW39329   2.480   5.291   1.284
13102SOL    HW139330   2.475   5.373   1.341
13102SOL    HW239331   2.569   5.288   1.239
13103SOL     OW39332   3.214   3.776   0.168
13103SOL    HW139333   3.249   3.735   0.084
13103SOL    HW239334   3.124   3.738   0.188
13104SOL     OW39335   3.162   4.177   0.691
13104SOL    HW139336   3.103   4.257   0.695
13104SOL    HW239337   3.177   4.142   0.784
13105SOL     OW39338   3.455   3.945   0.882
13105SOL    HW139339   3.371   3.944   0.936
13105SOL    HW239340   3.457   4.028   0.826
13106SOL     OW39341   1.901   4.801   0.300
13106SOL    HW139342   2.000   4.790   0.291
13106SOL    HW239343   1.861   4.715   0.332
13107SOL     OW39344   2.737   5.370   0.337
13107SOL    HW139345   2.660   5.335   0.283
13107SOL    HW239346   2.705   5.441   0.399
13108SOL     OW39347   2.092   4.352   1.975
13108SOL    HW139348   1.999   4.350   2.012
13108SOL    HW239349   2.093   4.313   1.883
13109SOL     OW39350   2.087   3.999   2.858
13109SOL    HW139351   2.122   3.982   2.950
13109SOL    HW239352   1.999   3.954   2.846
13110SOL     OW39353   1.881   4.092   2.509
13110SOL    HW139354   1.799   4.135   2.548
13110SOL    HW239355   1.853   4.019   2.446
13111SOL     OW39356   2.431   4.999   3.027
13111SOL    HW139357   2.338   4.992   2.990
13111SOL    HW239358   2.442   5.088   3.071
13112SOL     OW39359   3.417   5.235   2.565
13112SOL    HW139360   3.360   5.219   2.646
13112SOL    HW239361   3.358   5.245   2.485
13113SOL     OW39362   2.997   4.427   2.579
13113SOL    HW139363   3.054   4.505   2.554
13113SOL    HW239364   2.937   4.453   2.655
13114SOL     OW39365   3.617   4.331   2.093
13114SOL    HW139366   3.605   4.318   1.994
13114SOL    HW239367   3.587   4.250   2.142
13115SOL     OW39368   2.630   4.868   2.885
13115SOL    HW139369   2.552   4.885   2.945
13115SOL    HW239370   2.664   4.955   2.849
13116SOL     OW39371   2.712   4.522   3.685
13116SOL    HW139372   2.708   4.598   3.750
13116SOL    HW239373   2.734   4.558   3.594
13117SOL     OW39374   2.547   4.736   2.527
13117SOL    HW139375   2.616   4.720   2.597
13117SOL    HW239376   2.474   4.793   2.565
13118SOL     OW39377   2.548   4.885   3.665
13118SOL    HW139378   2.608   4.964   3.679
13118SOL    HW239379   2.462   4.916   3.624
13119SOL     OW39380   2.197   5.159   2.923
13119SOL    HW139381   2.119   5.128   2.870
13119SOL    HW239382   2.255   5.217   2.866
13120SOL     OW39383   3.322   5.229   3.201
13120SOL    HW139384   3.346   5.323   3.227
13120SOL    HW239385   3.306   5.175   3.283
13121SOL     OW39386   2.300   4.116   3.361
13121SOL    HW139387   2.382   4.060   3.370
13121SOL    HW239388   2.219   4.058   3.365
13122SOL     OW39389   3.465   4.171   2.599
13122SOL    HW139390   3.391   4.217   2.549
13122SOL    HW239391   3.516   4.239   2.652
13123SOL     OW39392   2.093   5.437   2.345
13123SOL    HW139393   2.127   5.514   2.399
13123SOL    HW239394   2.137   5.437   2.255
13124SOL     OW39395   2.989   5.065   3.552
13124SOL    HW139396   3.036   5.065   3.640
13124SOL    HW239397   2.941   4.978   3.541
13125SOL     OW39398   2.092   5.158   2.400
13125SOL    HW139399   2.066   5.254   2.400
13125SOL    HW239400   2.021   5.104   2.445
13126SOL     OW39401   2.102   4.815   2.748
13126SOL    HW139402   2.116   4.731   2.800
13126SOL    HW239403   2.047   4.879   2.803
13127SOL     OW39404   2.482   5.510   3.301
13127SOL    HW139405   2.390   5.493   3.336
13127SOL    HW239406   2.510   5.602   3.327
13128SOL     OW39407   2.468   4.688   1.985
13128SOL    HW139408   2.475   4.772   1.931
13128SOL    HW239409   2.514   4.701   2.073
13129SOL     OW39410   3.456   3.838   3.342
13129SOL    HW139411   3.438   3.905   3.270
13129SOL    HW239412   3.453   3.884   3.431
13130SOL     OW39413   1.984   4.367   2.425
13130SOL    HW139414   1.939   4.279   2.442
13130SOL    HW239415   1.983   4.421   2.509
13131SOL     OW39416   3.704   5.491   2.221
13131SOL    HW139417   3.758   5.462   2.301
13131SOL    HW239418   3.734   5.581   2.192
13132SOL     OW39419   1.889   5.320   1.979
13132SOL    HW139420   1.870   5.224   2.000
13132SOL    HW239421   1.856   5.378   2.054
13133SOL     OW39422   3.551   4.646   2.474
13133SOL    HW139423   3.646   4.617   2.482
13133SOL    HW239424   3.543   4.711   2.399
13134SOL     OW39425   3.503   4.832   2.294
13134SOL    HW139426   3.589   4.834   2.242
13134SOL    HW239427   3.517   4.879   2.382
13135SOL     OW39428   1.975   4.461   3.459
13135SOL    HW139429   2.063   4.448   3.504
13135SOL    HW239430   1.962   4.558   3.437
13136SOL     OW39431   2.475   5.089   2.588
13136SOL    HW139432   2.426   5.002   2.597
13136SOL    HW239433   2.452   5.132   2.501
13137SOL     OW39434   3.155   4.952   3.285
13137SOL    HW139435   3.192   4.879   3.227
13137SOL    HW239436   3.207   4.957   3.370
13138SOL     OW39437   2.671   3.728   2.364
13138SOL    HW139438   2.711   3.819   2.355
13138SOL    HW239439   2.571   3.736   2.370
13139SOL     OW39440   2.059   4.700   3.126
13139SOL    HW139441   2.148   4.655   3.112
13139SOL    HW239442   1.986   4.635   3.107
13140SOL     OW39443   3.387   4.723   2.052
13140SOL    HW139444   3.324   4.647   2.065
13140SOL    HW239445   3.435   4.741   2.138
13141SOL     OW39446   3.049   5.516   3.478
13141SOL    HW139447   3.073   5.576   3.402
13141SOL    HW239448   3.056   5.421   3.448
13142SOL     OW39449   2.179   3.975   3.663
13142SOL    HW139450   2.250   4.046   3.669
13142SOL    HW239451   2.091   4.014   3.691
13143SOL     OW39452   3.328   5.141   2.815
13143SOL    HW139453   3.269   5.147   2.895
13143SOL    HW239454   3.313   5.053   2.769
13144SOL     OW39455   3.529   5.438   2.434
13144SOL    HW139456   3.488   5.415   2.346
13144SOL    HW239457   3.511   5.364   2.499
13145SOL     OW39458   2.460   4.453   2.132
13145SOL    HW139459   2.484   4.522   2.064
13145SOL    HW239460   2.382   4.486   2.186
13146SOL     OW39461   3.143   4.069   2.806
13146SOL    HW139462   3.057   4.019   2.793
13146SOL    HW239463   3.205   4.015   2.862
13147SOL     OW39464   3.438   5.386   2.169
13147SOL    HW139465   3.527   5.432   2.172
13147SOL    HW239466   3.417   5.362   2.074
13148SOL     OW39467   2.669   4.329   3.327
13148SOL    HW139468   2.622   4.326   3.416
13148SOL    HW239469   2.618   4.274   3.261
13149SOL     OW39470   3.256   4.193   3.536
13149SOL    HW139471   3.236   4.236   3.624
13149SOL    HW239472   3.334   4.131   3.545
13150SOL     OW39473   2.835   4.614   3.434
13150SOL    HW139474   2.881   4.530   3.405
13150SOL    HW239475   2.779   4.648   3.359
13151SOL     OW39476   2.853   4.134   3.104
13151SOL    HW139477   2.776   4.168   3.158
13151SOL    HW239478   2.819   4.083   3.025
13152SOL     OW39479   2.903   4.425   2.291
13152SOL    HW139480   2.929   4.421   2.387
13152SOL    HW239481   2.818   4.374   2.277
13153SOL     OW39482   1.938   4.535   2.651
13153SOL    HW139483   2.037   4.523   2.660
13153SOL    HW239484   1.914   4.630   2.672
13154SOL     OW39485   1.992   5.545   3.433
13154SOL    HW139486   1.982   5.530   3.532
13154SOL    HW239487   1.906   5.581   3.397
13155SOL     OW39488   2.727   4.072   2.057
13155SOL    HW139489   2.786   4.135   2.008
13155SOL    HW239490   2.746   3.978   2.028
13156SOL     OW39491   3.581   4.309   3.693
13156SOL    HW139492   3.555   4.398   3.657
13156SOL    HW239493   3.579   4.241   3.620
13157SOL     OW39494   3.224   4.868   2.407
13157SOL    HW139495   3.307   4.839   2.359
13157SOL    HW239496   3.175   4.935   2.351
13158SOL     OW39497   2.412   3.920   2.747
13158SOL    HW139498   2.407   3.915   2.847
13158SOL    HW239499   2.414   4.016   2.718
13159SOL     OW39500   2.870   5.180   2.339
13159SOL    HW139501   2.824   5.252   2.287
13159SOL    HW239502   2.866   5.200   2.437
13160SOL     OW39503   2.213   5.525   2.715
13160SOL    HW139504   2.263   5.439   2.721
13160SOL    HW239505   2.278   5.602   2.712
13161SOL     OW39506   3.657   4.790   2.735
13161SOL    HW139507   3.595   4.775   2.659
13161SOL    HW239508   3.605   4.801   2.820
13162SOL     OW39509   3.089   5.274   3.368
13162SOL    HW139510   3.095   5.197   3.432
13162SOL    HW239511   3.037   5.248   3.288
13163SOL     OW39512   2.183   4.667   2.104
13163SOL    HW139513   2.265   4.706   2.062
13163SOL    HW239514   2.156   4.585   2.055
13164SOL     OW39515   3.320   4.459   2.590
13164SOL    HW139516   3.315   4.394   2.665
13164SOL    HW239517   3.400   4.518   2.603
13165SOL     OW39518   2.323   4.990   3.589
13165SOL    HW139519   2.273   4.991   3.503
13165SOL    HW239520   2.260   4.972   3.665
13166SOL     OW39521   2.973   5.500   2.099
13166SOL    HW139522   2.913   5.438   2.149
13166SOL    HW239523   3.004   5.456   2.014
13167SOL     OW39524   2.064   4.009   3.360
13167SOL    HW139525   1.984   4.069   3.347
13167SOL    HW239526   2.054   3.960   3.446
13168SOL     OW39527   3.494   5.101   1.943
13168SOL    HW139528   3.462   5.195   1.933
13168SOL    HW239529   3.418   5.038   1.931
13169SOL     OW39530   2.326   5.467   2.185
13169SOL    HW139531   2.359   5.506   2.271
13169SOL    HW239532   2.402   5.460   2.120
13170SOL     OW39533   3.262   3.831   2.288
13170SOL    HW139534   3.238   3.794   2.198
13170SOL    HW239535   3.361   3.847   2.292
13171SOL     OW39536   2.111   5.509   3.103
13171SOL    HW139537   2.168   5.444   3.153
13171SOL    HW239538   2.095   5.476   3.010
13172SOL     OW39539   2.802   5.422   2.766
13172SOL    HW139540   2.882   5.365   2.787
13172SOL    HW239541   2.753   5.382   2.689
13173SOL     OW39542   2.244   4.424   2.342
13173SOL    HW139543   2.289   4.334   2.339
13173SOL    HW239544   2.150   4.413   2.375
13174SOL     OW39545   3.409   3.946   3.591
13174SOL    HW139546   3.404   3.983   3.683
13174SOL    HW239547   3.337   3.877   3.579
13175SOL     OW39548   2.476   3.846   1.979
13175SOL    HW139549   2.574   3.824   1.986
13175SOL    HW239550   2.445   3.829   1.886
13176SOL     OW39551   2.643   3.988   3.611
13176SOL    HW139552   2.710   3.927   3.654
13176SOL    HW239553   2.570   4.007   3.676
13177SOL     OW39554   2.750   5.238   3.057
13177SOL    HW139555   2.727   5.213   2.963
13177SOL    HW239556   2.811   5.169   3.096
13178SOL     OW39557   3.213   4.314   3.295
13178SOL    HW139558   3.241   4.271   3.380
13178SOL    HW239559   3.238   4.410   3.296
13179SOL     OW39560   2.665   5.126   2.786
13179SOL    HW139561   2.755   5.140   2.744
13179SOL    HW239562   2.594   5.128   2.715
13180SOL     OW39563   2.784   4.227   2.761
13180SOL    HW139564   2.759   4.218   2.665
13180SOL    HW239565   2.832   4.145   2.792
13181SOL     OW39566   2.401   3.788   2.374
13181SOL    HW139567   2.320   3.789   2.432
13181SOL    HW239568   2.404   3.871   2.319
13182SOL     OW39569   3.296   4.912   1.903
13182SOL    HW139570   3.328   4.836   1.960
13182SOL    HW239571   3.204   4.939   1.933
13183SOL     OW39572   2.159   3.759   2.033
13183SOL    HW139573   2.208   3.843   2.012
13183SOL    HW239574   2.221   3.694   2.078
13184SOL     OW39575   2.797   3.960   2.342
13184SOL    HW139576   2.749   4.001   2.264
13184SOL    HW239577   2.896   3.958   2.323
13185SOL     OW39578   2.938   4.407   3.326
13185SOL    HW139579   2.858   4.346   3.329
13185SOL    HW239580   3.019   4.354   3.302
13186SOL     OW39581   3.089   5.294   2.655
13186SOL    HW139582   3.110   5.368   2.590
13186SOL    HW239583   3.157   5.294   2.728
13187SOL     OW39584   2.321   4.876   2.603
13187SOL    HW139585   2.250   4.849   2.668
13187SOL    HW239586   2.295   4.848   2.510
13188SOL     OW39587   3.133   5.521   2.453
13188SOL    HW139588   3.177   5.585   2.389
13188SOL    HW239589   3.083   5.573   2.523
13189SOL     OW39590   2.894   4.273   1.878
13189SOL    HW139591   2.853   4.355   1.839
13189SOL    HW239592   2.958   4.299   1.951
13190SOL     OW39593   1.940   4.280   3.248
13190SOL    HW139594   2.032   4.279   3.207
13190SOL    HW239595   1.934   4.354   3.315
13191SOL     OW39596   2.423   3.946   3.009
13191SOL    HW139597   2.461   3.862   3.046
13191SOL    HW239598   2.335   3.965   3.053
13192SOL     OW39599   2.728   4.178   2.504
13192SOL    HW139600   2.696   4.250   2.442
13192SOL    HW239601   2.752   4.097   2.451
13193SOL     OW39602   2.879   3.763   2.615
13193SOL    HW139603   2.807   3.768   2.546
13193SOL    HW239604   2.855   3.694   2.684
13194SOL     OW39605   3.291   4.897   2.729
13194SOL    HW139606   3.236   4.813   2.722
13194SOL    HW239607   3.317   4.926   2.637
13195SOL     OW39608   3.328   4.314   2.854
13195SOL    HW139609   3.298   4.219   2.861
13195SOL    HW239610   3.401   4.330   2.920
13196SOL     OW39611   3.719   4.557   2.239
13196SOL    HW139612   3.761   4.493   2.303
13196SOL    HW239613   3.681   4.506   2.161
13197SOL     OW39614   2.350   5.109   2.036
13197SOL    HW139615   2.263   5.094   2.083
13197SOL    HW239616   2.333   5.135   1.941
13198SOL     OW39617   3.526   5.004   2.519
13198SOL    HW139618   3.625   5.012   2.533
13198SOL    HW239619   3.481   5.088   2.550
13199SOL     OW39620   3.252   4.299   1.940
13199SOL    HW139621   3.198   4.278   2.021
13199SOL    HW239622   3.343   4.258   1.949
13200SOL     OW39623   2.389   3.980   2.190
13200SOL    HW139624   2.416   3.921   2.115
13200SOL    HW239625   2.389   4.075   2.159
13201SOL     OW39626   3.616   4.947   3.450
13201SOL    HW139627   3.707   4.908   3.437
13201SOL    HW239628   3.624   5.043   3.474
13202SOL     OW39629   2.926   5.071   3.202
13202SOL    HW139630   2.846   5.048   3.257
13202SOL    HW239631   3.009   5.045   3.251
13203SOL     OW39632   3.454   5.353   3.487
13203SOL    HW139633   3.481   5.387   3.397
13203SOL    HW239634   3.533   5.315   3.533
13204SOL     OW39635   2.973   4.919   2.962
13204SOL    HW139636   2.933   4.963   3.043
13204SOL    HW239637   2.932   4.956   2.879
13205SOL     OW39638   3.500   4.823   2.941
13205SOL    HW139639   3.505   4.904   3.000
13205SOL    HW239640   3.414   4.825   2.890
13206SOL     OW39641   2.777   3.813   3.264
13206SOL    HW139642   2.802   3.793   3.169
13206SOL    HW239643   2.849   3.869   3.306
13207SOL     OW39644   2.842   4.840   3.581
13207SOL    HW139645   2.743   4.846   3.591
13207SOL    HW239646   2.865   4.760   3.525
13208SOL     OW39647   2.567   4.774   2.230
13208SOL    HW139648   2.553   4.781   2.329
13208SOL    HW239649   2.651   4.723   2.212
13209SOL     OW39650   2.272   4.537   3.113
13209SOL    HW139651   2.358   4.549   3.163
13209SOL    HW239652   2.230   4.450   3.140
13210SOL     OW39653   3.136   4.110   3.124
13210SOL    HW139654   3.157   4.184   3.188
13210SOL    HW239655   3.047   4.127   3.081
13211SOL     OW39656   1.926   5.288   3.193
13211SOL    HW139657   1.880   5.370   3.159
13211SOL    HW239658   2.024   5.307   3.202
13212SOL     OW39659   2.229   4.824   2.363
13212SOL    HW139660   2.222   4.907   2.307
13212SOL    HW239661   2.233   4.744   2.303
13213SOL     OW39662   2.428   4.261   2.727
13213SOL    HW139663   2.440   4.327   2.653
13213SOL    HW239664   2.474   4.295   2.810
13214SOL     OW39665   3.114   5.072   2.250
13214SOL    HW139666   3.164   5.149   2.290
13214SOL    HW239667   3.019   5.074   2.282
13215SOL     OW39668   3.134   5.169   3.004
13215SOL    HW139669   3.181   5.182   3.091
13215SOL    HW239670   3.068   5.095   3.013
13216SOL     OW39671   3.444   4.363   2.334
13216SOL    HW139672   3.413   4.424   2.407
13216SOL    HW239673   3.494   4.415   2.265
13217SOL     OW39674   2.216   5.234   3.191
13217SOL    HW139675   2.195   5.190   3.104
13217SOL    HW239676   2.313   5.260   3.194
13218SOL     OW39677   2.264   4.475   3.460
13218SOL    HW139678   2.332   4.530   3.413
13218SOL    HW239679   2.304   4.387   3.487
13219SOL     OW39680   3.449   4.503   3.532
13219SOL    HW139681   3.357   4.541   3.527
13219SOL    HW239682   3.509   4.550   3.467
13220SOL     OW39683   2.875   3.829   3.632
13220SOL    HW139684   2.881   3.914   3.580
13220SOL    HW239685   2.907   3.753   3.575
13221SOL     OW39686   2.366   3.774   3.602
13221SOL    HW139687   2.324   3.717   3.532
13221SOL    HW239688   2.300   3.843   3.634
13222SOL     OW39689   2.435   4.594   2.891
13222SOL    HW139690   2.479   4.683   2.882
13222SOL    HW239691   2.372   4.594   2.968
13223SOL     OW39692   3.222   4.586   2.907
13223SOL    HW139693   3.147   4.586   2.841
13223SOL    HW239694   3.259   4.494   2.916
13224SOL     OW39695   3.071   4.249   2.137
13224SOL    HW139696   3.084   4.165   2.191
13224SOL    HW239697   3.042   4.323   2.197
13225SOL     OW39698   2.169   3.937   3.093
13225SOL    HW139699   2.146   3.974   3.183
13225SOL    HW239700   2.139   3.842   3.087
13226SOL     OW39701   1.899   5.034   3.144
13226SOL    HW139702   1.952   4.985   3.212
13226SOL    HW239703   1.921   5.132   3.149
13227SOL     OW39704   2.594   4.358   2.926
13227SOL    HW139705   2.653   4.332   2.850
13227SOL    HW239706   2.566   4.454   2.915
13228SOL     OW39707   3.590   4.659   3.716
13228SOL    HW139708   3.544   4.652   3.627
13228SOL    HW239709   3.528   4.703   3.782
13229SOL     OW39710   2.169   3.787   2.480
13229SOL    HW139711   2.158   3.881   2.513
13229SOL    HW239712   2.164   3.724   2.557
13230SOL     OW39713   3.484   4.091   2.236
13230SOL    HW139714   3.486   4.015   2.300
13230SOL    HW239715   3.436   4.168   2.276
13231SOL     OW39716   2.885   4.490   2.828
13231SOL    HW139717   2.900   4.511   2.924
13231SOL    HW239718   2.855   4.395   2.819
13232SOL     OW39719   2.842   5.297   3.562
13232SOL    HW139720   2.822   5.341   3.474
13232SOL    HW239721   2.881   5.206   3.546
13233SOL     OW39722   3.721   5.242   3.467
13233SOL    HW139723   3.735   5.269   3.372
13233SOL    HW239724   3.804   5.264   3.520
13234SOL     OW39725   2.212   4.622   3.666
13234SOL    HW139726   2.288   4.666   3.714
13234SOL    HW239727   2.247   4.575   3.584
13235SOL     OW39728   3.402   3.998   1.987
13235SOL    HW139729   3.341   3.923   2.010
13235SOL    HW239730   3.424   4.050   2.070
13236SOL     OW39731   3.165   4.562   1.904
13236SOL    HW139732   3.199   4.469   1.919
13236SOL    HW239733   3.183   4.589   1.809
13237SOL     OW39734   2.930   5.057   2.711
13237SOL    HW139735   2.937   4.973   2.656
13237SOL    HW239736   2.992   5.126   2.675
13238SOL     OW39737   2.181   4.534   2.811
13238SOL    HW139738   2.274   4.570   2.816
13238SOL    HW239739   2.175   4.449   2.863
13239SOL     OW39740   2.201   4.233   2.868
13239SOL    HW139741   2.149   4.150   2.851
13239SOL    HW239742   2.278   4.238   2.804
13240SOL     OW39743   3.000   4.104   3.540
13240SOL    HW139744   2.955   4.167   3.604
13240SOL    HW239745   3.093   4.135   3.523
13241SOL     OW39746   3.022   3.931   3.339
13241SOL    HW139747   3.022   3.995   3.416
13241SOL    HW239748   3.050   3.979   3.256
13242SOL     OW39749   1.870   5.050   2.062
13242SOL    HW139750   1.777   5.071   2.031
13242SOL    HW239751   1.880   4.951   2.075
13243SOL     OW39752   1.950   5.525   2.789
13243SOL    HW139753   1.908   5.439   2.762
13243SOL    HW239754   2.044   5.528   2.755
13244SOL     OW39755   2.366   5.292   2.772
13244SOL    HW139756   2.432   5.366   2.781
13244SOL    HW239757   2.410   5.213   2.730
13245SOL     OW39758   2.864   4.520   3.100
13245SOL    HW139759   2.905   4.488   3.186
13245SOL    HW239760   2.768   4.493   3.097
13246SOL     OW39761   1.902   4.268   2.976
13246SOL    HW139762   1.987   4.235   2.935
13246SOL    HW239763   1.915   4.283   3.074
13247SOL     OW39764   2.051   4.244   3.584
13247SOL    HW139765   2.110   4.204   3.514
13247SOL    HW239766   1.993   4.315   3.543
13248SOL     OW39767   3.231   4.674   3.522
13248SOL    HW139768   3.270   4.763   3.542
13248SOL    HW239769   3.241   4.654   3.425
13249SOL     OW39770   2.677   4.296   2.187
13249SOL    HW139771   2.684   4.207   2.141
13249SOL    HW239772   2.583   4.330   2.179
13250SOL     OW39773   3.519   4.328   3.068
13250SOL    HW139774   3.481   4.259   3.130
13250SOL    HW239775   3.601   4.292   3.024
13251SOL     OW39776   2.114   5.288   3.606
13251SOL    HW139777   2.084   5.345   3.682
13251SOL    HW239778   2.107   5.191   3.632
13252SOL     OW39779   2.533   4.188   3.131
13252SOL    HW139780   2.499   4.099   3.101
13252SOL    HW239781   2.559   4.242   3.051
13253SOL     OW39782   2.792   5.402   3.327
13253SOL    HW139783   2.768   5.384   3.232
13253SOL    HW239784   2.822   5.496   3.337
13254SOL     OW39785   2.335   4.224   2.053
13254SOL    HW139786   2.396   4.304   2.057
13254SOL    HW239787   2.240   4.255   2.060
13255SOL     OW39788   2.021   4.861   3.328
13255SOL    HW139789   2.043   4.800   3.404
13255SOL    HW239790   2.031   4.812   3.242
13256SOL     OW39791   3.209   4.783   3.096
13256SOL    HW139792   3.233   4.720   3.022
13256SOL    HW239793   3.119   4.823   3.078
13257SOL     OW39794   3.164   4.579   2.171
13257SOL    HW139795   3.078   4.548   2.213
13257SOL    HW239796   3.160   4.565   2.072
13258SOL     OW39797   3.621   5.471   3.016
13258SOL    HW139798   3.682   5.501   2.943
13258SOL    HW239799   3.583   5.382   2.994
13259SOL     OW39800   3.114   5.455   2.990
13259SOL    HW139801   3.198   5.460   2.936
13259SOL    HW239802   3.091   5.359   3.008
13260SOL     OW39803   1.945   4.982   2.884
13260SOL    HW139804   1.940   4.981   2.984
13260SOL    HW239805   1.862   4.941   2.846
13261SOL     OW39806   2.550   5.386   3.578
13261SOL    HW139807   2.494   5.467   3.587
13261SOL    HW239808   2.602   5.390   3.492
13262SOL     OW39809   3.588   3.859   2.385
13262SOL    HW139810   3.661   3.842   2.318
13262SOL    HW239811   3.557   3.772   2.423
13263SOL     OW39812   3.250   5.297   2.339
13263SOL    HW139813   3.317   5.309   2.265
13263SOL    HW239814   3.210   5.386   2.362
13264SOL     OW39815   1.992   5.518   3.713
13264SOL    HW139816   1.951   5.444   3.766
13264SOL    HW239817   2.056   5.569   3.771
13265SOL     OW39818   3.142   4.651   2.534
13265SOL    HW139819   3.202   4.570   2.536
13265SOL    HW239820   3.182   4.720   2.474
13266SOL     OW39821   2.692   4.997   3.284
13266SOL    HW139822   2.687   5.030   3.379
13266SOL    HW239823   2.606   5.016   3.238
13267SOL     OW39824   2.534   5.340   2.016
13267SOL    HW139825   2.543   5.350   1.917
13267SOL    HW239826   2.494   5.251   2.037
13268SOL     OW39827   3.512   5.444   3.256
13268SOL    HW139828   3.565   5.454   3.172
13268SOL    HW239829   3.485   5.534   3.290
13269SOL     OW39830   3.703   3.899   2.825
13269SOL    HW139831   3.742   3.814   2.789
13269SOL    HW239832   3.605   3.901   2.806
13270SOL     OW39833   2.125   4.050   2.582
13270SOL    HW139834   2.046   4.101   2.548
13270SOL    HW239835   2.116   4.035   2.680
13271SOL     OW39836   3.056   5.336   1.893
13271SOL    HW139837   3.062   5.243   1.930
13271SOL    HW239838   2.997   5.336   1.813
13272SOL     OW39839   2.684   4.726   3.234
13272SOL    HW139840   2.724   4.725   3.142
13272SOL    HW239841   2.694   4.818   3.274
13273SOL     OW39842   2.778   4.634   2.153
13273SOL    HW139843   2.841   4.672   2.085
13273SOL    HW239844   2.818   4.551   2.192
13274SOL     OW39845   3.366   5.331   1.906
13274SOL    HW139846   3.274   5.368   1.913
13274SOL    HW239847   3.404   5.351   1.816
13275SOL     OW39848   2.234   5.012   3.352
13275SOL    HW139849   2.221   5.105   3.318
13275SOL    HW239850   2.150   4.960   3.339
13276SOL     OW39851   3.476   5.016   3.151
13276SOL    HW139852   3.536   5.019   3.231
13276SOL    HW239853   3.401   5.080   3.164
13277SOL     OW39854   2.901   4.822   2.558
13277SOL    HW139855   2.831   4.775   2.612
13277SOL    HW239856   2.960   4.754   2.515
13278SOL     OW39857   2.876   3.960   2.833
13278SOL    HW139858   2.868   3.924   2.740
13278SOL    HW239859   2.874   3.884   2.898
13279SOL     OW39860   2.452   5.211   2.353
13279SOL    HW139861   2.494   5.153   2.283
13279SOL    HW239862   2.408   5.290   2.309
13280SOL     OW39863   3.571   4.109   3.243
13280SOL    HW139864   3.644   4.178   3.247
13280SOL    HW239865   3.599   4.034   3.184
13281SOL     OW39866   2.117   5.072   2.152
13281SOL    HW139867   2.021   5.073   2.125
13281SOL    HW239868   2.129   5.125   2.236
13282SOL     OW39869   1.967   4.737   3.588
13282SOL    HW139870   1.890   4.704   3.642
13282SOL    HW239871   2.052   4.707   3.630
13283SOL     OW39872   2.534   3.927   3.351
13283SOL    HW139873   2.624   3.911   3.311
13283SOL    HW239874   2.542   3.932   3.450
13284SOL     OW39875   1.937   4.069   1.895
13284SOL    HW139876   1.845   4.041   1.866
13284SOL    HW239877   1.968   4.146   1.839
13285SOL     OW39878   3.302   4.580   3.260
13285SOL    HW139879   3.245   4.632   3.197
13285SOL    HW239880   3.398   4.592   3.236
13286SOL     OW39881   1.934   3.890   2.180
13286SOL    HW139882   1.917   3.973   2.126
13286SOL    HW239883   2.024   3.853   2.158
13287SOL     OW39884   3.045   5.059   1.981
13287SOL    HW139885   2.946   5.048   1.983
13287SOL    HW239886   3.079   5.074   2.074
13288SOL     OW39887   2.475   4.566   3.293
13288SOL    HW139888   2.531   4.647   3.276
13288SOL    HW239889   2.534   4.486   3.296
13289SOL     OW39890   3.355   5.491   2.821
13289SOL    HW139891   3.388   5.555   2.752
13289SOL    HW239892   3.421   5.485   2.896
13290SOL     OW39893   2.578   4.289   3.570
13290SOL    HW139894   2.597   4.354   3.644
13290SOL    HW239895   2.638   4.209   3.579
13291SOL     OW39896   3.312   4.944   3.495
13291SOL    HW139897   3.303   4.934   3.594
13291SOL    HW239898   3.408   4.937   3.469
13292SOL     OW39899   2.252   5.465   3.422
13292SOL    HW139900   2.161   5.506   3.420
13292SOL    HW239901   2.245   5.371   3.454
13293SOL     OW39902   3.536   4.607   3.116
13293SOL    HW139903   3.509   4.518   3.079
13293SOL    HW239904   3.537   4.675   3.043
13294SOL     OW39905   3.087   4.049   2.311
13294SOL    HW139906   3.152   3.975   2.300
13294SOL    HW239907   3.107   4.099   2.395
13295SOL     OW39908   2.456   4.469   2.514
13295SOL    HW139909   2.506   4.554   2.495
13295SOL    HW239910   2.368   4.471   2.466
13296SOL     OW39911   3.639   4.066   3.504
13296SOL    HW139912   3.622   4.097   3.410
13296SOL    HW239913   3.555   4.029   3.542
13297SOL     OW39914   3.592   4.658   3.379
13297SOL    HW139915   3.630   4.749   3.394
13297SOL    HW239916   3.584   4.641   3.280
13298SOL     OW39917   2.721   5.098   1.878
13298SOL    HW139918   2.675   5.113   1.966
13298SOL    HW239919   2.765   5.183   1.848
13299SOL     OW39920   2.523   5.514   2.815
13299SOL    HW139921   2.477   5.602   2.802
13299SOL    HW239922   2.622   5.526   2.808
13300SOL     OW39923   2.721   4.680   2.723
13300SOL    HW139924   2.775   4.611   2.771
13300SOL    HW239925   2.689   4.749   2.789
13301SOL     OW39926   2.945   4.708   1.949
13301SOL    HW139927   2.922   4.761   1.867
13301SOL    HW239928   3.026   4.652   1.930
13302SOL     OW39929   3.723   5.293   2.713
13302SOL    HW139930   3.652   5.281   2.643
13302SOL    HW239931   3.724   5.214   2.773
13303SOL     OW39932   2.083   5.038   3.706
13303SOL    HW139933   2.018   4.965   3.685
13303SOL    HW239934   2.087   5.052   3.804
13304SOL     OW39935   1.941   4.964   2.515
13304SOL    HW139936   1.940   4.917   2.603
13304SOL    HW239937   2.023   4.936   2.464
13305SOL     OW39938   2.534   5.115   3.486
13305SOL    HW139939   2.456   5.065   3.524
13305SOL    HW239940   2.531   5.210   3.517
13306SOL     OW39941   3.686   3.916   3.089
13306SOL    HW139942   3.682   3.826   3.133
13306SOL    HW239943   3.689   3.905   2.990
13307SOL     OW39944   2.290   4.148   2.382
13307SOL    HW139945   2.320   4.076   2.320
13307SOL    HW239946   2.251   4.108   2.465
13308SOL     OW39947   3.567   5.211   2.966
13308SOL    HW139948   3.474   5.186   2.939
13308SOL    HW239949   3.593   5.161   3.048
13309SOL     OW39950   2.179   4.271   3.142
13309SOL    HW139951   2.217   4.212   3.214
13309SOL    HW239952   2.219   4.245   3.054
13310SOL     OW39953   2.674   5.310   2.549
13310SOL    HW139954   2.706   5.320   2.455
13310SOL    HW239955   2.595   5.248   2.551
13311SOL     OW39956   3.286   3.938   2.974
13311SOL    HW139957   3.338   3.873   3.029
13311SOL    HW239958   3.237   4.001   3.035
13312SOL     OW39959   2.863   3.758   3.016
13312SOL    HW139960   2.800   3.686   2.985
13312SOL    HW239961   2.956   3.722   3.016
13313SOL     OW39962   2.632   5.054   2.163
13313SOL    HW139963   2.586   4.967   2.180
13313SOL    HW239964   2.723   5.051   2.204
13314SOL     OW39965   2.480   5.291   3.146
13314SOL    HW139966   2.475   5.373   3.203
13314SOL    HW239967   2.569   5.288   3.101
13315SOL     OW39968   3.214   3.776   2.030
13315SOL    HW139969   3.249   3.735   1.946
13315SOL    HW239970   3.124   3.738   2.050
13316SOL     OW39971   3.162   4.177   2.553
13316SOL    HW139972   3.103   4.257   2.557
13316SOL    HW239973   3.177   4.142   2.646
13317SOL     OW39974   3.455   3.945   2.744
13317SOL    HW139975   3.371   3.944   2.798
13317SOL    HW239976   3.457   4.028   2.688
13318SOL     OW39977   1.901   4.801   2.162
13318SOL    HW139978   2.000   4.790   2.153
13318SOL    HW239979   1.861   4.715   2.194
13319SOL     OW39980   2.737   5.370   2.199
13319SOL    HW139981   2.660   5.335   2.145
13319SOL    HW239982   2.705   5.441   2.261
13320SOL     OW39983   2.092   4.352   3.837
13320SOL    HW139984   1.999   4.350   3.874
13320SOL    HW239985   2.093   4.313   3.745
13321SOL     OW39986   2.087   3.999   4.720
13321SOL    HW139987   2.122   3.982   4.812
13321SOL    HW239988   1.999   3.954   4.708
13322SOL     OW39989   1.881   4.092   4.371
13322SOL    HW139990   1.799   4.135   4.410
13322SOL    HW239991   1.853   4.019   4.308
13323SOL     OW39992   2.431   4.999   4.889
13323SOL    HW139993   2.338   4.992   4.852
13323SOL    HW239994   2.442   5.088   4.933
13324SOL     OW39995   3.417   5.235   4.427
13324SOL    HW139996   3.360   5.219   4.508
13324SOL    HW239997   3.358   5.245   4.347
13325SOL     OW39998   2.997   4.427   4.441
13325SOL    HW139999   3.054   4.505   4.416
13325SOL    HW240000   2.937   4.453   4.517
13326SOL     OW40001   3.617   4.331   3.955
13326SOL    HW140002   3.605   4.318   3.856
13326SOL    HW240003   3.587   4.250   4.004
13327SOL     OW40004   2.630   4.868   4.747
13327SOL    HW140005   2.552   4.885   4.807
13327SOL    HW240006   2.664   4.955   4.711
13328SOL     OW40007   2.712   4.522   5.547
13328SOL    HW140008   2.708   4.598   5.612
13328SOL    HW240009   2.734   4.558   5.456
13329SOL     OW40010   2.547   4.736   4.389
13329SOL    HW140011   2.616   4.720   4.459
13329SOL    HW240012   2.474   4.793   4.427
13330SOL     OW40013   2.548   4.885   5.527
13330SOL    HW140014   2.608   4.964   5.541
13330SOL    HW240015   2.462   4.916   5.486
13331SOL     OW40016   2.197   5.159   4.785
13331SOL    HW140017   2.119   5.128   4.732
13331SOL    HW240018   2.255   5.217   4.728
13332SOL     OW40019   3.322   5.229   5.063
13332SOL    HW140020   3.346   5.323   5.089
13332SOL    HW240021   3.306   5.175   5.145
13333SOL     OW40022   2.300   4.116   5.223
13333SOL    HW140023   2.382   4.060   5.232
13333SOL    HW240024   2.219   4.058   5.227
13334SOL     OW40025   3.465   4.171   4.461
13334SOL    HW140026   3.391   4.217   4.411
13334SOL    HW240027   3.516   4.239   4.514
13335SOL     OW40028   2.093   5.437   4.207
13335SOL    HW140029   2.127   5.514   4.261
13335SOL    HW240030   2.137   5.437   4.117
13336SOL     OW40031   2.989   5.065   5.414
13336SOL    HW140032   3.036   5.065   5.502
13336SOL    HW240033   2.941   4.978   5.403
13337SOL     OW40034   2.092   5.158   4.262
13337SOL    HW140035   2.066   5.254   4.262
13337SOL    HW240036   2.021   5.104   4.307
13338SOL     OW40037   2.102   4.815   4.610
13338SOL    HW140038   2.116   4.731   4.662
13338SOL    HW240039   2.047   4.879   4.665
13339SOL     OW40040   2.482   5.510   5.163
13339SOL    HW140041   2.390   5.493   5.198
13339SOL    HW240042   2.510   5.602   5.189
13340SOL     OW40043   2.468   4.688   3.847
13340SOL    HW140044   2.475   4.772   3.793
13340SOL    HW240045   2.514   4.701   3.935
13341SOL     OW40046   3.456   3.838   5.204
13341SOL    HW140047   3.438   3.905   5.132
13341SOL    HW240048   3.453   3.884   5.293
13342SOL     OW40049   1.984   4.367   4.287
13342SOL    HW140050   1.939   4.279   4.304
13342SOL    HW240051   1.983   4.421   4.371
13343SOL     OW40052   3.704   5.491   4.083
13343SOL    HW140053   3.758   5.462   4.163
13343SOL    HW240054   3.734   5.581   4.054
13344SOL     OW40055   1.889   5.320   3.841
13344SOL    HW140056   1.870   5.224   3.862
13344SOL    HW240057   1.856   5.378   3.916
13345SOL     OW40058   3.551   4.646   4.336
13345SOL    HW140059   3.646   4.617   4.344
13345SOL    HW240060   3.543   4.711   4.261
13346SOL     OW40061   3.503   4.832   4.156
13346SOL    HW140062   3.589   4.834   4.104
13346SOL    HW240063   3.517   4.879   4.244
13347SOL     OW40064   1.975   4.461   5.321
13347SOL    HW140065   2.063   4.448   5.366
13347SOL    HW240066   1.962   4.558   5.299
13348SOL     OW40067   2.475   5.089   4.450
13348SOL    HW140068   2.426   5.002   4.459
13348SOL    HW240069   2.452   5.132   4.363
13349SOL     OW40070   3.155   4.952   5.147
13349SOL    HW140071   3.192   4.879   5.089
13349SOL    HW240072   3.207   4.957   5.232
13350SOL     OW40073   2.671   3.728   4.226
13350SOL    HW140074   2.711   3.819   4.217
13350SOL    HW240075   2.571   3.736   4.232
13351SOL     OW40076   2.059   4.700   4.988
13351SOL    HW140077   2.148   4.655   4.974
13351SOL    HW240078   1.986   4.635   4.969
13352SOL     OW40079   3.387   4.723   3.914
13352SOL    HW140080   3.324   4.647   3.927
13352SOL    HW240081   3.435   4.741   4.000
13353SOL     OW40082   3.049   5.516   5.340
13353SOL    HW140083   3.073   5.576   5.264
13353SOL    HW240084   3.056   5.421   5.310
13354SOL     OW40085   2.179   3.975   5.525
13354SOL    HW140086   2.250   4.046   5.531
13354SOL    HW240087   2.091   4.014   5.553
13355SOL     OW40088   3.328   5.141   4.677
13355SOL    HW140089   3.269   5.147   4.757
13355SOL    HW240090   3.313   5.053   4.631
13356SOL     OW40091   3.529   5.438   4.296
13356SOL    HW140092   3.488   5.415   4.208
13356SOL    HW240093   3.511   5.364   4.361
13357SOL     OW40094   2.460   4.453   3.994
13357SOL    HW140095   2.484   4.522   3.926
13357SOL    HW240096   2.382   4.486   4.048
13358SOL     OW40097   3.143   4.069   4.668
13358SOL    HW140098   3.057   4.019   4.655
13358SOL    HW240099   3.205   4.015   4.724
13359SOL     OW40100   3.438   5.386   4.031
13359SOL    HW140101   3.527   5.432   4.034
13359SOL    HW240102   3.417   5.362   3.936
13360SOL     OW40103   2.669   4.329   5.189
13360SOL    HW140104   2.622   4.326   5.278
13360SOL    HW240105   2.618   4.274   5.123
13361SOL     OW40106   3.256   4.193   5.398
13361SOL    HW140107   3.236   4.236   5.486
13361SOL    HW240108   3.334   4.131   5.407
13362SOL     OW40109   2.835   4.614   5.296
13362SOL    HW140110   2.881   4.530   5.267
13362SOL    HW240111   2.779   4.648   5.221
13363SOL     OW40112   2.853   4.134   4.966
13363SOL    HW140113   2.776   4.168   5.020
13363SOL    HW240114   2.819   4.083   4.887
13364SOL     OW40115   2.903   4.425   4.153
13364SOL    HW140116   2.929   4.421   4.249
13364SOL    HW240117   2.818   4.374   4.139
13365SOL     OW40118   1.938   4.535   4.513
13365SOL    HW140119   2.037   4.523   4.522
13365SOL    HW240120   1.914   4.630   4.534
13366SOL     OW40121   1.992   5.545   5.295
13366SOL    HW140122   1.982   5.530   5.394
13366SOL    HW240123   1.906   5.581   5.259
13367SOL     OW40124   2.727   4.072   3.919
13367SOL    HW140125   2.786   4.135   3.870
13367SOL    HW240126   2.746   3.978   3.890
13368SOL     OW40127   3.581   4.309   5.555
13368SOL    HW140128   3.555   4.398   5.519
13368SOL    HW240129   3.579   4.241   5.482
13369SOL     OW40130   3.224   4.868   4.269
13369SOL    HW140131   3.307   4.839   4.221
13369SOL    HW240132   3.175   4.935   4.213
13370SOL     OW40133   2.412   3.920   4.609
13370SOL    HW140134   2.407   3.915   4.709
13370SOL    HW240135   2.414   4.016   4.580
13371SOL     OW40136   2.870   5.180   4.201
13371SOL    HW140137   2.824   5.252   4.149
13371SOL    HW240138   2.866   5.200   4.299
13372SOL     OW40139   2.213   5.525   4.577
13372SOL    HW140140   2.263   5.439   4.583
13372SOL    HW240141   2.278   5.602   4.574
13373SOL     OW40142   3.657   4.790   4.597
13373SOL    HW140143   3.595   4.775   4.521
13373SOL    HW240144   3.605   4.801   4.682
13374SOL     OW40145   3.089   5.274   5.230
13374SOL    HW140146   3.095   5.197   5.294
13374SOL    HW240147   3.037   5.248   5.150
13375SOL     OW40148   2.183   4.667   3.966
13375SOL    HW140149   2.265   4.706   3.924
13375SOL    HW240150   2.156   4.585   3.917
13376SOL     OW40151   3.320   4.459   4.452
13376SOL    HW140152   3.315   4.394   4.527
13376SOL    HW240153   3.400   4.518   4.465
13377SOL     OW40154   2.323   4.990   5.451
13377SOL    HW140155   2.273   4.991   5.365
13377SOL    HW240156   2.260   4.972   5.527
13378SOL     OW40157   2.973   5.500   3.961
13378SOL    HW140158   2.913   5.438   4.011
13378SOL    HW240159   3.004   5.456   3.876
13379SOL     OW40160   2.064   4.009   5.222
13379SOL    HW140161   1.984   4.069   5.209
13379SOL    HW240162   2.054   3.960   5.308
13380SOL     OW40163   3.494   5.101   3.805
13380SOL    HW140164   3.462   5.195   3.795
13380SOL    HW240165   3.418   5.038   3.793
13381SOL     OW40166   2.326   5.467   4.047
13381SOL    HW140167   2.359   5.506   4.133
13381SOL    HW240168   2.402   5.460   3.982
13382SOL     OW40169   3.262   3.831   4.150
13382SOL    HW140170   3.238   3.794   4.060
13382SOL    HW240171   3.361   3.847   4.154
13383SOL     OW40172   2.111   5.509   4.965
13383SOL    HW140173   2.168   5.444   5.015
13383SOL    HW240174   2.095   5.476   4.872
13384SOL     OW40175   2.802   5.422   4.628
13384SOL    HW140176   2.882   5.365   4.649
13384SOL    HW240177   2.753   5.382   4.551
13385SOL     OW40178   2.244   4.424   4.204
13385SOL    HW140179   2.289   4.334   4.201
13385SOL    HW240180   2.150   4.413   4.237
13386SOL     OW40181   3.409   3.946   5.453
13386SOL    HW140182   3.404   3.983   5.545
13386SOL    HW240183   3.337   3.877   5.441
13387SOL     OW40184   2.476   3.846   3.841
13387SOL    HW140185   2.574   3.824   3.848
13387SOL    HW240186   2.445   3.829   3.748
13388SOL     OW40187   2.643   3.988   5.473
13388SOL    HW140188   2.710   3.927   5.516
13388SOL    HW240189   2.570   4.007   5.538
13389SOL     OW40190   2.750   5.238   4.919
13389SOL    HW140191   2.727   5.213   4.825
13389SOL    HW240192   2.811   5.169   4.958
13390SOL     OW40193   3.213   4.314   5.157
13390SOL    HW140194   3.241   4.271   5.242
13390SOL    HW240195   3.238   4.410   5.158
13391SOL     OW40196   2.665   5.126   4.648
13391SOL    HW140197   2.755   5.140   4.606
13391SOL    HW240198   2.594   5.128   4.577
13392SOL     OW40199   2.784   4.227   4.623
13392SOL    HW140200   2.759   4.218   4.527
13392SOL    HW240201   2.832   4.145   4.654
13393SOL     OW40202   2.401   3.788   4.236
13393SOL    HW140203   2.320   3.789   4.294
13393SOL    HW240204   2.404   3.871   4.181
13394SOL     OW40205   3.296   4.912   3.765
13394SOL    HW140206   3.328   4.836   3.822
13394SOL    HW240207   3.204   4.939   3.795
13395SOL     OW40208   2.159   3.759   3.895
13395SOL    HW140209   2.208   3.843   3.874
13395SOL    HW240210   2.221   3.694   3.940
13396SOL     OW40211   2.797   3.960   4.204
13396SOL    HW140212   2.749   4.001   4.126
13396SOL    HW240213   2.896   3.958   4.185
13397SOL     OW40214   2.938   4.407   5.188
13397SOL    HW140215   2.858   4.346   5.191
13397SOL    HW240216   3.019   4.354   5.164
13398SOL     OW40217   3.089   5.294   4.517
13398SOL    HW140218   3.110   5.368   4.452
13398SOL    HW240219   3.157   5.294   4.590
13399SOL     OW40220   2.321   4.876   4.465
13399SOL    HW140221   2.250   4.849   4.530
13399SOL    HW240222   2.295   4.848   4.372
13400SOL     OW40223   3.133   5.521   4.315
13400SOL    HW140224   3.177   5.585   4.251
13400SOL    HW240225   3.083   5.573   4.385
13401SOL     OW40226   2.894   4.273   3.740
13401SOL    HW140227   2.853   4.355   3.701
13401SOL    HW240228   2.958   4.299   3.813
13402SOL     OW40229   1.940   4.280   5.110
13402SOL    HW140230   2.032   4.279   5.069
13402SOL    HW240231   1.934   4.354   5.177
13403SOL     OW40232   2.423   3.946   4.871
13403SOL    HW140233   2.461   3.862   4.908
13403SOL    HW240234   2.335   3.965   4.915
13404SOL     OW40235   2.728   4.178   4.366
13404SOL    HW140236   2.696   4.250   4.304
13404SOL    HW240237   2.752   4.097   4.313
13405SOL     OW40238   2.879   3.763   4.477
13405SOL    HW140239   2.807   3.768   4.408
13405SOL    HW240240   2.855   3.694   4.546
13406SOL     OW40241   3.291   4.897   4.591
13406SOL    HW140242   3.236   4.813   4.584
13406SOL    HW240243   3.317   4.926   4.499
13407SOL     OW40244   3.328   4.314   4.716
13407SOL    HW140245   3.298   4.219   4.723
13407SOL    HW240246   3.401   4.330   4.782
13408SOL     OW40247   3.719   4.557   4.101
13408SOL    HW140248   3.761   4.493   4.165
13408SOL    HW240249   3.681   4.506   4.023
13409SOL     OW40250   2.350   5.109   3.898
13409SOL    HW140251   2.263   5.094   3.945
13409SOL    HW240252   2.333   5.135   3.803
13410SOL     OW40253   3.526   5.004   4.381
13410SOL    HW140254   3.625   5.012   4.395
13410SOL    HW240255   3.481   5.088   4.412
13411SOL     OW40256   3.252   4.299   3.802
13411SOL    HW140257   3.198   4.278   3.883
13411SOL    HW240258   3.343   4.258   3.811
13412SOL     OW40259   2.389   3.980   4.052
13412SOL    HW140260   2.416   3.921   3.977
13412SOL    HW240261   2.389   4.075   4.021
13413SOL     OW40262   3.616   4.947   5.312
13413SOL    HW140263   3.707   4.908   5.299
13413SOL    HW240264   3.624   5.043   5.336
13414SOL     OW40265   2.926   5.071   5.064
13414SOL    HW140266   2.846   5.048   5.119
13414SOL    HW240267   3.009   5.045   5.113
13415SOL     OW40268   3.454   5.353   5.349
13415SOL    HW140269   3.481   5.387   5.259
13415SOL    HW240270   3.533   5.315   5.395
13416SOL     OW40271   2.973   4.919   4.824
13416SOL    HW140272   2.933   4.963   4.905
13416SOL    HW240273   2.932   4.956   4.741
13417SOL     OW40274   3.500   4.823   4.803
13417SOL    HW140275   3.505   4.904   4.862
13417SOL    HW240276   3.414   4.825   4.752
13418SOL     OW40277   2.777   3.813   5.126
13418SOL    HW140278   2.802   3.793   5.031
13418SOL    HW240279   2.849   3.869   5.168
13419SOL     OW40280   2.842   4.840   5.443
13419SOL    HW140281   2.743   4.846   5.453
13419SOL    HW240282   2.865   4.760   5.387
13420SOL     OW40283   2.567   4.774   4.092
13420SOL    HW140284   2.553   4.781   4.191
13420SOL    HW240285   2.651   4.723   4.074
13421SOL     OW40286   2.272   4.537   4.975
13421SOL    HW140287   2.358   4.549   5.025
13421SOL    HW240288   2.230   4.450   5.002
13422SOL     OW40289   3.136   4.110   4.986
13422SOL    HW140290   3.157   4.184   5.050
13422SOL    HW240291   3.047   4.127   4.943
13423SOL     OW40292   1.926   5.288   5.055
13423SOL    HW140293   1.880   5.370   5.021
13423SOL    HW240294   2.024   5.307   5.064
13424SOL     OW40295   2.229   4.824   4.225
13424SOL    HW140296   2.222   4.907   4.169
13424SOL    HW240297   2.233   4.744   4.165
13425SOL     OW40298   2.428   4.261   4.589
13425SOL    HW140299   2.440   4.327   4.515
13425SOL    HW240300   2.474   4.295   4.672
13426SOL     OW40301   3.114   5.072   4.112
13426SOL    HW140302   3.164   5.149   4.152
13426SOL    HW240303   3.019   5.074   4.144
13427SOL     OW40304   3.134   5.169   4.866
13427SOL    HW140305   3.181   5.182   4.953
13427SOL    HW240306   3.068   5.095   4.875
13428SOL     OW40307   3.444   4.363   4.196
13428SOL    HW140308   3.413   4.424   4.269
13428SOL    HW240309   3.494   4.415   4.127
13429SOL     OW40310   2.216   5.234   5.053
13429SOL    HW140311   2.195   5.190   4.966
13429SOL    HW240312   2.313   5.260   5.056
13430SOL     OW40313   2.264   4.475   5.322
13430SOL    HW140314   2.332   4.530   5.275
13430SOL    HW240315   2.304   4.387   5.349
13431SOL     OW40316   3.449   4.503   5.394
13431SOL    HW140317   3.357   4.541   5.389
13431SOL    HW240318   3.509   4.550   5.329
13432SOL     OW40319   2.875   3.829   5.494
13432SOL    HW140320   2.881   3.914   5.442
13432SOL    HW240321   2.907   3.753   5.437
13433SOL     OW40322   2.366   3.774   5.464
13433SOL    HW140323   2.324   3.717   5.394
13433SOL    HW240324   2.300   3.843   5.496
13434SOL     OW40325   2.435   4.594   4.753
13434SOL    HW140326   2.479   4.683   4.744
13434SOL    HW240327   2.372   4.594   4.830
13435SOL     OW40328   3.222   4.586   4.769
13435SOL    HW140329   3.147   4.586   4.703
13435SOL    HW240330   3.259   4.494   4.778
13436SOL     OW40331   3.071   4.249   3.999
13436SOL    HW140332   3.084   4.165   4.053
13436SOL    HW240333   3.042   4.323   4.059
13437SOL     OW40334   2.169   3.937   4.955
13437SOL    HW140335   2.146   3.974   5.045
13437SOL    HW240336   2.139   3.842   4.949
13438SOL     OW40337   1.899   5.034   5.006
13438SOL    HW140338   1.952   4.985   5.074
13438SOL    HW240339   1.921   5.132   5.011
13439SOL     OW40340   2.594   4.358   4.788
13439SOL    HW140341   2.653   4.332   4.712
13439SOL    HW240342   2.566   4.454   4.777
13440SOL     OW40343   3.590   4.659   5.578
13440SOL    HW140344   3.544   4.652   5.489
13440SOL    HW240345   3.528   4.703   5.644
13441SOL     OW40346   2.169   3.787   4.342
13441SOL    HW140347   2.158   3.881   4.375
13441SOL    HW240348   2.164   3.724   4.419
13442SOL     OW40349   3.484   4.091   4.098
13442SOL    HW140350   3.486   4.015   4.162
13442SOL    HW240351   3.436   4.168   4.138
13443SOL     OW40352   2.885   4.490   4.690
13443SOL    HW140353   2.900   4.511   4.786
13443SOL    HW240354   2.855   4.395   4.681
13444SOL     OW40355   2.842   5.297   5.424
13444SOL    HW140356   2.822   5.341   5.336
13444SOL    HW240357   2.881   5.206   5.408
13445SOL     OW40358   3.721   5.242   5.329
13445SOL    HW140359   3.735   5.269   5.234
13445SOL    HW240360   3.804   5.264   5.382
13446SOL     OW40361   2.212   4.622   5.528
13446SOL    HW140362   2.288   4.666   5.576
13446SOL    HW240363   2.247   4.575   5.446
13447SOL     OW40364   3.402   3.998   3.849
13447SOL    HW140365   3.341   3.923   3.872
13447SOL    HW240366   3.424   4.050   3.932
13448SOL     OW40367   3.165   4.562   3.766
13448SOL    HW140368   3.199   4.469   3.781
13448SOL    HW240369   3.183   4.589   3.671
13449SOL     OW40370   2.930   5.057   4.573
13449SOL    HW140371   2.937   4.973   4.518
13449SOL    HW240372   2.992   5.126   4.537
13450SOL     OW40373   2.181   4.534   4.673
13450SOL    HW140374   2.274   4.570   4.678
13450SOL    HW240375   2.175   4.449   4.725
13451SOL     OW40376   2.201   4.233   4.730
13451SOL    HW140377   2.149   4.150   4.713
13451SOL    HW240378   2.278   4.238   4.666
13452SOL     OW40379   3.000   4.104   5.402
13452SOL    HW140380   2.955   4.167   5.466
13452SOL    HW240381   3.093   4.135   5.385
13453SOL     OW40382   3.022   3.931   5.201
13453SOL    HW140383   3.022   3.995   5.278
13453SOL    HW240384   3.050   3.979   5.118
13454SOL     OW40385   1.870   5.050   3.924
13454SOL    HW140386   1.777   5.071   3.893
13454SOL    HW240387   1.880   4.951   3.937
13455SOL     OW40388   1.950   5.525   4.651
13455SOL    HW140389   1.908   5.439   4.624
13455SOL    HW240390   2.044   5.528   4.617
13456SOL     OW40391   2.366   5.292   4.634
13456SOL    HW140392   2.432   5.366   4.643
13456SOL    HW240393   2.410   5.213   4.592
13457SOL     OW40394   2.864   4.520   4.962
13457SOL    HW140395   2.905   4.488   5.048
13457SOL    HW240396   2.768   4.493   4.959
13458SOL     OW40397   1.902   4.268   4.838
13458SOL    HW140398   1.987   4.235   4.797
13458SOL    HW240399   1.915   4.283   4.936
13459SOL     OW40400   2.051   4.244   5.446
13459SOL    HW140401   2.110   4.204   5.376
13459SOL    HW240402   1.993   4.315   5.405
13460SOL     OW40403   3.231   4.674   5.384
13460SOL    HW140404   3.270   4.763   5.404
13460SOL    HW240405   3.241   4.654   5.287
13461SOL     OW40406   2.677   4.296   4.049
13461SOL    HW140407   2.684   4.207   4.003
13461SOL    HW240408   2.583   4.330   4.041
13462SOL     OW40409   3.519   4.328   4.930
13462SOL    HW140410   3.481   4.259   4.992
13462SOL    HW240411   3.601   4.292   4.886
13463SOL     OW40412   2.114   5.288   5.468
13463SOL    HW140413   2.084   5.345   5.544
13463SOL    HW240414   2.107   5.191   5.494
13464SOL     OW40415   2.533   4.188   4.993
13464SOL    HW140416   2.499   4.099   4.963
13464SOL    HW240417   2.559   4.242   4.913
13465SOL     OW40418   2.792   5.402   5.189
13465SOL    HW140419   2.768   5.384   5.094
13465SOL    HW240420   2.822   5.496   5.199
13466SOL     OW40421   2.335   4.224   3.915
13466SOL    HW140422   2.396   4.304   3.919
13466SOL    HW240423   2.240   4.255   3.922
13467SOL     OW40424   2.021   4.861   5.190
13467SOL    HW140425   2.043   4.800   5.266
13467SOL    HW240426   2.031   4.812   5.104
13468SOL     OW40427   3.209   4.783   4.958
13468SOL    HW140428   3.233   4.720   4.884
13468SOL    HW240429   3.119   4.823   4.940
13469SOL     OW40430   3.164   4.579   4.033
13469SOL    HW140431   3.078   4.548   4.075
13469SOL    HW240432   3.160   4.565   3.934
13470SOL     OW40433   3.621   5.471   4.878
13470SOL    HW140434   3.682   5.501   4.805
13470SOL    HW240435   3.583   5.382   4.856
13471SOL     OW40436   3.114   5.455   4.852
13471SOL    HW140437   3.198   5.460   4.798
13471SOL    HW240438   3.091   5.359   4.870
13472SOL     OW40439   1.945   4.982   4.746
13472SOL    HW140440   1.940   4.981   4.846
13472SOL    HW240441   1.862   4.941   4.708
13473SOL     OW40442   2.550   5.386   5.440
13473SOL    HW140443   2.494   5.467   5.449
13473SOL    HW240444   2.602   5.390   5.354
13474SOL     OW40445   3.588   3.859   4.247
13474SOL    HW140446   3.661   3.842   4.180
13474SOL    HW240447   3.557   3.772   4.285
13475SOL     OW40448   3.250   5.297   4.201
13475SOL    HW140449   3.317   5.309   4.127
13475SOL    HW240450   3.210   5.386   4.224
13476SOL     OW40451   1.992   5.518   5.575
13476SOL    HW140452   1.951   5.444   5.628
13476SOL    HW240453   2.056   5.569   5.633
13477SOL     OW40454   3.142   4.651   4.396
13477SOL    HW140455   3.202   4.570   4.398
13477SOL    HW240456   3.182   4.720   4.336
13478SOL     OW40457   2.692   4.997   5.146
13478SOL    HW140458   2.687   5.030   5.241
13478SOL    HW240459   2.606   5.016   5.100
13479SOL     OW40460   2.534   5.340   3.878
13479SOL    HW140461   2.543   5.350   3.779
13479SOL    HW240462   2.494   5.251   3.899
13480SOL     OW40463   3.512   5.444   5.118
13480SOL    HW140464   3.565   5.454   5.034
13480SOL    HW240465   3.485   5.534   5.152
13481SOL     OW40466   3.703   3.899   4.687
13481SOL    HW140467   3.742   3.814   4.651
13481SOL    HW240468   3.605   3.901   4.668
13482SOL     OW40469   2.125   4.050   4.444
13482SOL    HW140470   2.046   4.101   4.410
13482SOL    HW240471   2.116   4.035   4.542
13483SOL     OW40472   3.056   5.336   3.755
13483SOL    HW140473   3.062   5.243   3.792
13483SOL    HW240474   2.997   5.336   3.675
13484SOL     OW40475   2.684   4.726   5.096
13484SOL    HW140476   2.724   4.725   5.004
13484SOL    HW240477   2.694   4.818   5.136
13485SOL     OW40478   2.778   4.634   4.015
13485SOL    HW140479   2.841   4.672   3.947
13485SOL    HW240480   2.818   4.551   4.054
13486SOL     OW40481   3.366   5.331   3.768
13486SOL    HW140482   3.274   5.368   3.775
13486SOL    HW240483   3.404   5.351   3.678
13487SOL     OW40484   2.234   5.012   5.214
13487SOL    HW140485   2.221   5.105   5.180
13487SOL    HW240486   2.150   4.960   5.201
13488SOL     OW40487   3.476   5.016   5.013
13488SOL    HW140488   3.536   5.019   5.093
13488SOL    HW240489   3.401   5.080   5.026
13489SOL     OW40490   2.901   4.822   4.420
13489SOL    HW140491   2.831   4.775   4.474
13489SOL    HW240492   2.960   4.754   4.377
13490SOL     OW40493   2.876   3.960   4.695
13490SOL    HW140494   2.868   3.924   4.602
13490SOL    HW240495   2.874   3.884   4.760
13491SOL     OW40496   2.452   5.211   4.215
13491SOL    HW140497   2.494   5.153   4.145
13491SOL    HW240498   2.408   5.290   4.171
13492SOL     OW40499   3.571   4.109   5.105
13492SOL    HW140500   3.644   4.178   5.109
13492SOL    HW240501   3.599   4.034   5.046
13493SOL     OW40502   2.117   5.072   4.014
13493SOL    HW140503   2.021   5.073   3.987
13493SOL    HW240504   2.129   5.125   4.098
13494SOL     OW40505   1.967   4.737   5.450
13494SOL    HW140506   1.890   4.704   5.504
13494SOL    HW240507   2.052   4.707   5.492
13495SOL     OW40508   2.534   3.927   5.213
13495SOL    HW140509   2.624   3.911   5.173
13495SOL    HW240510   2.542   3.932   5.312
13496SOL     OW40511   1.937   4.069   3.757
13496SOL    HW140512   1.845   4.041   3.728
13496SOL    HW240513   1.968   4.146   3.701
13497SOL     OW40514   3.302   4.580   5.122
13497SOL    HW140515   3.245   4.632   5.059
13497SOL    HW240516   3.398   4.592   5.098
13498SOL     OW40517   1.934   3.890   4.042
13498SOL    HW140518   1.917   3.973   3.988
13498SOL    HW240519   2.024   3.853   4.020
13499SOL     OW40520   3.045   5.059   3.843
13499SOL    HW140521   2.946   5.048   3.845
13499SOL    HW240522   3.079   5.074   3.936
13500SOL     OW40523   2.475   4.566   5.155
13500SOL    HW140524   2.531   4.647   5.138
13500SOL    HW240525   2.534   4.486   5.158
13501SOL     OW40526   3.355   5.491   4.683
13501SOL    HW140527   3.388   5.555   4.614
13501SOL    HW240528   3.421   5.485   4.758
13502SOL     OW40529   2.578   4.289   5.432
13502SOL    HW140530   2.597   4.354   5.506
13502SOL    HW240531   2.638   4.209   5.441
13503SOL     OW40532   3.312   4.944   5.357
13503SOL    HW140533   3.303   4.934   5.456
13503SOL    HW240534   3.408   4.937   5.331
13504SOL     OW40535   2.252   5.465   5.284
13504SOL    HW140536   2.161   5.506   5.282
13504SOL    HW240537   2.245   5.371   5.316
13505SOL     OW40538   3.536   4.607   4.978
13505SOL    HW140539   3.509   4.518   4.941
13505SOL    HW240540   3.537   4.675   4.905
13506SOL     OW40541   3.087   4.049   4.173
13506SOL    HW140542   3.152   3.975   4.162
13506SOL    HW240543   3.107   4.099   4.257
13507SOL     OW40544   2.456   4.469   4.376
13507SOL    HW140545   2.506   4.554   4.357
13507SOL    HW240546   2.368   4.471   4.328
13508SOL     OW40547   3.639   4.066   5.366
13508SOL    HW140548   3.622   4.097   5.272
13508SOL    HW240549   3.555   4.029   5.404
13509SOL     OW40550   3.592   4.658   5.241
13509SOL    HW140551   3.630   4.749   5.256
13509SOL    HW240552   3.584   4.641   5.142
13510SOL     OW40553   2.721   5.098   3.740
13510SOL    HW140554   2.675   5.113   3.828
13510SOL    HW240555   2.765   5.183   3.710
13511SOL     OW40556   2.523   5.514   4.677
13511SOL    HW140557   2.477   5.602   4.664
13511SOL    HW240558   2.622   5.526   4.670
13512SOL     OW40559   2.721   4.680   4.585
13512SOL    HW140560   2.775   4.611   4.633
13512SOL    HW240561   2.689   4.749   4.651
13513SOL     OW40562   2.945   4.708   3.811
13513SOL    HW140563   2.922   4.761   3.729
13513SOL    HW240564   3.026   4.652   3.792
13514SOL     OW40565   3.723   5.293   4.575
13514SOL    HW140566   3.652   5.281   4.505
13514SOL    HW240567   3.724   5.214   4.635
13515SOL     OW40568   2.083   5.038   5.568
13515SOL    HW140569   2.018   4.965   5.547
13515SOL    HW240570   2.087   5.052   5.666
13516SOL     OW40571   1.941   4.964   4.377
13516SOL    HW140572   1.940   4.917   4.465
13516SOL    HW240573   2.023   4.936   4.326
13517SOL     OW40574   2.534   5.115   5.348
13517SOL    HW140575   2.456   5.065   5.386
13517SOL    HW240576   2.531   5.210   5.379
13518SOL     OW40577   3.686   3.916   4.951
13518SOL    HW140578   3.682   3.826   4.995
13518SOL    HW240579   3.689   3.905   4.852
13519SOL     OW40580   2.290   4.148   4.244
13519SOL    HW140581   2.320   4.076   4.182
13519SOL    HW240582   2.251   4.108   4.327
13520SOL     OW40583   3.567   5.211   4.828
13520SOL    HW140584   3.474   5.186   4.801
13520SOL    HW240585   3.593   5.161   4.910
13521SOL     OW40586   2.179   4.271   5.004
13521SOL    HW140587   2.217   4.212   5.076
13521SOL    HW240588   2.219   4.245   4.916
13522SOL     OW40589   2.674   5.310   4.411
13522SOL    HW140590   2.706   5.320   4.317
13522SOL    HW240591   2.595   5.248   4.413
13523SOL     OW40592   3.286   3.938   4.836
13523SOL    HW140593   3.338   3.873   4.891
13523SOL    HW240594   3.237   4.001   4.897
13524SOL     OW40595   2.863   3.758   4.878
13524SOL    HW140596   2.800   3.686   4.847
13524SOL    HW240597   2.956   3.722   4.878
13525SOL     OW40598   2.632   5.054   4.025
13525SOL    HW140599   2.586   4.967   4.042
13525SOL    HW240600   2.723   5.051   4.066
13526SOL     OW40601   2.480   5.291   5.008
13526SOL    HW140602   2.475   5.373   5.065
13526SOL    HW240603   2.569   5.288   4.963
13527SOL     OW40604   3.214   3.776   3.892
13527SOL    HW140605   3.249   3.735   3.808
13527SOL    HW240606   3.124   3.738   3.912
13528SOL     OW40607   3.162   4.177   4.415
13528SOL    HW140608   3.103   4.257   4.419
13528SOL    HW240609   3.177   4.142   4.508
13529SOL     OW40610   3.455   3.945   4.606
13529SOL    HW140611   3.371   3.944   4.660
13529SOL    HW240612   3.457   4.028   4.550
13530SOL     OW40613   1.901   4.801   4.024
13530SOL    HW140614   2.000   4.790   4.015
13530SOL    HW240615   1.861   4.715   4.056
13531SOL     OW40616   2.737   5.370   4.061
13531SOL    HW140617   2.660   5.335   4.007
13531SOL    HW240618   2.705   5.441   4.123
13532SOL     OW40619   2.092   4.352   5.699
13532SOL    HW140620   1.999   4.350   5.736
13532SOL    HW240621   2.093   4.313   5.607
13533SOL     OW40622   2.087   3.999   6.582
13533SOL    HW140623   2.122   3.982   6.674
13533SOL    HW240624   1.999   3.954   6.570
13534SOL     OW40625   1.881   4.092   6.233
13534SOL    HW140626   1.799   4.135   6.272
13534SOL    HW240627   1.853   4.019   6.170
13535SOL     OW40628   2.431   4.999   6.751
13535SOL    HW140629   2.338   4.992   6.714
13535SOL    HW240630   2.442   5.088   6.795
13536SOL     OW40631   3.417   5.235   6.289
13536SOL    HW140632   3.360   5.219   6.370
13536SOL    HW240633   3.358   5.245   6.209
13537SOL     OW40634   2.997   4.427   6.303
13537SOL    HW140635   3.054   4.505   6.278
13537SOL    HW240636   2.937   4.453   6.379
13538SOL     OW40637   3.617   4.331   5.817
13538SOL    HW140638   3.605   4.318   5.718
13538SOL    HW240639   3.587   4.250   5.866
13539SOL     OW40640   2.630   4.868   6.609
13539SOL    HW140641   2.552   4.885   6.669
13539SOL    HW240642   2.664   4.955   6.573
13540SOL     OW40643   2.712   4.522   7.409
13540SOL    HW140644   2.708   4.598   7.474
13540SOL    HW240645   2.734   4.558   7.318
13541SOL     OW40646   2.547   4.736   6.251
13541SOL    HW140647   2.616   4.720   6.321
13541SOL    HW240648   2.474   4.793   6.289
13542SOL     OW40649   2.548   4.885   7.389
13542SOL    HW140650   2.608   4.964   7.403
13542SOL    HW240651   2.462   4.916   7.348
13543SOL     OW40652   2.197   5.159   6.647
13543SOL    HW140653   2.119   5.128   6.594
13543SOL    HW240654   2.255   5.217   6.590
13544SOL     OW40655   3.322   5.229   6.925
13544SOL    HW140656   3.346   5.323   6.951
13544SOL    HW240657   3.306   5.175   7.007
13545SOL     OW40658   2.300   4.116   7.085
13545SOL    HW140659   2.382   4.060   7.094
13545SOL    HW240660   2.219   4.058   7.089
13546SOL     OW40661   3.465   4.171   6.323
13546SOL    HW140662   3.391   4.217   6.273
13546SOL    HW240663   3.516   4.239   6.376
13547SOL     OW40664   2.093   5.437   6.069
13547SOL    HW140665   2.127   5.514   6.123
13547SOL    HW240666   2.137   5.437   5.979
13548SOL     OW40667   2.989   5.065   7.276
13548SOL    HW140668   3.036   5.065   7.364
13548SOL    HW240669   2.941   4.978   7.265
13549SOL     OW40670   2.092   5.158   6.124
13549SOL    HW140671   2.066   5.254   6.124
13549SOL    HW240672   2.021   5.104   6.169
13550SOL     OW40673   2.102   4.815   6.472
13550SOL    HW140674   2.116   4.731   6.524
13550SOL    HW240675   2.047   4.879   6.527
13551SOL     OW40676   2.482   5.510   7.025
13551SOL    HW140677   2.390   5.493   7.060
13551SOL    HW240678   2.510   5.602   7.051
13552SOL     OW40679   2.468   4.688   5.709
13552SOL    HW140680   2.475   4.772   5.655
13552SOL    HW240681   2.514   4.701   5.797
13553SOL     OW40682   3.456   3.838   7.066
13553SOL    HW140683   3.438   3.905   6.994
13553SOL    HW240684   3.453   3.884   7.155
13554SOL     OW40685   1.984   4.367   6.149
13554SOL    HW140686   1.939   4.279   6.166
13554SOL    HW240687   1.983   4.421   6.233
13555SOL     OW40688   3.704   5.491   5.945
13555SOL    HW140689   3.758   5.462   6.025
13555SOL    HW240690   3.734   5.581   5.916
13556SOL     OW40691   1.889   5.320   5.703
13556SOL    HW140692   1.870   5.224   5.724
13556SOL    HW240693   1.856   5.378   5.778
13557SOL     OW40694   3.551   4.646   6.198
13557SOL    HW140695   3.646   4.617   6.206
13557SOL    HW240696   3.543   4.711   6.123
13558SOL     OW40697   3.503   4.832   6.018
13558SOL    HW140698   3.589   4.834   5.966
13558SOL    HW240699   3.517   4.879   6.106
13559SOL     OW40700   1.975   4.461   7.183
13559SOL    HW140701   2.063   4.448   7.228
13559SOL    HW240702   1.962   4.558   7.161
13560SOL     OW40703   2.475   5.089   6.312
13560SOL    HW140704   2.426   5.002   6.321
13560SOL    HW240705   2.452   5.132   6.225
13561SOL     OW40706   3.155   4.952   7.009
13561SOL    HW140707   3.192   4.879   6.951
13561SOL    HW240708   3.207   4.957   7.094
13562SOL     OW40709   2.671   3.728   6.088
13562SOL    HW140710   2.711   3.819   6.079
13562SOL    HW240711   2.571   3.736   6.094
13563SOL     OW40712   2.059   4.700   6.850
13563SOL    HW140713   2.148   4.655   6.836
13563SOL    HW240714   1.986   4.635   6.831
13564SOL     OW40715   3.387   4.723   5.776
13564SOL    HW140716   3.324   4.647   5.789
13564SOL    HW240717   3.435   4.741   5.862
13565SOL     OW40718   3.049   5.516   7.202
13565SOL    HW140719   3.073   5.576   7.126
13565SOL    HW240720   3.056   5.421   7.172
13566SOL     OW40721   2.179   3.975   7.387
13566SOL    HW140722   2.250   4.046   7.393
13566SOL    HW240723   2.091   4.014   7.415
13567SOL     OW40724   3.328   5.141   6.539
13567SOL    HW140725   3.269   5.147   6.619
13567SOL    HW240726   3.313   5.053   6.493
13568SOL     OW40727   3.529   5.438   6.158
13568SOL    HW140728   3.488   5.415   6.070
13568SOL    HW240729   3.511   5.364   6.223
13569SOL     OW40730   2.460   4.453   5.856
13569SOL    HW140731   2.484   4.522   5.788
13569SOL    HW240732   2.382   4.486   5.910
13570SOL     OW40733   3.143   4.069   6.530
13570SOL    HW140734   3.057   4.019   6.517
13570SOL    HW240735   3.205   4.015   6.586
13571SOL     OW40736   3.438   5.386   5.893
13571SOL    HW140737   3.527   5.432   5.896
13571SOL    HW240738   3.417   5.362   5.798
13572SOL     OW40739   2.669   4.329   7.051
13572SOL    HW140740   2.622   4.326   7.140
13572SOL    HW240741   2.618   4.274   6.985
13573SOL     OW40742   3.256   4.193   7.260
13573SOL    HW140743   3.236   4.236   7.348
13573SOL    HW240744   3.334   4.131   7.269
13574SOL     OW40745   2.835   4.614   7.158
13574SOL    HW140746   2.881   4.530   7.129
13574SOL    HW240747   2.779   4.648   7.083
13575SOL     OW40748   2.853   4.134   6.828
13575SOL    HW140749   2.776   4.168   6.882
13575SOL    HW240750   2.819   4.083   6.749
13576SOL     OW40751   2.903   4.425   6.015
13576SOL    HW140752   2.929   4.421   6.111
13576SOL    HW240753   2.818   4.374   6.001
13577SOL     OW40754   1.938   4.535   6.375
13577SOL    HW140755   2.037   4.523   6.384
13577SOL    HW240756   1.914   4.630   6.396
13578SOL     OW40757   1.992   5.545   7.157
13578SOL    HW140758   1.982   5.530   7.256
13578SOL    HW240759   1.906   5.581   7.121
13579SOL     OW40760   2.727   4.072   5.781
13579SOL    HW140761   2.786   4.135   5.732
13579SOL    HW240762   2.746   3.978   5.752
13580SOL     OW40763   3.581   4.309   7.417
13580SOL    HW140764   3.555   4.398   7.381
13580SOL    HW240765   3.579   4.241   7.344
13581SOL     OW40766   3.224   4.868   6.131
13581SOL    HW140767   3.307   4.839   6.083
13581SOL    HW240768   3.175   4.935   6.075
13582SOL     OW40769   2.412   3.920   6.471
13582SOL    HW140770   2.407   3.915   6.571
13582SOL    HW240771   2.414   4.016   6.442
13583SOL     OW40772   2.870   5.180   6.063
13583SOL    HW140773   2.824   5.252   6.011
13583SOL    HW240774   2.866   5.200   6.161
13584SOL     OW40775   2.213   5.525   6.439
13584SOL    HW140776   2.263   5.439   6.445
13584SOL    HW240777   2.278   5.602   6.436
13585SOL     OW40778   3.657   4.790   6.459
13585SOL    HW140779   3.595   4.775   6.383
13585SOL    HW240780   3.605   4.801   6.544
13586SOL     OW40781   3.089   5.274   7.092
13586SOL    HW140782   3.095   5.197   7.156
13586SOL    HW240783   3.037   5.248   7.012
13587SOL     OW40784   2.183   4.667   5.828
13587SOL    HW140785   2.265   4.706   5.786
13587SOL    HW240786   2.156   4.585   5.779
13588SOL     OW40787   3.320   4.459   6.314
13588SOL    HW140788   3.315   4.394   6.389
13588SOL    HW240789   3.400   4.518   6.327
13589SOL     OW40790   2.323   4.990   7.313
13589SOL    HW140791   2.273   4.991   7.227
13589SOL    HW240792   2.260   4.972   7.389
13590SOL     OW40793   2.973   5.500   5.823
13590SOL    HW140794   2.913   5.438   5.873
13590SOL    HW240795   3.004   5.456   5.738
13591SOL     OW40796   2.064   4.009   7.084
13591SOL    HW140797   1.984   4.069   7.071
13591SOL    HW240798   2.054   3.960   7.170
13592SOL     OW40799   3.494   5.101   5.667
13592SOL    HW140800   3.462   5.195   5.657
13592SOL    HW240801   3.418   5.038   5.655
13593SOL     OW40802   2.326   5.467   5.909
13593SOL    HW140803   2.359   5.506   5.995
13593SOL    HW240804   2.402   5.460   5.844
13594SOL     OW40805   3.262   3.831   6.012
13594SOL    HW140806   3.238   3.794   5.922
13594SOL    HW240807   3.361   3.847   6.016
13595SOL     OW40808   2.802   5.422   6.490
13595SOL    HW140809   2.882   5.365   6.511
13595SOL    HW240810   2.753   5.382   6.413
13596SOL     OW40811   2.244   4.424   6.066
13596SOL    HW140812   2.289   4.334   6.063
13596SOL    HW240813   2.150   4.413   6.099
13597SOL     OW40814   3.409   3.946   7.315
13597SOL    HW140815   3.404   3.983   7.407
13597SOL    HW240816   3.337   3.877   7.303
13598SOL     OW40817   2.476   3.846   5.703
13598SOL    HW140818   2.574   3.824   5.710
13598SOL    HW240819   2.445   3.829   5.610
13599SOL     OW40820   2.643   3.988   7.335
13599SOL    HW140821   2.710   3.927   7.378
13599SOL    HW240822   2.570   4.007   7.400
13600SOL     OW40823   2.750   5.238   6.781
13600SOL    HW140824   2.727   5.213   6.687
13600SOL    HW240825   2.811   5.169   6.820
13601SOL     OW40826   3.213   4.314   7.019
13601SOL    HW140827   3.241   4.271   7.104
13601SOL    HW240828   3.238   4.410   7.020
13602SOL     OW40829   2.665   5.126   6.510
13602SOL    HW140830   2.755   5.140   6.468
13602SOL    HW240831   2.594   5.128   6.439
13603SOL     OW40832   2.784   4.227   6.485
13603SOL    HW140833   2.759   4.218   6.389
13603SOL    HW240834   2.832   4.145   6.516
13604SOL     OW40835   2.401   3.788   6.098
13604SOL    HW140836   2.320   3.789   6.156
13604SOL    HW240837   2.404   3.871   6.043
13605SOL     OW40838   3.296   4.912   5.627
13605SOL    HW140839   3.328   4.836   5.684
13605SOL    HW240840   3.204   4.939   5.657
13606SOL     OW40841   2.159   3.759   5.757
13606SOL    HW140842   2.208   3.843   5.736
13606SOL    HW240843   2.221   3.694   5.802
13607SOL     OW40844   2.797   3.960   6.066
13607SOL    HW140845   2.749   4.001   5.988
13607SOL    HW240846   2.896   3.958   6.047
13608SOL     OW40847   2.938   4.407   7.050
13608SOL    HW140848   2.858   4.346   7.053
13608SOL    HW240849   3.019   4.354   7.026
13609SOL     OW40850   3.089   5.294   6.379
13609SOL    HW140851   3.110   5.368   6.314
13609SOL    HW240852   3.157   5.294   6.452
13610SOL     OW40853   2.321   4.876   6.327
13610SOL    HW140854   2.250   4.849   6.392
13610SOL    HW240855   2.295   4.848   6.234
13611SOL     OW40856   3.133   5.521   6.177
13611SOL    HW140857   3.177   5.585   6.113
13611SOL    HW240858   3.083   5.573   6.247
13612SOL     OW40859   2.894   4.273   5.602
13612SOL    HW140860   2.853   4.355   5.563
13612SOL    HW240861   2.958   4.299   5.675
13613SOL     OW40862   1.940   4.280   6.972
13613SOL    HW140863   2.032   4.279   6.931
13613SOL    HW240864   1.934   4.354   7.039
13614SOL     OW40865   2.423   3.946   6.733
13614SOL    HW140866   2.461   3.862   6.770
13614SOL    HW240867   2.335   3.965   6.777
13615SOL     OW40868   2.728   4.178   6.228
13615SOL    HW140869   2.696   4.250   6.166
13615SOL    HW240870   2.752   4.097   6.175
13616SOL     OW40871   2.879   3.763   6.339
13616SOL    HW140872   2.807   3.768   6.270
13616SOL    HW240873   2.855   3.694   6.408
13617SOL     OW40874   3.291   4.897   6.453
13617SOL    HW140875   3.236   4.813   6.446
13617SOL    HW240876   3.317   4.926   6.361
13618SOL     OW40877   3.328   4.314   6.578
13618SOL    HW140878   3.298   4.219   6.585
13618SOL    HW240879   3.401   4.330   6.644
13619SOL     OW40880   3.719   4.557   5.963
13619SOL    HW140881   3.761   4.493   6.027
13619SOL    HW240882   3.681   4.506   5.885
13620SOL     OW40883   2.350   5.109   5.760
13620SOL    HW140884   2.263   5.094   5.807
13620SOL    HW240885   2.333   5.135   5.665
13621SOL     OW40886   3.526   5.004   6.243
13621SOL    HW140887   3.625   5.012   6.257
13621SOL    HW240888   3.481   5.088   6.274
13622SOL     OW40889   3.252   4.299   5.664
13622SOL    HW140890   3.198   4.278   5.745
13622SOL    HW240891   3.343   4.258   5.673
13623SOL     OW40892   2.389   3.980   5.914
13623SOL    HW140893   2.416   3.921   5.839
13623SOL    HW240894   2.389   4.075   5.883
13624SOL     OW40895   3.616   4.947   7.174
13624SOL    HW140896   3.707   4.908   7.161
13624SOL    HW240897   3.624   5.043   7.198
13625SOL     OW40898   2.926   5.071   6.926
13625SOL    HW140899   2.846   5.048   6.981
13625SOL    HW240900   3.009   5.045   6.975
13626SOL     OW40901   3.454   5.353   7.211
13626SOL    HW140902   3.481   5.387   7.121
13626SOL    HW240903   3.533   5.315   7.257
13627SOL     OW40904   2.973   4.919   6.686
13627SOL    HW140905   2.933   4.963   6.767
13627SOL    HW240906   2.932   4.956   6.603
13628SOL     OW40907   3.500   4.823   6.665
13628SOL    HW140908   3.505   4.904   6.724
13628SOL    HW240909   3.414   4.825   6.614
13629SOL     OW40910   2.777   3.813   6.988
13629SOL    HW140911   2.802   3.793   6.893
13629SOL    HW240912   2.849   3.869   7.030
13630SOL     OW40913   2.842   4.840   7.305
13630SOL    HW140914   2.743   4.846   7.315
13630SOL    HW240915   2.865   4.760   7.249
13631SOL     OW40916   2.567   4.774   5.954
13631SOL    HW140917   2.553   4.781   6.053
13631SOL    HW240918   2.651   4.723   5.936
13632SOL     OW40919   2.272   4.537   6.837
13632SOL    HW140920   2.358   4.549   6.887
13632SOL    HW240921   2.230   4.450   6.864
13633SOL     OW40922   3.136   4.110   6.848
13633SOL    HW140923   3.157   4.184   6.912
13633SOL    HW240924   3.047   4.127   6.805
13634SOL     OW40925   1.926   5.288   6.917
13634SOL    HW140926   1.880   5.370   6.883
13634SOL    HW240927   2.024   5.307   6.926
13635SOL     OW40928   2.229   4.824   6.087
13635SOL    HW140929   2.222   4.907   6.031
13635SOL    HW240930   2.233   4.744   6.027
13636SOL     OW40931   2.428   4.261   6.451
13636SOL    HW140932   2.440   4.327   6.377
13636SOL    HW240933   2.474   4.295   6.534
13637SOL     OW40934   3.114   5.072   5.974
13637SOL    HW140935   3.164   5.149   6.014
13637SOL    HW240936   3.019   5.074   6.006
13638SOL     OW40937   3.134   5.169   6.728
13638SOL    HW140938   3.181   5.182   6.815
13638SOL    HW240939   3.068   5.095   6.737
13639SOL     OW40940   3.444   4.363   6.058
13639SOL    HW140941   3.413   4.424   6.131
13639SOL    HW240942   3.494   4.415   5.989
13640SOL     OW40943   2.216   5.234   6.915
13640SOL    HW140944   2.195   5.190   6.828
13640SOL    HW240945   2.313   5.260   6.918
13641SOL     OW40946   2.264   4.475   7.184
13641SOL    HW140947   2.332   4.530   7.137
13641SOL    HW240948   2.304   4.387   7.211
13642SOL     OW40949   3.449   4.503   7.256
13642SOL    HW140950   3.357   4.541   7.251
13642SOL    HW240951   3.509   4.550   7.191
13643SOL     OW40952   2.875   3.829   7.356
13643SOL    HW140953   2.881   3.914   7.304
13643SOL    HW240954   2.907   3.753   7.299
13644SOL     OW40955   2.366   3.774   7.326
13644SOL    HW140956   2.324   3.717   7.256
13644SOL    HW240957   2.300   3.843   7.358
13645SOL     OW40958   2.435   4.594   6.615
13645SOL    HW140959   2.479   4.683   6.606
13645SOL    HW240960   2.372   4.594   6.692
13646SOL     OW40961   3.222   4.586   6.631
13646SOL    HW140962   3.147   4.586   6.565
13646SOL    HW240963   3.259   4.494   6.640
13647SOL     OW40964   3.071   4.249   5.861
13647SOL    HW140965   3.084   4.165   5.915
13647SOL    HW240966   3.042   4.323   5.921
13648SOL     OW40967   2.169   3.937   6.817
13648SOL    HW140968   2.146   3.974   6.907
13648SOL    HW240969   2.139   3.842   6.811
13649SOL     OW40970   1.899   5.034   6.868
13649SOL    HW140971   1.952   4.985   6.936
13649SOL    HW240972   1.921   5.132   6.873
13650SOL     OW40973   2.594   4.358   6.650
13650SOL    HW140974   2.653   4.332   6.574
13650SOL    HW240975   2.566   4.454   6.639
13651SOL     OW40976   3.590   4.659   7.440
13651SOL    HW140977   3.544   4.652   7.351
13651SOL    HW240978   3.528   4.703   7.506
13652SOL     OW40979   2.169   3.787   6.204
13652SOL    HW140980   2.158   3.881   6.237
13652SOL    HW240981   2.164   3.724   6.281
13653SOL     OW40982   3.484   4.091   5.960
13653SOL    HW140983   3.486   4.015   6.024
13653SOL    HW240984   3.436   4.168   6.000
13654SOL     OW40985   2.885   4.490   6.552
13654SOL    HW140986   2.900   4.511   6.648
13654SOL    HW240987   2.855   4.395   6.543
13655SOL     OW40988   2.842   5.297   7.286
13655SOL    HW140989   2.822   5.341   7.198
13655SOL    HW240990   2.881   5.206   7.270
13656SOL     OW40991   3.721   5.242   7.191
13656SOL    HW140992   3.735   5.269   7.096
13656SOL    HW240993   3.804   5.264   7.244
13657SOL     OW40994   2.212   4.622   7.390
13657SOL    HW140995   2.288   4.666   7.438
13657SOL    HW240996   2.247   4.575   7.308
13658SOL     OW40997   3.402   3.998   5.711
13658SOL    HW140998   3.341   3.923   5.734
13658SOL    HW240999   3.424   4.050   5.794
13659SOL     OW41000   3.165   4.562   5.628
13659SOL    HW141001   3.199   4.469   5.643
13659SOL    HW241002   3.183   4.589   5.533
13660SOL     OW41003   2.930   5.057   6.435
13660SOL    HW141004   2.937   4.973   6.380
13660SOL    HW241005   2.992   5.126   6.399
13661SOL     OW41006   2.181   4.534   6.535
13661SOL    HW141007   2.274   4.570   6.540
13661SOL    HW241008   2.175   4.449   6.587
13662SOL     OW41009   2.201   4.233   6.592
13662SOL    HW141010   2.149   4.150   6.575
13662SOL    HW241011   2.278   4.238   6.528
13663SOL     OW41012   3.000   4.104   7.264
13663SOL    HW141013   2.955   4.167   7.328
13663SOL    HW241014   3.093   4.135   7.247
13664SOL     OW41015   3.022   3.931   7.063
13664SOL    HW141016   3.022   3.995   7.140
13664SOL    HW241017   3.050   3.979   6.980
13665SOL     OW41018   1.870   5.050   5.786
13665SOL    HW141019   1.777   5.071   5.755
13665SOL    HW241020   1.880   4.951   5.799
13666SOL     OW41021   1.950   5.525   6.513
13666SOL    HW141022   1.908   5.439   6.486
13666SOL    HW241023   2.044   5.528   6.479
13667SOL     OW41024   2.366   5.292   6.496
13667SOL    HW141025   2.432   5.366   6.505
13667SOL    HW241026   2.410   5.213   6.454
13668SOL     OW41027   2.864   4.520   6.824
13668SOL    HW141028   2.905   4.488   6.910
13668SOL    HW241029   2.768   4.493   6.821
13669SOL     OW41030   1.902   4.268   6.700
13669SOL    HW141031   1.987   4.235   6.659
13669SOL    HW241032   1.915   4.283   6.798
13670SOL     OW41033   2.051   4.244   7.308
13670SOL    HW141034   2.110   4.204   7.238
13670SOL    HW241035   1.993   4.315   7.267
13671SOL     OW41036   3.231   4.674   7.246
13671SOL    HW141037   3.270   4.763   7.266
13671SOL    HW241038   3.241   4.654   7.149
13672SOL     OW41039   2.677   4.296   5.911
13672SOL    HW141040   2.684   4.207   5.865
13672SOL    HW241041   2.583   4.330   5.903
13673SOL     OW41042   3.519   4.328   6.792
13673SOL    HW141043   3.481   4.259   6.854
13673SOL    HW241044   3.601   4.292   6.748
13674SOL     OW41045   2.114   5.288   7.330
13674SOL    HW141046   2.084   5.345   7.406
13674SOL    HW241047   2.107   5.191   7.356
13675SOL     OW41048   2.533   4.188   6.855
13675SOL    HW141049   2.499   4.099   6.825
13675SOL    HW241050   2.559   4.242   6.775
13676SOL     OW41051   2.792   5.402   7.051
13676SOL    HW141052   2.768   5.384   6.956
13676SOL    HW241053   2.822   5.496   7.061
13677SOL     OW41054   2.335   4.224   5.777
13677SOL    HW141055   2.396   4.304   5.781
13677SOL    HW241056   2.240   4.255   5.784
13678SOL     OW41057   2.021   4.861   7.052
13678SOL    HW141058   2.043   4.800   7.128
13678SOL    HW241059   2.031   4.812   6.966
13679SOL     OW41060   3.209   4.783   6.820
13679SOL    HW141061   3.233   4.720   6.746
13679SOL    HW241062   3.119   4.823   6.802
13680SOL     OW41063   3.164   4.579   5.895
13680SOL    HW141064   3.078   4.548   5.937
13680SOL    HW241065   3.160   4.565   5.796
13681SOL     OW41066   3.621   5.471   6.740
13681SOL    HW141067   3.682   5.501   6.667
13681SOL    HW241068   3.583   5.382   6.718
13682SOL     OW41069   3.114   5.455   6.714
13682SOL    HW141070   3.198   5.460   6.660
13682SOL    HW241071   3.091   5.359   6.732
13683SOL     OW41072   1.945   4.982   6.608
13683SOL    HW141073   1.940   4.981   6.708
13683SOL    HW241074   1.862   4.941   6.570
13684SOL     OW41075   2.550   5.386   7.302
13684SOL    HW141076   2.494   5.467   7.311
13684SOL    HW241077   2.602   5.390   7.216
13685SOL     OW41078   3.588   3.859   6.109
13685SOL    HW141079   3.661   3.842   6.042
13685SOL    HW241080   3.557   3.772   6.147
13686SOL     OW41081   3.250   5.297   6.063
13686SOL    HW141082   3.317   5.309   5.989
13686SOL    HW241083   3.210   5.386   6.086
13687SOL     OW41084   1.992   5.518   7.437
13687SOL    HW141085   1.951   5.444   7.490
13687SOL    HW241086   2.056   5.569   7.495
13688SOL     OW41087   3.142   4.651   6.258
13688SOL    HW141088   3.202   4.570   6.260
13688SOL    HW241089   3.182   4.720   6.198
13689SOL     OW41090   2.692   4.997   7.008
13689SOL    HW141091   2.687   5.030   7.103
13689SOL    HW241092   2.606   5.016   6.962
13690SOL     OW41093   2.534   5.340   5.740
13690SOL    HW141094   2.543   5.350   5.641
13690SOL    HW241095   2.494   5.251   5.761
13691SOL     OW41096   3.512   5.444   6.980
13691SOL    HW141097   3.565   5.454   6.896
13691SOL    HW241098   3.485   5.534   7.014
13692SOL     OW41099   3.703   3.899   6.549
13692SOL    HW141100   3.742   3.814   6.513
13692SOL    HW241101   3.605   3.901   6.530
13693SOL     OW41102   2.125   4.050   6.306
13693SOL    HW141103   2.046   4.101   6.272
13693SOL    HW241104   2.116   4.035   6.404
13694SOL     OW41105   3.056   5.336   5.617
13694SOL    HW141106   3.062   5.243   5.654
13694SOL    HW241107   2.997   5.336   5.537
13695SOL     OW41108   2.684   4.726   6.958
13695SOL    HW141109   2.724   4.725   6.866
13695SOL    HW241110   2.694   4.818   6.998
13696SOL     OW41111   2.778   4.634   5.877
13696SOL    HW141112   2.841   4.672   5.809
13696SOL    HW241113   2.818   4.551   5.916
13697SOL     OW41114   3.366   5.331   5.630
13697SOL    HW141115   3.274   5.368   5.637
13697SOL    HW241116   3.404   5.351   5.540
13698SOL     OW41117   2.234   5.012   7.076
13698SOL    HW141118   2.221   5.105   7.042
13698SOL    HW241119   2.150   4.960   7.063
13699SOL     OW41120   3.476   5.016   6.875
13699SOL    HW141121   3.536   5.019   6.955
13699SOL    HW241122   3.401   5.080   6.888
13700SOL     OW41123   2.901   4.822   6.282
13700SOL    HW141124   2.831   4.775   6.336
13700SOL    HW241125   2.960   4.754   6.239
13701SOL     OW41126   2.876   3.960   6.557
13701SOL    HW141127   2.868   3.924   6.464
13701SOL    HW241128   2.874   3.884   6.622
13702SOL     OW41129   2.452   5.211   6.077
13702SOL    HW141130   2.494   5.153   6.007
13702SOL    HW241131   2.408   5.290   6.033
13703SOL     OW41132   3.571   4.109   6.967
13703SOL    HW141133   3.644   4.178   6.971
13703SOL    HW241134   3.599   4.034   6.908
13704SOL     OW41135   2.117   5.072   5.876
13704SOL    HW141136   2.021   5.073   5.849
13704SOL    HW241137   2.129   5.125   5.960
13705SOL     OW41138   1.967   4.737   7.312
13705SOL    HW141139   1.890   4.704   7.366
13705SOL    HW241140   2.052   4.707   7.354
13706SOL     OW41141   2.534   3.927   7.075
13706SOL    HW141142   2.624   3.911   7.035
13706SOL    HW241143   2.542   3.932   7.174
13707SOL     OW41144   1.937   4.069   5.619
13707SOL    HW141145   1.845   4.041   5.590
13707SOL    HW241146   1.968   4.146   5.563
13708SOL     OW41147   3.302   4.580   6.984
13708SOL    HW141148   3.245   4.632   6.921
13708SOL    HW241149   3.398   4.592   6.960
13709SOL     OW41150   1.934   3.890   5.904
13709SOL    HW141151   1.917   3.973   5.850
13709SOL    HW241152   2.024   3.853   5.882
13710SOL     OW41153   3.045   5.059   5.705
13710SOL    HW141154   2.946   5.048   5.707
13710SOL    HW241155   3.079   5.074   5.798
13711SOL     OW41156   2.475   4.566   7.017
13711SOL    HW141157   2.531   4.647   7.000
13711SOL    HW241158   2.534   4.486   7.020
13712SOL     OW41159   3.355   5.491   6.545
13712SOL    HW141160   3.388   5.555   6.476
13712SOL    HW241161   3.421   5.485   6.620
13713SOL     OW41162   2.578   4.289   7.294
13713SOL    HW141163   2.597   4.354   7.368
13713SOL    HW241164   2.638   4.209   7.303
13714SOL     OW41165   3.312   4.944   7.219
13714SOL    HW141166   3.303   4.934   7.318
13714SOL    HW241167   3.408   4.937   7.193
13715SOL     OW41168   2.252   5.465   7.146
13715SOL    HW141169   2.161   5.506   7.144
13715SOL    HW241170   2.245   5.371   7.178
13716SOL     OW41171   3.536   4.607   6.840
13716SOL    HW141172   3.509   4.518   6.803
13716SOL    HW241173   3.537   4.675   6.767
13717SOL     OW41174   3.087   4.049   6.035
13717SOL    HW141175   3.152   3.975   6.024
13717SOL    HW241176   3.107   4.099   6.119
13718SOL     OW41177   2.456   4.469   6.238
13718SOL    HW141178   2.506   4.554   6.219
13718SOL    HW241179   2.368   4.471   6.190
13719SOL     OW41180   3.639   4.066   7.228
13719SOL    HW141181   3.622   4.097   7.134
13719SOL    HW241182   3.555   4.029   7.266
13720SOL     OW41183   3.592   4.658   7.103
13720SOL    HW141184   3.630   4.749   7.118
13720SOL    HW241185   3.584   4.641   7.004
13721SOL     OW41186   2.721   5.098   5.602
13721SOL    HW141187   2.675   5.113   5.690
13721SOL    HW241188   2.765   5.183   5.572
13722SOL     OW41189   2.523   5.514   6.539
13722SOL    HW141190   2.477   5.602   6.526
13722SOL    HW241191   2.622   5.526   6.532
13723SOL     OW41192   2.721   4.680   6.447
13723SOL    HW141193   2.775   4.611   6.495
13723SOL    HW241194   2.689   4.749   6.513
13724SOL     OW41195   2.945   4.708   5.673
13724SOL    HW141196   2.922   4.761   5.591
13724SOL    HW241197   3.026   4.652   5.654
13725SOL     OW41198   3.723   5.293   6.437
13725SOL    HW141199   3.652   5.281   6.367
13725SOL    HW241200   3.724   5.214   6.497
13726SOL     OW41201   2.083   5.038   7.430
13726SOL    HW141202   2.018   4.965   7.409
13726SOL    HW241203   2.087   5.052   7.528
13727SOL     OW41204   1.941   4.964   6.239
13727SOL    HW141205   1.940   4.917   6.327
13727SOL    HW241206   2.023   4.936   6.188
13728SOL     OW41207   2.534   5.115   7.210
13728SOL    HW141208   2.456   5.065   7.248
13728SOL    HW241209   2.531   5.210   7.241
13729SOL     OW41210   3.686   3.916   6.813
13729SOL    HW141211   3.682   3.826   6.857
13729SOL    HW241212   3.689   3.905   6.714
13730SOL     OW41213   2.290   4.148   6.106
13730SOL    HW141214   2.320   4.076   6.044
13730SOL    HW241215   2.251   4.108   6.189
13731SOL     OW41216   3.567   5.211   6.690
13731SOL    HW141217   3.474   5.186   6.663
13731SOL    HW241218   3.593   5.161   6.772
13732SOL     OW41219   2.179   4.271   6.866
13732SOL    HW141220   2.217   4.212   6.938
13732SOL    HW241221   2.219   4.245   6.778
13733SOL     OW41222   2.674   5.310   6.273
13733SOL    HW141223   2.706   5.320   6.179
13733SOL    HW241224   2.595   5.248   6.275
13734SOL     OW41225   3.286   3.938   6.698
13734SOL    HW141226   3.338   3.873   6.753
13734SOL    HW241227   3.237   4.001   6.759
13735SOL     OW41228   2.863   3.758   6.740
13735SOL    HW141229   2.800   3.686   6.709
13735SOL    HW241230   2.956   3.722   6.740
13736SOL     OW41231   2.632   5.054   5.887
13736SOL    HW141232   2.586   4.967   5.904
13736SOL    HW241233   2.723   5.051   5.928
13737SOL     OW41234   2.480   5.291   6.870
13737SOL    HW141235   2.475   5.373   6.927
13737SOL    HW241236   2.569   5.288   6.825
13738SOL     OW41237   3.214   3.776   5.754
13738SOL    HW141238   3.249   3.735   5.670
13738SOL    HW241239   3.124   3.738   5.774
13739SOL     OW41240   3.162   4.177   6.277
13739SOL    HW141241   3.103   4.257   6.281
13739SOL    HW241242   3.177   4.142   6.370
13740SOL     OW41243   3.455   3.945   6.468
13740SOL    HW141244   3.371   3.944   6.522
13740SOL    HW241245   3.457   4.028   6.412
13741SOL     OW41246   1.901   4.801   5.886
13741SOL    HW141247   2.000   4.790   5.877
13741SOL    HW241248   1.861   4.715   5.918
13742SOL     OW41249   2.737   5.370   5.923
13742SOL    HW141250   2.660   5.335   5.869
13742SOL    HW241251   2.705   5.441   5.985
13743SOL     OW41252   2.092   4.352   7.561
13743SOL    HW141253   1.999   4.350   7.598
13743SOL    HW241254   2.093   4.313   7.469
13744SOL     OW41255   2.087   3.999   8.444
13744SOL    HW141256   2.122   3.982   8.536
13744SOL    HW241257   1.999   3.954   8.432
13745SOL     OW41258   1.881   4.092   8.095
13745SOL    HW141259   1.799   4.135   8.134
13745SOL    HW241260   1.853   4.019   8.032
13746SOL     OW41261   2.431   4.999   8.613
13746SOL    HW141262   2.338   4.992   8.576
13746SOL    HW241263   2.442   5.088   8.657
13747SOL     OW41264   3.417   5.235   8.151
13747SOL    HW141265   3.360   5.219   8.232
13747SOL    HW241266   3.358   5.245   8.071
13748SOL     OW41267   2.997   4.427   8.165
13748SOL    HW141268   3.054   4.505   8.140
13748SOL    HW241269   2.937   4.453   8.241
13749SOL     OW41270   3.617   4.331   7.679
13749SOL    HW141271   3.605   4.318   7.580
13749SOL    HW241272   3.587   4.250   7.728
13750SOL     OW41273   2.630   4.868   8.471
13750SOL    HW141274   2.552   4.885   8.531
13750SOL    HW241275   2.664   4.955   8.435
13751SOL     OW41276   2.712   4.522   9.271
13751SOL    HW141277   2.708   4.598   9.336
13751SOL    HW241278   2.734   4.558   9.180
13752SOL     OW41279   2.547   4.736   8.113
13752SOL    HW141280   2.616   4.720   8.183
13752SOL    HW241281   2.474   4.793   8.151
13753SOL     OW41282   2.548   4.885   9.251
13753SOL    HW141283   2.608   4.964   9.265
13753SOL    HW241284   2.462   4.916   9.210
13754SOL     OW41285   2.197   5.159   8.509
13754SOL    HW141286   2.119   5.128   8.456
13754SOL    HW241287   2.255   5.217   8.452
13755SOL     OW41288   3.322   5.229   8.787
13755SOL    HW141289   3.346   5.323   8.813
13755SOL    HW241290   3.306   5.175   8.869
13756SOL     OW41291   2.300   4.116   8.947
13756SOL    HW141292   2.382   4.060   8.956
13756SOL    HW241293   2.219   4.058   8.951
13757SOL     OW41294   3.465   4.171   8.185
13757SOL    HW141295   3.391   4.217   8.135
13757SOL    HW241296   3.516   4.239   8.238
13758SOL     OW41297   2.093   5.437   7.931
13758SOL    HW141298   2.127   5.514   7.985
13758SOL    HW241299   2.137   5.437   7.841
13759SOL     OW41300   2.989   5.065   9.138
13759SOL    HW141301   3.036   5.065   9.226
13759SOL    HW241302   2.941   4.978   9.127
13760SOL     OW41303   2.092   5.158   7.986
13760SOL    HW141304   2.066   5.254   7.986
13760SOL    HW241305   2.021   5.104   8.031
13761SOL     OW41306   2.102   4.815   8.334
13761SOL    HW141307   2.116   4.731   8.386
13761SOL    HW241308   2.047   4.879   8.389
13762SOL     OW41309   2.482   5.510   8.887
13762SOL    HW141310   2.390   5.493   8.922
13762SOL    HW241311   2.510   5.602   8.913
13763SOL     OW41312   2.468   4.688   7.571
13763SOL    HW141313   2.475   4.772   7.517
13763SOL    HW241314   2.514   4.701   7.659
13764SOL     OW41315   3.456   3.838   8.928
13764SOL    HW141316   3.438   3.905   8.856
13764SOL    HW241317   3.453   3.884   9.017
13765SOL     OW41318   1.984   4.367   8.011
13765SOL    HW141319   1.939   4.279   8.028
13765SOL    HW241320   1.983   4.421   8.095
13766SOL     OW41321   3.704   5.491   7.807
13766SOL    HW141322   3.758   5.462   7.887
13766SOL    HW241323   3.734   5.581   7.778
13767SOL     OW41324   1.889   5.320   7.565
13767SOL    HW141325   1.870   5.224   7.586
13767SOL    HW241326   1.856   5.378   7.640
13768SOL     OW41327   3.551   4.646   8.060
13768SOL    HW141328   3.646   4.617   8.068
13768SOL    HW241329   3.543   4.711   7.985
13769SOL     OW41330   3.503   4.832   7.880
13769SOL    HW141331   3.589   4.834   7.828
13769SOL    HW241332   3.517   4.879   7.968
13770SOL     OW41333   1.975   4.461   9.045
13770SOL    HW141334   2.063   4.448   9.090
13770SOL    HW241335   1.962   4.558   9.023
13771SOL     OW41336   2.475   5.089   8.174
13771SOL    HW141337   2.426   5.002   8.183
13771SOL    HW241338   2.452   5.132   8.087
13772SOL     OW41339   3.155   4.952   8.871
13772SOL    HW141340   3.192   4.879   8.813
13772SOL    HW241341   3.207   4.957   8.956
13773SOL     OW41342   2.671   3.728   7.950
13773SOL    HW141343   2.711   3.819   7.941
13773SOL    HW241344   2.571   3.736   7.956
13774SOL     OW41345   2.059   4.700   8.712
13774SOL    HW141346   2.148   4.655   8.698
13774SOL    HW241347   1.986   4.635   8.693
13775SOL     OW41348   3.387   4.723   7.638
13775SOL    HW141349   3.324   4.647   7.651
13775SOL    HW241350   3.435   4.741   7.724
13776SOL     OW41351   3.049   5.516   9.064
13776SOL    HW141352   3.073   5.576   8.988
13776SOL    HW241353   3.056   5.421   9.034
13777SOL     OW41354   2.179   3.975   9.249
13777SOL    HW141355   2.250   4.046   9.255
13777SOL    HW241356   2.091   4.014   9.277
13778SOL     OW41357   3.328   5.141   8.401
13778SOL    HW141358   3.269   5.147   8.481
13778SOL    HW241359   3.313   5.053   8.355
13779SOL     OW41360   3.529   5.438   8.020
13779SOL    HW141361   3.488   5.415   7.932
13779SOL    HW241362   3.511   5.364   8.085
13780SOL     OW41363   2.460   4.453   7.718
13780SOL    HW141364   2.484   4.522   7.650
13780SOL    HW241365   2.382   4.486   7.772
13781SOL     OW41366   3.143   4.069   8.392
13781SOL    HW141367   3.057   4.019   8.379
13781SOL    HW241368   3.205   4.015   8.448
13782SOL     OW41369   3.438   5.386   7.755
13782SOL    HW141370   3.527   5.432   7.758
13782SOL    HW241371   3.417   5.362   7.660
13783SOL     OW41372   2.669   4.329   8.913
13783SOL    HW141373   2.622   4.326   9.002
13783SOL    HW241374   2.618   4.274   8.847
13784SOL     OW41375   3.256   4.193   9.122
13784SOL    HW141376   3.236   4.236   9.210
13784SOL    HW241377   3.334   4.131   9.131
13785SOL     OW41378   2.835   4.614   9.020
13785SOL    HW141379   2.881   4.530   8.991
13785SOL    HW241380   2.779   4.648   8.945
13786SOL     OW41381   2.853   4.134   8.690
13786SOL    HW141382   2.776   4.168   8.744
13786SOL    HW241383   2.819   4.083   8.611
13787SOL     OW41384   2.903   4.425   7.877
13787SOL    HW141385   2.929   4.421   7.973
13787SOL    HW241386   2.818   4.374   7.863
13788SOL     OW41387   1.938   4.535   8.237
13788SOL    HW141388   2.037   4.523   8.246
13788SOL    HW241389   1.914   4.630   8.258
13789SOL     OW41390   1.992   5.545   9.019
13789SOL    HW141391   1.982   5.530   9.118
13789SOL    HW241392   1.906   5.581   8.983
13790SOL     OW41393   2.727   4.072   7.643
13790SOL    HW141394   2.786   4.135   7.594
13790SOL    HW241395   2.746   3.978   7.614
13791SOL     OW41396   3.581   4.309   9.279
13791SOL    HW141397   3.555   4.398   9.243
13791SOL    HW241398   3.579   4.241   9.206
13792SOL     OW41399   3.224   4.868   7.993
13792SOL    HW141400   3.307   4.839   7.945
13792SOL    HW241401   3.175   4.935   7.937
13793SOL     OW41402   2.412   3.920   8.333
13793SOL    HW141403   2.407   3.915   8.433
13793SOL    HW241404   2.414   4.016   8.304
13794SOL     OW41405   2.870   5.180   7.925
13794SOL    HW141406   2.824   5.252   7.873
13794SOL    HW241407   2.866   5.200   8.023
13795SOL     OW41408   2.213   5.525   8.301
13795SOL    HW141409   2.263   5.439   8.307
13795SOL    HW241410   2.278   5.602   8.298
13796SOL     OW41411   3.657   4.790   8.321
13796SOL    HW141412   3.595   4.775   8.245
13796SOL    HW241413   3.605   4.801   8.406
13797SOL     OW41414   3.089   5.274   8.954
13797SOL    HW141415   3.095   5.197   9.018
13797SOL    HW241416   3.037   5.248   8.874
13798SOL     OW41417   2.183   4.667   7.690
13798SOL    HW141418   2.265   4.706   7.648
13798SOL    HW241419   2.156   4.585   7.641
13799SOL     OW41420   3.320   4.459   8.176
13799SOL    HW141421   3.315   4.394   8.251
13799SOL    HW241422   3.400   4.518   8.189
13800SOL     OW41423   2.323   4.990   9.175
13800SOL    HW141424   2.273   4.991   9.089
13800SOL    HW241425   2.260   4.972   9.251
13801SOL     OW41426   2.973   5.500   7.685
13801SOL    HW141427   2.913   5.438   7.735
13801SOL    HW241428   3.004   5.456   7.600
13802SOL     OW41429   2.064   4.009   8.946
13802SOL    HW141430   1.984   4.069   8.933
13802SOL    HW241431   2.054   3.960   9.032
13803SOL     OW41432   3.494   5.101   7.529
13803SOL    HW141433   3.462   5.195   7.519
13803SOL    HW241434   3.418   5.038   7.517
13804SOL     OW41435   2.326   5.467   7.771
13804SOL    HW141436   2.359   5.506   7.857
13804SOL    HW241437   2.402   5.460   7.706
13805SOL     OW41438   3.262   3.831   7.874
13805SOL    HW141439   3.238   3.794   7.784
13805SOL    HW241440   3.361   3.847   7.878
13806SOL     OW41441   2.111   5.509   8.689
13806SOL    HW141442   2.168   5.444   8.739
13806SOL    HW241443   2.095   5.476   8.596
13807SOL     OW41444   2.802   5.422   8.352
13807SOL    HW141445   2.882   5.365   8.373
13807SOL    HW241446   2.753   5.382   8.275
13808SOL     OW41447   2.244   4.424   7.928
13808SOL    HW141448   2.289   4.334   7.925
13808SOL    HW241449   2.150   4.413   7.961
13809SOL     OW41450   3.409   3.946   9.177
13809SOL    HW141451   3.404   3.983   9.269
13809SOL    HW241452   3.337   3.877   9.165
13810SOL     OW41453   2.476   3.846   7.565
13810SOL    HW141454   2.574   3.824   7.572
13810SOL    HW241455   2.445   3.829   7.472
13811SOL     OW41456   2.643   3.988   9.197
13811SOL    HW141457   2.710   3.927   9.240
13811SOL    HW241458   2.570   4.007   9.262
13812SOL     OW41459   2.750   5.238   8.643
13812SOL    HW141460   2.727   5.213   8.549
13812SOL    HW241461   2.811   5.169   8.682
13813SOL     OW41462   3.213   4.314   8.881
13813SOL    HW141463   3.241   4.271   8.966
13813SOL    HW241464   3.238   4.410   8.882
13814SOL     OW41465   2.665   5.126   8.372
13814SOL    HW141466   2.755   5.140   8.330
13814SOL    HW241467   2.594   5.128   8.301
13815SOL     OW41468   2.784   4.227   8.347
13815SOL    HW141469   2.759   4.218   8.251
13815SOL    HW241470   2.832   4.145   8.378
13816SOL     OW41471   2.401   3.788   7.960
13816SOL    HW141472   2.320   3.789   8.018
13816SOL    HW241473   2.404   3.871   7.905
13817SOL     OW41474   3.296   4.912   7.489
13817SOL    HW141475   3.328   4.836   7.546
13817SOL    HW241476   3.204   4.939   7.519
13818SOL     OW41477   2.159   3.759   7.619
13818SOL    HW141478   2.208   3.843   7.598
13818SOL    HW241479   2.221   3.694   7.664
13819SOL     OW41480   2.797   3.960   7.928
13819SOL    HW141481   2.749   4.001   7.850
13819SOL    HW241482   2.896   3.958   7.909
13820SOL     OW41483   2.938   4.407   8.912
13820SOL    HW141484   2.858   4.346   8.915
13820SOL    HW241485   3.019   4.354   8.888
13821SOL     OW41486   3.089   5.294   8.241
13821SOL    HW141487   3.110   5.368   8.176
13821SOL    HW241488   3.157   5.294   8.314
13822SOL     OW41489   2.321   4.876   8.189
13822SOL    HW141490   2.250   4.849   8.254
13822SOL    HW241491   2.295   4.848   8.096
13823SOL     OW41492   3.133   5.521   8.039
13823SOL    HW141493   3.177   5.585   7.975
13823SOL    HW241494   3.083   5.573   8.109
13824SOL     OW41495   2.894   4.273   7.464
13824SOL    HW141496   2.853   4.355   7.425
13824SOL    HW241497   2.958   4.299   7.537
13825SOL     OW41498   1.940   4.280   8.834
13825SOL    HW141499   2.032   4.279   8.793
13825SOL    HW241500   1.934   4.354   8.901
13826SOL     OW41501   2.423   3.946   8.595
13826SOL    HW141502   2.461   3.862   8.632
13826SOL    HW241503   2.335   3.965   8.639
13827SOL     OW41504   2.728   4.178   8.090
13827SOL    HW141505   2.696   4.250   8.028
13827SOL    HW241506   2.752   4.097   8.037
13828SOL     OW41507   2.879   3.763   8.201
13828SOL    HW141508   2.807   3.768   8.132
13828SOL    HW241509   2.855   3.694   8.270
13829SOL     OW41510   3.291   4.897   8.315
13829SOL    HW141511   3.236   4.813   8.308
13829SOL    HW241512   3.317   4.926   8.223
13830SOL     OW41513   3.328   4.314   8.440
13830SOL    HW141514   3.298   4.219   8.447
13830SOL    HW241515   3.401   4.330   8.506
13831SOL     OW41516   3.719   4.557   7.825
13831SOL    HW141517   3.761   4.493   7.889
13831SOL    HW241518   3.681   4.506   7.747
13832SOL     OW41519   2.350   5.109   7.622
13832SOL    HW141520   2.263   5.094   7.669
13832SOL    HW241521   2.333   5.135   7.527
13833SOL     OW41522   3.526   5.004   8.105
13833SOL    HW141523   3.625   5.012   8.119
13833SOL    HW241524   3.481   5.088   8.136
13834SOL     OW41525   3.252   4.299   7.526
13834SOL    HW141526   3.198   4.278   7.607
13834SOL    HW241527   3.343   4.258   7.535
13835SOL     OW41528   2.389   3.980   7.776
13835SOL    HW141529   2.416   3.921   7.701
13835SOL    HW241530   2.389   4.075   7.745
13836SOL     OW41531   3.616   4.947   9.036
13836SOL    HW141532   3.707   4.908   9.023
13836SOL    HW241533   3.624   5.043   9.060
13837SOL     OW41534   2.926   5.071   8.788
13837SOL    HW141535   2.846   5.048   8.843
13837SOL    HW241536   3.009   5.045   8.837
13838SOL     OW41537   3.454   5.353   9.073
13838SOL    HW141538   3.481   5.387   8.983
13838SOL    HW241539   3.533   5.315   9.119
13839SOL     OW41540   2.973   4.919   8.548
13839SOL    HW141541   2.933   4.963   8.629
13839SOL    HW241542   2.932   4.956   8.465
13840SOL     OW41543   3.500   4.823   8.527
13840SOL    HW141544   3.505   4.904   8.586
13840SOL    HW241545   3.414   4.825   8.476
13841SOL     OW41546   2.777   3.813   8.850
13841SOL    HW141547   2.802   3.793   8.755
13841SOL    HW241548   2.849   3.869   8.892
13842SOL     OW41549   2.842   4.840   9.167
13842SOL    HW141550   2.743   4.846   9.177
13842SOL    HW241551   2.865   4.760   9.111
13843SOL     OW41552   2.567   4.774   7.816
13843SOL    HW141553   2.553   4.781   7.915
13843SOL    HW241554   2.651   4.723   7.798
13844SOL     OW41555   2.272   4.537   8.699
13844SOL    HW141556   2.358   4.549   8.749
13844SOL    HW241557   2.230   4.450   8.726
13845SOL     OW41558   3.136   4.110   8.710
13845SOL    HW141559   3.157   4.184   8.774
13845SOL    HW241560   3.047   4.127   8.667
13846SOL     OW41561   1.926   5.288   8.779
13846SOL    HW141562   1.880   5.370   8.745
13846SOL    HW241563   2.024   5.307   8.788
13847SOL     OW41564   2.229   4.824   7.949
13847SOL    HW141565   2.222   4.907   7.893
13847SOL    HW241566   2.233   4.744   7.889
13848SOL     OW41567   2.428   4.261   8.313
13848SOL    HW141568   2.440   4.327   8.239
13848SOL    HW241569   2.474   4.295   8.396
13849SOL     OW41570   3.114   5.072   7.836
13849SOL    HW141571   3.164   5.149   7.876
13849SOL    HW241572   3.019   5.074   7.868
13850SOL     OW41573   3.134   5.169   8.590
13850SOL    HW141574   3.181   5.182   8.677
13850SOL    HW241575   3.068   5.095   8.599
13851SOL     OW41576   3.444   4.363   7.920
13851SOL    HW141577   3.413   4.424   7.993
13851SOL    HW241578   3.494   4.415   7.851
13852SOL     OW41579   2.216   5.234   8.777
13852SOL    HW141580   2.195   5.190   8.690
13852SOL    HW241581   2.313   5.260   8.780
13853SOL     OW41582   2.264   4.475   9.046
13853SOL    HW141583   2.332   4.530   8.999
13853SOL    HW241584   2.304   4.387   9.073
13854SOL     OW41585   3.449   4.503   9.118
13854SOL    HW141586   3.357   4.541   9.113
13854SOL    HW241587   3.509   4.550   9.053
13855SOL     OW41588   2.875   3.829   9.218
13855SOL    HW141589   2.881   3.914   9.166
13855SOL    HW241590   2.907   3.753   9.161
13856SOL     OW41591   2.366   3.774   9.188
13856SOL    HW141592   2.324   3.717   9.118
13856SOL    HW241593   2.300   3.843   9.220
13857SOL     OW41594   2.435   4.594   8.477
13857SOL    HW141595   2.479   4.683   8.468
13857SOL    HW241596   2.372   4.594   8.554
13858SOL     OW41597   3.222   4.586   8.493
13858SOL    HW141598   3.147   4.586   8.427
13858SOL    HW241599   3.259   4.494   8.502
13859SOL     OW41600   3.071   4.249   7.723
13859SOL    HW141601   3.084   4.165   7.777
13859SOL    HW241602   3.042   4.323   7.783
13860SOL     OW41603   2.169   3.937   8.679
13860SOL    HW141604   2.146   3.974   8.769
13860SOL    HW241605   2.139   3.842   8.673
13861SOL     OW41606   1.899   5.034   8.730
13861SOL    HW141607   1.952   4.985   8.798
13861SOL    HW241608   1.921   5.132   8.735
13862SOL     OW41609   2.594   4.358   8.512
13862SOL    HW141610   2.653   4.332   8.436
13862SOL    HW241611   2.566   4.454   8.501
13863SOL     OW41612   2.169   3.787   8.066
13863SOL    HW141613   2.158   3.881   8.099
13863SOL    HW241614   2.164   3.724   8.143
13864SOL     OW41615   3.484   4.091   7.822
13864SOL    HW141616   3.486   4.015   7.886
13864SOL    HW241617   3.436   4.168   7.862
13865SOL     OW41618   2.885   4.490   8.414
13865SOL    HW141619   2.900   4.511   8.510
13865SOL    HW241620   2.855   4.395   8.405
13866SOL     OW41621   2.842   5.297   9.148
13866SOL    HW141622   2.822   5.341   9.060
13866SOL    HW241623   2.881   5.206   9.132
13867SOL     OW41624   3.721   5.242   9.053
13867SOL    HW141625   3.735   5.269   8.958
13867SOL    HW241626   3.804   5.264   9.106
13868SOL     OW41627   2.212   4.622   9.252
13868SOL    HW141628   2.288   4.666   9.300
13868SOL    HW241629   2.247   4.575   9.170
13869SOL     OW41630   3.402   3.998   7.573
13869SOL    HW141631   3.341   3.923   7.596
13869SOL    HW241632   3.424   4.050   7.656
13870SOL     OW41633   3.165   4.562   7.490
13870SOL    HW141634   3.199   4.469   7.505
13870SOL    HW241635   3.183   4.589   7.395
13871SOL     OW41636   2.930   5.057   8.297
13871SOL    HW141637   2.937   4.973   8.242
13871SOL    HW241638   2.992   5.126   8.261
13872SOL     OW41639   2.181   4.534   8.397
13872SOL    HW141640   2.274   4.570   8.402
13872SOL    HW241641   2.175   4.449   8.449
13873SOL     OW41642   2.201   4.233   8.454
13873SOL    HW141643   2.149   4.150   8.437
13873SOL    HW241644   2.278   4.238   8.390
13874SOL     OW41645   3.000   4.104   9.126
13874SOL    HW141646   2.955   4.167   9.190
13874SOL    HW241647   3.093   4.135   9.109
13875SOL     OW41648   3.022   3.931   8.925
13875SOL    HW141649   3.022   3.995   9.002
13875SOL    HW241650   3.050   3.979   8.842
13876SOL     OW41651   1.870   5.050   7.648
13876SOL    HW141652   1.777   5.071   7.617
13876SOL    HW241653   1.880   4.951   7.661
13877SOL     OW41654   1.950   5.525   8.375
13877SOL    HW141655   1.908   5.439   8.348
13877SOL    HW241656   2.044   5.528   8.341
13878SOL     OW41657   2.366   5.292   8.358
13878SOL    HW141658   2.432   5.366   8.367
13878SOL    HW241659   2.410   5.213   8.316
13879SOL     OW41660   2.864   4.520   8.686
13879SOL    HW141661   2.905   4.488   8.772
13879SOL    HW241662   2.768   4.493   8.683
13880SOL     OW41663   1.902   4.268   8.562
13880SOL    HW141664   1.987   4.235   8.521
13880SOL    HW241665   1.915   4.283   8.660
13881SOL     OW41666   2.051   4.244   9.170
13881SOL    HW141667   2.110   4.204   9.100
13881SOL    HW241668   1.993   4.315   9.129
13882SOL     OW41669   3.231   4.674   9.108
13882SOL    HW141670   3.270   4.763   9.128
13882SOL    HW241671   3.241   4.654   9.011
13883SOL     OW41672   2.677   4.296   7.773
13883SOL    HW141673   2.684   4.207   7.727
13883SOL    HW241674   2.583   4.330   7.765
13884SOL     OW41675   3.519   4.328   8.654
13884SOL    HW141676   3.481   4.259   8.716
13884SOL    HW241677   3.601   4.292   8.610
13885SOL     OW41678   2.114   5.288   9.192
13885SOL    HW141679   2.084   5.345   9.268
13885SOL    HW241680   2.107   5.191   9.218
13886SOL     OW41681   2.533   4.188   8.717
13886SOL    HW141682   2.499   4.099   8.687
13886SOL    HW241683   2.559   4.242   8.637
13887SOL     OW41684   2.792   5.402   8.913
13887SOL    HW141685   2.768   5.384   8.818
13887SOL    HW241686   2.822   5.496   8.923
13888SOL     OW41687   2.335   4.224   7.639
13888SOL    HW141688   2.396   4.304   7.643
13888SOL    HW241689   2.240   4.255   7.646
13889SOL     OW41690   2.021   4.861   8.914
13889SOL    HW141691   2.043   4.800   8.990
13889SOL    HW241692   2.031   4.812   8.828
13890SOL     OW41693   3.209   4.783   8.682
13890SOL    HW141694   3.233   4.720   8.608
13890SOL    HW241695   3.119   4.823   8.664
13891SOL     OW41696   3.164   4.579   7.757
13891SOL    HW141697   3.078   4.548   7.799
13891SOL    HW241698   3.160   4.565   7.658
13892SOL     OW41699   3.621   5.471   8.602
13892SOL    HW141700   3.682   5.501   8.529
13892SOL    HW241701   3.583   5.382   8.580
13893SOL     OW41702   3.114   5.455   8.576
13893SOL    HW141703   3.198   5.460   8.522
13893SOL    HW241704   3.091   5.359   8.594
13894SOL     OW41705   1.945   4.982   8.470
13894SOL    HW141706   1.940   4.981   8.570
13894SOL    HW241707   1.862   4.941   8.432
13895SOL     OW41708   2.550   5.386   9.164
13895SOL    HW141709   2.494   5.467   9.173
13895SOL    HW241710   2.602   5.390   9.078
13896SOL     OW41711   3.588   3.859   7.971
13896SOL    HW141712   3.661   3.842   7.904
13896SOL    HW241713   3.557   3.772   8.009
13897SOL     OW41714   3.250   5.297   7.925
13897SOL    HW141715   3.317   5.309   7.851
13897SOL    HW241716   3.210   5.386   7.948
13898SOL     OW41717   1.992   5.518   9.299
13898SOL    HW141718   1.951   5.444   9.352
13898SOL    HW241719   2.056   5.569   9.357
13899SOL     OW41720   3.142   4.651   8.120
13899SOL    HW141721   3.202   4.570   8.122
13899SOL    HW241722   3.182   4.720   8.060
13900SOL     OW41723   2.692   4.997   8.870
13900SOL    HW141724   2.687   5.030   8.965
13900SOL    HW241725   2.606   5.016   8.824
13901SOL     OW41726   2.534   5.340   7.602
13901SOL    HW141727   2.543   5.350   7.503
13901SOL    HW241728   2.494   5.251   7.623
13902SOL     OW41729   3.512   5.444   8.842
13902SOL    HW141730   3.565   5.454   8.758
13902SOL    HW241731   3.485   5.534   8.876
13903SOL     OW41732   3.703   3.899   8.411
13903SOL    HW141733   3.742   3.814   8.375
13903SOL    HW241734   3.605   3.901   8.392
13904SOL     OW41735   2.125   4.050   8.168
13904SOL    HW141736   2.046   4.101   8.134
13904SOL    HW241737   2.116   4.035   8.266
13905SOL     OW41738   3.056   5.336   7.479
13905SOL    HW141739   3.062   5.243   7.516
13905SOL    HW241740   2.997   5.336   7.399
13906SOL     OW41741   2.684   4.726   8.820
13906SOL    HW141742   2.724   4.725   8.728
13906SOL    HW241743   2.694   4.818   8.860
13907SOL     OW41744   2.778   4.634   7.739
13907SOL    HW141745   2.841   4.672   7.671
13907SOL    HW241746   2.818   4.551   7.778
13908SOL     OW41747   3.366   5.331   7.492
13908SOL    HW141748   3.274   5.368   7.499
13908SOL    HW241749   3.404   5.351   7.402
13909SOL     OW41750   2.234   5.012   8.938
13909SOL    HW141751   2.221   5.105   8.904
13909SOL    HW241752   2.150   4.960   8.925
13910SOL     OW41753   3.476   5.016   8.737
13910SOL    HW141754   3.536   5.019   8.817
13910SOL    HW241755   3.401   5.080   8.750
13911SOL     OW41756   2.901   4.822   8.144
13911SOL    HW141757   2.831   4.775   8.198
13911SOL    HW241758   2.960   4.754   8.101
13912SOL     OW41759   2.876   3.960   8.419
13912SOL    HW141760   2.868   3.924   8.326
13912SOL    HW241761   2.874   3.884   8.484
13913SOL     OW41762   2.452   5.211   7.939
13913SOL    HW141763   2.494   5.153   7.869
13913SOL    HW241764   2.408   5.290   7.895
13914SOL     OW41765   3.571   4.109   8.829
13914SOL    HW141766   3.644   4.178   8.833
13914SOL    HW241767   3.599   4.034   8.770
13915SOL     OW41768   2.117   5.072   7.738
13915SOL    HW141769   2.021   5.073   7.711
13915SOL    HW241770   2.129   5.125   7.822
13916SOL     OW41771   1.967   4.737   9.174
13916SOL    HW141772   1.890   4.704   9.228
13916SOL    HW241773   2.052   4.707   9.216
13917SOL     OW41774   2.534   3.927   8.937
13917SOL    HW141775   2.624   3.911   8.897
13917SOL    HW241776   2.542   3.932   9.036
13918SOL     OW41777   1.937   4.069   7.481
13918SOL    HW141778   1.845   4.041   7.452
13918SOL    HW241779   1.968   4.146   7.425
13919SOL     OW41780   3.302   4.580   8.846
13919SOL    HW141781   3.245   4.632   8.783
13919SOL    HW241782   3.398   4.592   8.822
13920SOL     OW41783   1.934   3.890   7.766
13920SOL    HW141784   1.917   3.973   7.712
13920SOL    HW241785   2.024   3.853   7.744
13921SOL     OW41786   3.045   5.059   7.567
13921SOL    HW141787   2.946   5.048   7.569
13921SOL    HW241788   3.079   5.074   7.660
13922SOL     OW41789   2.475   4.566   8.879
13922SOL    HW141790   2.531   4.647   8.862
13922SOL    HW241791   2.534   4.486   8.882
13923SOL     OW41792   3.355   5.491   8.407
13923SOL    HW141793   3.388   5.555   8.338
13923SOL    HW241794   3.421   5.485   8.482
13924SOL     OW41795   2.578   4.289   9.156
13924SOL    HW141796   2.597   4.354   9.230
13924SOL    HW241797   2.638   4.209   9.165
13925SOL     OW41798   3.312   4.944   9.081
13925SOL    HW141799   3.303   4.934   9.180
13925SOL    HW241800   3.408   4.937   9.055
13926SOL     OW41801   2.252   5.465   9.008
13926SOL    HW141802   2.161   5.506   9.006
13926SOL    HW241803   2.245   5.371   9.040
13927SOL     OW41804   3.536   4.607   8.702
13927SOL    HW141805   3.509   4.518   8.665
13927SOL    HW241806   3.537   4.675   8.629
13928SOL     OW41807   3.087   4.049   7.897
13928SOL    HW141808   3.152   3.975   7.886
13928SOL    HW241809   3.107   4.099   7.981
13929SOL     OW41810   2.456   4.469   8.100
13929SOL    HW141811   2.506   4.554   8.081
13929SOL    HW241812   2.368   4.471   8.052
13930SOL     OW41813   3.639   4.066   9.090
13930SOL    HW141814   3.622   4.097   8.996
13930SOL    HW241815   3.555   4.029   9.128
13931SOL     OW41816   3.592   4.658   8.965
13931SOL    HW141817   3.630   4.749   8.980
13931SOL    HW241818   3.584   4.641   8.866
13932SOL     OW41819   2.721   5.098   7.464
13932SOL    HW141820   2.675   5.113   7.552
13932SOL    HW241821   2.765   5.183   7.434
13933SOL     OW41822   2.523   5.514   8.401
13933SOL    HW141823   2.477   5.602   8.388
13933SOL    HW241824   2.622   5.526   8.394
13934SOL     OW41825   2.721   4.680   8.309
13934SOL    HW141826   2.775   4.611   8.357
13934SOL    HW241827   2.689   4.749   8.375
13935SOL     OW41828   2.945   4.708   7.535
13935SOL    HW141829   2.922   4.761   7.453
13935SOL    HW241830   3.026   4.652   7.516
13936SOL     OW41831   3.723   5.293   8.299
13936SOL    HW141832   3.652   5.281   8.229
13936SOL    HW241833   3.724   5.214   8.359
13937SOL     OW41834   1.941   4.964   8.101
13937SOL    HW141835   1.940   4.917   8.189
13937SOL    HW241836   2.023   4.936   8.050
13938SOL     OW41837   2.534   5.115   9.072
13938SOL    HW141838   2.456   5.065   9.110
13938SOL    HW241839   2.531   5.210   9.103
13939SOL     OW41840   3.686   3.916   8.675
13939SOL    HW141841   3.682   3.826   8.719
13939SOL    HW241842   3.689   3.905   8.576
13940SOL     OW41843   2.290   4.148   7.968
13940SOL    HW141844   2.320   4.076   7.906
13940SOL    HW241845   2.251   4.108   8.051
13941SOL     OW41846   3.567   5.211   8.552
13941SOL    HW141847   3.474   5.186   8.525
13941SOL    HW241848   3.593   5.161   8.634
13942SOL     OW41849   2.179   4.271   8.728
13942SOL    HW141850   2.217   4.212   8.800
13942SOL    HW241851   2.219   4.245   8.640
13943SOL     OW41852   2.674   5.310   8.135
13943SOL    HW141853   2.706   5.320   8.041
13943SOL    HW241854   2.595   5.248   8.137
13944SOL     OW41855   3.286   3.938   8.560
13944SOL    HW141856   3.338   3.873   8.615
13944SOL    HW241857   3.237   4.001   8.621
13945SOL     OW41858   2.863   3.758   8.602
13945SOL    HW141859   2.800   3.686   8.571
13945SOL    HW241860   2.956   3.722   8.602
13946SOL     OW41861   2.632   5.054   7.749
13946SOL    HW141862   2.586   4.967   7.766
13946SOL    HW241863   2.723   5.051   7.790
13947SOL     OW41864   2.480   5.291   8.732
13947SOL    HW141865   2.475   5.373   8.789
13947SOL    HW241866   2.569   5.288   8.687
13948SOL     OW41867   3.214   3.776   7.616
13948SOL    HW141868   3.249   3.735   7.532
13948SOL    HW241869   3.124   3.738   7.636
13949SOL     OW41870   3.162   4.177   8.139
13949SOL    HW141871   3.103   4.257   8.143
13949SOL    HW241872   3.177   4.142   8.232
13950SOL     OW41873   3.455   3.945   8.330
13950SOL    HW141874   3.371   3.944   8.384
13950SOL    HW241875   3.457   4.028   8.274
13951SOL     OW41876   1.901   4.801   7.748
13951SOL    HW141877   2.000   4.790   7.739
13951SOL    HW241878   1.861   4.715   7.780
13952SOL     OW41879   2.737   5.370   7.785
13952SOL    HW141880   2.660   5.335   7.731
13952SOL    HW241881   2.705   5.441   7.847
13953SOL     OW41882   2.092   4.352   9.423
13953SOL    HW141883   1.999   4.350   9.460
13953SOL    HW241884   2.093   4.313   9.331
13954SOL     OW41885   2.087   3.999  10.306
13954SOL    HW141886   2.122   3.982  10.398
13954SOL    HW241887   1.999   3.954  10.294
13955SOL     OW41888   1.881   4.092   9.957
13955SOL    HW141889   1.799   4.135   9.996
13955SOL    HW241890   1.853   4.019   9.894
13956SOL     OW41891   2.431   4.999  10.475
13956SOL    HW141892   2.338   4.992  10.438
13956SOL    HW241893   2.442   5.088  10.519
13957SOL     OW41894   3.417   5.235  10.013
13957SOL    HW141895   3.360   5.219  10.094
13957SOL    HW241896   3.358   5.245   9.933
13958SOL     OW41897   2.997   4.427  10.027
13958SOL    HW141898   3.054   4.505  10.002
13958SOL    HW241899   2.937   4.453  10.103
13959SOL     OW41900   3.617   4.331   9.541
13959SOL    HW141901   3.605   4.318   9.442
13959SOL    HW241902   3.587   4.250   9.590
13960SOL     OW41903   2.630   4.868  10.333
13960SOL    HW141904   2.552   4.885  10.393
13960SOL    HW241905   2.664   4.955  10.297
13961SOL     OW41906   2.712   4.522  11.133
13961SOL    HW141907   2.708   4.598  11.198
13961SOL    HW241908   2.734   4.558  11.042
13962SOL     OW41909   2.547   4.736   9.975
13962SOL    HW141910   2.616   4.720  10.045
13962SOL    HW241911   2.474   4.793  10.013
13963SOL     OW41912   2.548   4.885  11.113
13963SOL    HW141913   2.608   4.964  11.127
13963SOL    HW241914   2.462   4.916  11.072
13964SOL     OW41915   2.197   5.159  10.371
13964SOL    HW141916   2.119   5.128  10.318
13964SOL    HW241917   2.255   5.217  10.314
13965SOL     OW41918   3.322   5.229  10.649
13965SOL    HW141919   3.346   5.323  10.675
13965SOL    HW241920   3.306   5.175  10.731
13966SOL     OW41921   2.300   4.116  10.809
13966SOL    HW141922   2.382   4.060  10.818
13966SOL    HW241923   2.219   4.058  10.813
13967SOL     OW41924   3.465   4.171  10.047
13967SOL    HW141925   3.391   4.217   9.997
13967SOL    HW241926   3.516   4.239  10.100
13968SOL     OW41927   2.093   5.437   9.793
13968SOL    HW141928   2.127   5.514   9.847
13968SOL    HW241929   2.137   5.437   9.703
13969SOL     OW41930   2.989   5.065  11.000
13969SOL    HW141931   3.036   5.065  11.088
13969SOL    HW241932   2.941   4.978  10.989
13970SOL     OW41933   2.092   5.158   9.848
13970SOL    HW141934   2.066   5.254   9.848
13970SOL    HW241935   2.021   5.104   9.893
13971SOL     OW41936   2.102   4.815  10.196
13971SOL    HW141937   2.116   4.731  10.248
13971SOL    HW241938   2.047   4.879  10.251
13972SOL     OW41939   2.482   5.510  10.749
13972SOL    HW141940   2.390   5.493  10.784
13972SOL    HW241941   2.510   5.602  10.775
13973SOL     OW41942   2.468   4.688   9.433
13973SOL    HW141943   2.475   4.772   9.379
13973SOL    HW241944   2.514   4.701   9.521
13974SOL     OW41945   3.456   3.838  10.790
13974SOL    HW141946   3.438   3.905  10.718
13974SOL    HW241947   3.453   3.884  10.879
13975SOL     OW41948   1.984   4.367   9.873
13975SOL    HW141949   1.939   4.279   9.890
13975SOL    HW241950   1.983   4.421   9.957
13976SOL     OW41951   3.704   5.491   9.669
13976SOL    HW141952   3.758   5.462   9.749
13976SOL    HW241953   3.734   5.581   9.640
13977SOL     OW41954   1.889   5.320   9.427
13977SOL    HW141955   1.870   5.224   9.448
13977SOL    HW241956   1.856   5.378   9.502
13978SOL     OW41957   3.551   4.646   9.922
13978SOL    HW141958   3.646   4.617   9.930
13978SOL    HW241959   3.543   4.711   9.847
13979SOL     OW41960   3.503   4.832   9.742
13979SOL    HW141961   3.589   4.834   9.690
13979SOL    HW241962   3.517   4.879   9.830
13980SOL     OW41963   1.975   4.461  10.907
13980SOL    HW141964   2.063   4.448  10.952
13980SOL    HW241965   1.962   4.558  10.885
13981SOL     OW41966   2.475   5.089  10.036
13981SOL    HW141967   2.426   5.002  10.045
13981SOL    HW241968   2.452   5.132   9.949
13982SOL     OW41969   3.155   4.952  10.733
13982SOL    HW141970   3.192   4.879  10.675
13982SOL    HW241971   3.207   4.957  10.818
13983SOL     OW41972   2.671   3.728   9.812
13983SOL    HW141973   2.711   3.819   9.803
13983SOL    HW241974   2.571   3.736   9.818
13984SOL     OW41975   2.059   4.700  10.574
13984SOL    HW141976   2.148   4.655  10.560
13984SOL    HW241977   1.986   4.635  10.555
13985SOL     OW41978   3.387   4.723   9.500
13985SOL    HW141979   3.324   4.647   9.513
13985SOL    HW241980   3.435   4.741   9.586
13986SOL     OW41981   3.049   5.516  10.926
13986SOL    HW141982   3.073   5.576  10.850
13986SOL    HW241983   3.056   5.421  10.896
13987SOL     OW41984   2.179   3.975  11.111
13987SOL    HW141985   2.250   4.046  11.117
13987SOL    HW241986   2.091   4.014  11.139
13988SOL     OW41987   3.328   5.141  10.263
13988SOL    HW141988   3.269   5.147  10.343
13988SOL    HW241989   3.313   5.053  10.217
13989SOL     OW41990   3.529   5.438   9.882
13989SOL    HW141991   3.488   5.415   9.794
13989SOL    HW241992   3.511   5.364   9.947
13990SOL     OW41993   2.460   4.453   9.580
13990SOL    HW141994   2.484   4.522   9.512
13990SOL    HW241995   2.382   4.486   9.634
13991SOL     OW41996   3.143   4.069  10.254
13991SOL    HW141997   3.057   4.019  10.241
13991SOL    HW241998   3.205   4.015  10.310
13992SOL     OW41999   3.438   5.386   9.617
13992SOL    HW142000   3.527   5.432   9.620
13992SOL    HW242001   3.417   5.362   9.522
13993SOL     OW42002   2.669   4.329  10.775
13993SOL    HW142003   2.622   4.326  10.864
13993SOL    HW242004   2.618   4.274  10.709
13994SOL     OW42005   3.256   4.193  10.984
13994SOL    HW142006   3.236   4.236  11.072
13994SOL    HW242007   3.334   4.131  10.993
13995SOL     OW42008   2.835   4.614  10.882
13995SOL    HW142009   2.881   4.530  10.853
13995SOL    HW242010   2.779   4.648  10.807
13996SOL     OW42011   2.853   4.134  10.552
13996SOL    HW142012   2.776   4.168  10.606
13996SOL    HW242013   2.819   4.083  10.473
13997SOL     OW42014   2.903   4.425   9.739
13997SOL    HW142015   2.929   4.421   9.835
13997SOL    HW242016   2.818   4.374   9.725
13998SOL     OW42017   1.938   4.535  10.099
13998SOL    HW142018   2.037   4.523  10.108
13998SOL    HW242019   1.914   4.630  10.120
13999SOL     OW42020   1.992   5.545  10.881
13999SOL    HW142021   1.982   5.530  10.980
13999SOL    HW242022   1.906   5.581  10.845
14000SOL     OW42023   2.727   4.072   9.505
14000SOL    HW142024   2.786   4.135   9.456
14000SOL    HW242025   2.746   3.978   9.476
14001SOL     OW42026   3.581   4.309  11.141
14001SOL    HW142027   3.555   4.398  11.105
14001SOL    HW242028   3.579   4.241  11.068
14002SOL     OW42029   3.224   4.868   9.855
14002SOL    HW142030   3.307   4.839   9.807
14002SOL    HW242031   3.175   4.935   9.799
14003SOL     OW42032   2.412   3.920  10.195
14003SOL    HW142033   2.407   3.915  10.295
14003SOL    HW242034   2.414   4.016  10.166
14004SOL     OW42035   2.870   5.180   9.787
14004SOL    HW142036   2.824   5.252   9.735
14004SOL    HW242037   2.866   5.200   9.885
14005SOL     OW42038   2.213   5.525  10.163
14005SOL    HW142039   2.263   5.439  10.169
14005SOL    HW242040   2.278   5.602  10.160
14006SOL     OW42041   3.657   4.790  10.183
14006SOL    HW142042   3.595   4.775  10.107
14006SOL    HW242043   3.605   4.801  10.268
14007SOL     OW42044   3.089   5.274  10.816
14007SOL    HW142045   3.095   5.197  10.880
14007SOL    HW242046   3.037   5.248  10.736
14008SOL     OW42047   2.183   4.667   9.552
14008SOL    HW142048   2.265   4.706   9.510
14008SOL    HW242049   2.156   4.585   9.503
14009SOL     OW42050   3.320   4.459  10.038
14009SOL    HW142051   3.315   4.394  10.113
14009SOL    HW242052   3.400   4.518  10.051
14010SOL     OW42053   2.323   4.990  11.037
14010SOL    HW142054   2.273   4.991  10.951
14010SOL    HW242055   2.260   4.972  11.113
14011SOL     OW42056   2.973   5.500   9.547
14011SOL    HW142057   2.913   5.438   9.597
14011SOL    HW242058   3.004   5.456   9.462
14012SOL     OW42059   2.064   4.009  10.808
14012SOL    HW142060   1.984   4.069  10.795
14012SOL    HW242061   2.054   3.960  10.894
14013SOL     OW42062   3.494   5.101   9.391
14013SOL    HW142063   3.462   5.195   9.381
14013SOL    HW242064   3.418   5.038   9.379
14014SOL     OW42065   2.326   5.467   9.633
14014SOL    HW142066   2.359   5.506   9.719
14014SOL    HW242067   2.402   5.460   9.568
14015SOL     OW42068   3.262   3.831   9.736
14015SOL    HW142069   3.238   3.794   9.646
14015SOL    HW242070   3.361   3.847   9.740
14016SOL     OW42071   2.111   5.509  10.551
14016SOL    HW142072   2.168   5.444  10.601
14016SOL    HW242073   2.095   5.476  10.458
14017SOL     OW42074   2.802   5.422  10.214
14017SOL    HW142075   2.882   5.365  10.235
14017SOL    HW242076   2.753   5.382  10.137
14018SOL     OW42077   2.244   4.424   9.790
14018SOL    HW142078   2.289   4.334   9.787
14018SOL    HW242079   2.150   4.413   9.823
14019SOL     OW42080   3.409   3.946  11.039
14019SOL    HW142081   3.404   3.983  11.131
14019SOL    HW242082   3.337   3.877  11.027
14020SOL     OW42083   2.476   3.846   9.427
14020SOL    HW142084   2.574   3.824   9.434
14020SOL    HW242085   2.445   3.829   9.334
14021SOL     OW42086   2.643   3.988  11.059
14021SOL    HW142087   2.710   3.927  11.102
14021SOL    HW242088   2.570   4.007  11.124
14022SOL     OW42089   2.750   5.238  10.505
14022SOL    HW142090   2.727   5.213  10.411
14022SOL    HW242091   2.811   5.169  10.544
14023SOL     OW42092   3.213   4.314  10.743
14023SOL    HW142093   3.241   4.271  10.828
14023SOL    HW242094   3.238   4.410  10.744
14024SOL     OW42095   2.665   5.126  10.234
14024SOL    HW142096   2.755   5.140  10.192
14024SOL    HW242097   2.594   5.128  10.163
14025SOL     OW42098   2.784   4.227  10.209
14025SOL    HW142099   2.759   4.218  10.113
14025SOL    HW242100   2.832   4.145  10.240
14026SOL     OW42101   2.401   3.788   9.822
14026SOL    HW142102   2.320   3.789   9.880
14026SOL    HW242103   2.404   3.871   9.767
14027SOL     OW42104   3.296   4.912   9.351
14027SOL    HW142105   3.328   4.836   9.408
14027SOL    HW242106   3.204   4.939   9.381
14028SOL     OW42107   2.159   3.759   9.481
14028SOL    HW142108   2.208   3.843   9.460
14028SOL    HW242109   2.221   3.694   9.526
14029SOL     OW42110   2.797   3.960   9.790
14029SOL    HW142111   2.749   4.001   9.712
14029SOL    HW242112   2.896   3.958   9.771
14030SOL     OW42113   2.938   4.407  10.774
14030SOL    HW142114   2.858   4.346  10.777
14030SOL    HW242115   3.019   4.354  10.750
14031SOL     OW42116   3.089   5.294  10.103
14031SOL    HW142117   3.110   5.368  10.038
14031SOL    HW242118   3.157   5.294  10.176
14032SOL     OW42119   2.321   4.876  10.051
14032SOL    HW142120   2.250   4.849  10.116
14032SOL    HW242121   2.295   4.848   9.958
14033SOL     OW42122   3.133   5.521   9.901
14033SOL    HW142123   3.177   5.585   9.837
14033SOL    HW242124   3.083   5.573   9.971
14034SOL     OW42125   2.894   4.273   9.326
14034SOL    HW142126   2.853   4.355   9.287
14034SOL    HW242127   2.958   4.299   9.399
14035SOL     OW42128   2.423   3.946  10.457
14035SOL    HW142129   2.461   3.862  10.494
14035SOL    HW242130   2.335   3.965  10.501
14036SOL     OW42131   2.728   4.178   9.952
14036SOL    HW142132   2.696   4.250   9.890
14036SOL    HW242133   2.752   4.097   9.899
14037SOL     OW42134   2.879   3.763  10.063
14037SOL    HW142135   2.807   3.768   9.994
14037SOL    HW242136   2.855   3.694  10.132
14038SOL     OW42137   3.291   4.897  10.177
14038SOL    HW142138   3.236   4.813  10.170
14038SOL    HW242139   3.317   4.926  10.085
14039SOL     OW42140   3.328   4.314  10.302
14039SOL    HW142141   3.298   4.219  10.309
14039SOL    HW242142   3.401   4.330  10.368
14040SOL     OW42143   3.719   4.557   9.687
14040SOL    HW142144   3.761   4.493   9.751
14040SOL    HW242145   3.681   4.506   9.609
14041SOL     OW42146   2.350   5.109   9.484
14041SOL    HW142147   2.263   5.094   9.531
14041SOL    HW242148   2.333   5.135   9.389
14042SOL     OW42149   3.526   5.004   9.967
14042SOL    HW142150   3.625   5.012   9.981
14042SOL    HW242151   3.481   5.088   9.998
14043SOL     OW42152   3.252   4.299   9.388
14043SOL    HW142153   3.198   4.278   9.469
14043SOL    HW242154   3.343   4.258   9.397
14044SOL     OW42155   2.389   3.980   9.638
14044SOL    HW142156   2.416   3.921   9.563
14044SOL    HW242157   2.389   4.075   9.607
14045SOL     OW42158   3.616   4.947  10.898
14045SOL    HW142159   3.707   4.908  10.885
14045SOL    HW242160   3.624   5.043  10.922
14046SOL     OW42161   2.926   5.071  10.650
14046SOL    HW142162   2.846   5.048  10.705
14046SOL    HW242163   3.009   5.045  10.699
14047SOL     OW42164   3.454   5.353  10.935
14047SOL    HW142165   3.481   5.387  10.845
14047SOL    HW242166   3.533   5.315  10.981
14048SOL     OW42167   2.973   4.919  10.410
14048SOL    HW142168   2.933   4.963  10.491
14048SOL    HW242169   2.932   4.956  10.327
14049SOL     OW42170   3.500   4.823  10.389
14049SOL    HW142171   3.505   4.904  10.448
14049SOL    HW242172   3.414   4.825  10.338
14050SOL     OW42173   2.777   3.813  10.712
14050SOL    HW142174   2.802   3.793  10.617
14050SOL    HW242175   2.849   3.869  10.754
14051SOL     OW42176   2.842   4.840  11.029
14051SOL    HW142177   2.743   4.846  11.039
14051SOL    HW242178   2.865   4.760  10.973
14052SOL     OW42179   2.567   4.774   9.678
14052SOL    HW142180   2.553   4.781   9.777
14052SOL    HW242181   2.651   4.723   9.660
14053SOL     OW42182   2.272   4.537  10.561
14053SOL    HW142183   2.358   4.549  10.611
14053SOL    HW242184   2.230   4.450  10.588
14054SOL     OW42185   3.136   4.110  10.572
14054SOL    HW142186   3.157   4.184  10.636
14054SOL    HW242187   3.047   4.127  10.529
14055SOL     OW42188   1.926   5.288  10.641
14055SOL    HW142189   1.880   5.370  10.607
14055SOL    HW242190   2.024   5.307  10.650
14056SOL     OW42191   2.229   4.824   9.811
14056SOL    HW142192   2.222   4.907   9.755
14056SOL    HW242193   2.233   4.744   9.751
14057SOL     OW42194   2.428   4.261  10.175
14057SOL    HW142195   2.440   4.327  10.101
14057SOL    HW242196   2.474   4.295  10.258
14058SOL     OW42197   3.114   5.072   9.698
14058SOL    HW142198   3.164   5.149   9.738
14058SOL    HW242199   3.019   5.074   9.730
14059SOL     OW42200   3.134   5.169  10.452
14059SOL    HW142201   3.181   5.182  10.539
14059SOL    HW242202   3.068   5.095  10.461
14060SOL     OW42203   3.444   4.363   9.782
14060SOL    HW142204   3.413   4.424   9.855
14060SOL    HW242205   3.494   4.415   9.713
14061SOL     OW42206   2.216   5.234  10.639
14061SOL    HW142207   2.195   5.190  10.552
14061SOL    HW242208   2.313   5.260  10.642
14062SOL     OW42209   2.264   4.475  10.908
14062SOL    HW142210   2.332   4.530  10.861
14062SOL    HW242211   2.304   4.387  10.935
14063SOL     OW42212   3.449   4.503  10.980
14063SOL    HW142213   3.357   4.541  10.975
14063SOL    HW242214   3.509   4.550  10.915
14064SOL     OW42215   2.875   3.829  11.080
14064SOL    HW142216   2.881   3.914  11.028
14064SOL    HW242217   2.907   3.753  11.023
14065SOL     OW42218   2.366   3.774  11.050
14065SOL    HW142219   2.324   3.717  10.980
14065SOL    HW242220   2.300   3.843  11.082
14066SOL     OW42221   2.435   4.594  10.339
14066SOL    HW142222   2.479   4.683  10.330
14066SOL    HW242223   2.372   4.594  10.416
14067SOL     OW42224   3.222   4.586  10.355
14067SOL    HW142225   3.147   4.586  10.289
14067SOL    HW242226   3.259   4.494  10.364
14068SOL     OW42227   3.071   4.249   9.585
14068SOL    HW142228   3.084   4.165   9.639
14068SOL    HW242229   3.042   4.323   9.645
14069SOL     OW42230   2.169   3.937  10.541
14069SOL    HW142231   2.146   3.974  10.631
14069SOL    HW242232   2.139   3.842  10.535
14070SOL     OW42233   1.899   5.034  10.592
14070SOL    HW142234   1.952   4.985  10.660
14070SOL    HW242235   1.921   5.132  10.597
14071SOL     OW42236   2.594   4.358  10.374
14071SOL    HW142237   2.653   4.332  10.298
14071SOL    HW242238   2.566   4.454  10.363
14072SOL     OW42239   3.590   4.659  11.164
14072SOL    HW142240   3.544   4.652  11.075
14072SOL    HW242241   3.528   4.703  11.230
14073SOL     OW42242   2.169   3.787   9.928
14073SOL    HW142243   2.158   3.881   9.961
14073SOL    HW242244   2.164   3.724  10.005
14074SOL     OW42245   3.484   4.091   9.684
14074SOL    HW142246   3.486   4.015   9.748
14074SOL    HW242247   3.436   4.168   9.724
14075SOL     OW42248   2.885   4.490  10.276
14075SOL    HW142249   2.900   4.511  10.372
14075SOL    HW242250   2.855   4.395  10.267
14076SOL     OW42251   2.842   5.297  11.010
14076SOL    HW142252   2.822   5.341  10.922
14076SOL    HW242253   2.881   5.206  10.994
14077SOL     OW42254   3.721   5.242  10.915
14077SOL    HW142255   3.735   5.269  10.820
14077SOL    HW242256   3.804   5.264  10.968
14078SOL     OW42257   2.212   4.622  11.114
14078SOL    HW142258   2.288   4.666  11.162
14078SOL    HW242259   2.247   4.575  11.032
14079SOL     OW42260   3.402   3.998   9.435
14079SOL    HW142261   3.341   3.923   9.458
14079SOL    HW242262   3.424   4.050   9.518
14080SOL     OW42263   3.165   4.562   9.352
14080SOL    HW142264   3.199   4.469   9.367
14080SOL    HW242265   3.183   4.589   9.257
14081SOL     OW42266   2.930   5.057  10.159
14081SOL    HW142267   2.937   4.973  10.104
14081SOL    HW242268   2.992   5.126  10.123
14082SOL     OW42269   2.181   4.534  10.259
14082SOL    HW142270   2.274   4.570  10.264
14082SOL    HW242271   2.175   4.449  10.311
14083SOL     OW42272   2.201   4.233  10.316
14083SOL    HW142273   2.149   4.150  10.299
14083SOL    HW242274   2.278   4.238  10.252
14084SOL     OW42275   3.000   4.104  10.988
14084SOL    HW142276   2.955   4.167  11.052
14084SOL    HW242277   3.093   4.135  10.971
14085SOL     OW42278   3.022   3.931  10.787
14085SOL    HW142279   3.022   3.995  10.864
14085SOL    HW242280   3.050   3.979  10.704
14086SOL     OW42281   1.870   5.050   9.510
14086SOL    HW142282   1.777   5.071   9.479
14086SOL    HW242283   1.880   4.951   9.523
14087SOL     OW42284   1.950   5.525  10.237
14087SOL    HW142285   1.908   5.439  10.210
14087SOL    HW242286   2.044   5.528  10.203
14088SOL     OW42287   2.366   5.292  10.220
14088SOL    HW142288   2.432   5.366  10.229
14088SOL    HW242289   2.410   5.213  10.178
14089SOL     OW42290   2.864   4.520  10.548
14089SOL    HW142291   2.905   4.488  10.634
14089SOL    HW242292   2.768   4.493  10.545
14090SOL     OW42293   1.902   4.268  10.424
14090SOL    HW142294   1.987   4.235  10.383
14090SOL    HW242295   1.915   4.283  10.522
14091SOL     OW42296   2.051   4.244  11.032
14091SOL    HW142297   2.110   4.204  10.962
14091SOL    HW242298   1.993   4.315  10.991
14092SOL     OW42299   3.231   4.674  10.970
14092SOL    HW142300   3.270   4.763  10.990
14092SOL    HW242301   3.241   4.654  10.873
14093SOL     OW42302   2.677   4.296   9.635
14093SOL    HW142303   2.684   4.207   9.589
14093SOL    HW242304   2.583   4.330   9.627
14094SOL     OW42305   3.519   4.328  10.516
14094SOL    HW142306   3.481   4.259  10.578
14094SOL    HW242307   3.601   4.292  10.472
14095SOL     OW42308   2.114   5.288  11.054
14095SOL    HW142309   2.084   5.345  11.130
14095SOL    HW242310   2.107   5.191  11.080
14096SOL     OW42311   2.533   4.188  10.579
14096SOL    HW142312   2.499   4.099  10.549
14096SOL    HW242313   2.559   4.242  10.499
14097SOL     OW42314   2.792   5.402  10.775
14097SOL    HW142315   2.768   5.384  10.680
14097SOL    HW242316   2.822   5.496  10.785
14098SOL     OW42317   2.335   4.224   9.501
14098SOL    HW142318   2.396   4.304   9.505
14098SOL    HW242319   2.240   4.255   9.508
14099SOL     OW42320   2.021   4.861  10.776
14099SOL    HW142321   2.043   4.800  10.852
14099SOL    HW242322   2.031   4.812  10.690
14100SOL     OW42323   3.209   4.783  10.544
14100SOL    HW142324   3.233   4.720  10.470
14100SOL    HW242325   3.119   4.823  10.526
14101SOL     OW42326   3.164   4.579   9.619
14101SOL    HW142327   3.078   4.548   9.661
14101SOL    HW242328   3.160   4.565   9.520
14102SOL     OW42329   3.621   5.471  10.464
14102SOL    HW142330   3.682   5.501  10.391
14102SOL    HW242331   3.583   5.382  10.442
14103SOL     OW42332   3.114   5.455  10.438
14103SOL    HW142333   3.198   5.460  10.384
14103SOL    HW242334   3.091   5.359  10.456
14104SOL     OW42335   1.945   4.982  10.332
14104SOL    HW142336   1.940   4.981  10.432
14104SOL    HW242337   1.862   4.941  10.294
14105SOL     OW42338   2.550   5.386  11.026
14105SOL    HW142339   2.494   5.467  11.035
14105SOL    HW242340   2.602   5.390  10.940
14106SOL     OW42341   3.588   3.859   9.833
14106SOL    HW142342   3.661   3.842   9.766
14106SOL    HW242343   3.557   3.772   9.871
14107SOL     OW42344   3.250   5.297   9.787
14107SOL    HW142345   3.317   5.309   9.713
14107SOL    HW242346   3.210   5.386   9.810
14108SOL     OW42347   1.992   5.518  11.161
14108SOL    HW142348   1.951   5.444  11.214
14108SOL    HW242349   2.056   5.569  11.219
14109SOL     OW42350   3.142   4.651   9.982
14109SOL    HW142351   3.202   4.570   9.984
14109SOL    HW242352   3.182   4.720   9.922
14110SOL     OW42353   2.692   4.997  10.732
14110SOL    HW142354   2.687   5.030  10.827
14110SOL    HW242355   2.606   5.016  10.686
14111SOL     OW42356   2.534   5.340   9.464
14111SOL    HW142357   2.543   5.350   9.365
14111SOL    HW242358   2.494   5.251   9.485
14112SOL     OW42359   3.512   5.444  10.704
14112SOL    HW142360   3.565   5.454  10.620
14112SOL    HW242361   3.485   5.534  10.738
14113SOL     OW42362   3.703   3.899  10.273
14113SOL    HW142363   3.742   3.814  10.237
14113SOL    HW242364   3.605   3.901  10.254
14114SOL     OW42365   2.125   4.050  10.030
14114SOL    HW142366   2.046   4.101   9.996
14114SOL    HW242367   2.116   4.035  10.128
14115SOL     OW42368   3.056   5.336   9.341
14115SOL    HW142369   3.062   5.243   9.378
14115SOL    HW242370   2.997   5.336   9.261
14116SOL     OW42371   2.684   4.726  10.682
14116SOL    HW142372   2.724   4.725  10.590
14116SOL    HW242373   2.694   4.818  10.722
14117SOL     OW42374   2.778   4.634   9.601
14117SOL    HW142375   2.841   4.672   9.533
14117SOL    HW242376   2.818   4.551   9.640
14118SOL     OW42377   3.366   5.331   9.354
14118SOL    HW142378   3.274   5.368   9.361
14118SOL    HW242379   3.404   5.351   9.264
14119SOL     OW42380   2.234   5.012  10.800
14119SOL    HW142381   2.221   5.105  10.766
14119SOL    HW242382   2.150   4.960  10.787
14120SOL     OW42383   3.476   5.016  10.599
14120SOL    HW142384   3.536   5.019  10.679
14120SOL    HW242385   3.401   5.080  10.612
14121SOL     OW42386   2.901   4.822  10.006
14121SOL    HW142387   2.831   4.775  10.060
14121SOL    HW242388   2.960   4.754   9.963
14122SOL     OW42389   2.876   3.960  10.281
14122SOL    HW142390   2.868   3.924  10.188
14122SOL    HW242391   2.874   3.884  10.346
14123SOL     OW42392   2.452   5.211   9.801
14123SOL    HW142393   2.494   5.153   9.731
14123SOL    HW242394   2.408   5.290   9.757
14124SOL     OW42395   3.571   4.109  10.691
14124SOL    HW142396   3.644   4.178  10.695
14124SOL    HW242397   3.599   4.034  10.632
14125SOL     OW42398   2.117   5.072   9.600
14125SOL    HW142399   2.021   5.073   9.573
14125SOL    HW242400   2.129   5.125   9.684
14126SOL     OW42401   1.967   4.737  11.036
14126SOL    HW142402   1.890   4.704  11.090
14126SOL    HW242403   2.052   4.707  11.078
14127SOL     OW42404   2.534   3.927  10.799
14127SOL    HW142405   2.624   3.911  10.759
14127SOL    HW242406   2.542   3.932  10.898
14128SOL     OW42407   1.937   4.069   9.343
14128SOL    HW142408   1.845   4.041   9.314
14128SOL    HW242409   1.968   4.146   9.287
14129SOL     OW42410   3.302   4.580  10.708
14129SOL    HW142411   3.245   4.632  10.645
14129SOL    HW242412   3.398   4.592  10.684
14130SOL     OW42413   1.934   3.890   9.628
14130SOL    HW142414   1.917   3.973   9.574
14130SOL    HW242415   2.024   3.853   9.606
14131SOL     OW42416   3.045   5.059   9.429
14131SOL    HW142417   2.946   5.048   9.431
14131SOL    HW242418   3.079   5.074   9.522
14132SOL     OW42419   2.475   4.566  10.741
14132SOL    HW142420   2.531   4.647  10.724
14132SOL    HW242421   2.534   4.486  10.744
14133SOL     OW42422   3.355   5.491  10.269
14133SOL    HW142423   3.388   5.555  10.200
14133SOL    HW242424   3.421   5.485  10.344
14134SOL     OW42425   2.578   4.289  11.018
14134SOL    HW142426   2.597   4.354  11.092
14134SOL    HW242427   2.638   4.209  11.027
14135SOL     OW42428   3.312   4.944  10.943
14135SOL    HW142429   3.303   4.934  11.042
14135SOL    HW242430   3.408   4.937  10.917
14136SOL     OW42431   2.252   5.465  10.870
14136SOL    HW142432   2.161   5.506  10.868
14136SOL    HW242433   2.245   5.371  10.902
14137SOL     OW42434   3.536   4.607  10.564
14137SOL    HW142435   3.509   4.518  10.527
14137SOL    HW242436   3.537   4.675  10.491
14138SOL     OW42437   3.087   4.049   9.759
14138SOL    HW142438   3.152   3.975   9.748
14138SOL    HW242439   3.107   4.099   9.843
14139SOL     OW42440   2.456   4.469   9.962
14139SOL    HW142441   2.506   4.554   9.943
14139SOL    HW242442   2.368   4.471   9.914
14140SOL     OW42443   3.639   4.066  10.952
14140SOL    HW142444   3.622   4.097  10.858
14140SOL    HW242445   3.555   4.029  10.990
14141SOL     OW42446   3.592   4.658  10.827
14141SOL    HW142447   3.630   4.749  10.842
14141SOL    HW242448   3.584   4.641  10.728
14142SOL     OW42449   2.721   5.098   9.326
14142SOL    HW142450   2.675   5.113   9.414
14142SOL    HW242451   2.765   5.183   9.296
14143SOL     OW42452   2.523   5.514  10.263
14143SOL    HW142453   2.477   5.602  10.250
14143SOL    HW242454   2.622   5.526  10.256
14144SOL     OW42455   2.721   4.680  10.171
14144SOL    HW142456   2.775   4.611  10.219
14144SOL    HW242457   2.689   4.749  10.237
14145SOL     OW42458   2.945   4.708   9.397
14145SOL    HW142459   2.922   4.761   9.315
14145SOL    HW242460   3.026   4.652   9.378
14146SOL     OW42461   3.723   5.293  10.161
14146SOL    HW142462   3.652   5.281  10.091
14146SOL    HW242463   3.724   5.214  10.221
14147SOL     OW42464   2.083   5.038  11.154
14147SOL    HW142465   2.018   4.965  11.133
14147SOL    HW242466   2.087   5.052  11.252
14148SOL     OW42467   1.941   4.964   9.963
14148SOL    HW142468   1.940   4.917  10.051
14148SOL    HW242469   2.023   4.936   9.912
14149SOL     OW42470   3.686   3.916  10.537
14149SOL    HW142471   3.682   3.826  10.581
14149SOL    HW242472   3.689   3.905  10.438
14150SOL     OW42473   2.290   4.148   9.830
14150SOL    HW142474   2.320   4.076   9.768
14150SOL    HW242475   2.251   4.108   9.913
14151SOL     OW42476   3.567   5.211  10.414
14151SOL    HW142477   3.474   5.186  10.387
14151SOL    HW242478   3.593   5.161  10.496
14152SOL     OW42479   2.179   4.271  10.590
14152SOL    HW142480   2.217   4.212  10.662
14152SOL    HW242481   2.219   4.245  10.502
14153SOL     OW42482   2.674   5.310   9.997
14153SOL    HW142483   2.706   5.320   9.903
14153SOL    HW242484   2.595   5.248   9.999
14154SOL     OW42485   3.286   3.938  10.422
14154SOL    HW142486   3.338   3.873  10.477
14154SOL    HW242487   3.237   4.001  10.483
14155SOL     OW42488   2.863   3.758  10.464
14155SOL    HW142489   2.800   3.686  10.433
14155SOL    HW242490   2.956   3.722  10.464
14156SOL     OW42491   2.632   5.054   9.611
14156SOL    HW142492   2.586   4.967   9.628
14156SOL    HW242493   2.723   5.051   9.652
14157SOL     OW42494   2.480   5.291  10.594
14157SOL    HW142495   2.475   5.373  10.651
14157SOL    HW242496   2.569   5.288  10.549
14158SOL     OW42497   3.214   3.776   9.478
14158SOL    HW142498   3.249   3.735   9.394
14158SOL    HW242499   3.124   3.738   9.498
14159SOL     OW42500   3.162   4.177  10.001
14159SOL    HW142501   3.103   4.257  10.005
14159SOL    HW242502   3.177   4.142  10.094
14160SOL     OW42503   3.455   3.945  10.192
14160SOL    HW142504   3.371   3.944  10.246
14160SOL    HW242505   3.457   4.028  10.136
14161SOL     OW42506   1.901   4.801   9.610
14161SOL    HW142507   2.000   4.790   9.601
14161SOL    HW242508   1.861   4.715   9.642
14162SOL     OW42509   2.737   5.370   9.647
14162SOL    HW142510   2.660   5.335   9.593
14162SOL    HW242511   2.705   5.441   9.709
14163SOL     OW42512   2.092   4.352  11.285
14163SOL    HW142513   1.999   4.350  11.322
14163SOL    HW242514   2.093   4.313  11.193
14164SOL     OW42515   2.087   3.999  12.168
14164SOL    HW142516   2.122   3.982  12.260
14164SOL    HW242517   1.999   3.954  12.156
14165SOL     OW42518   1.881   4.092  11.819
14165SOL    HW142519   1.799   4.135  11.858
14165SOL    HW242520   1.853   4.019  11.756
14166SOL     OW42521   2.431   4.999  12.337
14166SOL    HW142522   2.338   4.992  12.300
14166SOL    HW242523   2.442   5.088  12.381
14167SOL     OW42524   3.417   5.235  11.875
14167SOL    HW142525   3.360   5.219  11.956
14167SOL    HW242526   3.358   5.245  11.795
14168SOL     OW42527   2.997   4.427  11.889
14168SOL    HW142528   3.054   4.505  11.864
14168SOL    HW242529   2.937   4.453  11.965
14169SOL     OW42530   3.617   4.331  11.403
14169SOL    HW142531   3.605   4.318  11.304
14169SOL    HW242532   3.587   4.250  11.452
14170SOL     OW42533   2.630   4.868  12.195
14170SOL    HW142534   2.552   4.885  12.255
14170SOL    HW242535   2.664   4.955  12.159
14171SOL     OW42536   2.547   4.736  11.837
14171SOL    HW142537   2.616   4.720  11.907
14171SOL    HW242538   2.474   4.793  11.875
14172SOL     OW42539   2.197   5.159  12.233
14172SOL    HW142540   2.119   5.128  12.180
14172SOL    HW242541   2.255   5.217  12.176
14173SOL     OW42542   3.322   5.229  12.511
14173SOL    HW142543   3.346   5.323  12.537
14173SOL    HW242544   3.306   5.175  12.593
14174SOL     OW42545   3.465   4.171  11.909
14174SOL    HW142546   3.391   4.217  11.859
14174SOL    HW242547   3.516   4.239  11.962
14175SOL     OW42548   2.093   5.437  11.655
14175SOL    HW142549   2.127   5.514  11.709
14175SOL    HW242550   2.137   5.437  11.565
14176SOL     OW42551   2.092   5.158  11.710
14176SOL    HW142552   2.066   5.254  11.710
14176SOL    HW242553   2.021   5.104  11.755
14177SOL     OW42554   2.102   4.815  12.058
14177SOL    HW142555   2.116   4.731  12.110
14177SOL    HW242556   2.047   4.879  12.113
14178SOL     OW42557   2.482   5.510  12.611
14178SOL    HW142558   2.390   5.493  12.646
14178SOL    HW242559   2.510   5.602  12.637
14179SOL     OW42560   2.468   4.688  11.295
14179SOL    HW142561   2.475   4.772  11.241
14179SOL    HW242562   2.514   4.701  11.383
14180SOL     OW42563   3.456   3.838  12.652
14180SOL    HW142564   3.438   3.905  12.580
14180SOL    HW242565   3.453   3.884  12.741
14181SOL     OW42566   1.984   4.367  11.735
14181SOL    HW142567   1.939   4.279  11.752
14181SOL    HW242568   1.983   4.421  11.819
14182SOL     OW42569   3.704   5.491  11.531
14182SOL    HW142570   3.758   5.462  11.611
14182SOL    HW242571   3.734   5.581  11.502
14183SOL     OW42572   1.889   5.320  11.289
14183SOL    HW142573   1.870   5.224  11.310
14183SOL    HW242574   1.856   5.378  11.364
14184SOL     OW42575   3.551   4.646  11.784
14184SOL    HW142576   3.646   4.617  11.792
14184SOL    HW242577   3.543   4.711  11.709
14185SOL     OW42578   3.503   4.832  11.604
14185SOL    HW142579   3.589   4.834  11.552
14185SOL    HW242580   3.517   4.879  11.692
14186SOL     OW42581   1.975   4.461  12.769
14186SOL    HW142582   2.063   4.448  12.814
14186SOL    HW242583   1.962   4.558  12.747
14187SOL     OW42584   2.475   5.089  11.898
14187SOL    HW142585   2.426   5.002  11.907
14187SOL    HW242586   2.452   5.132  11.811
14188SOL     OW42587   3.155   4.952  12.595
14188SOL    HW142588   3.192   4.879  12.537
14188SOL    HW242589   3.207   4.957  12.680
14189SOL     OW42590   2.671   3.728  11.674
14189SOL    HW142591   2.711   3.819  11.665
14189SOL    HW242592   2.571   3.736  11.680
14190SOL     OW42593   2.059   4.700  12.436
14190SOL    HW142594   2.148   4.655  12.422
14190SOL    HW242595   1.986   4.635  12.417
14191SOL     OW42596   3.387   4.723  11.362
14191SOL    HW142597   3.324   4.647  11.375
14191SOL    HW242598   3.435   4.741  11.448
14192SOL     OW42599   3.328   5.141  12.125
14192SOL    HW142600   3.269   5.147  12.205
14192SOL    HW242601   3.313   5.053  12.079
14193SOL     OW42602   3.529   5.438  11.744
14193SOL    HW142603   3.488   5.415  11.656
14193SOL    HW242604   3.511   5.364  11.809
14194SOL     OW42605   2.460   4.453  11.442
14194SOL    HW142606   2.484   4.522  11.374
14194SOL    HW242607   2.382   4.486  11.496
14195SOL     OW42608   3.143   4.069  12.116
14195SOL    HW142609   3.057   4.019  12.103
14195SOL    HW242610   3.205   4.015  12.172
14196SOL     OW42611   3.438   5.386  11.479
14196SOL    HW142612   3.527   5.432  11.482
14196SOL    HW242613   3.417   5.362  11.384
14197SOL     OW42614   2.669   4.329  12.637
14197SOL    HW142615   2.622   4.326  12.726
14197SOL    HW242616   2.618   4.274  12.571
14198SOL     OW42617   2.835   4.614  12.744
14198SOL    HW142618   2.881   4.530  12.715
14198SOL    HW242619   2.779   4.648  12.669
14199SOL     OW42620   2.853   4.134  12.414
14199SOL    HW142621   2.776   4.168  12.468
14199SOL    HW242622   2.819   4.083  12.335
14200SOL     OW42623   2.903   4.425  11.601
14200SOL    HW142624   2.929   4.421  11.697
14200SOL    HW242625   2.818   4.374  11.587
14201SOL     OW42626   1.938   4.535  11.961
14201SOL    HW142627   2.037   4.523  11.970
14201SOL    HW242628   1.914   4.630  11.982
14202SOL     OW42629   1.992   5.545  12.743
14202SOL    HW142630   1.982   5.530  12.842
14202SOL    HW242631   1.906   5.581  12.707
14203SOL     OW42632   2.727   4.072  11.367
14203SOL    HW142633   2.786   4.135  11.318
14203SOL    HW242634   2.746   3.978  11.338
14204SOL     OW42635   3.224   4.868  11.717
14204SOL    HW142636   3.307   4.839  11.669
14204SOL    HW242637   3.175   4.935  11.661
14205SOL     OW42638   2.412   3.920  12.057
14205SOL    HW142639   2.407   3.915  12.157
14205SOL    HW242640   2.414   4.016  12.028
14206SOL     OW42641   2.870   5.180  11.649
14206SOL    HW142642   2.824   5.252  11.597
14206SOL    HW242643   2.866   5.200  11.747
14207SOL     OW42644   2.213   5.525  12.025
14207SOL    HW142645   2.263   5.439  12.031
14207SOL    HW242646   2.278   5.602  12.022
14208SOL     OW42647   3.657   4.790  12.045
14208SOL    HW142648   3.595   4.775  11.969
14208SOL    HW242649   3.605   4.801  12.130
14209SOL     OW42650   3.089   5.274  12.678
14209SOL    HW142651   3.095   5.197  12.742
14209SOL    HW242652   3.037   5.248  12.598
14210SOL     OW42653   2.183   4.667  11.414
14210SOL    HW142654   2.265   4.706  11.372
14210SOL    HW242655   2.156   4.585  11.365
14211SOL     OW42656   3.320   4.459  11.900
14211SOL    HW142657   3.315   4.394  11.975
14211SOL    HW242658   3.400   4.518  11.913
14212SOL     OW42659   2.973   5.500  11.409
14212SOL    HW142660   2.913   5.438  11.459
14212SOL    HW242661   3.004   5.456  11.324
14213SOL     OW42662   2.064   4.009  12.670
14213SOL    HW142663   1.984   4.069  12.657
14213SOL    HW242664   2.054   3.960  12.756
14214SOL     OW42665   3.494   5.101  11.253
14214SOL    HW142666   3.462   5.195  11.243
14214SOL    HW242667   3.418   5.038  11.241
14215SOL     OW42668   2.326   5.467  11.495
14215SOL    HW142669   2.359   5.506  11.581
14215SOL    HW242670   2.402   5.460  11.430
14216SOL     OW42671   3.262   3.831  11.598
14216SOL    HW142672   3.238   3.794  11.508
14216SOL    HW242673   3.361   3.847  11.602
14217SOL     OW42674   2.111   5.509  12.413
14217SOL    HW142675   2.168   5.444  12.463
14217SOL    HW242676   2.095   5.476  12.320
14218SOL     OW42677   2.802   5.422  12.076
14218SOL    HW142678   2.882   5.365  12.097
14218SOL    HW242679   2.753   5.382  11.999
14219SOL     OW42680   2.244   4.424  11.652
14219SOL    HW142681   2.289   4.334  11.649
14219SOL    HW242682   2.150   4.413  11.685
14220SOL     OW42683   2.476   3.846  11.289
14220SOL    HW142684   2.574   3.824  11.296
14220SOL    HW242685   2.445   3.829  11.196
14221SOL     OW42686   2.750   5.238  12.367
14221SOL    HW142687   2.727   5.213  12.273
14221SOL    HW242688   2.811   5.169  12.406
14222SOL     OW42689   3.213   4.314  12.605
14222SOL    HW142690   3.241   4.271  12.690
14222SOL    HW242691   3.238   4.410  12.606
14223SOL     OW42692   2.665   5.126  12.096
14223SOL    HW142693   2.755   5.140  12.054
14223SOL    HW242694   2.594   5.128  12.025
14224SOL     OW42695   2.784   4.227  12.071
14224SOL    HW142696   2.759   4.218  11.975
14224SOL    HW242697   2.832   4.145  12.102
14225SOL     OW42698   2.401   3.788  11.684
14225SOL    HW142699   2.320   3.789  11.742
14225SOL    HW242700   2.404   3.871  11.629
14226SOL     OW42701   3.296   4.912  11.213
14226SOL    HW142702   3.328   4.836  11.270
14226SOL    HW242703   3.204   4.939  11.243
14227SOL     OW42704   2.159   3.759  11.343
14227SOL    HW142705   2.208   3.843  11.322
14227SOL    HW242706   2.221   3.694  11.388
14228SOL     OW42707   2.797   3.960  11.652
14228SOL    HW142708   2.749   4.001  11.574
14228SOL    HW242709   2.896   3.958  11.633
14229SOL     OW42710   2.938   4.407  12.636
14229SOL    HW142711   2.858   4.346  12.639
14229SOL    HW242712   3.019   4.354  12.612
14230SOL     OW42713   3.089   5.294  11.965
14230SOL    HW142714   3.110   5.368  11.900
14230SOL    HW242715   3.157   5.294  12.038
14231SOL     OW42716   2.321   4.876  11.913
14231SOL    HW142717   2.250   4.849  11.978
14231SOL    HW242718   2.295   4.848  11.820
14232SOL     OW42719   3.133   5.521  11.763
14232SOL    HW142720   3.177   5.585  11.699
14232SOL    HW242721   3.083   5.573  11.833
14233SOL     OW42722   2.894   4.273  11.188
14233SOL    HW142723   2.853   4.355  11.149
14233SOL    HW242724   2.958   4.299  11.261
14234SOL     OW42725   1.940   4.280  12.558
14234SOL    HW142726   2.032   4.279  12.517
14234SOL    HW242727   1.934   4.354  12.625
14235SOL     OW42728   2.423   3.946  12.319
14235SOL    HW142729   2.461   3.862  12.356
14235SOL    HW242730   2.335   3.965  12.363
14236SOL     OW42731   2.728   4.178  11.814
14236SOL    HW142732   2.696   4.250  11.752
14236SOL    HW242733   2.752   4.097  11.761
14237SOL     OW42734   2.879   3.763  11.925
14237SOL    HW142735   2.807   3.768  11.856
14237SOL    HW242736   2.855   3.694  11.994
14238SOL     OW42737   3.291   4.897  12.039
14238SOL    HW142738   3.236   4.813  12.032
14238SOL    HW242739   3.317   4.926  11.947
14239SOL     OW42740   3.328   4.314  12.164
14239SOL    HW142741   3.298   4.219  12.171
14239SOL    HW242742   3.401   4.330  12.230
14240SOL     OW42743   3.719   4.557  11.549
14240SOL    HW142744   3.761   4.493  11.613
14240SOL    HW242745   3.681   4.506  11.471
14241SOL     OW42746   2.350   5.109  11.346
14241SOL    HW142747   2.263   5.094  11.393
14241SOL    HW242748   2.333   5.135  11.251
14242SOL     OW42749   3.526   5.004  11.829
14242SOL    HW142750   3.625   5.012  11.843
14242SOL    HW242751   3.481   5.088  11.860
14243SOL     OW42752   3.252   4.299  11.250
14243SOL    HW142753   3.198   4.278  11.331
14243SOL    HW242754   3.343   4.258  11.259
14244SOL     OW42755   2.389   3.980  11.500
14244SOL    HW142756   2.416   3.921  11.425
14244SOL    HW242757   2.389   4.075  11.469
14245SOL     OW42758   3.616   4.947  12.760
14245SOL    HW142759   3.707   4.908  12.747
14245SOL    HW242760   3.624   5.043  12.784
14246SOL     OW42761   2.926   5.071  12.512
14246SOL    HW142762   2.846   5.048  12.567
14246SOL    HW242763   3.009   5.045  12.561
14247SOL     OW42764   2.973   4.919  12.272
14247SOL    HW142765   2.933   4.963  12.353
14247SOL    HW242766   2.932   4.956  12.189
14248SOL     OW42767   3.500   4.823  12.251
14248SOL    HW142768   3.505   4.904  12.310
14248SOL    HW242769   3.414   4.825  12.200
14249SOL     OW42770   2.777   3.813  12.574
14249SOL    HW142771   2.802   3.793  12.479
14249SOL    HW242772   2.849   3.869  12.616
14250SOL     OW42773   2.567   4.774  11.540
14250SOL    HW142774   2.553   4.781  11.639
14250SOL    HW242775   2.651   4.723  11.522
14251SOL     OW42776   2.272   4.537  12.423
14251SOL    HW142777   2.358   4.549  12.473
14251SOL    HW242778   2.230   4.450  12.450
14252SOL     OW42779   3.136   4.110  12.434
14252SOL    HW142780   3.157   4.184  12.498
14252SOL    HW242781   3.047   4.127  12.391
14253SOL     OW42782   1.926   5.288  12.503
14253SOL    HW142783   1.880   5.370  12.469
14253SOL    HW242784   2.024   5.307  12.512
14254SOL     OW42785   2.229   4.824  11.673
14254SOL    HW142786   2.222   4.907  11.617
14254SOL    HW242787   2.233   4.744  11.613
14255SOL     OW42788   2.428   4.261  12.037
14255SOL    HW142789   2.440   4.327  11.963
14255SOL    HW242790   2.474   4.295  12.120
14256SOL     OW42791   3.114   5.072  11.560
14256SOL    HW142792   3.164   5.149  11.600
14256SOL    HW242793   3.019   5.074  11.592
14257SOL     OW42794   3.134   5.169  12.314
14257SOL    HW142795   3.181   5.182  12.401
14257SOL    HW242796   3.068   5.095  12.323
14258SOL     OW42797   3.444   4.363  11.644
14258SOL    HW142798   3.413   4.424  11.717
14258SOL    HW242799   3.494   4.415  11.575
14259SOL     OW42800   2.216   5.234  12.501
14259SOL    HW142801   2.195   5.190  12.414
14259SOL    HW242802   2.313   5.260  12.504
14260SOL     OW42803   2.264   4.475  12.770
14260SOL    HW142804   2.332   4.530  12.723
14260SOL    HW242805   2.304   4.387  12.797
14261SOL     OW42806   3.449   4.503  12.842
14261SOL    HW142807   3.357   4.541  12.837
14261SOL    HW242808   3.509   4.550  12.777
14262SOL     OW42809   2.435   4.594  12.201
14262SOL    HW142810   2.479   4.683  12.192
14262SOL    HW242811   2.372   4.594  12.278
14263SOL     OW42812   3.222   4.586  12.217
14263SOL    HW142813   3.147   4.586  12.151
14263SOL    HW242814   3.259   4.494  12.226
14264SOL     OW42815   3.071   4.249  11.447
14264SOL    HW142816   3.084   4.165  11.501
14264SOL    HW242817   3.042   4.323  11.507
14265SOL     OW42818   2.169   3.937  12.403
14265SOL    HW142819   2.146   3.974  12.493
14265SOL    HW242820   2.139   3.842  12.397
14266SOL     OW42821   1.899   5.034  12.454
14266SOL    HW142822   1.952   4.985  12.522
14266SOL    HW242823   1.921   5.132  12.459
14267SOL     OW42824   2.594   4.358  12.236
14267SOL    HW142825   2.653   4.332  12.160
14267SOL    HW242826   2.566   4.454  12.225
14268SOL     OW42827   2.169   3.787  11.790
14268SOL    HW142828   2.158   3.881  11.823
14268SOL    HW242829   2.164   3.724  11.867
14269SOL     OW42830   3.484   4.091  11.546
14269SOL    HW142831   3.486   4.015  11.610
14269SOL    HW242832   3.436   4.168  11.586
14270SOL     OW42833   3.402   3.998  11.297
14270SOL    HW142834   3.341   3.923  11.320
14270SOL    HW242835   3.424   4.050  11.380
14271SOL     OW42836   3.165   4.562  11.214
14271SOL    HW142837   3.199   4.469  11.229
14271SOL    HW242838   3.183   4.589  11.119
14272SOL     OW42839   2.930   5.057  12.021
14272SOL    HW142840   2.937   4.973  11.966
14272SOL    HW242841   2.992   5.126  11.985
14273SOL     OW42842   2.181   4.534  12.121
14273SOL    HW142843   2.274   4.570  12.126
14273SOL    HW242844   2.175   4.449  12.173
14274SOL     OW42845   2.201   4.233  12.178
14274SOL    HW142846   2.149   4.150  12.161
14274SOL    HW242847   2.278   4.238  12.114
14275SOL     OW42848   3.022   3.931  12.649
14275SOL    HW142849   3.022   3.995  12.726
14275SOL    HW242850   3.050   3.979  12.566
14276SOL     OW42851   1.870   5.050  11.372
14276SOL    HW142852   1.777   5.071  11.341
14276SOL    HW242853   1.880   4.951  11.385
14277SOL     OW42854   1.950   5.525  12.099
14277SOL    HW142855   1.908   5.439  12.072
14277SOL    HW242856   2.044   5.528  12.065
14278SOL     OW42857   2.366   5.292  12.082
14278SOL    HW142858   2.432   5.366  12.091
14278SOL    HW242859   2.410   5.213  12.040
14279SOL     OW42860   2.864   4.520  12.410
14279SOL    HW142861   2.905   4.488  12.496
14279SOL    HW242862   2.768   4.493  12.407
14280SOL     OW42863   1.902   4.268  12.286
14280SOL    HW142864   1.987   4.235  12.245
14280SOL    HW242865   1.915   4.283  12.384
14281SOL     OW42866   2.677   4.296  11.497
14281SOL    HW142867   2.684   4.207  11.451
14281SOL    HW242868   2.583   4.330  11.489
14282SOL     OW42869   3.519   4.328  12.378
14282SOL    HW142870   3.481   4.259  12.440
14282SOL    HW242871   3.601   4.292  12.334
14283SOL     OW42872   2.114   5.288  12.916
14283SOL    HW142873   2.084   5.345  12.992
14283SOL    HW242874   2.107   5.191  12.942
14284SOL     OW42875   2.533   4.188  12.441
14284SOL    HW142876   2.499   4.099  12.411
14284SOL    HW242877   2.559   4.242  12.361
14285SOL     OW42878   2.792   5.402  12.637
14285SOL    HW142879   2.768   5.384  12.542
14285SOL    HW242880   2.822   5.496  12.647
14286SOL     OW42881   2.335   4.224  11.363
14286SOL    HW142882   2.396   4.304  11.367
14286SOL    HW242883   2.240   4.255  11.370
14287SOL     OW42884   2.021   4.861  12.638
14287SOL    HW142885   2.043   4.800  12.714
14287SOL    HW242886   2.031   4.812  12.552
14288SOL     OW42887   3.209   4.783  12.406
14288SOL    HW142888   3.233   4.720  12.332
14288SOL    HW242889   3.119   4.823  12.388
14289SOL     OW42890   3.164   4.579  11.481
14289SOL    HW142891   3.078   4.548  11.523
14289SOL    HW242892   3.160   4.565  11.382
14290SOL     OW42893   3.621   5.471  12.326
14290SOL    HW142894   3.682   5.501  12.253
14290SOL    HW242895   3.583   5.382  12.304
14291SOL     OW42896   3.114   5.455  12.300
14291SOL    HW142897   3.198   5.460  12.246
14291SOL    HW242898   3.091   5.359  12.318
14292SOL     OW42899   1.945   4.982  12.194
14292SOL    HW142900   1.940   4.981  12.294
14292SOL    HW242901   1.862   4.941  12.156
14293SOL     OW42902   3.588   3.859  11.695
14293SOL    HW142903   3.661   3.842  11.628
14293SOL    HW242904   3.557   3.772  11.733
14294SOL     OW42905   3.250   5.297  11.649
14294SOL    HW142906   3.317   5.309  11.575
14294SOL    HW242907   3.210   5.386  11.672
14295SOL     OW42908   3.142   4.651  11.844
14295SOL    HW142909   3.202   4.570  11.846
14295SOL    HW242910   3.182   4.720  11.784
14296SOL     OW42911   2.692   4.997  12.594
14296SOL    HW142912   2.687   5.030  12.689
14296SOL    HW242913   2.606   5.016  12.548
14297SOL     OW42914   2.534   5.340  11.326
14297SOL    HW142915   2.543   5.350  11.227
14297SOL    HW242916   2.494   5.251  11.347
14298SOL     OW42917   3.512   5.444  12.566
14298SOL    HW142918   3.565   5.454  12.482
14298SOL    HW242919   3.485   5.534  12.600
14299SOL     OW42920   3.703   3.899  12.135
14299SOL    HW142921   3.742   3.814  12.099
14299SOL    HW242922   3.605   3.901  12.116
14300SOL     OW42923   2.125   4.050  11.892
14300SOL    HW142924   2.046   4.101  11.858
14300SOL    HW242925   2.116   4.035  11.990
14301SOL     OW42926   3.056   5.336  11.203
14301SOL    HW142927   3.062   5.243  11.240
14301SOL    HW242928   2.997   5.336  11.123
14302SOL     OW42929   2.684   4.726  12.544
14302SOL    HW142930   2.724   4.725  12.452
14302SOL    HW242931   2.694   4.818  12.584
14303SOL     OW42932   2.778   4.634  11.463
14303SOL    HW142933   2.841   4.672  11.395
14303SOL    HW242934   2.818   4.551  11.502
14304SOL     OW42935   3.366   5.331  11.216
14304SOL    HW142936   3.274   5.368  11.223
14304SOL    HW242937   3.404   5.351  11.126
14305SOL     OW42938   2.234   5.012  12.662
14305SOL    HW142939   2.221   5.105  12.628
14305SOL    HW242940   2.150   4.960  12.649
14306SOL     OW42941   3.476   5.016  12.461
14306SOL    HW142942   3.536   5.019  12.541
14306SOL    HW242943   3.401   5.080  12.474
14307SOL     OW42944   2.901   4.822  11.868
14307SOL    HW142945   2.831   4.775  11.922
14307SOL    HW242946   2.960   4.754  11.825
14308SOL     OW42947   2.876   3.960  12.143
14308SOL    HW142948   2.868   3.924  12.050
14308SOL    HW242949   2.874   3.884  12.208
14309SOL     OW42950   2.452   5.211  11.663
14309SOL    HW142951   2.494   5.153  11.593
14309SOL    HW242952   2.408   5.290  11.619
14310SOL     OW42953   3.571   4.109  12.553
14310SOL    HW142954   3.644   4.178  12.557
14310SOL    HW242955   3.599   4.034  12.494
14311SOL     OW42956   2.117   5.072  11.462
14311SOL    HW142957   2.021   5.073  11.435
14311SOL    HW242958   2.129   5.125  11.546
14312SOL     OW42959   1.967   4.737  12.898
14312SOL    HW142960   1.890   4.704  12.952
14312SOL    HW242961   2.052   4.707  12.940
14313SOL     OW42962   2.534   3.927  12.661
14313SOL    HW142963   2.624   3.911  12.621
14313SOL    HW242964   2.542   3.932  12.760
14314SOL     OW42965   1.937   4.069  11.205
14314SOL    HW142966   1.845   4.041  11.176
14314SOL    HW242967   1.968   4.146  11.149
14315SOL     OW42968   3.302   4.580  12.570
14315SOL    HW142969   3.245   4.632  12.507
14315SOL    HW242970   3.398   4.592  12.546
14316SOL     OW42971   1.934   3.890  11.490
14316SOL    HW142972   1.917   3.973  11.436
14316SOL    HW242973   2.024   3.853  11.468
14317SOL     OW42974   3.045   5.059  11.291
14317SOL    HW142975   2.946   5.048  11.293
14317SOL    HW242976   3.079   5.074  11.384
14318SOL     OW42977   2.475   4.566  12.603
14318SOL    HW142978   2.531   4.647  12.586
14318SOL    HW242979   2.534   4.486  12.606
14319SOL     OW42980   3.355   5.491  12.131
14319SOL    HW142981   3.388   5.555  12.062
14319SOL    HW242982   3.421   5.485  12.206
14320SOL     OW42983   2.578   4.289  12.880
14320SOL    HW142984   2.597   4.354  12.954
14320SOL    HW242985   2.638   4.209  12.889
14321SOL     OW42986   2.252   5.465  12.732
14321SOL    HW142987   2.161   5.506  12.730
14321SOL    HW242988   2.245   5.371  12.764
14322SOL     OW42989   3.536   4.607  12.426
14322SOL    HW142990   3.509   4.518  12.389
14322SOL    HW242991   3.537   4.675  12.353
14323SOL     OW42992   3.087   4.049  11.621
14323SOL    HW142993   3.152   3.975  11.610
14323SOL    HW242994   3.107   4.099  11.705
14324SOL     OW42995   2.456   4.469  11.824
14324SOL    HW142996   2.506   4.554  11.805
14324SOL    HW242997   2.368   4.471  11.776
14325SOL     OW42998   3.639   4.066  12.814
14325SOL    HW142999   3.622   4.097  12.720
14325SOL    HW243000   3.555   4.029  12.852
14326SOL     OW43001   3.592   4.658  12.689
14326SOL    HW143002   3.630   4.749  12.704
14326SOL    HW243003   3.584   4.641  12.590
14327SOL     OW43004   2.721   5.098  11.188
14327SOL    HW143005   2.675   5.113  11.276
14327SOL    HW243006   2.765   5.183  11.158
14328SOL     OW43007   2.523   5.514  12.125
14328SOL    HW143008   2.477   5.602  12.112
14328SOL    HW243009   2.622   5.526  12.118
14329SOL     OW43010   2.721   4.680  12.033
14329SOL    HW143011   2.775   4.611  12.081
14329SOL    HW243012   2.689   4.749  12.099
14330SOL     OW43013   2.945   4.708  11.259
14330SOL    HW143014   2.922   4.761  11.177
14330SOL    HW243015   3.026   4.652  11.240
14331SOL     OW43016   3.723   5.293  12.023
14331SOL    HW143017   3.652   5.281  11.953
14331SOL    HW243018   3.724   5.214  12.083
14332SOL     OW43019   1.941   4.964  11.825
14332SOL    HW143020   1.940   4.917  11.913
14332SOL    HW243021   2.023   4.936  11.774
14333SOL     OW43022   2.534   5.115  12.796
14333SOL    HW143023   2.456   5.065  12.834
14333SOL    HW243024   2.531   5.210  12.827
14334SOL     OW43025   3.686   3.916  12.399
14334SOL    HW143026   3.682   3.826  12.443
14334SOL    HW243027   3.689   3.905  12.300
14335SOL     OW43028   2.290   4.148  11.692
14335SOL    HW143029   2.320   4.076  11.630
14335SOL    HW243030   2.251   4.108  11.775
14336SOL     OW43031   3.567   5.211  12.276
14336SOL    HW143032   3.474   5.186  12.249
14336SOL    HW243033   3.593   5.161  12.358
14337SOL     OW43034   2.179   4.271  12.452
14337SOL    HW143035   2.217   4.212  12.524
14337SOL    HW243036   2.219   4.245  12.364
14338SOL     OW43037   2.674   5.310  11.859
14338SOL    HW143038   2.706   5.320  11.765
14338SOL    HW243039   2.595   5.248  11.861
14339SOL     OW43040   3.286   3.938  12.284
14339SOL    HW143041   3.338   3.873  12.339
14339SOL    HW243042   3.237   4.001  12.345
14340SOL     OW43043   2.863   3.758  12.326
14340SOL    HW143044   2.800   3.686  12.295
14340SOL    HW243045   2.956   3.722  12.326
14341SOL     OW43046   2.632   5.054  11.473
14341SOL    HW143047   2.586   4.967  11.490
14341SOL    HW243048   2.723   5.051  11.514
14342SOL     OW43049   2.480   5.291  12.456
14342SOL    HW143050   2.475   5.373  12.513
14342SOL    HW243051   2.569   5.288  12.411
14343SOL     OW43052   3.214   3.776  11.340
14343SOL    HW143053   3.249   3.735  11.256
14343SOL    HW243054   3.124   3.738  11.360
14344SOL     OW43055   3.162   4.177  11.863
14344SOL    HW143056   3.103   4.257  11.867
14344SOL    HW243057   3.177   4.142  11.956
14345SOL     OW43058   3.455   3.945  12.054
14345SOL    HW143059   3.371   3.944  12.108
14345SOL    HW243060   3.457   4.028  11.998
14346SOL     OW43061   1.901   4.801  11.472
14346SOL    HW143062   2.000   4.790  11.463
14346SOL    HW243063   1.861   4.715  11.504
14347SOL     OW43064   2.737   5.370  11.509
14347SOL    HW143065   2.660   5.335  11.455
14347SOL    HW243066   2.705   5.441  11.571
14348SOL     OW43067   2.092   6.214   0.113
14348SOL    HW143068   1.999   6.212   0.150
14348SOL    HW243069   2.093   6.175   0.021
14349SOL     OW43070   2.087   5.861   0.996
14349SOL    HW143071   2.122   5.844   1.088
14349SOL    HW243072   1.999   5.816   0.984
14350SOL     OW43073   1.881   5.954   0.647
14350SOL    HW143074   1.799   5.997   0.686
14350SOL    HW243075   1.853   5.881   0.584
14351SOL     OW43076   2.431   6.861   1.165
14351SOL    HW143077   2.338   6.854   1.128
14351SOL    HW243078   2.442   6.950   1.209
14352SOL     OW43079   3.417   7.097   0.703
14352SOL    HW143080   3.360   7.081   0.784
14352SOL    HW243081   3.358   7.107   0.623
14353SOL     OW43082   2.997   6.289   0.717
14353SOL    HW143083   3.054   6.367   0.692
14353SOL    HW243084   2.937   6.315   0.793
14354SOL     OW43085   3.617   6.193   0.231
14354SOL    HW143086   3.605   6.180   0.132
14354SOL    HW243087   3.587   6.112   0.280
14355SOL     OW43088   2.630   6.730   1.023
14355SOL    HW143089   2.552   6.747   1.083
14355SOL    HW243090   2.664   6.817   0.987
14356SOL     OW43091   2.712   6.384   1.823
14356SOL    HW143092   2.708   6.460   1.888
14356SOL    HW243093   2.734   6.420   1.732
14357SOL     OW43094   2.547   6.598   0.665
14357SOL    HW143095   2.616   6.582   0.735
14357SOL    HW243096   2.474   6.655   0.703
14358SOL     OW43097   2.548   6.747   1.803
14358SOL    HW143098   2.608   6.826   1.817
14358SOL    HW243099   2.462   6.778   1.762
14359SOL     OW43100   2.197   7.021   1.061
14359SOL    HW143101   2.119   6.990   1.008
14359SOL    HW243102   2.255   7.079   1.004
14360SOL     OW43103   3.322   7.091   1.339
14360SOL    HW143104   3.346   7.185   1.365
14360SOL    HW243105   3.306   7.037   1.421
14361SOL     OW43106   2.300   5.978   1.499
14361SOL    HW143107   2.382   5.922   1.508
14361SOL    HW243108   2.219   5.920   1.503
14362SOL     OW43109   3.465   6.033   0.737
14362SOL    HW143110   3.391   6.079   0.687
14362SOL    HW243111   3.516   6.101   0.790
14363SOL     OW43112   2.093   7.299   0.483
14363SOL    HW143113   2.127   7.376   0.537
14363SOL    HW243114   2.137   7.299   0.393
14364SOL     OW43115   2.989   6.927   1.690
14364SOL    HW143116   3.036   6.927   1.778
14364SOL    HW243117   2.941   6.840   1.679
14365SOL     OW43118   2.092   7.020   0.538
14365SOL    HW143119   2.066   7.116   0.538
14365SOL    HW243120   2.021   6.966   0.583
14366SOL     OW43121   2.102   6.677   0.886
14366SOL    HW143122   2.116   6.593   0.938
14366SOL    HW243123   2.047   6.741   0.941
14367SOL     OW43124   2.482   7.372   1.439
14367SOL    HW143125   2.390   7.355   1.474
14367SOL    HW243126   2.510   7.464   1.465
14368SOL     OW43127   2.468   6.550   0.123
14368SOL    HW143128   2.475   6.634   0.069
14368SOL    HW243129   2.514   6.563   0.211
14369SOL     OW43130   3.456   5.700   1.480
14369SOL    HW143131   3.438   5.767   1.408
14369SOL    HW243132   3.453   5.746   1.569
14370SOL     OW43133   1.984   6.229   0.563
14370SOL    HW143134   1.939   6.141   0.580
14370SOL    HW243135   1.983   6.283   0.647
14371SOL     OW43136   3.704   7.353   0.359
14371SOL    HW143137   3.758   7.324   0.439
14371SOL    HW243138   3.734   7.443   0.330
14372SOL     OW43139   1.889   7.182   0.117
14372SOL    HW143140   1.870   7.086   0.138
14372SOL    HW243141   1.856   7.240   0.192
14373SOL     OW43142   3.551   6.508   0.612
14373SOL    HW143143   3.646   6.479   0.620
14373SOL    HW243144   3.543   6.573   0.537
14374SOL     OW43145   3.503   6.694   0.432
14374SOL    HW143146   3.589   6.696   0.380
14374SOL    HW243147   3.517   6.741   0.520
14375SOL     OW43148   1.975   6.323   1.597
14375SOL    HW143149   2.063   6.310   1.642
14375SOL    HW243150   1.962   6.420   1.575
14376SOL     OW43151   2.475   6.951   0.726
14376SOL    HW143152   2.426   6.864   0.735
14376SOL    HW243153   2.452   6.994   0.639
14377SOL     OW43154   3.155   6.814   1.423
14377SOL    HW143155   3.192   6.741   1.365
14377SOL    HW243156   3.207   6.819   1.508
14378SOL     OW43157   2.671   5.590   0.502
14378SOL    HW143158   2.711   5.681   0.493
14378SOL    HW243159   2.571   5.598   0.508
14379SOL     OW43160   2.059   6.562   1.264
14379SOL    HW143161   2.148   6.517   1.250
14379SOL    HW243162   1.986   6.497   1.245
14380SOL     OW43163   3.387   6.585   0.190
14380SOL    HW143164   3.324   6.509   0.203
14380SOL    HW243165   3.435   6.603   0.276
14381SOL     OW43166   3.049   7.378   1.616
14381SOL    HW143167   3.073   7.438   1.540
14381SOL    HW243168   3.056   7.283   1.586
14382SOL     OW43169   2.179   5.837   1.801
14382SOL    HW143170   2.250   5.908   1.807
14382SOL    HW243171   2.091   5.876   1.829
14383SOL     OW43172   3.328   7.003   0.953
14383SOL    HW143173   3.269   7.009   1.033
14383SOL    HW243174   3.313   6.915   0.907
14384SOL     OW43175   3.529   7.300   0.572
14384SOL    HW143176   3.488   7.277   0.484
14384SOL    HW243177   3.511   7.226   0.637
14385SOL     OW43178   2.460   6.315   0.270
14385SOL    HW143179   2.484   6.384   0.202
14385SOL    HW243180   2.382   6.348   0.324
14386SOL     OW43181   3.143   5.931   0.944
14386SOL    HW143182   3.057   5.881   0.931
14386SOL    HW243183   3.205   5.877   1.000
14387SOL     OW43184   3.438   7.248   0.307
14387SOL    HW143185   3.527   7.294   0.310
14387SOL    HW243186   3.417   7.224   0.212
14388SOL     OW43187   2.669   6.191   1.465
14388SOL    HW143188   2.622   6.188   1.554
14388SOL    HW243189   2.618   6.136   1.399
14389SOL     OW43190   3.256   6.055   1.674
14389SOL    HW143191   3.236   6.098   1.762
14389SOL    HW243192   3.334   5.993   1.683
14390SOL     OW43193   2.835   6.476   1.572
14390SOL    HW143194   2.881   6.392   1.543
14390SOL    HW243195   2.779   6.510   1.497
14391SOL     OW43196   2.853   5.996   1.242
14391SOL    HW143197   2.776   6.030   1.296
14391SOL    HW243198   2.819   5.945   1.163
14392SOL     OW43199   2.903   6.287   0.429
14392SOL    HW143200   2.929   6.283   0.525
14392SOL    HW243201   2.818   6.236   0.415
14393SOL     OW43202   1.938   6.397   0.789
14393SOL    HW143203   2.037   6.385   0.798
14393SOL    HW243204   1.914   6.492   0.810
14394SOL     OW43205   1.992   7.407   1.571
14394SOL    HW143206   1.982   7.392   1.670
14394SOL    HW243207   1.906   7.443   1.535
14395SOL     OW43208   2.727   5.934   0.195
14395SOL    HW143209   2.786   5.997   0.146
14395SOL    HW243210   2.746   5.840   0.166
14396SOL     OW43211   3.581   6.171   1.831
14396SOL    HW143212   3.555   6.260   1.795
14396SOL    HW243213   3.579   6.103   1.758
14397SOL     OW43214   3.224   6.730   0.545
14397SOL    HW143215   3.307   6.701   0.497
14397SOL    HW243216   3.175   6.797   0.489
14398SOL     OW43217   2.412   5.782   0.885
14398SOL    HW143218   2.407   5.777   0.985
14398SOL    HW243219   2.414   5.878   0.856
14399SOL     OW43220   2.870   7.042   0.477
14399SOL    HW143221   2.824   7.114   0.425
14399SOL    HW243222   2.866   7.062   0.575
14400SOL     OW43223   2.213   7.387   0.853
14400SOL    HW143224   2.263   7.301   0.859
14400SOL    HW243225   2.278   7.464   0.850
14401SOL     OW43226   3.657   6.652   0.873
14401SOL    HW143227   3.595   6.637   0.797
14401SOL    HW243228   3.605   6.663   0.958
14402SOL     OW43229   3.089   7.136   1.506
14402SOL    HW143230   3.095   7.059   1.570
14402SOL    HW243231   3.037   7.110   1.426
14403SOL     OW43232   2.183   6.529   0.242
14403SOL    HW143233   2.265   6.568   0.200
14403SOL    HW243234   2.156   6.447   0.193
14404SOL     OW43235   3.320   6.321   0.728
14404SOL    HW143236   3.315   6.256   0.803
14404SOL    HW243237   3.400   6.380   0.741
14405SOL     OW43238   2.323   6.852   1.727
14405SOL    HW143239   2.273   6.853   1.641
14405SOL    HW243240   2.260   6.834   1.803
14406SOL     OW43241   2.973   7.362   0.237
14406SOL    HW143242   2.913   7.300   0.287
14406SOL    HW243243   3.004   7.318   0.152
14407SOL     OW43244   2.064   5.871   1.498
14407SOL    HW143245   1.984   5.931   1.485
14407SOL    HW243246   2.054   5.822   1.584
14408SOL     OW43247   3.494   6.963   0.081
14408SOL    HW143248   3.462   7.057   0.071
14408SOL    HW243249   3.418   6.900   0.069
14409SOL     OW43250   2.326   7.329   0.323
14409SOL    HW143251   2.359   7.368   0.409
14409SOL    HW243252   2.402   7.322   0.258
14410SOL     OW43253   3.262   5.693   0.426
14410SOL    HW143254   3.238   5.656   0.336
14410SOL    HW243255   3.361   5.709   0.430
14411SOL     OW43256   2.111   7.371   1.241
14411SOL    HW143257   2.168   7.306   1.291
14411SOL    HW243258   2.095   7.338   1.148
14412SOL     OW43259   2.802   7.284   0.904
14412SOL    HW143260   2.882   7.227   0.925
14412SOL    HW243261   2.753   7.244   0.827
14413SOL     OW43262   2.244   6.286   0.480
14413SOL    HW143263   2.289   6.196   0.477
14413SOL    HW243264   2.150   6.275   0.513
14414SOL     OW43265   3.409   5.808   1.729
14414SOL    HW143266   3.404   5.845   1.821
14414SOL    HW243267   3.337   5.739   1.717
14415SOL     OW43268   2.476   5.708   0.117
14415SOL    HW143269   2.574   5.686   0.124
14415SOL    HW243270   2.445   5.691   0.024
14416SOL     OW43271   2.643   5.850   1.749
14416SOL    HW143272   2.710   5.789   1.792
14416SOL    HW243273   2.570   5.869   1.814
14417SOL     OW43274   2.750   7.100   1.195
14417SOL    HW143275   2.727   7.075   1.101
14417SOL    HW243276   2.811   7.031   1.234
14418SOL     OW43277   3.213   6.176   1.433
14418SOL    HW143278   3.241   6.133   1.518
14418SOL    HW243279   3.238   6.272   1.434
14419SOL     OW43280   2.665   6.988   0.924
14419SOL    HW143281   2.755   7.002   0.882
14419SOL    HW243282   2.594   6.990   0.853
14420SOL     OW43283   2.784   6.089   0.899
14420SOL    HW143284   2.759   6.080   0.803
14420SOL    HW243285   2.832   6.007   0.930
14421SOL     OW43286   2.401   5.650   0.512
14421SOL    HW143287   2.320   5.651   0.570
14421SOL    HW243288   2.404   5.733   0.457
14422SOL     OW43289   3.296   6.774   0.041
14422SOL    HW143290   3.328   6.698   0.098
14422SOL    HW243291   3.204   6.801   0.071
14423SOL     OW43292   2.159   5.621   0.171
14423SOL    HW143293   2.208   5.705   0.150
14423SOL    HW243294   2.221   5.556   0.216
14424SOL     OW43295   2.797   5.822   0.480
14424SOL    HW143296   2.749   5.863   0.402
14424SOL    HW243297   2.896   5.820   0.461
14425SOL     OW43298   2.938   6.269   1.464
14425SOL    HW143299   2.858   6.208   1.467
14425SOL    HW243300   3.019   6.216   1.440
14426SOL     OW43301   3.089   7.156   0.793
14426SOL    HW143302   3.110   7.230   0.728
14426SOL    HW243303   3.157   7.156   0.866
14427SOL     OW43304   2.321   6.738   0.741
14427SOL    HW143305   2.250   6.711   0.806
14427SOL    HW243306   2.295   6.710   0.648
14428SOL     OW43307   3.133   7.383   0.591
14428SOL    HW143308   3.177   7.447   0.527
14428SOL    HW243309   3.083   7.435   0.661
14429SOL     OW43310   2.894   6.135   0.016
14429SOL    HW143311   2.853   6.217  -0.023
14429SOL    HW243312   2.958   6.161   0.089
14430SOL     OW43313   1.940   6.142   1.386
14430SOL    HW143314   2.032   6.141   1.345
14430SOL    HW243315   1.934   6.216   1.453
14431SOL     OW43316   2.423   5.808   1.147
14431SOL    HW143317   2.461   5.724   1.184
14431SOL    HW243318   2.335   5.827   1.191
14432SOL     OW43319   2.728   6.040   0.642
14432SOL    HW143320   2.696   6.112   0.580
14432SOL    HW243321   2.752   5.959   0.589
14433SOL     OW43322   2.879   5.625   0.753
14433SOL    HW143323   2.807   5.630   0.684
14433SOL    HW243324   2.855   5.556   0.822
14434SOL     OW43325   3.291   6.759   0.867
14434SOL    HW143326   3.236   6.675   0.860
14434SOL    HW243327   3.317   6.788   0.775
14435SOL     OW43328   3.328   6.176   0.992
14435SOL    HW143329   3.298   6.081   0.999
14435SOL    HW243330   3.401   6.192   1.058
14436SOL     OW43331   3.719   6.419   0.377
14436SOL    HW143332   3.761   6.355   0.441
14436SOL    HW243333   3.681   6.368   0.299
14437SOL     OW43334   2.350   6.971   0.174
14437SOL    HW143335   2.263   6.956   0.221
14437SOL    HW243336   2.333   6.997   0.079
14438SOL     OW43337   3.526   6.866   0.657
14438SOL    HW143338   3.625   6.874   0.671
14438SOL    HW243339   3.481   6.950   0.688
14439SOL     OW43340   3.252   6.161   0.078
14439SOL    HW143341   3.198   6.140   0.159
14439SOL    HW243342   3.343   6.120   0.087
14440SOL     OW43343   2.389   5.842   0.328
14440SOL    HW143344   2.416   5.783   0.253
14440SOL    HW243345   2.389   5.937   0.297
14441SOL     OW43346   3.616   6.809   1.588
14441SOL    HW143347   3.707   6.770   1.575
14441SOL    HW243348   3.624   6.905   1.612
14442SOL     OW43349   2.926   6.933   1.340
14442SOL    HW143350   2.846   6.910   1.395
14442SOL    HW243351   3.009   6.907   1.389
14443SOL     OW43352   3.454   7.215   1.625
14443SOL    HW143353   3.481   7.249   1.535
14443SOL    HW243354   3.533   7.177   1.671
14444SOL     OW43355   2.973   6.781   1.100
14444SOL    HW143356   2.933   6.825   1.181
14444SOL    HW243357   2.932   6.818   1.017
14445SOL     OW43358   3.500   6.685   1.079
14445SOL    HW143359   3.505   6.766   1.138
14445SOL    HW243360   3.414   6.687   1.028
14446SOL     OW43361   2.777   5.675   1.402
14446SOL    HW143362   2.802   5.655   1.307
14446SOL    HW243363   2.849   5.731   1.444
14447SOL     OW43364   2.842   6.702   1.719
14447SOL    HW143365   2.743   6.708   1.729
14447SOL    HW243366   2.865   6.622   1.663
14448SOL     OW43367   2.567   6.636   0.368
14448SOL    HW143368   2.553   6.643   0.467
14448SOL    HW243369   2.651   6.585   0.350
14449SOL     OW43370   2.272   6.399   1.251
14449SOL    HW143371   2.358   6.411   1.301
14449SOL    HW243372   2.230   6.312   1.278
14450SOL     OW43373   3.136   5.972   1.262
14450SOL    HW143374   3.157   6.046   1.326
14450SOL    HW243375   3.047   5.989   1.219
14451SOL     OW43376   1.926   7.150   1.331
14451SOL    HW143377   1.880   7.232   1.297
14451SOL    HW243378   2.024   7.169   1.340
14452SOL     OW43379   2.229   6.686   0.501
14452SOL    HW143380   2.222   6.769   0.445
14452SOL    HW243381   2.233   6.606   0.441
14453SOL     OW43382   3.114   6.934   0.388
14453SOL    HW143383   3.164   7.011   0.428
14453SOL    HW243384   3.019   6.936   0.420
14454SOL     OW43385   3.134   7.031   1.142
14454SOL    HW143386   3.181   7.044   1.229
14454SOL    HW243387   3.068   6.957   1.151
14455SOL     OW43388   3.444   6.225   0.472
14455SOL    HW143389   3.413   6.286   0.545
14455SOL    HW243390   3.494   6.277   0.403
14456SOL     OW43391   2.216   7.096   1.329
14456SOL    HW143392   2.195   7.052   1.242
14456SOL    HW243393   2.313   7.122   1.332
14457SOL     OW43394   2.264   6.337   1.598
14457SOL    HW143395   2.332   6.392   1.551
14457SOL    HW243396   2.304   6.249   1.625
14458SOL     OW43397   3.449   6.365   1.670
14458SOL    HW143398   3.357   6.403   1.665
14458SOL    HW243399   3.509   6.412   1.605
14459SOL     OW43400   2.875   5.691   1.770
14459SOL    HW143401   2.881   5.776   1.718
14459SOL    HW243402   2.907   5.615   1.713
14460SOL     OW43403   2.366   5.636   1.740
14460SOL    HW143404   2.324   5.579   1.670
14460SOL    HW243405   2.300   5.705   1.772
14461SOL     OW43406   2.435   6.456   1.029
14461SOL    HW143407   2.479   6.545   1.020
14461SOL    HW243408   2.372   6.456   1.106
14462SOL     OW43409   3.222   6.448   1.045
14462SOL    HW143410   3.147   6.448   0.979
14462SOL    HW243411   3.259   6.356   1.054
14463SOL     OW43412   3.071   6.111   0.275
14463SOL    HW143413   3.084   6.027   0.329
14463SOL    HW243414   3.042   6.185   0.335
14464SOL     OW43415   2.169   5.799   1.231
14464SOL    HW143416   2.146   5.836   1.321
14464SOL    HW243417   2.139   5.704   1.225
14465SOL     OW43418   1.899   6.896   1.282
14465SOL    HW143419   1.952   6.847   1.350
14465SOL    HW243420   1.921   6.994   1.287
14466SOL     OW43421   2.594   6.220   1.064
14466SOL    HW143422   2.653   6.194   0.988
14466SOL    HW243423   2.566   6.316   1.053
14467SOL     OW43424   3.590   6.521   1.854
14467SOL    HW143425   3.544   6.514   1.765
14467SOL    HW243426   3.528   6.565   1.920
14468SOL     OW43427   2.169   5.649   0.618
14468SOL    HW143428   2.158   5.743   0.651
14468SOL    HW243429   2.164   5.586   0.695
14469SOL     OW43430   3.484   5.953   0.374
14469SOL    HW143431   3.486   5.877   0.438
14469SOL    HW243432   3.436   6.030   0.414
14470SOL     OW43433   2.885   6.352   0.966
14470SOL    HW143434   2.900   6.373   1.062
14470SOL    HW243435   2.855   6.257   0.957
14471SOL     OW43436   2.842   7.159   1.700
14471SOL    HW143437   2.822   7.203   1.612
14471SOL    HW243438   2.881   7.068   1.684
14472SOL     OW43439   3.721   7.104   1.605
14472SOL    HW143440   3.735   7.131   1.510
14472SOL    HW243441   3.804   7.126   1.658
14473SOL     OW43442   2.212   6.484   1.804
14473SOL    HW143443   2.288   6.528   1.852
14473SOL    HW243444   2.247   6.437   1.722
14474SOL     OW43445   3.402   5.860   0.125
14474SOL    HW143446   3.341   5.785   0.148
14474SOL    HW243447   3.424   5.912   0.208
14475SOL     OW43448   3.165   6.424   0.042
14475SOL    HW143449   3.199   6.331   0.057
14475SOL    HW243450   3.183   6.451  -0.053
14476SOL     OW43451   2.930   6.919   0.849
14476SOL    HW143452   2.937   6.835   0.794
14476SOL    HW243453   2.992   6.988   0.813
14477SOL     OW43454   2.181   6.396   0.949
14477SOL    HW143455   2.274   6.432   0.954
14477SOL    HW243456   2.175   6.311   1.001
14478SOL     OW43457   2.201   6.095   1.006
14478SOL    HW143458   2.149   6.012   0.989
14478SOL    HW243459   2.278   6.100   0.942
14479SOL     OW43460   3.000   5.966   1.678
14479SOL    HW143461   2.955   6.029   1.742
14479SOL    HW243462   3.093   5.997   1.661
14480SOL     OW43463   3.022   5.793   1.477
14480SOL    HW143464   3.022   5.857   1.554
14480SOL    HW243465   3.050   5.841   1.394
14481SOL     OW43466   1.870   6.912   0.200
14481SOL    HW143467   1.777   6.933   0.169
14481SOL    HW243468   1.880   6.813   0.213
14482SOL     OW43469   1.950   7.387   0.927
14482SOL    HW143470   1.908   7.301   0.900
14482SOL    HW243471   2.044   7.390   0.893
14483SOL     OW43472   2.366   7.154   0.910
14483SOL    HW143473   2.432   7.228   0.919
14483SOL    HW243474   2.410   7.075   0.868
14484SOL     OW43475   2.864   6.382   1.238
14484SOL    HW143476   2.905   6.350   1.324
14484SOL    HW243477   2.768   6.355   1.235
14485SOL     OW43478   1.902   6.130   1.114
14485SOL    HW143479   1.987   6.097   1.073
14485SOL    HW243480   1.915   6.145   1.212
14486SOL     OW43481   2.051   6.106   1.722
14486SOL    HW143482   2.110   6.066   1.652
14486SOL    HW243483   1.993   6.177   1.681
14487SOL     OW43484   3.231   6.536   1.660
14487SOL    HW143485   3.270   6.625   1.680
14487SOL    HW243486   3.241   6.516   1.563
14488SOL     OW43487   2.677   6.158   0.325
14488SOL    HW143488   2.684   6.069   0.279
14488SOL    HW243489   2.583   6.192   0.317
14489SOL     OW43490   3.519   6.190   1.206
14489SOL    HW143491   3.481   6.121   1.268
14489SOL    HW243492   3.601   6.154   1.162
14490SOL     OW43493   2.114   7.150   1.744
14490SOL    HW143494   2.084   7.207   1.820
14490SOL    HW243495   2.107   7.053   1.770
14491SOL     OW43496   2.533   6.050   1.269
14491SOL    HW143497   2.499   5.961   1.239
14491SOL    HW243498   2.559   6.104   1.189
14492SOL     OW43499   2.792   7.264   1.465
14492SOL    HW143500   2.768   7.246   1.370
14492SOL    HW243501   2.822   7.358   1.475
14493SOL     OW43502   2.335   6.086   0.191
14493SOL    HW143503   2.396   6.166   0.195
14493SOL    HW243504   2.240   6.117   0.198
14494SOL     OW43505   2.021   6.723   1.466
14494SOL    HW143506   2.043   6.662   1.542
14494SOL    HW243507   2.031   6.674   1.380
14495SOL     OW43508   3.209   6.645   1.234
14495SOL    HW143509   3.233   6.582   1.160
14495SOL    HW243510   3.119   6.685   1.216
14496SOL     OW43511   3.164   6.441   0.309
14496SOL    HW143512   3.078   6.410   0.351
14496SOL    HW243513   3.160   6.427   0.210
14497SOL     OW43514   3.621   7.333   1.154
14497SOL    HW143515   3.682   7.363   1.081
14497SOL    HW243516   3.583   7.244   1.132
14498SOL     OW43517   3.114   7.317   1.128
14498SOL    HW143518   3.198   7.322   1.074
14498SOL    HW243519   3.091   7.221   1.146
14499SOL     OW43520   1.945   6.844   1.022
14499SOL    HW143521   1.940   6.843   1.122
14499SOL    HW243522   1.862   6.803   0.984
14500SOL     OW43523   2.550   7.248   1.716
14500SOL    HW143524   2.494   7.329   1.725
14500SOL    HW243525   2.602   7.252   1.630
14501SOL     OW43526   2.765   5.672   0.133
14501SOL    HW143527   2.816   5.673   0.047
14501SOL    HW243528   2.821   5.630   0.204
14502SOL     OW43529   3.588   5.721   0.523
14502SOL    HW143530   3.661   5.704   0.456
14502SOL    HW243531   3.557   5.634   0.561
14503SOL     OW43532   3.250   7.159   0.477
14503SOL    HW143533   3.317   7.171   0.403
14503SOL    HW243534   3.210   7.248   0.500
14504SOL     OW43535   1.992   7.380   1.851
14504SOL    HW143536   1.951   7.306   1.904
14504SOL    HW243537   2.056   7.431   1.909
14505SOL     OW43538   3.142   6.513   0.672
14505SOL    HW143539   3.202   6.432   0.674
14505SOL    HW243540   3.182   6.582   0.612
14506SOL     OW43541   2.692   6.859   1.422
14506SOL    HW143542   2.687   6.892   1.517
14506SOL    HW243543   2.606   6.878   1.376
14507SOL     OW43544   2.534   7.202   0.154
14507SOL    HW143545   2.543   7.212   0.055
14507SOL    HW243546   2.494   7.113   0.175
14508SOL     OW43547   3.512   7.306   1.394
14508SOL    HW143548   3.565   7.316   1.310
14508SOL    HW243549   3.485   7.396   1.428
14509SOL     OW43550   3.703   5.761   0.963
14509SOL    HW143551   3.742   5.676   0.927
14509SOL    HW243552   3.605   5.763   0.944
14510SOL     OW43553   2.125   5.912   0.720
14510SOL    HW143554   2.046   5.963   0.686
14510SOL    HW243555   2.116   5.897   0.818
14511SOL     OW43556   3.056   7.198   0.031
14511SOL    HW143557   3.062   7.105   0.068
14511SOL    HW243558   2.997   7.198  -0.049
14512SOL     OW43559   2.684   6.588   1.372
14512SOL    HW143560   2.724   6.587   1.280
14512SOL    HW243561   2.694   6.680   1.412
14513SOL     OW43562   2.778   6.496   0.291
14513SOL    HW143563   2.841   6.534   0.223
14513SOL    HW243564   2.818   6.413   0.330
14514SOL     OW43565   3.366   7.193   0.044
14514SOL    HW143566   3.274   7.230   0.051
14514SOL    HW243567   3.404   7.213  -0.046
14515SOL     OW43568   2.234   6.874   1.490
14515SOL    HW143569   2.221   6.967   1.456
14515SOL    HW243570   2.150   6.822   1.477
14516SOL     OW43571   3.476   6.878   1.289
14516SOL    HW143572   3.536   6.881   1.369
14516SOL    HW243573   3.401   6.942   1.302
14517SOL     OW43574   2.901   6.684   0.696
14517SOL    HW143575   2.831   6.637   0.750
14517SOL    HW243576   2.960   6.616   0.653
14518SOL     OW43577   2.876   5.822   0.971
14518SOL    HW143578   2.868   5.786   0.878
14518SOL    HW243579   2.874   5.746   1.036
14519SOL     OW43580   2.452   7.073   0.491
14519SOL    HW143581   2.494   7.015   0.421
14519SOL    HW243582   2.408   7.152   0.447
14520SOL     OW43583   3.571   5.971   1.381
14520SOL    HW143584   3.644   6.040   1.385
14520SOL    HW243585   3.599   5.896   1.322
14521SOL     OW43586   2.117   6.934   0.290
14521SOL    HW143587   2.021   6.935   0.263
14521SOL    HW243588   2.129   6.987   0.374
14522SOL     OW43589   1.967   6.599   1.726
14522SOL    HW143590   1.890   6.566   1.780
14522SOL    HW243591   2.052   6.569   1.768
14523SOL     OW43592   2.534   5.789   1.489
14523SOL    HW143593   2.624   5.773   1.449
14523SOL    HW243594   2.542   5.794   1.588
14524SOL     OW43595   3.302   6.442   1.398
14524SOL    HW143596   3.245   6.494   1.335
14524SOL    HW243597   3.398   6.454   1.374
14525SOL     OW43598   1.934   5.752   0.318
14525SOL    HW143599   1.917   5.835   0.264
14525SOL    HW243600   2.024   5.715   0.296
14526SOL     OW43601   3.045   6.921   0.119
14526SOL    HW143602   2.946   6.910   0.121
14526SOL    HW243603   3.079   6.936   0.212
14527SOL     OW43604   2.475   6.428   1.431
14527SOL    HW143605   2.531   6.509   1.414
14527SOL    HW243606   2.534   6.348   1.434
14528SOL     OW43607   3.355   7.353   0.959
14528SOL    HW143608   3.388   7.417   0.890
14528SOL    HW243609   3.421   7.347   1.034
14529SOL     OW43610   2.578   6.151   1.708
14529SOL    HW143611   2.597   6.216   1.782
14529SOL    HW243612   2.638   6.071   1.717
14530SOL     OW43613   3.312   6.806   1.633
14530SOL    HW143614   3.303   6.796   1.732
14530SOL    HW243615   3.408   6.799   1.607
14531SOL     OW43616   2.252   7.327   1.560
14531SOL    HW143617   2.161   7.368   1.558
14531SOL    HW243618   2.245   7.233   1.592
14532SOL     OW43619   3.536   6.469   1.254
14532SOL    HW143620   3.509   6.380   1.217
14532SOL    HW243621   3.537   6.537   1.181
14533SOL     OW43622   3.087   5.911   0.449
14533SOL    HW143623   3.152   5.837   0.438
14533SOL    HW243624   3.107   5.961   0.533
14534SOL     OW43625   2.456   6.331   0.652
14534SOL    HW143626   2.506   6.416   0.633
14534SOL    HW243627   2.368   6.333   0.604
14535SOL     OW43628   3.639   5.928   1.642
14535SOL    HW143629   3.622   5.959   1.548
14535SOL    HW243630   3.555   5.891   1.680
14536SOL     OW43631   3.592   6.520   1.517
14536SOL    HW143632   3.630   6.611   1.532
14536SOL    HW243633   3.584   6.503   1.418
14537SOL     OW43634   2.721   6.960   0.016
14537SOL    HW143635   2.675   6.975   0.104
14537SOL    HW243636   2.765   7.045  -0.014
14538SOL     OW43637   2.523   7.376   0.953
14538SOL    HW143638   2.477   7.464   0.940
14538SOL    HW243639   2.622   7.388   0.946
14539SOL     OW43640   2.721   6.542   0.861
14539SOL    HW143641   2.775   6.473   0.909
14539SOL    HW243642   2.689   6.611   0.927
14540SOL     OW43643   2.945   6.570   0.087
14540SOL    HW143644   2.922   6.623   0.005
14540SOL    HW243645   3.026   6.514   0.068
14541SOL     OW43646   3.723   7.155   0.851
14541SOL    HW143647   3.652   7.143   0.781
14541SOL    HW243648   3.724   7.076   0.911
14542SOL     OW43649   2.083   6.900   1.844
14542SOL    HW143650   2.018   6.827   1.823
14542SOL    HW243651   2.087   6.914   1.942
14543SOL     OW43652   1.941   6.826   0.653
14543SOL    HW143653   1.940   6.779   0.741
14543SOL    HW243654   2.023   6.798   0.602
14544SOL     OW43655   2.534   6.977   1.624
14544SOL    HW143656   2.456   6.927   1.662
14544SOL    HW243657   2.531   7.072   1.655
14545SOL     OW43658   3.686   5.778   1.227
14545SOL    HW143659   3.682   5.688   1.271
14545SOL    HW243660   3.689   5.767   1.128
14546SOL     OW43661   2.290   6.010   0.520
14546SOL    HW143662   2.320   5.938   0.458
14546SOL    HW243663   2.251   5.970   0.603
14547SOL     OW43664   3.567   7.073   1.104
14547SOL    HW143665   3.474   7.048   1.077
14547SOL    HW243666   3.593   7.023   1.186
14548SOL     OW43667   2.179   6.133   1.280
14548SOL    HW143668   2.217   6.074   1.352
14548SOL    HW243669   2.219   6.107   1.192
14549SOL     OW43670   2.674   7.172   0.687
14549SOL    HW143671   2.706   7.182   0.593
14549SOL    HW243672   2.595   7.110   0.689
14550SOL     OW43673   3.286   5.800   1.112
14550SOL    HW143674   3.338   5.735   1.167
14550SOL    HW243675   3.237   5.863   1.173
14551SOL     OW43676   2.863   5.620   1.154
14551SOL    HW143677   2.800   5.548   1.123
14551SOL    HW243678   2.956   5.584   1.154
14552SOL     OW43679   2.632   6.916   0.301
14552SOL    HW143680   2.586   6.829   0.318
14552SOL    HW243681   2.723   6.913   0.342
14553SOL     OW43682   2.480   7.153   1.284
14553SOL    HW143683   2.475   7.235   1.341
14553SOL    HW243684   2.569   7.150   1.239
14554SOL     OW43685   3.214   5.638   0.168
14554SOL    HW143686   3.249   5.597   0.084
14554SOL    HW243687   3.124   5.600   0.188
14555SOL     OW43688   3.162   6.039   0.691
14555SOL    HW143689   3.103   6.119   0.695
14555SOL    HW243690   3.177   6.004   0.784
14556SOL     OW43691   3.455   5.807   0.882
14556SOL    HW143692   3.371   5.806   0.936
14556SOL    HW243693   3.457   5.890   0.826
14557SOL     OW43694   1.901   6.663   0.300
14557SOL    HW143695   2.000   6.652   0.291
14557SOL    HW243696   1.861   6.577   0.332
14558SOL     OW43697   2.737   7.232   0.337
14558SOL    HW143698   2.660   7.197   0.283
14558SOL    HW243699   2.705   7.303   0.399
14559SOL     OW43700   2.092   6.214   1.975
14559SOL    HW143701   1.999   6.212   2.012
14559SOL    HW243702   2.093   6.175   1.883
14560SOL     OW43703   2.087   5.861   2.858
14560SOL    HW143704   2.122   5.844   2.950
14560SOL    HW243705   1.999   5.816   2.846
14561SOL     OW43706   1.881   5.954   2.509
14561SOL    HW143707   1.799   5.997   2.548
14561SOL    HW243708   1.853   5.881   2.446
14562SOL     OW43709   2.431   6.861   3.027
14562SOL    HW143710   2.338   6.854   2.990
14562SOL    HW243711   2.442   6.950   3.071
14563SOL     OW43712   3.417   7.097   2.565
14563SOL    HW143713   3.360   7.081   2.646
14563SOL    HW243714   3.358   7.107   2.485
14564SOL     OW43715   2.997   6.289   2.579
14564SOL    HW143716   3.054   6.367   2.554
14564SOL    HW243717   2.937   6.315   2.655
14565SOL     OW43718   3.617   6.193   2.093
14565SOL    HW143719   3.605   6.180   1.994
14565SOL    HW243720   3.587   6.112   2.142
14566SOL     OW43721   2.630   6.730   2.885
14566SOL    HW143722   2.552   6.747   2.945
14566SOL    HW243723   2.664   6.817   2.849
14567SOL     OW43724   2.712   6.384   3.685
14567SOL    HW143725   2.708   6.460   3.750
14567SOL    HW243726   2.734   6.420   3.594
14568SOL     OW43727   2.547   6.598   2.527
14568SOL    HW143728   2.616   6.582   2.597
14568SOL    HW243729   2.474   6.655   2.565
14569SOL     OW43730   2.548   6.747   3.665
14569SOL    HW143731   2.608   6.826   3.679
14569SOL    HW243732   2.462   6.778   3.624
14570SOL     OW43733   2.197   7.021   2.923
14570SOL    HW143734   2.119   6.990   2.870
14570SOL    HW243735   2.255   7.079   2.866
14571SOL     OW43736   3.322   7.091   3.201
14571SOL    HW143737   3.346   7.185   3.227
14571SOL    HW243738   3.306   7.037   3.283
14572SOL     OW43739   2.300   5.978   3.361
14572SOL    HW143740   2.382   5.922   3.370
14572SOL    HW243741   2.219   5.920   3.365
14573SOL     OW43742   3.465   6.033   2.599
14573SOL    HW143743   3.391   6.079   2.549
14573SOL    HW243744   3.516   6.101   2.652
14574SOL     OW43745   2.093   7.299   2.345
14574SOL    HW143746   2.127   7.376   2.399
14574SOL    HW243747   2.137   7.299   2.255
14575SOL     OW43748   2.989   6.927   3.552
14575SOL    HW143749   3.036   6.927   3.640
14575SOL    HW243750   2.941   6.840   3.541
14576SOL     OW43751   2.092   7.020   2.400
14576SOL    HW143752   2.066   7.116   2.400
14576SOL    HW243753   2.021   6.966   2.445
14577SOL     OW43754   2.102   6.677   2.748
14577SOL    HW143755   2.116   6.593   2.800
14577SOL    HW243756   2.047   6.741   2.803
14578SOL     OW43757   2.482   7.372   3.301
14578SOL    HW143758   2.390   7.355   3.336
14578SOL    HW243759   2.510   7.464   3.327
14579SOL     OW43760   2.468   6.550   1.985
14579SOL    HW143761   2.475   6.634   1.931
14579SOL    HW243762   2.514   6.563   2.073
14580SOL     OW43763   3.456   5.700   3.342
14580SOL    HW143764   3.438   5.767   3.270
14580SOL    HW243765   3.453   5.746   3.431
14581SOL     OW43766   1.984   6.229   2.425
14581SOL    HW143767   1.939   6.141   2.442
14581SOL    HW243768   1.983   6.283   2.509
14582SOL     OW43769   3.704   7.353   2.221
14582SOL    HW143770   3.758   7.324   2.301
14582SOL    HW243771   3.734   7.443   2.192
14583SOL     OW43772   1.889   7.182   1.979
14583SOL    HW143773   1.870   7.086   2.000
14583SOL    HW243774   1.856   7.240   2.054
14584SOL     OW43775   3.551   6.508   2.474
14584SOL    HW143776   3.646   6.479   2.482
14584SOL    HW243777   3.543   6.573   2.399
14585SOL     OW43778   3.503   6.694   2.294
14585SOL    HW143779   3.589   6.696   2.242
14585SOL    HW243780   3.517   6.741   2.382
14586SOL     OW43781   1.975   6.323   3.459
14586SOL    HW143782   2.063   6.310   3.504
14586SOL    HW243783   1.962   6.420   3.437
14587SOL     OW43784   2.475   6.951   2.588
14587SOL    HW143785   2.426   6.864   2.597
14587SOL    HW243786   2.452   6.994   2.501
14588SOL     OW43787   3.155   6.814   3.285
14588SOL    HW143788   3.192   6.741   3.227
14588SOL    HW243789   3.207   6.819   3.370
14589SOL     OW43790   2.671   5.590   2.364
14589SOL    HW143791   2.711   5.681   2.355
14589SOL    HW243792   2.571   5.598   2.370
14590SOL     OW43793   2.059   6.562   3.126
14590SOL    HW143794   2.148   6.517   3.112
14590SOL    HW243795   1.986   6.497   3.107
14591SOL     OW43796   3.387   6.585   2.052
14591SOL    HW143797   3.324   6.509   2.065
14591SOL    HW243798   3.435   6.603   2.138
14592SOL     OW43799   3.049   7.378   3.478
14592SOL    HW143800   3.073   7.438   3.402
14592SOL    HW243801   3.056   7.283   3.448
14593SOL     OW43802   2.179   5.837   3.663
14593SOL    HW143803   2.250   5.908   3.669
14593SOL    HW243804   2.091   5.876   3.691
14594SOL     OW43805   3.328   7.003   2.815
14594SOL    HW143806   3.269   7.009   2.895
14594SOL    HW243807   3.313   6.915   2.769
14595SOL     OW43808   3.529   7.300   2.434
14595SOL    HW143809   3.488   7.277   2.346
14595SOL    HW243810   3.511   7.226   2.499
14596SOL     OW43811   2.460   6.315   2.132
14596SOL    HW143812   2.484   6.384   2.064
14596SOL    HW243813   2.382   6.348   2.186
14597SOL     OW43814   3.143   5.931   2.806
14597SOL    HW143815   3.057   5.881   2.793
14597SOL    HW243816   3.205   5.877   2.862
14598SOL     OW43817   3.438   7.248   2.169
14598SOL    HW143818   3.527   7.294   2.172
14598SOL    HW243819   3.417   7.224   2.074
14599SOL     OW43820   2.669   6.191   3.327
14599SOL    HW143821   2.622   6.188   3.416
14599SOL    HW243822   2.618   6.136   3.261
14600SOL     OW43823   3.256   6.055   3.536
14600SOL    HW143824   3.236   6.098   3.624
14600SOL    HW243825   3.334   5.993   3.545
14601SOL     OW43826   2.835   6.476   3.434
14601SOL    HW143827   2.881   6.392   3.405
14601SOL    HW243828   2.779   6.510   3.359
14602SOL     OW43829   2.853   5.996   3.104
14602SOL    HW143830   2.776   6.030   3.158
14602SOL    HW243831   2.819   5.945   3.025
14603SOL     OW43832   2.903   6.287   2.291
14603SOL    HW143833   2.929   6.283   2.387
14603SOL    HW243834   2.818   6.236   2.277
14604SOL     OW43835   1.938   6.397   2.651
14604SOL    HW143836   2.037   6.385   2.660
14604SOL    HW243837   1.914   6.492   2.672
14605SOL     OW43838   1.992   7.407   3.433
14605SOL    HW143839   1.982   7.392   3.532
14605SOL    HW243840   1.906   7.443   3.397
14606SOL     OW43841   2.727   5.934   2.057
14606SOL    HW143842   2.786   5.997   2.008
14606SOL    HW243843   2.746   5.840   2.028
14607SOL     OW43844   3.581   6.171   3.693
14607SOL    HW143845   3.555   6.260   3.657
14607SOL    HW243846   3.579   6.103   3.620
14608SOL     OW43847   3.224   6.730   2.407
14608SOL    HW143848   3.307   6.701   2.359
14608SOL    HW243849   3.175   6.797   2.351
14609SOL     OW43850   2.412   5.782   2.747
14609SOL    HW143851   2.407   5.777   2.847
14609SOL    HW243852   2.414   5.878   2.718
14610SOL     OW43853   2.870   7.042   2.339
14610SOL    HW143854   2.824   7.114   2.287
14610SOL    HW243855   2.866   7.062   2.437
14611SOL     OW43856   2.213   7.387   2.715
14611SOL    HW143857   2.263   7.301   2.721
14611SOL    HW243858   2.278   7.464   2.712
14612SOL     OW43859   3.657   6.652   2.735
14612SOL    HW143860   3.595   6.637   2.659
14612SOL    HW243861   3.605   6.663   2.820
14613SOL     OW43862   3.089   7.136   3.368
14613SOL    HW143863   3.095   7.059   3.432
14613SOL    HW243864   3.037   7.110   3.288
14614SOL     OW43865   2.183   6.529   2.104
14614SOL    HW143866   2.265   6.568   2.062
14614SOL    HW243867   2.156   6.447   2.055
14615SOL     OW43868   3.320   6.321   2.590
14615SOL    HW143869   3.315   6.256   2.665
14615SOL    HW243870   3.400   6.380   2.603
14616SOL     OW43871   2.323   6.852   3.589
14616SOL    HW143872   2.273   6.853   3.503
14616SOL    HW243873   2.260   6.834   3.665
14617SOL     OW43874   2.973   7.362   2.099
14617SOL    HW143875   2.913   7.300   2.149
14617SOL    HW243876   3.004   7.318   2.014
14618SOL     OW43877   2.064   5.871   3.360
14618SOL    HW143878   1.984   5.931   3.347
14618SOL    HW243879   2.054   5.822   3.446
14619SOL     OW43880   3.494   6.963   1.943
14619SOL    HW143881   3.462   7.057   1.933
14619SOL    HW243882   3.418   6.900   1.931
14620SOL     OW43883   2.326   7.329   2.185
14620SOL    HW143884   2.359   7.368   2.271
14620SOL    HW243885   2.402   7.322   2.120
14621SOL     OW43886   3.262   5.693   2.288
14621SOL    HW143887   3.238   5.656   2.198
14621SOL    HW243888   3.361   5.709   2.292
14622SOL     OW43889   2.111   7.371   3.103
14622SOL    HW143890   2.168   7.306   3.153
14622SOL    HW243891   2.095   7.338   3.010
14623SOL     OW43892   2.802   7.284   2.766
14623SOL    HW143893   2.882   7.227   2.787
14623SOL    HW243894   2.753   7.244   2.689
14624SOL     OW43895   2.244   6.286   2.342
14624SOL    HW143896   2.289   6.196   2.339
14624SOL    HW243897   2.150   6.275   2.375
14625SOL     OW43898   3.409   5.808   3.591
14625SOL    HW143899   3.404   5.845   3.683
14625SOL    HW243900   3.337   5.739   3.579
14626SOL     OW43901   2.476   5.708   1.979
14626SOL    HW143902   2.574   5.686   1.986
14626SOL    HW243903   2.445   5.691   1.886
14627SOL     OW43904   2.643   5.850   3.611
14627SOL    HW143905   2.710   5.789   3.654
14627SOL    HW243906   2.570   5.869   3.676
14628SOL     OW43907   2.750   7.100   3.057
14628SOL    HW143908   2.727   7.075   2.963
14628SOL    HW243909   2.811   7.031   3.096
14629SOL     OW43910   3.213   6.176   3.295
14629SOL    HW143911   3.241   6.133   3.380
14629SOL    HW243912   3.238   6.272   3.296
14630SOL     OW43913   2.665   6.988   2.786
14630SOL    HW143914   2.755   7.002   2.744
14630SOL    HW243915   2.594   6.990   2.715
14631SOL     OW43916   2.784   6.089   2.761
14631SOL    HW143917   2.759   6.080   2.665
14631SOL    HW243918   2.832   6.007   2.792
14632SOL     OW43919   2.401   5.650   2.374
14632SOL    HW143920   2.320   5.651   2.432
14632SOL    HW243921   2.404   5.733   2.319
14633SOL     OW43922   3.296   6.774   1.903
14633SOL    HW143923   3.328   6.698   1.960
14633SOL    HW243924   3.204   6.801   1.933
14634SOL     OW43925   2.159   5.621   2.033
14634SOL    HW143926   2.208   5.705   2.012
14634SOL    HW243927   2.221   5.556   2.078
14635SOL     OW43928   2.797   5.822   2.342
14635SOL    HW143929   2.749   5.863   2.264
14635SOL    HW243930   2.896   5.820   2.323
14636SOL     OW43931   2.938   6.269   3.326
14636SOL    HW143932   2.858   6.208   3.329
14636SOL    HW243933   3.019   6.216   3.302
14637SOL     OW43934   3.089   7.156   2.655
14637SOL    HW143935   3.110   7.230   2.590
14637SOL    HW243936   3.157   7.156   2.728
14638SOL     OW43937   2.321   6.738   2.603
14638SOL    HW143938   2.250   6.711   2.668
14638SOL    HW243939   2.295   6.710   2.510
14639SOL     OW43940   3.133   7.383   2.453
14639SOL    HW143941   3.177   7.447   2.389
14639SOL    HW243942   3.083   7.435   2.523
14640SOL     OW43943   2.894   6.135   1.878
14640SOL    HW143944   2.853   6.217   1.839
14640SOL    HW243945   2.958   6.161   1.951
14641SOL     OW43946   1.940   6.142   3.248
14641SOL    HW143947   2.032   6.141   3.207
14641SOL    HW243948   1.934   6.216   3.315
14642SOL     OW43949   2.423   5.808   3.009
14642SOL    HW143950   2.461   5.724   3.046
14642SOL    HW243951   2.335   5.827   3.053
14643SOL     OW43952   2.728   6.040   2.504
14643SOL    HW143953   2.696   6.112   2.442
14643SOL    HW243954   2.752   5.959   2.451
14644SOL     OW43955   2.879   5.625   2.615
14644SOL    HW143956   2.807   5.630   2.546
14644SOL    HW243957   2.855   5.556   2.684
14645SOL     OW43958   3.291   6.759   2.729
14645SOL    HW143959   3.236   6.675   2.722
14645SOL    HW243960   3.317   6.788   2.637
14646SOL     OW43961   3.328   6.176   2.854
14646SOL    HW143962   3.298   6.081   2.861
14646SOL    HW243963   3.401   6.192   2.920
14647SOL     OW43964   3.719   6.419   2.239
14647SOL    HW143965   3.761   6.355   2.303
14647SOL    HW243966   3.681   6.368   2.161
14648SOL     OW43967   2.350   6.971   2.036
14648SOL    HW143968   2.263   6.956   2.083
14648SOL    HW243969   2.333   6.997   1.941
14649SOL     OW43970   3.526   6.866   2.519
14649SOL    HW143971   3.625   6.874   2.533
14649SOL    HW243972   3.481   6.950   2.550
14650SOL     OW43973   3.252   6.161   1.940
14650SOL    HW143974   3.198   6.140   2.021
14650SOL    HW243975   3.343   6.120   1.949
14651SOL     OW43976   2.389   5.842   2.190
14651SOL    HW143977   2.416   5.783   2.115
14651SOL    HW243978   2.389   5.937   2.159
14652SOL     OW43979   3.616   6.809   3.450
14652SOL    HW143980   3.707   6.770   3.437
14652SOL    HW243981   3.624   6.905   3.474
14653SOL     OW43982   2.926   6.933   3.202
14653SOL    HW143983   2.846   6.910   3.257
14653SOL    HW243984   3.009   6.907   3.251
14654SOL     OW43985   3.454   7.215   3.487
14654SOL    HW143986   3.481   7.249   3.397
14654SOL    HW243987   3.533   7.177   3.533
14655SOL     OW43988   2.973   6.781   2.962
14655SOL    HW143989   2.933   6.825   3.043
14655SOL    HW243990   2.932   6.818   2.879
14656SOL     OW43991   3.500   6.685   2.941
14656SOL    HW143992   3.505   6.766   3.000
14656SOL    HW243993   3.414   6.687   2.890
14657SOL     OW43994   2.777   5.675   3.264
14657SOL    HW143995   2.802   5.655   3.169
14657SOL    HW243996   2.849   5.731   3.306
14658SOL     OW43997   2.842   6.702   3.581
14658SOL    HW143998   2.743   6.708   3.591
14658SOL    HW243999   2.865   6.622   3.525
14659SOL     OW44000   2.567   6.636   2.230
14659SOL    HW144001   2.553   6.643   2.329
14659SOL    HW244002   2.651   6.585   2.212
14660SOL     OW44003   2.272   6.399   3.113
14660SOL    HW144004   2.358   6.411   3.163
14660SOL    HW244005   2.230   6.312   3.140
14661SOL     OW44006   3.136   5.972   3.124
14661SOL    HW144007   3.157   6.046   3.188
14661SOL    HW244008   3.047   5.989   3.081
14662SOL     OW44009   1.926   7.150   3.193
14662SOL    HW144010   1.880   7.232   3.159
14662SOL    HW244011   2.024   7.169   3.202
14663SOL     OW44012   2.229   6.686   2.363
14663SOL    HW144013   2.222   6.769   2.307
14663SOL    HW244014   2.233   6.606   2.303
14664SOL     OW44015   2.428   6.123   2.727
14664SOL    HW144016   2.440   6.189   2.653
14664SOL    HW244017   2.474   6.157   2.810
14665SOL     OW44018   3.114   6.934   2.250
14665SOL    HW144019   3.164   7.011   2.290
14665SOL    HW244020   3.019   6.936   2.282
14666SOL     OW44021   3.134   7.031   3.004
14666SOL    HW144022   3.181   7.044   3.091
14666SOL    HW244023   3.068   6.957   3.013
14667SOL     OW44024   3.444   6.225   2.334
14667SOL    HW144025   3.413   6.286   2.407
14667SOL    HW244026   3.494   6.277   2.265
14668SOL     OW44027   2.216   7.096   3.191
14668SOL    HW144028   2.195   7.052   3.104
14668SOL    HW244029   2.313   7.122   3.194
14669SOL     OW44030   2.264   6.337   3.460
14669SOL    HW144031   2.332   6.392   3.413
14669SOL    HW244032   2.304   6.249   3.487
14670SOL     OW44033   3.449   6.365   3.532
14670SOL    HW144034   3.357   6.403   3.527
14670SOL    HW244035   3.509   6.412   3.467
14671SOL     OW44036   2.875   5.691   3.632
14671SOL    HW144037   2.881   5.776   3.580
14671SOL    HW244038   2.907   5.615   3.575
14672SOL     OW44039   2.366   5.636   3.602
14672SOL    HW144040   2.324   5.579   3.532
14672SOL    HW244041   2.300   5.705   3.634
14673SOL     OW44042   2.435   6.456   2.891
14673SOL    HW144043   2.479   6.545   2.882
14673SOL    HW244044   2.372   6.456   2.968
14674SOL     OW44045   3.222   6.448   2.907
14674SOL    HW144046   3.147   6.448   2.841
14674SOL    HW244047   3.259   6.356   2.916
14675SOL     OW44048   3.071   6.111   2.137
14675SOL    HW144049   3.084   6.027   2.191
14675SOL    HW244050   3.042   6.185   2.197
14676SOL     OW44051   2.169   5.799   3.093
14676SOL    HW144052   2.146   5.836   3.183
14676SOL    HW244053   2.139   5.704   3.087
14677SOL     OW44054   1.899   6.896   3.144
14677SOL    HW144055   1.952   6.847   3.212
14677SOL    HW244056   1.921   6.994   3.149
14678SOL     OW44057   2.594   6.220   2.926
14678SOL    HW144058   2.653   6.194   2.850
14678SOL    HW244059   2.566   6.316   2.915
14679SOL     OW44060   3.590   6.521   3.716
14679SOL    HW144061   3.544   6.514   3.627
14679SOL    HW244062   3.528   6.565   3.782
14680SOL     OW44063   2.169   5.649   2.480
14680SOL    HW144064   2.158   5.743   2.513
14680SOL    HW244065   2.164   5.586   2.557
14681SOL     OW44066   3.484   5.953   2.236
14681SOL    HW144067   3.486   5.877   2.300
14681SOL    HW244068   3.436   6.030   2.276
14682SOL     OW44069   2.885   6.352   2.828
14682SOL    HW144070   2.900   6.373   2.924
14682SOL    HW244071   2.855   6.257   2.819
14683SOL     OW44072   3.721   7.104   3.467
14683SOL    HW144073   3.735   7.131   3.372
14683SOL    HW244074   3.804   7.126   3.520
14684SOL     OW44075   2.212   6.484   3.666
14684SOL    HW144076   2.288   6.528   3.714
14684SOL    HW244077   2.247   6.437   3.584
14685SOL     OW44078   3.402   5.860   1.987
14685SOL    HW144079   3.341   5.785   2.010
14685SOL    HW244080   3.424   5.912   2.070
14686SOL     OW44081   3.165   6.424   1.904
14686SOL    HW144082   3.199   6.331   1.919
14686SOL    HW244083   3.183   6.451   1.809
14687SOL     OW44084   2.930   6.919   2.711
14687SOL    HW144085   2.937   6.835   2.656
14687SOL    HW244086   2.992   6.988   2.675
14688SOL     OW44087   2.181   6.396   2.811
14688SOL    HW144088   2.274   6.432   2.816
14688SOL    HW244089   2.175   6.311   2.863
14689SOL     OW44090   2.201   6.095   2.868
14689SOL    HW144091   2.149   6.012   2.851
14689SOL    HW244092   2.278   6.100   2.804
14690SOL     OW44093   3.000   5.966   3.540
14690SOL    HW144094   2.955   6.029   3.604
14690SOL    HW244095   3.093   5.997   3.523
14691SOL     OW44096   3.022   5.793   3.339
14691SOL    HW144097   3.022   5.857   3.416
14691SOL    HW244098   3.050   5.841   3.256
14692SOL     OW44099   1.870   6.912   2.062
14692SOL    HW144100   1.777   6.933   2.031
14692SOL    HW244101   1.880   6.813   2.075
14693SOL     OW44102   1.950   7.387   2.789
14693SOL    HW144103   1.908   7.301   2.762
14693SOL    HW244104   2.044   7.390   2.755
14694SOL     OW44105   2.366   7.154   2.772
14694SOL    HW144106   2.432   7.228   2.781
14694SOL    HW244107   2.410   7.075   2.730
14695SOL     OW44108   2.864   6.382   3.100
14695SOL    HW144109   2.905   6.350   3.186
14695SOL    HW244110   2.768   6.355   3.097
14696SOL     OW44111   1.902   6.130   2.976
14696SOL    HW144112   1.987   6.097   2.935
14696SOL    HW244113   1.915   6.145   3.074
14697SOL     OW44114   2.051   6.106   3.584
14697SOL    HW144115   2.110   6.066   3.514
14697SOL    HW244116   1.993   6.177   3.543
14698SOL     OW44117   3.231   6.536   3.522
14698SOL    HW144118   3.270   6.625   3.542
14698SOL    HW244119   3.241   6.516   3.425
14699SOL     OW44120   2.677   6.158   2.187
14699SOL    HW144121   2.684   6.069   2.141
14699SOL    HW244122   2.583   6.192   2.179
14700SOL     OW44123   3.519   6.190   3.068
14700SOL    HW144124   3.481   6.121   3.130
14700SOL    HW244125   3.601   6.154   3.024
14701SOL     OW44126   2.114   7.150   3.606
14701SOL    HW144127   2.084   7.207   3.682
14701SOL    HW244128   2.107   7.053   3.632
14702SOL     OW44129   2.533   6.050   3.131
14702SOL    HW144130   2.499   5.961   3.101
14702SOL    HW244131   2.559   6.104   3.051
14703SOL     OW44132   2.792   7.264   3.327
14703SOL    HW144133   2.768   7.246   3.232
14703SOL    HW244134   2.822   7.358   3.337
14704SOL     OW44135   2.335   6.086   2.053
14704SOL    HW144136   2.396   6.166   2.057
14704SOL    HW244137   2.240   6.117   2.060
14705SOL     OW44138   2.021   6.723   3.328
14705SOL    HW144139   2.043   6.662   3.404
14705SOL    HW244140   2.031   6.674   3.242
14706SOL     OW44141   3.209   6.645   3.096
14706SOL    HW144142   3.233   6.582   3.022
14706SOL    HW244143   3.119   6.685   3.078
14707SOL     OW44144   3.164   6.441   2.171
14707SOL    HW144145   3.078   6.410   2.213
14707SOL    HW244146   3.160   6.427   2.072
14708SOL     OW44147   3.621   7.333   3.016
14708SOL    HW144148   3.682   7.363   2.943
14708SOL    HW244149   3.583   7.244   2.994
14709SOL     OW44150   3.114   7.317   2.990
14709SOL    HW144151   3.198   7.322   2.936
14709SOL    HW244152   3.091   7.221   3.008
14710SOL     OW44153   1.945   6.844   2.884
14710SOL    HW144154   1.940   6.843   2.984
14710SOL    HW244155   1.862   6.803   2.846
14711SOL     OW44156   2.550   7.248   3.578
14711SOL    HW144157   2.494   7.329   3.587
14711SOL    HW244158   2.602   7.252   3.492
14712SOL     OW44159   3.588   5.721   2.385
14712SOL    HW144160   3.661   5.704   2.318
14712SOL    HW244161   3.557   5.634   2.423
14713SOL     OW44162   3.250   7.159   2.339
14713SOL    HW144163   3.317   7.171   2.265
14713SOL    HW244164   3.210   7.248   2.362
14714SOL     OW44165   1.992   7.380   3.713
14714SOL    HW144166   1.951   7.306   3.766
14714SOL    HW244167   2.056   7.431   3.771
14715SOL     OW44168   3.142   6.513   2.534
14715SOL    HW144169   3.202   6.432   2.536
14715SOL    HW244170   3.182   6.582   2.474
14716SOL     OW44171   2.692   6.859   3.284
14716SOL    HW144172   2.687   6.892   3.379
14716SOL    HW244173   2.606   6.878   3.238
14717SOL     OW44174   2.534   7.202   2.016
14717SOL    HW144175   2.543   7.212   1.917
14717SOL    HW244176   2.494   7.113   2.037
14718SOL     OW44177   3.512   7.306   3.256
14718SOL    HW144178   3.565   7.316   3.172
14718SOL    HW244179   3.485   7.396   3.290
14719SOL     OW44180   3.703   5.761   2.825
14719SOL    HW144181   3.742   5.676   2.789
14719SOL    HW244182   3.605   5.763   2.806
14720SOL     OW44183   2.125   5.912   2.582
14720SOL    HW144184   2.046   5.963   2.548
14720SOL    HW244185   2.116   5.897   2.680
14721SOL     OW44186   3.056   7.198   1.893
14721SOL    HW144187   3.062   7.105   1.930
14721SOL    HW244188   2.997   7.198   1.813
14722SOL     OW44189   2.684   6.588   3.234
14722SOL    HW144190   2.724   6.587   3.142
14722SOL    HW244191   2.694   6.680   3.274
14723SOL     OW44192   2.778   6.496   2.153
14723SOL    HW144193   2.841   6.534   2.085
14723SOL    HW244194   2.818   6.413   2.192
14724SOL     OW44195   3.366   7.193   1.906
14724SOL    HW144196   3.274   7.230   1.913
14724SOL    HW244197   3.404   7.213   1.816
14725SOL     OW44198   2.234   6.874   3.352
14725SOL    HW144199   2.221   6.967   3.318
14725SOL    HW244200   2.150   6.822   3.339
14726SOL     OW44201   3.476   6.878   3.151
14726SOL    HW144202   3.536   6.881   3.231
14726SOL    HW244203   3.401   6.942   3.164
14727SOL     OW44204   2.901   6.684   2.558
14727SOL    HW144205   2.831   6.637   2.612
14727SOL    HW244206   2.960   6.616   2.515
14728SOL     OW44207   2.876   5.822   2.833
14728SOL    HW144208   2.868   5.786   2.740
14728SOL    HW244209   2.874   5.746   2.898
14729SOL     OW44210   2.452   7.073   2.353
14729SOL    HW144211   2.494   7.015   2.283
14729SOL    HW244212   2.408   7.152   2.309
14730SOL     OW44213   3.571   5.971   3.243
14730SOL    HW144214   3.644   6.040   3.247
14730SOL    HW244215   3.599   5.896   3.184
14731SOL     OW44216   2.117   6.934   2.152
14731SOL    HW144217   2.021   6.935   2.125
14731SOL    HW244218   2.129   6.987   2.236
14732SOL     OW44219   1.967   6.599   3.588
14732SOL    HW144220   1.890   6.566   3.642
14732SOL    HW244221   2.052   6.569   3.630
14733SOL     OW44222   2.534   5.789   3.351
14733SOL    HW144223   2.624   5.773   3.311
14733SOL    HW244224   2.542   5.794   3.450
14734SOL     OW44225   1.937   5.931   1.895
14734SOL    HW144226   1.845   5.903   1.866
14734SOL    HW244227   1.968   6.008   1.839
14735SOL     OW44228   3.302   6.442   3.260
14735SOL    HW144229   3.245   6.494   3.197
14735SOL    HW244230   3.398   6.454   3.236
14736SOL     OW44231   1.934   5.752   2.180
14736SOL    HW144232   1.917   5.835   2.126
14736SOL    HW244233   2.024   5.715   2.158
14737SOL     OW44234   3.045   6.921   1.981
14737SOL    HW144235   2.946   6.910   1.983
14737SOL    HW244236   3.079   6.936   2.074
14738SOL     OW44237   2.475   6.428   3.293
14738SOL    HW144238   2.531   6.509   3.276
14738SOL    HW244239   2.534   6.348   3.296
14739SOL     OW44240   3.355   7.353   2.821
14739SOL    HW144241   3.388   7.417   2.752
14739SOL    HW244242   3.421   7.347   2.896
14740SOL     OW44243   2.578   6.151   3.570
14740SOL    HW144244   2.597   6.216   3.644
14740SOL    HW244245   2.638   6.071   3.579
14741SOL     OW44246   3.312   6.806   3.495
14741SOL    HW144247   3.303   6.796   3.594
14741SOL    HW244248   3.408   6.799   3.469
14742SOL     OW44249   2.252   7.327   3.422
14742SOL    HW144250   2.161   7.368   3.420
14742SOL    HW244251   2.245   7.233   3.454
14743SOL     OW44252   3.536   6.469   3.116
14743SOL    HW144253   3.509   6.380   3.079
14743SOL    HW244254   3.537   6.537   3.043
14744SOL     OW44255   3.087   5.911   2.311
14744SOL    HW144256   3.152   5.837   2.300
14744SOL    HW244257   3.107   5.961   2.395
14745SOL     OW44258   2.456   6.331   2.514
14745SOL    HW144259   2.506   6.416   2.495
14745SOL    HW244260   2.368   6.333   2.466
14746SOL     OW44261   3.639   5.928   3.504
14746SOL    HW144262   3.622   5.959   3.410
14746SOL    HW244263   3.555   5.891   3.542
14747SOL     OW44264   3.592   6.520   3.379
14747SOL    HW144265   3.630   6.611   3.394
14747SOL    HW244266   3.584   6.503   3.280
14748SOL     OW44267   2.721   6.960   1.878
14748SOL    HW144268   2.675   6.975   1.966
14748SOL    HW244269   2.765   7.045   1.848
14749SOL     OW44270   2.523   7.376   2.815
14749SOL    HW144271   2.477   7.464   2.802
14749SOL    HW244272   2.622   7.388   2.808
14750SOL     OW44273   2.721   6.542   2.723
14750SOL    HW144274   2.775   6.473   2.771
14750SOL    HW244275   2.689   6.611   2.789
14751SOL     OW44276   2.945   6.570   1.949
14751SOL    HW144277   2.922   6.623   1.867
14751SOL    HW244278   3.026   6.514   1.930
14752SOL     OW44279   3.723   7.155   2.713
14752SOL    HW144280   3.652   7.143   2.643
14752SOL    HW244281   3.724   7.076   2.773
14753SOL     OW44282   2.083   6.900   3.706
14753SOL    HW144283   2.018   6.827   3.685
14753SOL    HW244284   2.087   6.914   3.804
14754SOL     OW44285   1.941   6.826   2.515
14754SOL    HW144286   1.940   6.779   2.603
14754SOL    HW244287   2.023   6.798   2.464
14755SOL     OW44288   2.534   6.977   3.486
14755SOL    HW144289   2.456   6.927   3.524
14755SOL    HW244290   2.531   7.072   3.517
14756SOL     OW44291   3.686   5.778   3.089
14756SOL    HW144292   3.682   5.688   3.133
14756SOL    HW244293   3.689   5.767   2.990
14757SOL     OW44294   2.290   6.010   2.382
14757SOL    HW144295   2.320   5.938   2.320
14757SOL    HW244296   2.251   5.970   2.465
14758SOL     OW44297   3.567   7.073   2.966
14758SOL    HW144298   3.474   7.048   2.939
14758SOL    HW244299   3.593   7.023   3.048
14759SOL     OW44300   2.179   6.133   3.142
14759SOL    HW144301   2.217   6.074   3.214
14759SOL    HW244302   2.219   6.107   3.054
14760SOL     OW44303   2.674   7.172   2.549
14760SOL    HW144304   2.706   7.182   2.455
14760SOL    HW244305   2.595   7.110   2.551
14761SOL     OW44306   3.286   5.800   2.974
14761SOL    HW144307   3.338   5.735   3.029
14761SOL    HW244308   3.237   5.863   3.035
14762SOL     OW44309   2.863   5.620   3.016
14762SOL    HW144310   2.800   5.548   2.985
14762SOL    HW244311   2.956   5.584   3.016
14763SOL     OW44312   2.632   6.916   2.163
14763SOL    HW144313   2.586   6.829   2.180
14763SOL    HW244314   2.723   6.913   2.204
14764SOL     OW44315   2.480   7.153   3.146
14764SOL    HW144316   2.475   7.235   3.203
14764SOL    HW244317   2.569   7.150   3.101
14765SOL     OW44318   3.214   5.638   2.030
14765SOL    HW144319   3.249   5.597   1.946
14765SOL    HW244320   3.124   5.600   2.050
14766SOL     OW44321   3.162   6.039   2.553
14766SOL    HW144322   3.103   6.119   2.557
14766SOL    HW244323   3.177   6.004   2.646
14767SOL     OW44324   3.455   5.807   2.744
14767SOL    HW144325   3.371   5.806   2.798
14767SOL    HW244326   3.457   5.890   2.688
14768SOL     OW44327   1.901   6.663   2.162
14768SOL    HW144328   2.000   6.652   2.153
14768SOL    HW244329   1.861   6.577   2.194
14769SOL     OW44330   2.737   7.232   2.199
14769SOL    HW144331   2.660   7.197   2.145
14769SOL    HW244332   2.705   7.303   2.261
14770SOL     OW44333   2.092   6.214   3.837
14770SOL    HW144334   1.999   6.212   3.874
14770SOL    HW244335   2.093   6.175   3.745
14771SOL     OW44336   2.087   5.861   4.720
14771SOL    HW144337   2.122   5.844   4.812
14771SOL    HW244338   1.999   5.816   4.708
14772SOL     OW44339   1.881   5.954   4.371
14772SOL    HW144340   1.799   5.997   4.410
14772SOL    HW244341   1.853   5.881   4.308
14773SOL     OW44342   2.431   6.861   4.889
14773SOL    HW144343   2.338   6.854   4.852
14773SOL    HW244344   2.442   6.950   4.933
14774SOL     OW44345   3.417   7.097   4.427
14774SOL    HW144346   3.360   7.081   4.508
14774SOL    HW244347   3.358   7.107   4.347
14775SOL     OW44348   2.997   6.289   4.441
14775SOL    HW144349   3.054   6.367   4.416
14775SOL    HW244350   2.937   6.315   4.517
14776SOL     OW44351   3.617   6.193   3.955
14776SOL    HW144352   3.605   6.180   3.856
14776SOL    HW244353   3.587   6.112   4.004
14777SOL     OW44354   2.630   6.730   4.747
14777SOL    HW144355   2.552   6.747   4.807
14777SOL    HW244356   2.664   6.817   4.711
14778SOL     OW44357   2.712   6.384   5.547
14778SOL    HW144358   2.708   6.460   5.612
14778SOL    HW244359   2.734   6.420   5.456
14779SOL     OW44360   2.547   6.598   4.389
14779SOL    HW144361   2.616   6.582   4.459
14779SOL    HW244362   2.474   6.655   4.427
14780SOL     OW44363   2.548   6.747   5.527
14780SOL    HW144364   2.608   6.826   5.541
14780SOL    HW244365   2.462   6.778   5.486
14781SOL     OW44366   2.197   7.021   4.785
14781SOL    HW144367   2.119   6.990   4.732
14781SOL    HW244368   2.255   7.079   4.728
14782SOL     OW44369   3.322   7.091   5.063
14782SOL    HW144370   3.346   7.185   5.089
14782SOL    HW244371   3.306   7.037   5.145
14783SOL     OW44372   2.300   5.978   5.223
14783SOL    HW144373   2.382   5.922   5.232
14783SOL    HW244374   2.219   5.920   5.227
14784SOL     OW44375   3.465   6.033   4.461
14784SOL    HW144376   3.391   6.079   4.411
14784SOL    HW244377   3.516   6.101   4.514
14785SOL     OW44378   2.093   7.299   4.207
14785SOL    HW144379   2.127   7.376   4.261
14785SOL    HW244380   2.137   7.299   4.117
14786SOL     OW44381   2.989   6.927   5.414
14786SOL    HW144382   3.036   6.927   5.502
14786SOL    HW244383   2.941   6.840   5.403
14787SOL     OW44384   2.092   7.020   4.262
14787SOL    HW144385   2.066   7.116   4.262
14787SOL    HW244386   2.021   6.966   4.307
14788SOL     OW44387   2.102   6.677   4.610
14788SOL    HW144388   2.116   6.593   4.662
14788SOL    HW244389   2.047   6.741   4.665
14789SOL     OW44390   2.482   7.372   5.163
14789SOL    HW144391   2.390   7.355   5.198
14789SOL    HW244392   2.510   7.464   5.189
14790SOL     OW44393   2.468   6.550   3.847
14790SOL    HW144394   2.475   6.634   3.793
14790SOL    HW244395   2.514   6.563   3.935
14791SOL     OW44396   3.456   5.700   5.204
14791SOL    HW144397   3.438   5.767   5.132
14791SOL    HW244398   3.453   5.746   5.293
14792SOL     OW44399   1.984   6.229   4.287
14792SOL    HW144400   1.939   6.141   4.304
14792SOL    HW244401   1.983   6.283   4.371
14793SOL     OW44402   3.704   7.353   4.083
14793SOL    HW144403   3.758   7.324   4.163
14793SOL    HW244404   3.734   7.443   4.054
14794SOL     OW44405   1.889   7.182   3.841
14794SOL    HW144406   1.870   7.086   3.862
14794SOL    HW244407   1.856   7.240   3.916
14795SOL     OW44408   3.551   6.508   4.336
14795SOL    HW144409   3.646   6.479   4.344
14795SOL    HW244410   3.543   6.573   4.261
14796SOL     OW44411   3.503   6.694   4.156
14796SOL    HW144412   3.589   6.696   4.104
14796SOL    HW244413   3.517   6.741   4.244
14797SOL     OW44414   1.975   6.323   5.321
14797SOL    HW144415   2.063   6.310   5.366
14797SOL    HW244416   1.962   6.420   5.299
14798SOL     OW44417   2.475   6.951   4.450
14798SOL    HW144418   2.426   6.864   4.459
14798SOL    HW244419   2.452   6.994   4.363
14799SOL     OW44420   3.155   6.814   5.147
14799SOL    HW144421   3.192   6.741   5.089
14799SOL    HW244422   3.207   6.819   5.232
14800SOL     OW44423   2.671   5.590   4.226
14800SOL    HW144424   2.711   5.681   4.217
14800SOL    HW244425   2.571   5.598   4.232
14801SOL     OW44426   2.059   6.562   4.988
14801SOL    HW144427   2.148   6.517   4.974
14801SOL    HW244428   1.986   6.497   4.969
14802SOL     OW44429   3.387   6.585   3.914
14802SOL    HW144430   3.324   6.509   3.927
14802SOL    HW244431   3.435   6.603   4.000
14803SOL     OW44432   3.049   7.378   5.340
14803SOL    HW144433   3.073   7.438   5.264
14803SOL    HW244434   3.056   7.283   5.310
14804SOL     OW44435   2.179   5.837   5.525
14804SOL    HW144436   2.250   5.908   5.531
14804SOL    HW244437   2.091   5.876   5.553
14805SOL     OW44438   3.328   7.003   4.677
14805SOL    HW144439   3.269   7.009   4.757
14805SOL    HW244440   3.313   6.915   4.631
14806SOL     OW44441   3.529   7.300   4.296
14806SOL    HW144442   3.488   7.277   4.208
14806SOL    HW244443   3.511   7.226   4.361
14807SOL     OW44444   2.460   6.315   3.994
14807SOL    HW144445   2.484   6.384   3.926
14807SOL    HW244446   2.382   6.348   4.048
14808SOL     OW44447   3.143   5.931   4.668
14808SOL    HW144448   3.057   5.881   4.655
14808SOL    HW244449   3.205   5.877   4.724
14809SOL     OW44450   3.438   7.248   4.031
14809SOL    HW144451   3.527   7.294   4.034
14809SOL    HW244452   3.417   7.224   3.936
14810SOL     OW44453   2.669   6.191   5.189
14810SOL    HW144454   2.622   6.188   5.278
14810SOL    HW244455   2.618   6.136   5.123
14811SOL     OW44456   3.256   6.055   5.398
14811SOL    HW144457   3.236   6.098   5.486
14811SOL    HW244458   3.334   5.993   5.407
14812SOL     OW44459   2.835   6.476   5.296
14812SOL    HW144460   2.881   6.392   5.267
14812SOL    HW244461   2.779   6.510   5.221
14813SOL     OW44462   2.853   5.996   4.966
14813SOL    HW144463   2.776   6.030   5.020
14813SOL    HW244464   2.819   5.945   4.887
14814SOL     OW44465   2.903   6.287   4.153
14814SOL    HW144466   2.929   6.283   4.249
14814SOL    HW244467   2.818   6.236   4.139
14815SOL     OW44468   1.938   6.397   4.513
14815SOL    HW144469   2.037   6.385   4.522
14815SOL    HW244470   1.914   6.492   4.534
14816SOL     OW44471   1.992   7.407   5.295
14816SOL    HW144472   1.982   7.392   5.394
14816SOL    HW244473   1.906   7.443   5.259
14817SOL     OW44474   2.727   5.934   3.919
14817SOL    HW144475   2.786   5.997   3.870
14817SOL    HW244476   2.746   5.840   3.890
14818SOL     OW44477   3.581   6.171   5.555
14818SOL    HW144478   3.555   6.260   5.519
14818SOL    HW244479   3.579   6.103   5.482
14819SOL     OW44480   3.224   6.730   4.269
14819SOL    HW144481   3.307   6.701   4.221
14819SOL    HW244482   3.175   6.797   4.213
14820SOL     OW44483   2.412   5.782   4.609
14820SOL    HW144484   2.407   5.777   4.709
14820SOL    HW244485   2.414   5.878   4.580
14821SOL     OW44486   2.870   7.042   4.201
14821SOL    HW144487   2.824   7.114   4.149
14821SOL    HW244488   2.866   7.062   4.299
14822SOL     OW44489   2.213   7.387   4.577
14822SOL    HW144490   2.263   7.301   4.583
14822SOL    HW244491   2.278   7.464   4.574
14823SOL     OW44492   3.657   6.652   4.597
14823SOL    HW144493   3.595   6.637   4.521
14823SOL    HW244494   3.605   6.663   4.682
14824SOL     OW44495   3.089   7.136   5.230
14824SOL    HW144496   3.095   7.059   5.294
14824SOL    HW244497   3.037   7.110   5.150
14825SOL     OW44498   2.183   6.529   3.966
14825SOL    HW144499   2.265   6.568   3.924
14825SOL    HW244500   2.156   6.447   3.917
14826SOL     OW44501   3.320   6.321   4.452
14826SOL    HW144502   3.315   6.256   4.527
14826SOL    HW244503   3.400   6.380   4.465
14827SOL     OW44504   2.323   6.852   5.451
14827SOL    HW144505   2.273   6.853   5.365
14827SOL    HW244506   2.260   6.834   5.527
14828SOL     OW44507   2.973   7.362   3.961
14828SOL    HW144508   2.913   7.300   4.011
14828SOL    HW244509   3.004   7.318   3.876
14829SOL     OW44510   2.064   5.871   5.222
14829SOL    HW144511   1.984   5.931   5.209
14829SOL    HW244512   2.054   5.822   5.308
14830SOL     OW44513   3.494   6.963   3.805
14830SOL    HW144514   3.462   7.057   3.795
14830SOL    HW244515   3.418   6.900   3.793
14831SOL     OW44516   2.326   7.329   4.047
14831SOL    HW144517   2.359   7.368   4.133
14831SOL    HW244518   2.402   7.322   3.982
14832SOL     OW44519   3.262   5.693   4.150
14832SOL    HW144520   3.238   5.656   4.060
14832SOL    HW244521   3.361   5.709   4.154
14833SOL     OW44522   2.111   7.371   4.965
14833SOL    HW144523   2.168   7.306   5.015
14833SOL    HW244524   2.095   7.338   4.872
14834SOL     OW44525   2.802   7.284   4.628
14834SOL    HW144526   2.882   7.227   4.649
14834SOL    HW244527   2.753   7.244   4.551
14835SOL     OW44528   2.244   6.286   4.204
14835SOL    HW144529   2.289   6.196   4.201
14835SOL    HW244530   2.150   6.275   4.237
14836SOL     OW44531   3.409   5.808   5.453
14836SOL    HW144532   3.404   5.845   5.545
14836SOL    HW244533   3.337   5.739   5.441
14837SOL     OW44534   2.476   5.708   3.841
14837SOL    HW144535   2.574   5.686   3.848
14837SOL    HW244536   2.445   5.691   3.748
14838SOL     OW44537   2.643   5.850   5.473
14838SOL    HW144538   2.710   5.789   5.516
14838SOL    HW244539   2.570   5.869   5.538
14839SOL     OW44540   2.750   7.100   4.919
14839SOL    HW144541   2.727   7.075   4.825
14839SOL    HW244542   2.811   7.031   4.958
14840SOL     OW44543   3.213   6.176   5.157
14840SOL    HW144544   3.241   6.133   5.242
14840SOL    HW244545   3.238   6.272   5.158
14841SOL     OW44546   2.665   6.988   4.648
14841SOL    HW144547   2.755   7.002   4.606
14841SOL    HW244548   2.594   6.990   4.577
14842SOL     OW44549   2.784   6.089   4.623
14842SOL    HW144550   2.759   6.080   4.527
14842SOL    HW244551   2.832   6.007   4.654
14843SOL     OW44552   2.401   5.650   4.236
14843SOL    HW144553   2.320   5.651   4.294
14843SOL    HW244554   2.404   5.733   4.181
14844SOL     OW44555   3.296   6.774   3.765
14844SOL    HW144556   3.328   6.698   3.822
14844SOL    HW244557   3.204   6.801   3.795
14845SOL     OW44558   2.159   5.621   3.895
14845SOL    HW144559   2.208   5.705   3.874
14845SOL    HW244560   2.221   5.556   3.940
14846SOL     OW44561   2.797   5.822   4.204
14846SOL    HW144562   2.749   5.863   4.126
14846SOL    HW244563   2.896   5.820   4.185
14847SOL     OW44564   2.938   6.269   5.188
14847SOL    HW144565   2.858   6.208   5.191
14847SOL    HW244566   3.019   6.216   5.164
14848SOL     OW44567   3.089   7.156   4.517
14848SOL    HW144568   3.110   7.230   4.452
14848SOL    HW244569   3.157   7.156   4.590
14849SOL     OW44570   2.321   6.738   4.465
14849SOL    HW144571   2.250   6.711   4.530
14849SOL    HW244572   2.295   6.710   4.372
14850SOL     OW44573   3.133   7.383   4.315
14850SOL    HW144574   3.177   7.447   4.251
14850SOL    HW244575   3.083   7.435   4.385
14851SOL     OW44576   2.894   6.135   3.740
14851SOL    HW144577   2.853   6.217   3.701
14851SOL    HW244578   2.958   6.161   3.813
14852SOL     OW44579   1.940   6.142   5.110
14852SOL    HW144580   2.032   6.141   5.069
14852SOL    HW244581   1.934   6.216   5.177
14853SOL     OW44582   2.423   5.808   4.871
14853SOL    HW144583   2.461   5.724   4.908
14853SOL    HW244584   2.335   5.827   4.915
14854SOL     OW44585   2.728   6.040   4.366
14854SOL    HW144586   2.696   6.112   4.304
14854SOL    HW244587   2.752   5.959   4.313
14855SOL     OW44588   2.879   5.625   4.477
14855SOL    HW144589   2.807   5.630   4.408
14855SOL    HW244590   2.855   5.556   4.546
14856SOL     OW44591   3.291   6.759   4.591
14856SOL    HW144592   3.236   6.675   4.584
14856SOL    HW244593   3.317   6.788   4.499
14857SOL     OW44594   3.328   6.176   4.716
14857SOL    HW144595   3.298   6.081   4.723
14857SOL    HW244596   3.401   6.192   4.782
14858SOL     OW44597   3.719   6.419   4.101
14858SOL    HW144598   3.761   6.355   4.165
14858SOL    HW244599   3.681   6.368   4.023
14859SOL     OW44600   2.350   6.971   3.898
14859SOL    HW144601   2.263   6.956   3.945
14859SOL    HW244602   2.333   6.997   3.803
14860SOL     OW44603   3.526   6.866   4.381
14860SOL    HW144604   3.625   6.874   4.395
14860SOL    HW244605   3.481   6.950   4.412
14861SOL     OW44606   3.252   6.161   3.802
14861SOL    HW144607   3.198   6.140   3.883
14861SOL    HW244608   3.343   6.120   3.811
14862SOL     OW44609   2.389   5.842   4.052
14862SOL    HW144610   2.416   5.783   3.977
14862SOL    HW244611   2.389   5.937   4.021
14863SOL     OW44612   3.616   6.809   5.312
14863SOL    HW144613   3.707   6.770   5.299
14863SOL    HW244614   3.624   6.905   5.336
14864SOL     OW44615   2.926   6.933   5.064
14864SOL    HW144616   2.846   6.910   5.119
14864SOL    HW244617   3.009   6.907   5.113
14865SOL     OW44618   3.454   7.215   5.349
14865SOL    HW144619   3.481   7.249   5.259
14865SOL    HW244620   3.533   7.177   5.395
14866SOL     OW44621   2.973   6.781   4.824
14866SOL    HW144622   2.933   6.825   4.905
14866SOL    HW244623   2.932   6.818   4.741
14867SOL     OW44624   3.500   6.685   4.803
14867SOL    HW144625   3.505   6.766   4.862
14867SOL    HW244626   3.414   6.687   4.752
14868SOL     OW44627   2.777   5.675   5.126
14868SOL    HW144628   2.802   5.655   5.031
14868SOL    HW244629   2.849   5.731   5.168
14869SOL     OW44630   2.842   6.702   5.443
14869SOL    HW144631   2.743   6.708   5.453
14869SOL    HW244632   2.865   6.622   5.387
14870SOL     OW44633   2.567   6.636   4.092
14870SOL    HW144634   2.553   6.643   4.191
14870SOL    HW244635   2.651   6.585   4.074
14871SOL     OW44636   2.272   6.399   4.975
14871SOL    HW144637   2.358   6.411   5.025
14871SOL    HW244638   2.230   6.312   5.002
14872SOL     OW44639   3.136   5.972   4.986
14872SOL    HW144640   3.157   6.046   5.050
14872SOL    HW244641   3.047   5.989   4.943
14873SOL     OW44642   1.926   7.150   5.055
14873SOL    HW144643   1.880   7.232   5.021
14873SOL    HW244644   2.024   7.169   5.064
14874SOL     OW44645   2.229   6.686   4.225
14874SOL    HW144646   2.222   6.769   4.169
14874SOL    HW244647   2.233   6.606   4.165
14875SOL     OW44648   2.428   6.123   4.589
14875SOL    HW144649   2.440   6.189   4.515
14875SOL    HW244650   2.474   6.157   4.672
14876SOL     OW44651   3.114   6.934   4.112
14876SOL    HW144652   3.164   7.011   4.152
14876SOL    HW244653   3.019   6.936   4.144
14877SOL     OW44654   3.134   7.031   4.866
14877SOL    HW144655   3.181   7.044   4.953
14877SOL    HW244656   3.068   6.957   4.875
14878SOL     OW44657   3.444   6.225   4.196
14878SOL    HW144658   3.413   6.286   4.269
14878SOL    HW244659   3.494   6.277   4.127
14879SOL     OW44660   2.216   7.096   5.053
14879SOL    HW144661   2.195   7.052   4.966
14879SOL    HW244662   2.313   7.122   5.056
14880SOL     OW44663   2.264   6.337   5.322
14880SOL    HW144664   2.332   6.392   5.275
14880SOL    HW244665   2.304   6.249   5.349
14881SOL     OW44666   3.449   6.365   5.394
14881SOL    HW144667   3.357   6.403   5.389
14881SOL    HW244668   3.509   6.412   5.329
14882SOL     OW44669   2.875   5.691   5.494
14882SOL    HW144670   2.881   5.776   5.442
14882SOL    HW244671   2.907   5.615   5.437
14883SOL     OW44672   2.366   5.636   5.464
14883SOL    HW144673   2.324   5.579   5.394
14883SOL    HW244674   2.300   5.705   5.496
14884SOL     OW44675   2.435   6.456   4.753
14884SOL    HW144676   2.479   6.545   4.744
14884SOL    HW244677   2.372   6.456   4.830
14885SOL     OW44678   3.222   6.448   4.769
14885SOL    HW144679   3.147   6.448   4.703
14885SOL    HW244680   3.259   6.356   4.778
14886SOL     OW44681   3.071   6.111   3.999
14886SOL    HW144682   3.084   6.027   4.053
14886SOL    HW244683   3.042   6.185   4.059
14887SOL     OW44684   2.169   5.799   4.955
14887SOL    HW144685   2.146   5.836   5.045
14887SOL    HW244686   2.139   5.704   4.949
14888SOL     OW44687   1.899   6.896   5.006
14888SOL    HW144688   1.952   6.847   5.074
14888SOL    HW244689   1.921   6.994   5.011
14889SOL     OW44690   2.594   6.220   4.788
14889SOL    HW144691   2.653   6.194   4.712
14889SOL    HW244692   2.566   6.316   4.777
14890SOL     OW44693   3.590   6.521   5.578
14890SOL    HW144694   3.544   6.514   5.489
14890SOL    HW244695   3.528   6.565   5.644
14891SOL     OW44696   2.169   5.649   4.342
14891SOL    HW144697   2.158   5.743   4.375
14891SOL    HW244698   2.164   5.586   4.419
14892SOL     OW44699   3.484   5.953   4.098
14892SOL    HW144700   3.486   5.877   4.162
14892SOL    HW244701   3.436   6.030   4.138
14893SOL     OW44702   2.885   6.352   4.690
14893SOL    HW144703   2.900   6.373   4.786
14893SOL    HW244704   2.855   6.257   4.681
14894SOL     OW44705   2.842   7.159   5.424
14894SOL    HW144706   2.822   7.203   5.336
14894SOL    HW244707   2.881   7.068   5.408
14895SOL     OW44708   3.721   7.104   5.329
14895SOL    HW144709   3.735   7.131   5.234
14895SOL    HW244710   3.804   7.126   5.382
14896SOL     OW44711   2.212   6.484   5.528
14896SOL    HW144712   2.288   6.528   5.576
14896SOL    HW244713   2.247   6.437   5.446
14897SOL     OW44714   3.402   5.860   3.849
14897SOL    HW144715   3.341   5.785   3.872
14897SOL    HW244716   3.424   5.912   3.932
14898SOL     OW44717   3.165   6.424   3.766
14898SOL    HW144718   3.199   6.331   3.781
14898SOL    HW244719   3.183   6.451   3.671
14899SOL     OW44720   2.930   6.919   4.573
14899SOL    HW144721   2.937   6.835   4.518
14899SOL    HW244722   2.992   6.988   4.537
14900SOL     OW44723   2.181   6.396   4.673
14900SOL    HW144724   2.274   6.432   4.678
14900SOL    HW244725   2.175   6.311   4.725
14901SOL     OW44726   2.201   6.095   4.730
14901SOL    HW144727   2.149   6.012   4.713
14901SOL    HW244728   2.278   6.100   4.666
14902SOL     OW44729   3.000   5.966   5.402
14902SOL    HW144730   2.955   6.029   5.466
14902SOL    HW244731   3.093   5.997   5.385
14903SOL     OW44732   3.022   5.793   5.201
14903SOL    HW144733   3.022   5.857   5.278
14903SOL    HW244734   3.050   5.841   5.118
14904SOL     OW44735   1.870   6.912   3.924
14904SOL    HW144736   1.777   6.933   3.893
14904SOL    HW244737   1.880   6.813   3.937
14905SOL     OW44738   1.950   7.387   4.651
14905SOL    HW144739   1.908   7.301   4.624
14905SOL    HW244740   2.044   7.390   4.617
14906SOL     OW44741   2.864   6.382   4.962
14906SOL    HW144742   2.905   6.350   5.048
14906SOL    HW244743   2.768   6.355   4.959
14907SOL     OW44744   1.902   6.130   4.838
14907SOL    HW144745   1.987   6.097   4.797
14907SOL    HW244746   1.915   6.145   4.936
14908SOL     OW44747   2.051   6.106   5.446
14908SOL    HW144748   2.110   6.066   5.376
14908SOL    HW244749   1.993   6.177   5.405
14909SOL     OW44750   3.231   6.536   5.384
14909SOL    HW144751   3.270   6.625   5.404
14909SOL    HW244752   3.241   6.516   5.287
14910SOL     OW44753   2.677   6.158   4.049
14910SOL    HW144754   2.684   6.069   4.003
14910SOL    HW244755   2.583   6.192   4.041
14911SOL     OW44756   3.519   6.190   4.930
14911SOL    HW144757   3.481   6.121   4.992
14911SOL    HW244758   3.601   6.154   4.886
14912SOL     OW44759   2.114   7.150   5.468
14912SOL    HW144760   2.084   7.207   5.544
14912SOL    HW244761   2.107   7.053   5.494
14913SOL     OW44762   2.533   6.050   4.993
14913SOL    HW144763   2.499   5.961   4.963
14913SOL    HW244764   2.559   6.104   4.913
14914SOL     OW44765   2.792   7.264   5.189
14914SOL    HW144766   2.768   7.246   5.094
14914SOL    HW244767   2.822   7.358   5.199
14915SOL     OW44768   2.335   6.086   3.915
14915SOL    HW144769   2.396   6.166   3.919
14915SOL    HW244770   2.240   6.117   3.922
14916SOL     OW44771   2.021   6.723   5.190
14916SOL    HW144772   2.043   6.662   5.266
14916SOL    HW244773   2.031   6.674   5.104
14917SOL     OW44774   3.209   6.645   4.958
14917SOL    HW144775   3.233   6.582   4.884
14917SOL    HW244776   3.119   6.685   4.940
14918SOL     OW44777   3.164   6.441   4.033
14918SOL    HW144778   3.078   6.410   4.075
14918SOL    HW244779   3.160   6.427   3.934
14919SOL     OW44780   3.621   7.333   4.878
14919SOL    HW144781   3.682   7.363   4.805
14919SOL    HW244782   3.583   7.244   4.856
14920SOL     OW44783   3.114   7.317   4.852
14920SOL    HW144784   3.198   7.322   4.798
14920SOL    HW244785   3.091   7.221   4.870
14921SOL     OW44786   1.945   6.844   4.746
14921SOL    HW144787   1.940   6.843   4.846
14921SOL    HW244788   1.862   6.803   4.708
14922SOL     OW44789   2.550   7.248   5.440
14922SOL    HW144790   2.494   7.329   5.449
14922SOL    HW244791   2.602   7.252   5.354
14923SOL     OW44792   3.588   5.721   4.247
14923SOL    HW144793   3.661   5.704   4.180
14923SOL    HW244794   3.557   5.634   4.285
14924SOL     OW44795   3.250   7.159   4.201
14924SOL    HW144796   3.317   7.171   4.127
14924SOL    HW244797   3.210   7.248   4.224
14925SOL     OW44798   1.992   7.380   5.575
14925SOL    HW144799   1.951   7.306   5.628
14925SOL    HW244800   2.056   7.431   5.633
14926SOL     OW44801   3.142   6.513   4.396
14926SOL    HW144802   3.202   6.432   4.398
14926SOL    HW244803   3.182   6.582   4.336
14927SOL     OW44804   2.692   6.859   5.146
14927SOL    HW144805   2.687   6.892   5.241
14927SOL    HW244806   2.606   6.878   5.100
14928SOL     OW44807   2.534   7.202   3.878
14928SOL    HW144808   2.543   7.212   3.779
14928SOL    HW244809   2.494   7.113   3.899
14929SOL     OW44810   3.512   7.306   5.118
14929SOL    HW144811   3.565   7.316   5.034
14929SOL    HW244812   3.485   7.396   5.152
14930SOL     OW44813   3.703   5.761   4.687
14930SOL    HW144814   3.742   5.676   4.651
14930SOL    HW244815   3.605   5.763   4.668
14931SOL     OW44816   2.125   5.912   4.444
14931SOL    HW144817   2.046   5.963   4.410
14931SOL    HW244818   2.116   5.897   4.542
14932SOL     OW44819   3.056   7.198   3.755
14932SOL    HW144820   3.062   7.105   3.792
14932SOL    HW244821   2.997   7.198   3.675
14933SOL     OW44822   2.684   6.588   5.096
14933SOL    HW144823   2.724   6.587   5.004
14933SOL    HW244824   2.694   6.680   5.136
14934SOL     OW44825   2.778   6.496   4.015
14934SOL    HW144826   2.841   6.534   3.947
14934SOL    HW244827   2.818   6.413   4.054
14935SOL     OW44828   3.366   7.193   3.768
14935SOL    HW144829   3.274   7.230   3.775
14935SOL    HW244830   3.404   7.213   3.678
14936SOL     OW44831   2.234   6.874   5.214
14936SOL    HW144832   2.221   6.967   5.180
14936SOL    HW244833   2.150   6.822   5.201
14937SOL     OW44834   3.476   6.878   5.013
14937SOL    HW144835   3.536   6.881   5.093
14937SOL    HW244836   3.401   6.942   5.026
14938SOL     OW44837   2.901   6.684   4.420
14938SOL    HW144838   2.831   6.637   4.474
14938SOL    HW244839   2.960   6.616   4.377
14939SOL     OW44840   2.876   5.822   4.695
14939SOL    HW144841   2.868   5.786   4.602
14939SOL    HW244842   2.874   5.746   4.760
14940SOL     OW44843   2.452   7.073   4.215
14940SOL    HW144844   2.494   7.015   4.145
14940SOL    HW244845   2.408   7.152   4.171
14941SOL     OW44846   3.571   5.971   5.105
14941SOL    HW144847   3.644   6.040   5.109
14941SOL    HW244848   3.599   5.896   5.046
14942SOL     OW44849   2.117   6.934   4.014
14942SOL    HW144850   2.021   6.935   3.987
14942SOL    HW244851   2.129   6.987   4.098
14943SOL     OW44852   1.967   6.599   5.450
14943SOL    HW144853   1.890   6.566   5.504
14943SOL    HW244854   2.052   6.569   5.492
14944SOL     OW44855   2.534   5.789   5.213
14944SOL    HW144856   2.624   5.773   5.173
14944SOL    HW244857   2.542   5.794   5.312
14945SOL     OW44858   1.937   5.931   3.757
14945SOL    HW144859   1.845   5.903   3.728
14945SOL    HW244860   1.968   6.008   3.701
14946SOL     OW44861   3.302   6.442   5.122
14946SOL    HW144862   3.245   6.494   5.059
14946SOL    HW244863   3.398   6.454   5.098
14947SOL     OW44864   1.934   5.752   4.042
14947SOL    HW144865   1.917   5.835   3.988
14947SOL    HW244866   2.024   5.715   4.020
14948SOL     OW44867   3.045   6.921   3.843
14948SOL    HW144868   2.946   6.910   3.845
14948SOL    HW244869   3.079   6.936   3.936
14949SOL     OW44870   2.475   6.428   5.155
14949SOL    HW144871   2.531   6.509   5.138
14949SOL    HW244872   2.534   6.348   5.158
14950SOL     OW44873   3.355   7.353   4.683
14950SOL    HW144874   3.388   7.417   4.614
14950SOL    HW244875   3.421   7.347   4.758
14951SOL     OW44876   2.578   6.151   5.432
14951SOL    HW144877   2.597   6.216   5.506
14951SOL    HW244878   2.638   6.071   5.441
14952SOL     OW44879   3.312   6.806   5.357
14952SOL    HW144880   3.303   6.796   5.456
14952SOL    HW244881   3.408   6.799   5.331
14953SOL     OW44882   2.252   7.327   5.284
14953SOL    HW144883   2.161   7.368   5.282
14953SOL    HW244884   2.245   7.233   5.316
14954SOL     OW44885   3.536   6.469   4.978
14954SOL    HW144886   3.509   6.380   4.941
14954SOL    HW244887   3.537   6.537   4.905
14955SOL     OW44888   3.087   5.911   4.173
14955SOL    HW144889   3.152   5.837   4.162
14955SOL    HW244890   3.107   5.961   4.257
14956SOL     OW44891   2.456   6.331   4.376
14956SOL    HW144892   2.506   6.416   4.357
14956SOL    HW244893   2.368   6.333   4.328
14957SOL     OW44894   3.639   5.928   5.366
14957SOL    HW144895   3.622   5.959   5.272
14957SOL    HW244896   3.555   5.891   5.404
14958SOL     OW44897   3.592   6.520   5.241
14958SOL    HW144898   3.630   6.611   5.256
14958SOL    HW244899   3.584   6.503   5.142
14959SOL     OW44900   2.721   6.960   3.740
14959SOL    HW144901   2.675   6.975   3.828
14959SOL    HW244902   2.765   7.045   3.710
14960SOL     OW44903   2.523   7.376   4.677
14960SOL    HW144904   2.477   7.464   4.664
14960SOL    HW244905   2.622   7.388   4.670
14961SOL     OW44906   2.721   6.542   4.585
14961SOL    HW144907   2.775   6.473   4.633
14961SOL    HW244908   2.689   6.611   4.651
14962SOL     OW44909   2.945   6.570   3.811
14962SOL    HW144910   2.922   6.623   3.729
14962SOL    HW244911   3.026   6.514   3.792
14963SOL     OW44912   3.723   7.155   4.575
14963SOL    HW144913   3.652   7.143   4.505
14963SOL    HW244914   3.724   7.076   4.635
14964SOL     OW44915   2.083   6.900   5.568
14964SOL    HW144916   2.018   6.827   5.547
14964SOL    HW244917   2.087   6.914   5.666
14965SOL     OW44918   1.941   6.826   4.377
14965SOL    HW144919   1.940   6.779   4.465
14965SOL    HW244920   2.023   6.798   4.326
14966SOL     OW44921   2.534   6.977   5.348
14966SOL    HW144922   2.456   6.927   5.386
14966SOL    HW244923   2.531   7.072   5.379
14967SOL     OW44924   3.686   5.778   4.951
14967SOL    HW144925   3.682   5.688   4.995
14967SOL    HW244926   3.689   5.767   4.852
14968SOL     OW44927   2.290   6.010   4.244
14968SOL    HW144928   2.320   5.938   4.182
14968SOL    HW244929   2.251   5.970   4.327
14969SOL     OW44930   3.567   7.073   4.828
14969SOL    HW144931   3.474   7.048   4.801
14969SOL    HW244932   3.593   7.023   4.910
14970SOL     OW44933   2.179   6.133   5.004
14970SOL    HW144934   2.217   6.074   5.076
14970SOL    HW244935   2.219   6.107   4.916
14971SOL     OW44936   2.674   7.172   4.411
14971SOL    HW144937   2.706   7.182   4.317
14971SOL    HW244938   2.595   7.110   4.413
14972SOL     OW44939   3.286   5.800   4.836
14972SOL    HW144940   3.338   5.735   4.891
14972SOL    HW244941   3.237   5.863   4.897
14973SOL     OW44942   2.863   5.620   4.878
14973SOL    HW144943   2.800   5.548   4.847
14973SOL    HW244944   2.956   5.584   4.878
14974SOL     OW44945   2.632   6.916   4.025
14974SOL    HW144946   2.586   6.829   4.042
14974SOL    HW244947   2.723   6.913   4.066
14975SOL     OW44948   2.480   7.153   5.008
14975SOL    HW144949   2.475   7.235   5.065
14975SOL    HW244950   2.569   7.150   4.963
14976SOL     OW44951   3.214   5.638   3.892
14976SOL    HW144952   3.249   5.597   3.808
14976SOL    HW244953   3.124   5.600   3.912
14977SOL     OW44954   3.162   6.039   4.415
14977SOL    HW144955   3.103   6.119   4.419
14977SOL    HW244956   3.177   6.004   4.508
14978SOL     OW44957   3.455   5.807   4.606
14978SOL    HW144958   3.371   5.806   4.660
14978SOL    HW244959   3.457   5.890   4.550
14979SOL     OW44960   1.901   6.663   4.024
14979SOL    HW144961   2.000   6.652   4.015
14979SOL    HW244962   1.861   6.577   4.056
14980SOL     OW44963   2.737   7.232   4.061
14980SOL    HW144964   2.660   7.197   4.007
14980SOL    HW244965   2.705   7.303   4.123
14981SOL     OW44966   2.092   6.214   5.699
14981SOL    HW144967   1.999   6.212   5.736
14981SOL    HW244968   2.093   6.175   5.607
14982SOL     OW44969   2.087   5.861   6.582
14982SOL    HW144970   2.122   5.844   6.674
14982SOL    HW244971   1.999   5.816   6.570
14983SOL     OW44972   1.881   5.954   6.233
14983SOL    HW144973   1.799   5.997   6.272
14983SOL    HW244974   1.853   5.881   6.170
14984SOL     OW44975   2.431   6.861   6.751
14984SOL    HW144976   2.338   6.854   6.714
14984SOL    HW244977   2.442   6.950   6.795
14985SOL     OW44978   3.417   7.097   6.289
14985SOL    HW144979   3.360   7.081   6.370
14985SOL    HW244980   3.358   7.107   6.209
14986SOL     OW44981   2.997   6.289   6.303
14986SOL    HW144982   3.054   6.367   6.278
14986SOL    HW244983   2.937   6.315   6.379
14987SOL     OW44984   3.617   6.193   5.817
14987SOL    HW144985   3.605   6.180   5.718
14987SOL    HW244986   3.587   6.112   5.866
14988SOL     OW44987   2.630   6.730   6.609
14988SOL    HW144988   2.552   6.747   6.669
14988SOL    HW244989   2.664   6.817   6.573
14989SOL     OW44990   2.712   6.384   7.409
14989SOL    HW144991   2.708   6.460   7.474
14989SOL    HW244992   2.734   6.420   7.318
14990SOL     OW44993   2.547   6.598   6.251
14990SOL    HW144994   2.616   6.582   6.321
14990SOL    HW244995   2.474   6.655   6.289
14991SOL     OW44996   2.548   6.747   7.389
14991SOL    HW144997   2.608   6.826   7.403
14991SOL    HW244998   2.462   6.778   7.348
14992SOL     OW44999   2.197   7.021   6.647
14992SOL    HW145000   2.119   6.990   6.594
14992SOL    HW245001   2.255   7.079   6.590
14993SOL     OW45002   3.322   7.091   6.925
14993SOL    HW145003   3.346   7.185   6.951
14993SOL    HW245004   3.306   7.037   7.007
14994SOL     OW45005   2.300   5.978   7.085
14994SOL    HW145006   2.382   5.922   7.094
14994SOL    HW245007   2.219   5.920   7.089
14995SOL     OW45008   3.465   6.033   6.323
14995SOL    HW145009   3.391   6.079   6.273
14995SOL    HW245010   3.516   6.101   6.376
14996SOL     OW45011   2.093   7.299   6.069
14996SOL    HW145012   2.127   7.376   6.123
14996SOL    HW245013   2.137   7.299   5.979
14997SOL     OW45014   2.989   6.927   7.276
14997SOL    HW145015   3.036   6.927   7.364
14997SOL    HW245016   2.941   6.840   7.265
14998SOL     OW45017   2.092   7.020   6.124
14998SOL    HW145018   2.066   7.116   6.124
14998SOL    HW245019   2.021   6.966   6.169
14999SOL     OW45020   2.102   6.677   6.472
14999SOL    HW145021   2.116   6.593   6.524
14999SOL    HW245022   2.047   6.741   6.527
15000SOL     OW45023   2.482   7.372   7.025
15000SOL    HW145024   2.390   7.355   7.060
15000SOL    HW245025   2.510   7.464   7.051
15001SOL     OW45026   2.468   6.550   5.709
15001SOL    HW145027   2.475   6.634   5.655
15001SOL    HW245028   2.514   6.563   5.797
15002SOL     OW45029   3.456   5.700   7.066
15002SOL    HW145030   3.438   5.767   6.994
15002SOL    HW245031   3.453   5.746   7.155
15003SOL     OW45032   1.984   6.229   6.149
15003SOL    HW145033   1.939   6.141   6.166
15003SOL    HW245034   1.983   6.283   6.233
15004SOL     OW45035   3.704   7.353   5.945
15004SOL    HW145036   3.758   7.324   6.025
15004SOL    HW245037   3.734   7.443   5.916
15005SOL     OW45038   1.889   7.182   5.703
15005SOL    HW145039   1.870   7.086   5.724
15005SOL    HW245040   1.856   7.240   5.778
15006SOL     OW45041   3.551   6.508   6.198
15006SOL    HW145042   3.646   6.479   6.206
15006SOL    HW245043   3.543   6.573   6.123
15007SOL     OW45044   3.503   6.694   6.018
15007SOL    HW145045   3.589   6.696   5.966
15007SOL    HW245046   3.517   6.741   6.106
15008SOL     OW45047   1.975   6.323   7.183
15008SOL    HW145048   2.063   6.310   7.228
15008SOL    HW245049   1.962   6.420   7.161
15009SOL     OW45050   2.475   6.951   6.312
15009SOL    HW145051   2.426   6.864   6.321
15009SOL    HW245052   2.452   6.994   6.225
15010SOL     OW45053   3.155   6.814   7.009
15010SOL    HW145054   3.192   6.741   6.951
15010SOL    HW245055   3.207   6.819   7.094
15011SOL     OW45056   2.671   5.590   6.088
15011SOL    HW145057   2.711   5.681   6.079
15011SOL    HW245058   2.571   5.598   6.094
15012SOL     OW45059   2.059   6.562   6.850
15012SOL    HW145060   2.148   6.517   6.836
15012SOL    HW245061   1.986   6.497   6.831
15013SOL     OW45062   3.387   6.585   5.776
15013SOL    HW145063   3.324   6.509   5.789
15013SOL    HW245064   3.435   6.603   5.862
15014SOL     OW45065   3.049   7.378   7.202
15014SOL    HW145066   3.073   7.438   7.126
15014SOL    HW245067   3.056   7.283   7.172
15015SOL     OW45068   2.179   5.837   7.387
15015SOL    HW145069   2.250   5.908   7.393
15015SOL    HW245070   2.091   5.876   7.415
15016SOL     OW45071   3.328   7.003   6.539
15016SOL    HW145072   3.269   7.009   6.619
15016SOL    HW245073   3.313   6.915   6.493
15017SOL     OW45074   3.529   7.300   6.158
15017SOL    HW145075   3.488   7.277   6.070
15017SOL    HW245076   3.511   7.226   6.223
15018SOL     OW45077   2.460   6.315   5.856
15018SOL    HW145078   2.484   6.384   5.788
15018SOL    HW245079   2.382   6.348   5.910
15019SOL     OW45080   3.143   5.931   6.530
15019SOL    HW145081   3.057   5.881   6.517
15019SOL    HW245082   3.205   5.877   6.586
15020SOL     OW45083   3.438   7.248   5.893
15020SOL    HW145084   3.527   7.294   5.896
15020SOL    HW245085   3.417   7.224   5.798
15021SOL     OW45086   2.669   6.191   7.051
15021SOL    HW145087   2.622   6.188   7.140
15021SOL    HW245088   2.618   6.136   6.985
15022SOL     OW45089   3.256   6.055   7.260
15022SOL    HW145090   3.236   6.098   7.348
15022SOL    HW245091   3.334   5.993   7.269
15023SOL     OW45092   2.835   6.476   7.158
15023SOL    HW145093   2.881   6.392   7.129
15023SOL    HW245094   2.779   6.510   7.083
15024SOL     OW45095   2.853   5.996   6.828
15024SOL    HW145096   2.776   6.030   6.882
15024SOL    HW245097   2.819   5.945   6.749
15025SOL     OW45098   2.903   6.287   6.015
15025SOL    HW145099   2.929   6.283   6.111
15025SOL    HW245100   2.818   6.236   6.001
15026SOL     OW45101   1.938   6.397   6.375
15026SOL    HW145102   2.037   6.385   6.384
15026SOL    HW245103   1.914   6.492   6.396
15027SOL     OW45104   1.992   7.407   7.157
15027SOL    HW145105   1.982   7.392   7.256
15027SOL    HW245106   1.906   7.443   7.121
15028SOL     OW45107   2.727   5.934   5.781
15028SOL    HW145108   2.786   5.997   5.732
15028SOL    HW245109   2.746   5.840   5.752
15029SOL     OW45110   3.581   6.171   7.417
15029SOL    HW145111   3.555   6.260   7.381
15029SOL    HW245112   3.579   6.103   7.344
15030SOL     OW45113   3.224   6.730   6.131
15030SOL    HW145114   3.307   6.701   6.083
15030SOL    HW245115   3.175   6.797   6.075
15031SOL     OW45116   2.412   5.782   6.471
15031SOL    HW145117   2.407   5.777   6.571
15031SOL    HW245118   2.414   5.878   6.442
15032SOL     OW45119   2.870   7.042   6.063
15032SOL    HW145120   2.824   7.114   6.011
15032SOL    HW245121   2.866   7.062   6.161
15033SOL     OW45122   2.213   7.387   6.439
15033SOL    HW145123   2.263   7.301   6.445
15033SOL    HW245124   2.278   7.464   6.436
15034SOL     OW45125   3.657   6.652   6.459
15034SOL    HW145126   3.595   6.637   6.383
15034SOL    HW245127   3.605   6.663   6.544
15035SOL     OW45128   3.089   7.136   7.092
15035SOL    HW145129   3.095   7.059   7.156
15035SOL    HW245130   3.037   7.110   7.012
15036SOL     OW45131   2.183   6.529   5.828
15036SOL    HW145132   2.265   6.568   5.786
15036SOL    HW245133   2.156   6.447   5.779
15037SOL     OW45134   3.320   6.321   6.314
15037SOL    HW145135   3.315   6.256   6.389
15037SOL    HW245136   3.400   6.380   6.327
15038SOL     OW45137   2.323   6.852   7.313
15038SOL    HW145138   2.273   6.853   7.227
15038SOL    HW245139   2.260   6.834   7.389
15039SOL     OW45140   2.973   7.362   5.823
15039SOL    HW145141   2.913   7.300   5.873
15039SOL    HW245142   3.004   7.318   5.738
15040SOL     OW45143   2.064   5.871   7.084
15040SOL    HW145144   1.984   5.931   7.071
15040SOL    HW245145   2.054   5.822   7.170
15041SOL     OW45146   3.494   6.963   5.667
15041SOL    HW145147   3.462   7.057   5.657
15041SOL    HW245148   3.418   6.900   5.655
15042SOL     OW45149   2.326   7.329   5.909
15042SOL    HW145150   2.359   7.368   5.995
15042SOL    HW245151   2.402   7.322   5.844
15043SOL     OW45152   3.262   5.693   6.012
15043SOL    HW145153   3.238   5.656   5.922
15043SOL    HW245154   3.361   5.709   6.016
15044SOL     OW45155   2.111   7.371   6.827
15044SOL    HW145156   2.168   7.306   6.877
15044SOL    HW245157   2.095   7.338   6.734
15045SOL     OW45158   2.802   7.284   6.490
15045SOL    HW145159   2.882   7.227   6.511
15045SOL    HW245160   2.753   7.244   6.413
15046SOL     OW45161   2.244   6.286   6.066
15046SOL    HW145162   2.289   6.196   6.063
15046SOL    HW245163   2.150   6.275   6.099
15047SOL     OW45164   3.409   5.808   7.315
15047SOL    HW145165   3.404   5.845   7.407
15047SOL    HW245166   3.337   5.739   7.303
15048SOL     OW45167   2.476   5.708   5.703
15048SOL    HW145168   2.574   5.686   5.710
15048SOL    HW245169   2.445   5.691   5.610
15049SOL     OW45170   2.643   5.850   7.335
15049SOL    HW145171   2.710   5.789   7.378
15049SOL    HW245172   2.570   5.869   7.400
15050SOL     OW45173   2.750   7.100   6.781
15050SOL    HW145174   2.727   7.075   6.687
15050SOL    HW245175   2.811   7.031   6.820
15051SOL     OW45176   3.213   6.176   7.019
15051SOL    HW145177   3.241   6.133   7.104
15051SOL    HW245178   3.238   6.272   7.020
15052SOL     OW45179   2.665   6.988   6.510
15052SOL    HW145180   2.755   7.002   6.468
15052SOL    HW245181   2.594   6.990   6.439
15053SOL     OW45182   2.784   6.089   6.485
15053SOL    HW145183   2.759   6.080   6.389
15053SOL    HW245184   2.832   6.007   6.516
15054SOL     OW45185   2.401   5.650   6.098
15054SOL    HW145186   2.320   5.651   6.156
15054SOL    HW245187   2.404   5.733   6.043
15055SOL     OW45188   3.296   6.774   5.627
15055SOL    HW145189   3.328   6.698   5.684
15055SOL    HW245190   3.204   6.801   5.657
15056SOL     OW45191   2.159   5.621   5.757
15056SOL    HW145192   2.208   5.705   5.736
15056SOL    HW245193   2.221   5.556   5.802
15057SOL     OW45194   2.797   5.822   6.066
15057SOL    HW145195   2.749   5.863   5.988
15057SOL    HW245196   2.896   5.820   6.047
15058SOL     OW45197   2.938   6.269   7.050
15058SOL    HW145198   2.858   6.208   7.053
15058SOL    HW245199   3.019   6.216   7.026
15059SOL     OW45200   3.089   7.156   6.379
15059SOL    HW145201   3.110   7.230   6.314
15059SOL    HW245202   3.157   7.156   6.452
15060SOL     OW45203   2.321   6.738   6.327
15060SOL    HW145204   2.250   6.711   6.392
15060SOL    HW245205   2.295   6.710   6.234
15061SOL     OW45206   3.133   7.383   6.177
15061SOL    HW145207   3.177   7.447   6.113
15061SOL    HW245208   3.083   7.435   6.247
15062SOL     OW45209   2.894   6.135   5.602
15062SOL    HW145210   2.853   6.217   5.563
15062SOL    HW245211   2.958   6.161   5.675
15063SOL     OW45212   1.940   6.142   6.972
15063SOL    HW145213   2.032   6.141   6.931
15063SOL    HW245214   1.934   6.216   7.039
15064SOL     OW45215   2.423   5.808   6.733
15064SOL    HW145216   2.461   5.724   6.770
15064SOL    HW245217   2.335   5.827   6.777
15065SOL     OW45218   2.728   6.040   6.228
15065SOL    HW145219   2.696   6.112   6.166
15065SOL    HW245220   2.752   5.959   6.175
15066SOL     OW45221   2.879   5.625   6.339
15066SOL    HW145222   2.807   5.630   6.270
15066SOL    HW245223   2.855   5.556   6.408
15067SOL     OW45224   3.291   6.759   6.453
15067SOL    HW145225   3.236   6.675   6.446
15067SOL    HW245226   3.317   6.788   6.361
15068SOL     OW45227   3.328   6.176   6.578
15068SOL    HW145228   3.298   6.081   6.585
15068SOL    HW245229   3.401   6.192   6.644
15069SOL     OW45230   3.719   6.419   5.963
15069SOL    HW145231   3.761   6.355   6.027
15069SOL    HW245232   3.681   6.368   5.885
15070SOL     OW45233   2.350   6.971   5.760
15070SOL    HW145234   2.263   6.956   5.807
15070SOL    HW245235   2.333   6.997   5.665
15071SOL     OW45236   3.526   6.866   6.243
15071SOL    HW145237   3.625   6.874   6.257
15071SOL    HW245238   3.481   6.950   6.274
15072SOL     OW45239   3.252   6.161   5.664
15072SOL    HW145240   3.198   6.140   5.745
15072SOL    HW245241   3.343   6.120   5.673
15073SOL     OW45242   2.389   5.842   5.914
15073SOL    HW145243   2.416   5.783   5.839
15073SOL    HW245244   2.389   5.937   5.883
15074SOL     OW45245   3.616   6.809   7.174
15074SOL    HW145246   3.707   6.770   7.161
15074SOL    HW245247   3.624   6.905   7.198
15075SOL     OW45248   2.926   6.933   6.926
15075SOL    HW145249   2.846   6.910   6.981
15075SOL    HW245250   3.009   6.907   6.975
15076SOL     OW45251   3.454   7.215   7.211
15076SOL    HW145252   3.481   7.249   7.121
15076SOL    HW245253   3.533   7.177   7.257
15077SOL     OW45254   2.973   6.781   6.686
15077SOL    HW145255   2.933   6.825   6.767
15077SOL    HW245256   2.932   6.818   6.603
15078SOL     OW45257   3.500   6.685   6.665
15078SOL    HW145258   3.505   6.766   6.724
15078SOL    HW245259   3.414   6.687   6.614
15079SOL     OW45260   2.777   5.675   6.988
15079SOL    HW145261   2.802   5.655   6.893
15079SOL    HW245262   2.849   5.731   7.030
15080SOL     OW45263   2.842   6.702   7.305
15080SOL    HW145264   2.743   6.708   7.315
15080SOL    HW245265   2.865   6.622   7.249
15081SOL     OW45266   2.567   6.636   5.954
15081SOL    HW145267   2.553   6.643   6.053
15081SOL    HW245268   2.651   6.585   5.936
15082SOL     OW45269   2.272   6.399   6.837
15082SOL    HW145270   2.358   6.411   6.887
15082SOL    HW245271   2.230   6.312   6.864
15083SOL     OW45272   1.926   7.150   6.917
15083SOL    HW145273   1.880   7.232   6.883
15083SOL    HW245274   2.024   7.169   6.926
15084SOL     OW45275   2.229   6.686   6.087
15084SOL    HW145276   2.222   6.769   6.031
15084SOL    HW245277   2.233   6.606   6.027
15085SOL     OW45278   2.428   6.123   6.451
15085SOL    HW145279   2.440   6.189   6.377
15085SOL    HW245280   2.474   6.157   6.534
15086SOL     OW45281   3.114   6.934   5.974
15086SOL    HW145282   3.164   7.011   6.014
15086SOL    HW245283   3.019   6.936   6.006
15087SOL     OW45284   3.134   7.031   6.728
15087SOL    HW145285   3.181   7.044   6.815
15087SOL    HW245286   3.068   6.957   6.737
15088SOL     OW45287   3.444   6.225   6.058
15088SOL    HW145288   3.413   6.286   6.131
15088SOL    HW245289   3.494   6.277   5.989
15089SOL     OW45290   2.216   7.096   6.915
15089SOL    HW145291   2.195   7.052   6.828
15089SOL    HW245292   2.313   7.122   6.918
15090SOL     OW45293   2.264   6.337   7.184
15090SOL    HW145294   2.332   6.392   7.137
15090SOL    HW245295   2.304   6.249   7.211
15091SOL     OW45296   3.449   6.365   7.256
15091SOL    HW145297   3.357   6.403   7.251
15091SOL    HW245298   3.509   6.412   7.191
15092SOL     OW45299   2.875   5.691   7.356
15092SOL    HW145300   2.881   5.776   7.304
15092SOL    HW245301   2.907   5.615   7.299
15093SOL     OW45302   2.366   5.636   7.326
15093SOL    HW145303   2.324   5.579   7.256
15093SOL    HW245304   2.300   5.705   7.358
15094SOL     OW45305   2.435   6.456   6.615
15094SOL    HW145306   2.479   6.545   6.606
15094SOL    HW245307   2.372   6.456   6.692
15095SOL     OW45308   3.222   6.448   6.631
15095SOL    HW145309   3.147   6.448   6.565
15095SOL    HW245310   3.259   6.356   6.640
15096SOL     OW45311   3.071   6.111   5.861
15096SOL    HW145312   3.084   6.027   5.915
15096SOL    HW245313   3.042   6.185   5.921
15097SOL     OW45314   2.169   5.799   6.817
15097SOL    HW145315   2.146   5.836   6.907
15097SOL    HW245316   2.139   5.704   6.811
15098SOL     OW45317   1.899   6.896   6.868
15098SOL    HW145318   1.952   6.847   6.936
15098SOL    HW245319   1.921   6.994   6.873
15099SOL     OW45320   2.594   6.220   6.650
15099SOL    HW145321   2.653   6.194   6.574
15099SOL    HW245322   2.566   6.316   6.639
15100SOL     OW45323   3.590   6.521   7.440
15100SOL    HW145324   3.544   6.514   7.351
15100SOL    HW245325   3.528   6.565   7.506
15101SOL     OW45326   2.169   5.649   6.204
15101SOL    HW145327   2.158   5.743   6.237
15101SOL    HW245328   2.164   5.586   6.281
15102SOL     OW45329   3.484   5.953   5.960
15102SOL    HW145330   3.486   5.877   6.024
15102SOL    HW245331   3.436   6.030   6.000
15103SOL     OW45332   2.885   6.352   6.552
15103SOL    HW145333   2.900   6.373   6.648
15103SOL    HW245334   2.855   6.257   6.543
15104SOL     OW45335   2.842   7.159   7.286
15104SOL    HW145336   2.822   7.203   7.198
15104SOL    HW245337   2.881   7.068   7.270
15105SOL     OW45338   3.721   7.104   7.191
15105SOL    HW145339   3.735   7.131   7.096
15105SOL    HW245340   3.804   7.126   7.244
15106SOL     OW45341   2.212   6.484   7.390
15106SOL    HW145342   2.288   6.528   7.438
15106SOL    HW245343   2.247   6.437   7.308
15107SOL     OW45344   3.402   5.860   5.711
15107SOL    HW145345   3.341   5.785   5.734
15107SOL    HW245346   3.424   5.912   5.794
15108SOL     OW45347   3.165   6.424   5.628
15108SOL    HW145348   3.199   6.331   5.643
15108SOL    HW245349   3.183   6.451   5.533
15109SOL     OW45350   2.930   6.919   6.435
15109SOL    HW145351   2.937   6.835   6.380
15109SOL    HW245352   2.992   6.988   6.399
15110SOL     OW45353   2.181   6.396   6.535
15110SOL    HW145354   2.274   6.432   6.540
15110SOL    HW245355   2.175   6.311   6.587
15111SOL     OW45356   2.201   6.095   6.592
15111SOL    HW145357   2.149   6.012   6.575
15111SOL    HW245358   2.278   6.100   6.528
15112SOL     OW45359   3.000   5.966   7.264
15112SOL    HW145360   2.955   6.029   7.328
15112SOL    HW245361   3.093   5.997   7.247
15113SOL     OW45362   3.022   5.793   7.063
15113SOL    HW145363   3.022   5.857   7.140
15113SOL    HW245364   3.050   5.841   6.980
15114SOL     OW45365   1.870   6.912   5.786
15114SOL    HW145366   1.777   6.933   5.755
15114SOL    HW245367   1.880   6.813   5.799
15115SOL     OW45368   1.950   7.387   6.513
15115SOL    HW145369   1.908   7.301   6.486
15115SOL    HW245370   2.044   7.390   6.479
15116SOL     OW45371   2.366   7.154   6.496
15116SOL    HW145372   2.432   7.228   6.505
15116SOL    HW245373   2.410   7.075   6.454
15117SOL     OW45374   2.864   6.382   6.824
15117SOL    HW145375   2.905   6.350   6.910
15117SOL    HW245376   2.768   6.355   6.821
15118SOL     OW45377   1.902   6.130   6.700
15118SOL    HW145378   1.987   6.097   6.659
15118SOL    HW245379   1.915   6.145   6.798
15119SOL     OW45380   2.051   6.106   7.308
15119SOL    HW145381   2.110   6.066   7.238
15119SOL    HW245382   1.993   6.177   7.267
15120SOL     OW45383   3.231   6.536   7.246
15120SOL    HW145384   3.270   6.625   7.266
15120SOL    HW245385   3.241   6.516   7.149
15121SOL     OW45386   2.677   6.158   5.911
15121SOL    HW145387   2.684   6.069   5.865
15121SOL    HW245388   2.583   6.192   5.903
15122SOL     OW45389   3.519   6.190   6.792
15122SOL    HW145390   3.481   6.121   6.854
15122SOL    HW245391   3.601   6.154   6.748
15123SOL     OW45392   2.114   7.150   7.330
15123SOL    HW145393   2.084   7.207   7.406
15123SOL    HW245394   2.107   7.053   7.356
15124SOL     OW45395   2.533   6.050   6.855
15124SOL    HW145396   2.499   5.961   6.825
15124SOL    HW245397   2.559   6.104   6.775
15125SOL     OW45398   2.792   7.264   7.051
15125SOL    HW145399   2.768   7.246   6.956
15125SOL    HW245400   2.822   7.358   7.061
15126SOL     OW45401   2.335   6.086   5.777
15126SOL    HW145402   2.396   6.166   5.781
15126SOL    HW245403   2.240   6.117   5.784
15127SOL     OW45404   2.021   6.723   7.052
15127SOL    HW145405   2.043   6.662   7.128
15127SOL    HW245406   2.031   6.674   6.966
15128SOL     OW45407   3.209   6.645   6.820
15128SOL    HW145408   3.233   6.582   6.746
15128SOL    HW245409   3.119   6.685   6.802
15129SOL     OW45410   3.164   6.441   5.895
15129SOL    HW145411   3.078   6.410   5.937
15129SOL    HW245412   3.160   6.427   5.796
15130SOL     OW45413   3.621   7.333   6.740
15130SOL    HW145414   3.682   7.363   6.667
15130SOL    HW245415   3.583   7.244   6.718
15131SOL     OW45416   3.114   7.317   6.714
15131SOL    HW145417   3.198   7.322   6.660
15131SOL    HW245418   3.091   7.221   6.732
15132SOL     OW45419   1.945   6.844   6.608
15132SOL    HW145420   1.940   6.843   6.708
15132SOL    HW245421   1.862   6.803   6.570
15133SOL     OW45422   2.550   7.248   7.302
15133SOL    HW145423   2.494   7.329   7.311
15133SOL    HW245424   2.602   7.252   7.216
15134SOL     OW45425   3.588   5.721   6.109
15134SOL    HW145426   3.661   5.704   6.042
15134SOL    HW245427   3.557   5.634   6.147
15135SOL     OW45428   3.250   7.159   6.063
15135SOL    HW145429   3.317   7.171   5.989
15135SOL    HW245430   3.210   7.248   6.086
15136SOL     OW45431   1.992   7.380   7.437
15136SOL    HW145432   1.951   7.306   7.490
15136SOL    HW245433   2.056   7.431   7.495
15137SOL     OW45434   3.142   6.513   6.258
15137SOL    HW145435   3.202   6.432   6.260
15137SOL    HW245436   3.182   6.582   6.198
15138SOL     OW45437   2.692   6.859   7.008
15138SOL    HW145438   2.687   6.892   7.103
15138SOL    HW245439   2.606   6.878   6.962
15139SOL     OW45440   2.534   7.202   5.740
15139SOL    HW145441   2.543   7.212   5.641
15139SOL    HW245442   2.494   7.113   5.761
15140SOL     OW45443   3.512   7.306   6.980
15140SOL    HW145444   3.565   7.316   6.896
15140SOL    HW245445   3.485   7.396   7.014
15141SOL     OW45446   3.703   5.761   6.549
15141SOL    HW145447   3.742   5.676   6.513
15141SOL    HW245448   3.605   5.763   6.530
15142SOL     OW45449   2.125   5.912   6.306
15142SOL    HW145450   2.046   5.963   6.272
15142SOL    HW245451   2.116   5.897   6.404
15143SOL     OW45452   3.056   7.198   5.617
15143SOL    HW145453   3.062   7.105   5.654
15143SOL    HW245454   2.997   7.198   5.537
15144SOL     OW45455   2.684   6.588   6.958
15144SOL    HW145456   2.724   6.587   6.866
15144SOL    HW245457   2.694   6.680   6.998
15145SOL     OW45458   2.778   6.496   5.877
15145SOL    HW145459   2.841   6.534   5.809
15145SOL    HW245460   2.818   6.413   5.916
15146SOL     OW45461   3.366   7.193   5.630
15146SOL    HW145462   3.274   7.230   5.637
15146SOL    HW245463   3.404   7.213   5.540
15147SOL     OW45464   2.234   6.874   7.076
15147SOL    HW145465   2.221   6.967   7.042
15147SOL    HW245466   2.150   6.822   7.063
15148SOL     OW45467   3.476   6.878   6.875
15148SOL    HW145468   3.536   6.881   6.955
15148SOL    HW245469   3.401   6.942   6.888
15149SOL     OW45470   2.901   6.684   6.282
15149SOL    HW145471   2.831   6.637   6.336
15149SOL    HW245472   2.960   6.616   6.239
15150SOL     OW45473   2.876   5.822   6.557
15150SOL    HW145474   2.868   5.786   6.464
15150SOL    HW245475   2.874   5.746   6.622
15151SOL     OW45476   2.452   7.073   6.077
15151SOL    HW145477   2.494   7.015   6.007
15151SOL    HW245478   2.408   7.152   6.033
15152SOL     OW45479   3.571   5.971   6.967
15152SOL    HW145480   3.644   6.040   6.971
15152SOL    HW245481   3.599   5.896   6.908
15153SOL     OW45482   2.117   6.934   5.876
15153SOL    HW145483   2.021   6.935   5.849
15153SOL    HW245484   2.129   6.987   5.960
15154SOL     OW45485   1.967   6.599   7.312
15154SOL    HW145486   1.890   6.566   7.366
15154SOL    HW245487   2.052   6.569   7.354
15155SOL     OW45488   2.534   5.789   7.075
15155SOL    HW145489   2.624   5.773   7.035
15155SOL    HW245490   2.542   5.794   7.174
15156SOL     OW45491   1.937   5.931   5.619
15156SOL    HW145492   1.845   5.903   5.590
15156SOL    HW245493   1.968   6.008   5.563
15157SOL     OW45494   3.302   6.442   6.984
15157SOL    HW145495   3.245   6.494   6.921
15157SOL    HW245496   3.398   6.454   6.960
15158SOL     OW45497   1.934   5.752   5.904
15158SOL    HW145498   1.917   5.835   5.850
15158SOL    HW245499   2.024   5.715   5.882
15159SOL     OW45500   3.045   6.921   5.705
15159SOL    HW145501   2.946   6.910   5.707
15159SOL    HW245502   3.079   6.936   5.798
15160SOL     OW45503   2.475   6.428   7.017
15160SOL    HW145504   2.531   6.509   7.000
15160SOL    HW245505   2.534   6.348   7.020
15161SOL     OW45506   3.355   7.353   6.545
15161SOL    HW145507   3.388   7.417   6.476
15161SOL    HW245508   3.421   7.347   6.620
15162SOL     OW45509   2.578   6.151   7.294
15162SOL    HW145510   2.597   6.216   7.368
15162SOL    HW245511   2.638   6.071   7.303
15163SOL     OW45512   3.312   6.806   7.219
15163SOL    HW145513   3.303   6.796   7.318
15163SOL    HW245514   3.408   6.799   7.193
15164SOL     OW45515   2.252   7.327   7.146
15164SOL    HW145516   2.161   7.368   7.144
15164SOL    HW245517   2.245   7.233   7.178
15165SOL     OW45518   3.536   6.469   6.840
15165SOL    HW145519   3.509   6.380   6.803
15165SOL    HW245520   3.537   6.537   6.767
15166SOL     OW45521   3.087   5.911   6.035
15166SOL    HW145522   3.152   5.837   6.024
15166SOL    HW245523   3.107   5.961   6.119
15167SOL     OW45524   2.456   6.331   6.238
15167SOL    HW145525   2.506   6.416   6.219
15167SOL    HW245526   2.368   6.333   6.190
15168SOL     OW45527   3.639   5.928   7.228
15168SOL    HW145528   3.622   5.959   7.134
15168SOL    HW245529   3.555   5.891   7.266
15169SOL     OW45530   3.592   6.520   7.103
15169SOL    HW145531   3.630   6.611   7.118
15169SOL    HW245532   3.584   6.503   7.004
15170SOL     OW45533   2.721   6.960   5.602
15170SOL    HW145534   2.675   6.975   5.690
15170SOL    HW245535   2.765   7.045   5.572
15171SOL     OW45536   2.523   7.376   6.539
15171SOL    HW145537   2.477   7.464   6.526
15171SOL    HW245538   2.622   7.388   6.532
15172SOL     OW45539   2.721   6.542   6.447
15172SOL    HW145540   2.775   6.473   6.495
15172SOL    HW245541   2.689   6.611   6.513
15173SOL     OW45542   2.945   6.570   5.673
15173SOL    HW145543   2.922   6.623   5.591
15173SOL    HW245544   3.026   6.514   5.654
15174SOL     OW45545   3.723   7.155   6.437
15174SOL    HW145546   3.652   7.143   6.367
15174SOL    HW245547   3.724   7.076   6.497
15175SOL     OW45548   2.083   6.900   7.430
15175SOL    HW145549   2.018   6.827   7.409
15175SOL    HW245550   2.087   6.914   7.528
15176SOL     OW45551   1.941   6.826   6.239
15176SOL    HW145552   1.940   6.779   6.327
15176SOL    HW245553   2.023   6.798   6.188
15177SOL     OW45554   2.534   6.977   7.210
15177SOL    HW145555   2.456   6.927   7.248
15177SOL    HW245556   2.531   7.072   7.241
15178SOL     OW45557   3.686   5.778   6.813
15178SOL    HW145558   3.682   5.688   6.857
15178SOL    HW245559   3.689   5.767   6.714
15179SOL     OW45560   2.290   6.010   6.106
15179SOL    HW145561   2.320   5.938   6.044
15179SOL    HW245562   2.251   5.970   6.189
15180SOL     OW45563   3.567   7.073   6.690
15180SOL    HW145564   3.474   7.048   6.663
15180SOL    HW245565   3.593   7.023   6.772
15181SOL     OW45566   2.179   6.133   6.866
15181SOL    HW145567   2.217   6.074   6.938
15181SOL    HW245568   2.219   6.107   6.778
15182SOL     OW45569   2.674   7.172   6.273
15182SOL    HW145570   2.706   7.182   6.179
15182SOL    HW245571   2.595   7.110   6.275
15183SOL     OW45572   3.286   5.800   6.698
15183SOL    HW145573   3.338   5.735   6.753
15183SOL    HW245574   3.237   5.863   6.759
15184SOL     OW45575   2.863   5.620   6.740
15184SOL    HW145576   2.800   5.548   6.709
15184SOL    HW245577   2.956   5.584   6.740
15185SOL     OW45578   2.632   6.916   5.887
15185SOL    HW145579   2.586   6.829   5.904
15185SOL    HW245580   2.723   6.913   5.928
15186SOL     OW45581   2.480   7.153   6.870
15186SOL    HW145582   2.475   7.235   6.927
15186SOL    HW245583   2.569   7.150   6.825
15187SOL     OW45584   3.214   5.638   5.754
15187SOL    HW145585   3.249   5.597   5.670
15187SOL    HW245586   3.124   5.600   5.774
15188SOL     OW45587   3.162   6.039   6.277
15188SOL    HW145588   3.103   6.119   6.281
15188SOL    HW245589   3.177   6.004   6.370
15189SOL     OW45590   3.455   5.807   6.468
15189SOL    HW145591   3.371   5.806   6.522
15189SOL    HW245592   3.457   5.890   6.412
15190SOL     OW45593   1.901   6.663   5.886
15190SOL    HW145594   2.000   6.652   5.877
15190SOL    HW245595   1.861   6.577   5.918
15191SOL     OW45596   2.737   7.232   5.923
15191SOL    HW145597   2.660   7.197   5.869
15191SOL    HW245598   2.705   7.303   5.985
15192SOL     OW45599   2.092   6.214   7.561
15192SOL    HW145600   1.999   6.212   7.598
15192SOL    HW245601   2.093   6.175   7.469
15193SOL     OW45602   2.087   5.861   8.444
15193SOL    HW145603   2.122   5.844   8.536
15193SOL    HW245604   1.999   5.816   8.432
15194SOL     OW45605   1.881   5.954   8.095
15194SOL    HW145606   1.799   5.997   8.134
15194SOL    HW245607   1.853   5.881   8.032
15195SOL     OW45608   2.431   6.861   8.613
15195SOL    HW145609   2.338   6.854   8.576
15195SOL    HW245610   2.442   6.950   8.657
15196SOL     OW45611   3.417   7.097   8.151
15196SOL    HW145612   3.360   7.081   8.232
15196SOL    HW245613   3.358   7.107   8.071
15197SOL     OW45614   2.997   6.289   8.165
15197SOL    HW145615   3.054   6.367   8.140
15197SOL    HW245616   2.937   6.315   8.241
15198SOL     OW45617   3.617   6.193   7.679
15198SOL    HW145618   3.605   6.180   7.580
15198SOL    HW245619   3.587   6.112   7.728
15199SOL     OW45620   2.630   6.730   8.471
15199SOL    HW145621   2.552   6.747   8.531
15199SOL    HW245622   2.664   6.817   8.435
15200SOL     OW45623   2.712   6.384   9.271
15200SOL    HW145624   2.708   6.460   9.336
15200SOL    HW245625   2.734   6.420   9.180
15201SOL     OW45626   2.547   6.598   8.113
15201SOL    HW145627   2.616   6.582   8.183
15201SOL    HW245628   2.474   6.655   8.151
15202SOL     OW45629   2.548   6.747   9.251
15202SOL    HW145630   2.608   6.826   9.265
15202SOL    HW245631   2.462   6.778   9.210
15203SOL     OW45632   2.197   7.021   8.509
15203SOL    HW145633   2.119   6.990   8.456
15203SOL    HW245634   2.255   7.079   8.452
15204SOL     OW45635   3.322   7.091   8.787
15204SOL    HW145636   3.346   7.185   8.813
15204SOL    HW245637   3.306   7.037   8.869
15205SOL     OW45638   2.300   5.978   8.947
15205SOL    HW145639   2.382   5.922   8.956
15205SOL    HW245640   2.219   5.920   8.951
15206SOL     OW45641   3.465   6.033   8.185
15206SOL    HW145642   3.391   6.079   8.135
15206SOL    HW245643   3.516   6.101   8.238
15207SOL     OW45644   2.093   7.299   7.931
15207SOL    HW145645   2.127   7.376   7.985
15207SOL    HW245646   2.137   7.299   7.841
15208SOL     OW45647   2.989   6.927   9.138
15208SOL    HW145648   3.036   6.927   9.226
15208SOL    HW245649   2.941   6.840   9.127
15209SOL     OW45650   2.092   7.020   7.986
15209SOL    HW145651   2.066   7.116   7.986
15209SOL    HW245652   2.021   6.966   8.031
15210SOL     OW45653   2.102   6.677   8.334
15210SOL    HW145654   2.116   6.593   8.386
15210SOL    HW245655   2.047   6.741   8.389
15211SOL     OW45656   2.482   7.372   8.887
15211SOL    HW145657   2.390   7.355   8.922
15211SOL    HW245658   2.510   7.464   8.913
15212SOL     OW45659   2.468   6.550   7.571
15212SOL    HW145660   2.475   6.634   7.517
15212SOL    HW245661   2.514   6.563   7.659
15213SOL     OW45662   3.456   5.700   8.928
15213SOL    HW145663   3.438   5.767   8.856
15213SOL    HW245664   3.453   5.746   9.017
15214SOL     OW45665   1.984   6.229   8.011
15214SOL    HW145666   1.939   6.141   8.028
15214SOL    HW245667   1.983   6.283   8.095
15215SOL     OW45668   3.704   7.353   7.807
15215SOL    HW145669   3.758   7.324   7.887
15215SOL    HW245670   3.734   7.443   7.778
15216SOL     OW45671   1.889   7.182   7.565
15216SOL    HW145672   1.870   7.086   7.586
15216SOL    HW245673   1.856   7.240   7.640
15217SOL     OW45674   3.551   6.508   8.060
15217SOL    HW145675   3.646   6.479   8.068
15217SOL    HW245676   3.543   6.573   7.985
15218SOL     OW45677   3.503   6.694   7.880
15218SOL    HW145678   3.589   6.696   7.828
15218SOL    HW245679   3.517   6.741   7.968
15219SOL     OW45680   1.975   6.323   9.045
15219SOL    HW145681   2.063   6.310   9.090
15219SOL    HW245682   1.962   6.420   9.023
15220SOL     OW45683   2.475   6.951   8.174
15220SOL    HW145684   2.426   6.864   8.183
15220SOL    HW245685   2.452   6.994   8.087
15221SOL     OW45686   3.155   6.814   8.871
15221SOL    HW145687   3.192   6.741   8.813
15221SOL    HW245688   3.207   6.819   8.956
15222SOL     OW45689   2.671   5.590   7.950
15222SOL    HW145690   2.711   5.681   7.941
15222SOL    HW245691   2.571   5.598   7.956
15223SOL     OW45692   2.059   6.562   8.712
15223SOL    HW145693   2.148   6.517   8.698
15223SOL    HW245694   1.986   6.497   8.693
15224SOL     OW45695   3.387   6.585   7.638
15224SOL    HW145696   3.324   6.509   7.651
15224SOL    HW245697   3.435   6.603   7.724
15225SOL     OW45698   3.049   7.378   9.064
15225SOL    HW145699   3.073   7.438   8.988
15225SOL    HW245700   3.056   7.283   9.034
15226SOL     OW45701   2.179   5.837   9.249
15226SOL    HW145702   2.250   5.908   9.255
15226SOL    HW245703   2.091   5.876   9.277
15227SOL     OW45704   3.328   7.003   8.401
15227SOL    HW145705   3.269   7.009   8.481
15227SOL    HW245706   3.313   6.915   8.355
15228SOL     OW45707   3.529   7.300   8.020
15228SOL    HW145708   3.488   7.277   7.932
15228SOL    HW245709   3.511   7.226   8.085
15229SOL     OW45710   2.460   6.315   7.718
15229SOL    HW145711   2.484   6.384   7.650
15229SOL    HW245712   2.382   6.348   7.772
15230SOL     OW45713   3.143   5.931   8.392
15230SOL    HW145714   3.057   5.881   8.379
15230SOL    HW245715   3.205   5.877   8.448
15231SOL     OW45716   3.438   7.248   7.755
15231SOL    HW145717   3.527   7.294   7.758
15231SOL    HW245718   3.417   7.224   7.660
15232SOL     OW45719   2.669   6.191   8.913
15232SOL    HW145720   2.622   6.188   9.002
15232SOL    HW245721   2.618   6.136   8.847
15233SOL     OW45722   3.256   6.055   9.122
15233SOL    HW145723   3.236   6.098   9.210
15233SOL    HW245724   3.334   5.993   9.131
15234SOL     OW45725   2.835   6.476   9.020
15234SOL    HW145726   2.881   6.392   8.991
15234SOL    HW245727   2.779   6.510   8.945
15235SOL     OW45728   2.853   5.996   8.690
15235SOL    HW145729   2.776   6.030   8.744
15235SOL    HW245730   2.819   5.945   8.611
15236SOL     OW45731   2.903   6.287   7.877
15236SOL    HW145732   2.929   6.283   7.973
15236SOL    HW245733   2.818   6.236   7.863
15237SOL     OW45734   1.938   6.397   8.237
15237SOL    HW145735   2.037   6.385   8.246
15237SOL    HW245736   1.914   6.492   8.258
15238SOL     OW45737   1.992   7.407   9.019
15238SOL    HW145738   1.982   7.392   9.118
15238SOL    HW245739   1.906   7.443   8.983
15239SOL     OW45740   2.727   5.934   7.643
15239SOL    HW145741   2.786   5.997   7.594
15239SOL    HW245742   2.746   5.840   7.614
15240SOL     OW45743   3.581   6.171   9.279
15240SOL    HW145744   3.555   6.260   9.243
15240SOL    HW245745   3.579   6.103   9.206
15241SOL     OW45746   3.224   6.730   7.993
15241SOL    HW145747   3.307   6.701   7.945
15241SOL    HW245748   3.175   6.797   7.937
15242SOL     OW45749   2.412   5.782   8.333
15242SOL    HW145750   2.407   5.777   8.433
15242SOL    HW245751   2.414   5.878   8.304
15243SOL     OW45752   2.870   7.042   7.925
15243SOL    HW145753   2.824   7.114   7.873
15243SOL    HW245754   2.866   7.062   8.023
15244SOL     OW45755   2.213   7.387   8.301
15244SOL    HW145756   2.263   7.301   8.307
15244SOL    HW245757   2.278   7.464   8.298
15245SOL     OW45758   3.657   6.652   8.321
15245SOL    HW145759   3.595   6.637   8.245
15245SOL    HW245760   3.605   6.663   8.406
15246SOL     OW45761   3.089   7.136   8.954
15246SOL    HW145762   3.095   7.059   9.018
15246SOL    HW245763   3.037   7.110   8.874
15247SOL     OW45764   2.183   6.529   7.690
15247SOL    HW145765   2.265   6.568   7.648
15247SOL    HW245766   2.156   6.447   7.641
15248SOL     OW45767   3.320   6.321   8.176
15248SOL    HW145768   3.315   6.256   8.251
15248SOL    HW245769   3.400   6.380   8.189
15249SOL     OW45770   2.323   6.852   9.175
15249SOL    HW145771   2.273   6.853   9.089
15249SOL    HW245772   2.260   6.834   9.251
15250SOL     OW45773   2.973   7.362   7.685
15250SOL    HW145774   2.913   7.300   7.735
15250SOL    HW245775   3.004   7.318   7.600
15251SOL     OW45776   2.064   5.871   8.946
15251SOL    HW145777   1.984   5.931   8.933
15251SOL    HW245778   2.054   5.822   9.032
15252SOL     OW45779   3.494   6.963   7.529
15252SOL    HW145780   3.462   7.057   7.519
15252SOL    HW245781   3.418   6.900   7.517
15253SOL     OW45782   2.326   7.329   7.771
15253SOL    HW145783   2.359   7.368   7.857
15253SOL    HW245784   2.402   7.322   7.706
15254SOL     OW45785   3.262   5.693   7.874
15254SOL    HW145786   3.238   5.656   7.784
15254SOL    HW245787   3.361   5.709   7.878
15255SOL     OW45788   2.111   7.371   8.689
15255SOL    HW145789   2.168   7.306   8.739
15255SOL    HW245790   2.095   7.338   8.596
15256SOL     OW45791   2.802   7.284   8.352
15256SOL    HW145792   2.882   7.227   8.373
15256SOL    HW245793   2.753   7.244   8.275
15257SOL     OW45794   2.244   6.286   7.928
15257SOL    HW145795   2.289   6.196   7.925
15257SOL    HW245796   2.150   6.275   7.961
15258SOL     OW45797   3.409   5.808   9.177
15258SOL    HW145798   3.404   5.845   9.269
15258SOL    HW245799   3.337   5.739   9.165
15259SOL     OW45800   2.476   5.708   7.565
15259SOL    HW145801   2.574   5.686   7.572
15259SOL    HW245802   2.445   5.691   7.472
15260SOL     OW45803   2.643   5.850   9.197
15260SOL    HW145804   2.710   5.789   9.240
15260SOL    HW245805   2.570   5.869   9.262
15261SOL     OW45806   2.750   7.100   8.643
15261SOL    HW145807   2.727   7.075   8.549
15261SOL    HW245808   2.811   7.031   8.682
15262SOL     OW45809   3.213   6.176   8.881
15262SOL    HW145810   3.241   6.133   8.966
15262SOL    HW245811   3.238   6.272   8.882
15263SOL     OW45812   2.665   6.988   8.372
15263SOL    HW145813   2.755   7.002   8.330
15263SOL    HW245814   2.594   6.990   8.301
15264SOL     OW45815   2.784   6.089   8.347
15264SOL    HW145816   2.759   6.080   8.251
15264SOL    HW245817   2.832   6.007   8.378
15265SOL     OW45818   2.401   5.650   7.960
15265SOL    HW145819   2.320   5.651   8.018
15265SOL    HW245820   2.404   5.733   7.905
15266SOL     OW45821   3.296   6.774   7.489
15266SOL    HW145822   3.328   6.698   7.546
15266SOL    HW245823   3.204   6.801   7.519
15267SOL     OW45824   2.159   5.621   7.619
15267SOL    HW145825   2.208   5.705   7.598
15267SOL    HW245826   2.221   5.556   7.664
15268SOL     OW45827   2.797   5.822   7.928
15268SOL    HW145828   2.749   5.863   7.850
15268SOL    HW245829   2.896   5.820   7.909
15269SOL     OW45830   2.938   6.269   8.912
15269SOL    HW145831   2.858   6.208   8.915
15269SOL    HW245832   3.019   6.216   8.888
15270SOL     OW45833   3.089   7.156   8.241
15270SOL    HW145834   3.110   7.230   8.176
15270SOL    HW245835   3.157   7.156   8.314
15271SOL     OW45836   2.321   6.738   8.189
15271SOL    HW145837   2.250   6.711   8.254
15271SOL    HW245838   2.295   6.710   8.096
15272SOL     OW45839   3.133   7.383   8.039
15272SOL    HW145840   3.177   7.447   7.975
15272SOL    HW245841   3.083   7.435   8.109
15273SOL     OW45842   2.894   6.135   7.464
15273SOL    HW145843   2.853   6.217   7.425
15273SOL    HW245844   2.958   6.161   7.537
15274SOL     OW45845   1.940   6.142   8.834
15274SOL    HW145846   2.032   6.141   8.793
15274SOL    HW245847   1.934   6.216   8.901
15275SOL     OW45848   2.423   5.808   8.595
15275SOL    HW145849   2.461   5.724   8.632
15275SOL    HW245850   2.335   5.827   8.639
15276SOL     OW45851   2.728   6.040   8.090
15276SOL    HW145852   2.696   6.112   8.028
15276SOL    HW245853   2.752   5.959   8.037
15277SOL     OW45854   2.879   5.625   8.201
15277SOL    HW145855   2.807   5.630   8.132
15277SOL    HW245856   2.855   5.556   8.270
15278SOL     OW45857   3.291   6.759   8.315
15278SOL    HW145858   3.236   6.675   8.308
15278SOL    HW245859   3.317   6.788   8.223
15279SOL     OW45860   3.328   6.176   8.440
15279SOL    HW145861   3.298   6.081   8.447
15279SOL    HW245862   3.401   6.192   8.506
15280SOL     OW45863   3.719   6.419   7.825
15280SOL    HW145864   3.761   6.355   7.889
15280SOL    HW245865   3.681   6.368   7.747
15281SOL     OW45866   2.350   6.971   7.622
15281SOL    HW145867   2.263   6.956   7.669
15281SOL    HW245868   2.333   6.997   7.527
15282SOL     OW45869   3.526   6.866   8.105
15282SOL    HW145870   3.625   6.874   8.119
15282SOL    HW245871   3.481   6.950   8.136
15283SOL     OW45872   3.252   6.161   7.526
15283SOL    HW145873   3.198   6.140   7.607
15283SOL    HW245874   3.343   6.120   7.535
15284SOL     OW45875   2.389   5.842   7.776
15284SOL    HW145876   2.416   5.783   7.701
15284SOL    HW245877   2.389   5.937   7.745
15285SOL     OW45878   3.616   6.809   9.036
15285SOL    HW145879   3.707   6.770   9.023
15285SOL    HW245880   3.624   6.905   9.060
15286SOL     OW45881   2.926   6.933   8.788
15286SOL    HW145882   2.846   6.910   8.843
15286SOL    HW245883   3.009   6.907   8.837
15287SOL     OW45884   3.454   7.215   9.073
15287SOL    HW145885   3.481   7.249   8.983
15287SOL    HW245886   3.533   7.177   9.119
15288SOL     OW45887   2.973   6.781   8.548
15288SOL    HW145888   2.933   6.825   8.629
15288SOL    HW245889   2.932   6.818   8.465
15289SOL     OW45890   3.500   6.685   8.527
15289SOL    HW145891   3.505   6.766   8.586
15289SOL    HW245892   3.414   6.687   8.476
15290SOL     OW45893   2.777   5.675   8.850
15290SOL    HW145894   2.802   5.655   8.755
15290SOL    HW245895   2.849   5.731   8.892
15291SOL     OW45896   2.842   6.702   9.167
15291SOL    HW145897   2.743   6.708   9.177
15291SOL    HW245898   2.865   6.622   9.111
15292SOL     OW45899   2.567   6.636   7.816
15292SOL    HW145900   2.553   6.643   7.915
15292SOL    HW245901   2.651   6.585   7.798
15293SOL     OW45902   3.136   5.972   8.710
15293SOL    HW145903   3.157   6.046   8.774
15293SOL    HW245904   3.047   5.989   8.667
15294SOL     OW45905   1.926   7.150   8.779
15294SOL    HW145906   1.880   7.232   8.745
15294SOL    HW245907   2.024   7.169   8.788
15295SOL     OW45908   2.229   6.686   7.949
15295SOL    HW145909   2.222   6.769   7.893
15295SOL    HW245910   2.233   6.606   7.889
15296SOL     OW45911   2.428   6.123   8.313
15296SOL    HW145912   2.440   6.189   8.239
15296SOL    HW245913   2.474   6.157   8.396
15297SOL     OW45914   3.114   6.934   7.836
15297SOL    HW145915   3.164   7.011   7.876
15297SOL    HW245916   3.019   6.936   7.868
15298SOL     OW45917   3.134   7.031   8.590
15298SOL    HW145918   3.181   7.044   8.677
15298SOL    HW245919   3.068   6.957   8.599
15299SOL     OW45920   3.444   6.225   7.920
15299SOL    HW145921   3.413   6.286   7.993
15299SOL    HW245922   3.494   6.277   7.851
15300SOL     OW45923   2.216   7.096   8.777
15300SOL    HW145924   2.195   7.052   8.690
15300SOL    HW245925   2.313   7.122   8.780
15301SOL     OW45926   2.264   6.337   9.046
15301SOL    HW145927   2.332   6.392   8.999
15301SOL    HW245928   2.304   6.249   9.073
15302SOL     OW45929   3.449   6.365   9.118
15302SOL    HW145930   3.357   6.403   9.113
15302SOL    HW245931   3.509   6.412   9.053
15303SOL     OW45932   2.875   5.691   9.218
15303SOL    HW145933   2.881   5.776   9.166
15303SOL    HW245934   2.907   5.615   9.161
15304SOL     OW45935   2.366   5.636   9.188
15304SOL    HW145936   2.324   5.579   9.118
15304SOL    HW245937   2.300   5.705   9.220
15305SOL     OW45938   2.435   6.456   8.477
15305SOL    HW145939   2.479   6.545   8.468
15305SOL    HW245940   2.372   6.456   8.554
15306SOL     OW45941   3.222   6.448   8.493
15306SOL    HW145942   3.147   6.448   8.427
15306SOL    HW245943   3.259   6.356   8.502
15307SOL     OW45944   3.071   6.111   7.723
15307SOL    HW145945   3.084   6.027   7.777
15307SOL    HW245946   3.042   6.185   7.783
15308SOL     OW45947   2.169   5.799   8.679
15308SOL    HW145948   2.146   5.836   8.769
15308SOL    HW245949   2.139   5.704   8.673
15309SOL     OW45950   1.899   6.896   8.730
15309SOL    HW145951   1.952   6.847   8.798
15309SOL    HW245952   1.921   6.994   8.735
15310SOL     OW45953   2.594   6.220   8.512
15310SOL    HW145954   2.653   6.194   8.436
15310SOL    HW245955   2.566   6.316   8.501
15311SOL     OW45956   3.590   6.521   9.302
15311SOL    HW145957   3.544   6.514   9.213
15311SOL    HW245958   3.528   6.565   9.368
15312SOL     OW45959   2.169   5.649   8.066
15312SOL    HW145960   2.158   5.743   8.099
15312SOL    HW245961   2.164   5.586   8.143
15313SOL     OW45962   3.484   5.953   7.822
15313SOL    HW145963   3.486   5.877   7.886
15313SOL    HW245964   3.436   6.030   7.862
15314SOL     OW45965   2.885   6.352   8.414
15314SOL    HW145966   2.900   6.373   8.510
15314SOL    HW245967   2.855   6.257   8.405
15315SOL     OW45968   2.842   7.159   9.148
15315SOL    HW145969   2.822   7.203   9.060
15315SOL    HW245970   2.881   7.068   9.132
15316SOL     OW45971   3.721   7.104   9.053
15316SOL    HW145972   3.735   7.131   8.958
15316SOL    HW245973   3.804   7.126   9.106
15317SOL     OW45974   2.212   6.484   9.252
15317SOL    HW145975   2.288   6.528   9.300
15317SOL    HW245976   2.247   6.437   9.170
15318SOL     OW45977   3.402   5.860   7.573
15318SOL    HW145978   3.341   5.785   7.596
15318SOL    HW245979   3.424   5.912   7.656
15319SOL     OW45980   3.165   6.424   7.490
15319SOL    HW145981   3.199   6.331   7.505
15319SOL    HW245982   3.183   6.451   7.395
15320SOL     OW45983   2.930   6.919   8.297
15320SOL    HW145984   2.937   6.835   8.242
15320SOL    HW245985   2.992   6.988   8.261
15321SOL     OW45986   2.181   6.396   8.397
15321SOL    HW145987   2.274   6.432   8.402
15321SOL    HW245988   2.175   6.311   8.449
15322SOL     OW45989   2.201   6.095   8.454
15322SOL    HW145990   2.149   6.012   8.437
15322SOL    HW245991   2.278   6.100   8.390
15323SOL     OW45992   3.000   5.966   9.126
15323SOL    HW145993   2.955   6.029   9.190
15323SOL    HW245994   3.093   5.997   9.109
15324SOL     OW45995   3.022   5.793   8.925
15324SOL    HW145996   3.022   5.857   9.002
15324SOL    HW245997   3.050   5.841   8.842
15325SOL     OW45998   1.870   6.912   7.648
15325SOL    HW145999   1.777   6.933   7.617
15325SOL    HW246000   1.880   6.813   7.661
15326SOL     OW46001   1.950   7.387   8.375
15326SOL    HW146002   1.908   7.301   8.348
15326SOL    HW246003   2.044   7.390   8.341
15327SOL     OW46004   2.366   7.154   8.358
15327SOL    HW146005   2.432   7.228   8.367
15327SOL    HW246006   2.410   7.075   8.316
15328SOL     OW46007   2.864   6.382   8.686
15328SOL    HW146008   2.905   6.350   8.772
15328SOL    HW246009   2.768   6.355   8.683
15329SOL     OW46010   1.902   6.130   8.562
15329SOL    HW146011   1.987   6.097   8.521
15329SOL    HW246012   1.915   6.145   8.660
15330SOL     OW46013   2.051   6.106   9.170
15330SOL    HW146014   2.110   6.066   9.100
15330SOL    HW246015   1.993   6.177   9.129
15331SOL     OW46016   3.231   6.536   9.108
15331SOL    HW146017   3.270   6.625   9.128
15331SOL    HW246018   3.241   6.516   9.011
15332SOL     OW46019   2.677   6.158   7.773
15332SOL    HW146020   2.684   6.069   7.727
15332SOL    HW246021   2.583   6.192   7.765
15333SOL     OW46022   3.519   6.190   8.654
15333SOL    HW146023   3.481   6.121   8.716
15333SOL    HW246024   3.601   6.154   8.610
15334SOL     OW46025   2.114   7.150   9.192
15334SOL    HW146026   2.084   7.207   9.268
15334SOL    HW246027   2.107   7.053   9.218
15335SOL     OW46028   2.533   6.050   8.717
15335SOL    HW146029   2.499   5.961   8.687
15335SOL    HW246030   2.559   6.104   8.637
15336SOL     OW46031   2.792   7.264   8.913
15336SOL    HW146032   2.768   7.246   8.818
15336SOL    HW246033   2.822   7.358   8.923
15337SOL     OW46034   2.335   6.086   7.639
15337SOL    HW146035   2.396   6.166   7.643
15337SOL    HW246036   2.240   6.117   7.646
15338SOL     OW46037   2.021   6.723   8.914
15338SOL    HW146038   2.043   6.662   8.990
15338SOL    HW246039   2.031   6.674   8.828
15339SOL     OW46040   3.209   6.645   8.682
15339SOL    HW146041   3.233   6.582   8.608
15339SOL    HW246042   3.119   6.685   8.664
15340SOL     OW46043   3.164   6.441   7.757
15340SOL    HW146044   3.078   6.410   7.799
15340SOL    HW246045   3.160   6.427   7.658
15341SOL     OW46046   3.621   7.333   8.602
15341SOL    HW146047   3.682   7.363   8.529
15341SOL    HW246048   3.583   7.244   8.580
15342SOL     OW46049   3.114   7.317   8.576
15342SOL    HW146050   3.198   7.322   8.522
15342SOL    HW246051   3.091   7.221   8.594
15343SOL     OW46052   1.945   6.844   8.470
15343SOL    HW146053   1.940   6.843   8.570
15343SOL    HW246054   1.862   6.803   8.432
15344SOL     OW46055   2.550   7.248   9.164
15344SOL    HW146056   2.494   7.329   9.173
15344SOL    HW246057   2.602   7.252   9.078
15345SOL     OW46058   3.588   5.721   7.971
15345SOL    HW146059   3.661   5.704   7.904
15345SOL    HW246060   3.557   5.634   8.009
15346SOL     OW46061   3.250   7.159   7.925
15346SOL    HW146062   3.317   7.171   7.851
15346SOL    HW246063   3.210   7.248   7.948
15347SOL     OW46064   1.992   7.380   9.299
15347SOL    HW146065   1.951   7.306   9.352
15347SOL    HW246066   2.056   7.431   9.357
15348SOL     OW46067   3.142   6.513   8.120
15348SOL    HW146068   3.202   6.432   8.122
15348SOL    HW246069   3.182   6.582   8.060
15349SOL     OW46070   2.692   6.859   8.870
15349SOL    HW146071   2.687   6.892   8.965
15349SOL    HW246072   2.606   6.878   8.824
15350SOL     OW46073   2.534   7.202   7.602
15350SOL    HW146074   2.543   7.212   7.503
15350SOL    HW246075   2.494   7.113   7.623
15351SOL     OW46076   3.512   7.306   8.842
15351SOL    HW146077   3.565   7.316   8.758
15351SOL    HW246078   3.485   7.396   8.876
15352SOL     OW46079   3.703   5.761   8.411
15352SOL    HW146080   3.742   5.676   8.375
15352SOL    HW246081   3.605   5.763   8.392
15353SOL     OW46082   2.125   5.912   8.168
15353SOL    HW146083   2.046   5.963   8.134
15353SOL    HW246084   2.116   5.897   8.266
15354SOL     OW46085   3.056   7.198   7.479
15354SOL    HW146086   3.062   7.105   7.516
15354SOL    HW246087   2.997   7.198   7.399
15355SOL     OW46088   2.684   6.588   8.820
15355SOL    HW146089   2.724   6.587   8.728
15355SOL    HW246090   2.694   6.680   8.860
15356SOL     OW46091   2.778   6.496   7.739
15356SOL    HW146092   2.841   6.534   7.671
15356SOL    HW246093   2.818   6.413   7.778
15357SOL     OW46094   3.366   7.193   7.492
15357SOL    HW146095   3.274   7.230   7.499
15357SOL    HW246096   3.404   7.213   7.402
15358SOL     OW46097   2.234   6.874   8.938
15358SOL    HW146098   2.221   6.967   8.904
15358SOL    HW246099   2.150   6.822   8.925
15359SOL     OW46100   3.476   6.878   8.737
15359SOL    HW146101   3.536   6.881   8.817
15359SOL    HW246102   3.401   6.942   8.750
15360SOL     OW46103   2.901   6.684   8.144
15360SOL    HW146104   2.831   6.637   8.198
15360SOL    HW246105   2.960   6.616   8.101
15361SOL     OW46106   2.876   5.822   8.419
15361SOL    HW146107   2.868   5.786   8.326
15361SOL    HW246108   2.874   5.746   8.484
15362SOL     OW46109   2.452   7.073   7.939
15362SOL    HW146110   2.494   7.015   7.869
15362SOL    HW246111   2.408   7.152   7.895
15363SOL     OW46112   3.571   5.971   8.829
15363SOL    HW146113   3.644   6.040   8.833
15363SOL    HW246114   3.599   5.896   8.770
15364SOL     OW46115   2.117   6.934   7.738
15364SOL    HW146116   2.021   6.935   7.711
15364SOL    HW246117   2.129   6.987   7.822
15365SOL     OW46118   1.967   6.599   9.174
15365SOL    HW146119   1.890   6.566   9.228
15365SOL    HW246120   2.052   6.569   9.216
15366SOL     OW46121   2.534   5.789   8.937
15366SOL    HW146122   2.624   5.773   8.897
15366SOL    HW246123   2.542   5.794   9.036
15367SOL     OW46124   1.937   5.931   7.481
15367SOL    HW146125   1.845   5.903   7.452
15367SOL    HW246126   1.968   6.008   7.425
15368SOL     OW46127   3.302   6.442   8.846
15368SOL    HW146128   3.245   6.494   8.783
15368SOL    HW246129   3.398   6.454   8.822
15369SOL     OW46130   1.934   5.752   7.766
15369SOL    HW146131   1.917   5.835   7.712
15369SOL    HW246132   2.024   5.715   7.744
15370SOL     OW46133   3.045   6.921   7.567
15370SOL    HW146134   2.946   6.910   7.569
15370SOL    HW246135   3.079   6.936   7.660
15371SOL     OW46136   2.475   6.428   8.879
15371SOL    HW146137   2.531   6.509   8.862
15371SOL    HW246138   2.534   6.348   8.882
15372SOL     OW46139   3.355   7.353   8.407
15372SOL    HW146140   3.388   7.417   8.338
15372SOL    HW246141   3.421   7.347   8.482
15373SOL     OW46142   2.578   6.151   9.156
15373SOL    HW146143   2.597   6.216   9.230
15373SOL    HW246144   2.638   6.071   9.165
15374SOL     OW46145   3.312   6.806   9.081
15374SOL    HW146146   3.303   6.796   9.180
15374SOL    HW246147   3.408   6.799   9.055
15375SOL     OW46148   2.252   7.327   9.008
15375SOL    HW146149   2.161   7.368   9.006
15375SOL    HW246150   2.245   7.233   9.040
15376SOL     OW46151   3.536   6.469   8.702
15376SOL    HW146152   3.509   6.380   8.665
15376SOL    HW246153   3.537   6.537   8.629
15377SOL     OW46154   3.087   5.911   7.897
15377SOL    HW146155   3.152   5.837   7.886
15377SOL    HW246156   3.107   5.961   7.981
15378SOL     OW46157   2.456   6.331   8.100
15378SOL    HW146158   2.506   6.416   8.081
15378SOL    HW246159   2.368   6.333   8.052
15379SOL     OW46160   3.639   5.928   9.090
15379SOL    HW146161   3.622   5.959   8.996
15379SOL    HW246162   3.555   5.891   9.128
15380SOL     OW46163   3.592   6.520   8.965
15380SOL    HW146164   3.630   6.611   8.980
15380SOL    HW246165   3.584   6.503   8.866
15381SOL     OW46166   2.721   6.960   7.464
15381SOL    HW146167   2.675   6.975   7.552
15381SOL    HW246168   2.765   7.045   7.434
15382SOL     OW46169   2.523   7.376   8.401
15382SOL    HW146170   2.477   7.464   8.388
15382SOL    HW246171   2.622   7.388   8.394
15383SOL     OW46172   2.721   6.542   8.309
15383SOL    HW146173   2.775   6.473   8.357
15383SOL    HW246174   2.689   6.611   8.375
15384SOL     OW46175   2.945   6.570   7.535
15384SOL    HW146176   2.922   6.623   7.453
15384SOL    HW246177   3.026   6.514   7.516
15385SOL     OW46178   3.723   7.155   8.299
15385SOL    HW146179   3.652   7.143   8.229
15385SOL    HW246180   3.724   7.076   8.359
15386SOL     OW46181   2.083   6.900   9.292
15386SOL    HW146182   2.018   6.827   9.271
15386SOL    HW246183   2.087   6.914   9.390
15387SOL     OW46184   1.941   6.826   8.101
15387SOL    HW146185   1.940   6.779   8.189
15387SOL    HW246186   2.023   6.798   8.050
15388SOL     OW46187   2.534   6.977   9.072
15388SOL    HW146188   2.456   6.927   9.110
15388SOL    HW246189   2.531   7.072   9.103
15389SOL     OW46190   3.686   5.778   8.675
15389SOL    HW146191   3.682   5.688   8.719
15389SOL    HW246192   3.689   5.767   8.576
15390SOL     OW46193   2.290   6.010   7.968
15390SOL    HW146194   2.320   5.938   7.906
15390SOL    HW246195   2.251   5.970   8.051
15391SOL     OW46196   3.567   7.073   8.552
15391SOL    HW146197   3.474   7.048   8.525
15391SOL    HW246198   3.593   7.023   8.634
15392SOL     OW46199   2.179   6.133   8.728
15392SOL    HW146200   2.217   6.074   8.800
15392SOL    HW246201   2.219   6.107   8.640
15393SOL     OW46202   2.674   7.172   8.135
15393SOL    HW146203   2.706   7.182   8.041
15393SOL    HW246204   2.595   7.110   8.137
15394SOL     OW46205   3.286   5.800   8.560
15394SOL    HW146206   3.338   5.735   8.615
15394SOL    HW246207   3.237   5.863   8.621
15395SOL     OW46208   2.863   5.620   8.602
15395SOL    HW146209   2.800   5.548   8.571
15395SOL    HW246210   2.956   5.584   8.602
15396SOL     OW46211   2.632   6.916   7.749
15396SOL    HW146212   2.586   6.829   7.766
15396SOL    HW246213   2.723   6.913   7.790
15397SOL     OW46214   2.480   7.153   8.732
15397SOL    HW146215   2.475   7.235   8.789
15397SOL    HW246216   2.569   7.150   8.687
15398SOL     OW46217   3.214   5.638   7.616
15398SOL    HW146218   3.249   5.597   7.532
15398SOL    HW246219   3.124   5.600   7.636
15399SOL     OW46220   3.162   6.039   8.139
15399SOL    HW146221   3.103   6.119   8.143
15399SOL    HW246222   3.177   6.004   8.232
15400SOL     OW46223   3.455   5.807   8.330
15400SOL    HW146224   3.371   5.806   8.384
15400SOL    HW246225   3.457   5.890   8.274
15401SOL     OW46226   1.901   6.663   7.748
15401SOL    HW146227   2.000   6.652   7.739
15401SOL    HW246228   1.861   6.577   7.780
15402SOL     OW46229   2.737   7.232   7.785
15402SOL    HW146230   2.660   7.197   7.731
15402SOL    HW246231   2.705   7.303   7.847
15403SOL     OW46232   2.092   6.214   9.423
15403SOL    HW146233   1.999   6.212   9.460
15403SOL    HW246234   2.093   6.175   9.331
15404SOL     OW46235   2.087   5.861  10.306
15404SOL    HW146236   2.122   5.844  10.398
15404SOL    HW246237   1.999   5.816  10.294
15405SOL     OW46238   1.881   5.954   9.957
15405SOL    HW146239   1.799   5.997   9.996
15405SOL    HW246240   1.853   5.881   9.894
15406SOL     OW46241   2.431   6.861  10.475
15406SOL    HW146242   2.338   6.854  10.438
15406SOL    HW246243   2.442   6.950  10.519
15407SOL     OW46244   3.417   7.097  10.013
15407SOL    HW146245   3.360   7.081  10.094
15407SOL    HW246246   3.358   7.107   9.933
15408SOL     OW46247   2.997   6.289  10.027
15408SOL    HW146248   3.054   6.367  10.002
15408SOL    HW246249   2.937   6.315  10.103
15409SOL     OW46250   3.617   6.193   9.541
15409SOL    HW146251   3.605   6.180   9.442
15409SOL    HW246252   3.587   6.112   9.590
15410SOL     OW46253   2.630   6.730  10.333
15410SOL    HW146254   2.552   6.747  10.393
15410SOL    HW246255   2.664   6.817  10.297
15411SOL     OW46256   2.712   6.384  11.133
15411SOL    HW146257   2.708   6.460  11.198
15411SOL    HW246258   2.734   6.420  11.042
15412SOL     OW46259   2.547   6.598   9.975
15412SOL    HW146260   2.616   6.582  10.045
15412SOL    HW246261   2.474   6.655  10.013
15413SOL     OW46262   2.548   6.747  11.113
15413SOL    HW146263   2.608   6.826  11.127
15413SOL    HW246264   2.462   6.778  11.072
15414SOL     OW46265   2.197   7.021  10.371
15414SOL    HW146266   2.119   6.990  10.318
15414SOL    HW246267   2.255   7.079  10.314
15415SOL     OW46268   3.322   7.091  10.649
15415SOL    HW146269   3.346   7.185  10.675
15415SOL    HW246270   3.306   7.037  10.731
15416SOL     OW46271   2.300   5.978  10.809
15416SOL    HW146272   2.382   5.922  10.818
15416SOL    HW246273   2.219   5.920  10.813
15417SOL     OW46274   3.465   6.033  10.047
15417SOL    HW146275   3.391   6.079   9.997
15417SOL    HW246276   3.516   6.101  10.100
15418SOL     OW46277   2.093   7.299   9.793
15418SOL    HW146278   2.127   7.376   9.847
15418SOL    HW246279   2.137   7.299   9.703
15419SOL     OW46280   2.989   6.927  11.000
15419SOL    HW146281   3.036   6.927  11.088
15419SOL    HW246282   2.941   6.840  10.989
15420SOL     OW46283   2.092   7.020   9.848
15420SOL    HW146284   2.066   7.116   9.848
15420SOL    HW246285   2.021   6.966   9.893
15421SOL     OW46286   2.102   6.677  10.196
15421SOL    HW146287   2.116   6.593  10.248
15421SOL    HW246288   2.047   6.741  10.251
15422SOL     OW46289   2.482   7.372  10.749
15422SOL    HW146290   2.390   7.355  10.784
15422SOL    HW246291   2.510   7.464  10.775
15423SOL     OW46292   2.468   6.550   9.433
15423SOL    HW146293   2.475   6.634   9.379
15423SOL    HW246294   2.514   6.563   9.521
15424SOL     OW46295   3.456   5.700  10.790
15424SOL    HW146296   3.438   5.767  10.718
15424SOL    HW246297   3.453   5.746  10.879
15425SOL     OW46298   1.984   6.229   9.873
15425SOL    HW146299   1.939   6.141   9.890
15425SOL    HW246300   1.983   6.283   9.957
15426SOL     OW46301   3.704   7.353   9.669
15426SOL    HW146302   3.758   7.324   9.749
15426SOL    HW246303   3.734   7.443   9.640
15427SOL     OW46304   1.889   7.182   9.427
15427SOL    HW146305   1.870   7.086   9.448
15427SOL    HW246306   1.856   7.240   9.502
15428SOL     OW46307   3.551   6.508   9.922
15428SOL    HW146308   3.646   6.479   9.930
15428SOL    HW246309   3.543   6.573   9.847
15429SOL     OW46310   3.503   6.694   9.742
15429SOL    HW146311   3.589   6.696   9.690
15429SOL    HW246312   3.517   6.741   9.830
15430SOL     OW46313   1.975   6.323  10.907
15430SOL    HW146314   2.063   6.310  10.952
15430SOL    HW246315   1.962   6.420  10.885
15431SOL     OW46316   2.475   6.951  10.036
15431SOL    HW146317   2.426   6.864  10.045
15431SOL    HW246318   2.452   6.994   9.949
15432SOL     OW46319   3.155   6.814  10.733
15432SOL    HW146320   3.192   6.741  10.675
15432SOL    HW246321   3.207   6.819  10.818
15433SOL     OW46322   2.671   5.590   9.812
15433SOL    HW146323   2.711   5.681   9.803
15433SOL    HW246324   2.571   5.598   9.818
15434SOL     OW46325   2.059   6.562  10.574
15434SOL    HW146326   2.148   6.517  10.560
15434SOL    HW246327   1.986   6.497  10.555
15435SOL     OW46328   3.387   6.585   9.500
15435SOL    HW146329   3.324   6.509   9.513
15435SOL    HW246330   3.435   6.603   9.586
15436SOL     OW46331   3.049   7.378  10.926
15436SOL    HW146332   3.073   7.438  10.850
15436SOL    HW246333   3.056   7.283  10.896
15437SOL     OW46334   2.179   5.837  11.111
15437SOL    HW146335   2.250   5.908  11.117
15437SOL    HW246336   2.091   5.876  11.139
15438SOL     OW46337   3.328   7.003  10.263
15438SOL    HW146338   3.269   7.009  10.343
15438SOL    HW246339   3.313   6.915  10.217
15439SOL     OW46340   3.529   7.300   9.882
15439SOL    HW146341   3.488   7.277   9.794
15439SOL    HW246342   3.511   7.226   9.947
15440SOL     OW46343   2.460   6.315   9.580
15440SOL    HW146344   2.484   6.384   9.512
15440SOL    HW246345   2.382   6.348   9.634
15441SOL     OW46346   3.143   5.931  10.254
15441SOL    HW146347   3.057   5.881  10.241
15441SOL    HW246348   3.205   5.877  10.310
15442SOL     OW46349   3.438   7.248   9.617
15442SOL    HW146350   3.527   7.294   9.620
15442SOL    HW246351   3.417   7.224   9.522
15443SOL     OW46352   2.669   6.191  10.775
15443SOL    HW146353   2.622   6.188  10.864
15443SOL    HW246354   2.618   6.136  10.709
15444SOL     OW46355   3.256   6.055  10.984
15444SOL    HW146356   3.236   6.098  11.072
15444SOL    HW246357   3.334   5.993  10.993
15445SOL     OW46358   2.835   6.476  10.882
15445SOL    HW146359   2.881   6.392  10.853
15445SOL    HW246360   2.779   6.510  10.807
15446SOL     OW46361   2.853   5.996  10.552
15446SOL    HW146362   2.776   6.030  10.606
15446SOL    HW246363   2.819   5.945  10.473
15447SOL     OW46364   2.903   6.287   9.739
15447SOL    HW146365   2.929   6.283   9.835
15447SOL    HW246366   2.818   6.236   9.725
15448SOL     OW46367   1.938   6.397  10.099
15448SOL    HW146368   2.037   6.385  10.108
15448SOL    HW246369   1.914   6.492  10.120
15449SOL     OW46370   1.992   7.407  10.881
15449SOL    HW146371   1.982   7.392  10.980
15449SOL    HW246372   1.906   7.443  10.845
15450SOL     OW46373   2.727   5.934   9.505
15450SOL    HW146374   2.786   5.997   9.456
15450SOL    HW246375   2.746   5.840   9.476
15451SOL     OW46376   3.581   6.171  11.141
15451SOL    HW146377   3.555   6.260  11.105
15451SOL    HW246378   3.579   6.103  11.068
15452SOL     OW46379   3.224   6.730   9.855
15452SOL    HW146380   3.307   6.701   9.807
15452SOL    HW246381   3.175   6.797   9.799
15453SOL     OW46382   2.412   5.782  10.195
15453SOL    HW146383   2.407   5.777  10.295
15453SOL    HW246384   2.414   5.878  10.166
15454SOL     OW46385   2.870   7.042   9.787
15454SOL    HW146386   2.824   7.114   9.735
15454SOL    HW246387   2.866   7.062   9.885
15455SOL     OW46388   2.213   7.387  10.163
15455SOL    HW146389   2.263   7.301  10.169
15455SOL    HW246390   2.278   7.464  10.160
15456SOL     OW46391   3.657   6.652  10.183
15456SOL    HW146392   3.595   6.637  10.107
15456SOL    HW246393   3.605   6.663  10.268
15457SOL     OW46394   3.089   7.136  10.816
15457SOL    HW146395   3.095   7.059  10.880
15457SOL    HW246396   3.037   7.110  10.736
15458SOL     OW46397   2.183   6.529   9.552
15458SOL    HW146398   2.265   6.568   9.510
15458SOL    HW246399   2.156   6.447   9.503
15459SOL     OW46400   3.320   6.321  10.038
15459SOL    HW146401   3.315   6.256  10.113
15459SOL    HW246402   3.400   6.380  10.051
15460SOL     OW46403   2.323   6.852  11.037
15460SOL    HW146404   2.273   6.853  10.951
15460SOL    HW246405   2.260   6.834  11.113
15461SOL     OW46406   2.973   7.362   9.547
15461SOL    HW146407   2.913   7.300   9.597
15461SOL    HW246408   3.004   7.318   9.462
15462SOL     OW46409   2.064   5.871  10.808
15462SOL    HW146410   1.984   5.931  10.795
15462SOL    HW246411   2.054   5.822  10.894
15463SOL     OW46412   3.494   6.963   9.391
15463SOL    HW146413   3.462   7.057   9.381
15463SOL    HW246414   3.418   6.900   9.379
15464SOL     OW46415   2.326   7.329   9.633
15464SOL    HW146416   2.359   7.368   9.719
15464SOL    HW246417   2.402   7.322   9.568
15465SOL     OW46418   3.262   5.693   9.736
15465SOL    HW146419   3.238   5.656   9.646
15465SOL    HW246420   3.361   5.709   9.740
15466SOL     OW46421   2.111   7.371  10.551
15466SOL    HW146422   2.168   7.306  10.601
15466SOL    HW246423   2.095   7.338  10.458
15467SOL     OW46424   2.802   7.284  10.214
15467SOL    HW146425   2.882   7.227  10.235
15467SOL    HW246426   2.753   7.244  10.137
15468SOL     OW46427   2.244   6.286   9.790
15468SOL    HW146428   2.289   6.196   9.787
15468SOL    HW246429   2.150   6.275   9.823
15469SOL     OW46430   3.409   5.808  11.039
15469SOL    HW146431   3.404   5.845  11.131
15469SOL    HW246432   3.337   5.739  11.027
15470SOL     OW46433   2.476   5.708   9.427
15470SOL    HW146434   2.574   5.686   9.434
15470SOL    HW246435   2.445   5.691   9.334
15471SOL     OW46436   2.643   5.850  11.059
15471SOL    HW146437   2.710   5.789  11.102
15471SOL    HW246438   2.570   5.869  11.124
15472SOL     OW46439   2.750   7.100  10.505
15472SOL    HW146440   2.727   7.075  10.411
15472SOL    HW246441   2.811   7.031  10.544
15473SOL     OW46442   3.213   6.176  10.743
15473SOL    HW146443   3.241   6.133  10.828
15473SOL    HW246444   3.238   6.272  10.744
15474SOL     OW46445   2.665   6.988  10.234
15474SOL    HW146446   2.755   7.002  10.192
15474SOL    HW246447   2.594   6.990  10.163
15475SOL     OW46448   2.784   6.089  10.209
15475SOL    HW146449   2.759   6.080  10.113
15475SOL    HW246450   2.832   6.007  10.240
15476SOL     OW46451   2.401   5.650   9.822
15476SOL    HW146452   2.320   5.651   9.880
15476SOL    HW246453   2.404   5.733   9.767
15477SOL     OW46454   3.296   6.774   9.351
15477SOL    HW146455   3.328   6.698   9.408
15477SOL    HW246456   3.204   6.801   9.381
15478SOL     OW46457   2.159   5.621   9.481
15478SOL    HW146458   2.208   5.705   9.460
15478SOL    HW246459   2.221   5.556   9.526
15479SOL     OW46460   2.797   5.822   9.790
15479SOL    HW146461   2.749   5.863   9.712
15479SOL    HW246462   2.896   5.820   9.771
15480SOL     OW46463   2.938   6.269  10.774
15480SOL    HW146464   2.858   6.208  10.777
15480SOL    HW246465   3.019   6.216  10.750
15481SOL     OW46466   3.089   7.156  10.103
15481SOL    HW146467   3.110   7.230  10.038
15481SOL    HW246468   3.157   7.156  10.176
15482SOL     OW46469   2.321   6.738  10.051
15482SOL    HW146470   2.250   6.711  10.116
15482SOL    HW246471   2.295   6.710   9.958
15483SOL     OW46472   3.133   7.383   9.901
15483SOL    HW146473   3.177   7.447   9.837
15483SOL    HW246474   3.083   7.435   9.971
15484SOL     OW46475   2.894   6.135   9.326
15484SOL    HW146476   2.853   6.217   9.287
15484SOL    HW246477   2.958   6.161   9.399
15485SOL     OW46478   1.940   6.142  10.696
15485SOL    HW146479   2.032   6.141  10.655
15485SOL    HW246480   1.934   6.216  10.763
15486SOL     OW46481   2.423   5.808  10.457
15486SOL    HW146482   2.461   5.724  10.494
15486SOL    HW246483   2.335   5.827  10.501
15487SOL     OW46484   2.728   6.040   9.952
15487SOL    HW146485   2.696   6.112   9.890
15487SOL    HW246486   2.752   5.959   9.899
15488SOL     OW46487   2.879   5.625  10.063
15488SOL    HW146488   2.807   5.630   9.994
15488SOL    HW246489   2.855   5.556  10.132
15489SOL     OW46490   3.291   6.759  10.177
15489SOL    HW146491   3.236   6.675  10.170
15489SOL    HW246492   3.317   6.788  10.085
15490SOL     OW46493   3.328   6.176  10.302
15490SOL    HW146494   3.298   6.081  10.309
15490SOL    HW246495   3.401   6.192  10.368
15491SOL     OW46496   3.719   6.419   9.687
15491SOL    HW146497   3.761   6.355   9.751
15491SOL    HW246498   3.681   6.368   9.609
15492SOL     OW46499   2.350   6.971   9.484
15492SOL    HW146500   2.263   6.956   9.531
15492SOL    HW246501   2.333   6.997   9.389
15493SOL     OW46502   3.526   6.866   9.967
15493SOL    HW146503   3.625   6.874   9.981
15493SOL    HW246504   3.481   6.950   9.998
15494SOL     OW46505   3.252   6.161   9.388
15494SOL    HW146506   3.198   6.140   9.469
15494SOL    HW246507   3.343   6.120   9.397
15495SOL     OW46508   2.389   5.842   9.638
15495SOL    HW146509   2.416   5.783   9.563
15495SOL    HW246510   2.389   5.937   9.607
15496SOL     OW46511   3.616   6.809  10.898
15496SOL    HW146512   3.707   6.770  10.885
15496SOL    HW246513   3.624   6.905  10.922
15497SOL     OW46514   2.926   6.933  10.650
15497SOL    HW146515   2.846   6.910  10.705
15497SOL    HW246516   3.009   6.907  10.699
15498SOL     OW46517   3.454   7.215  10.935
15498SOL    HW146518   3.481   7.249  10.845
15498SOL    HW246519   3.533   7.177  10.981
15499SOL     OW46520   2.973   6.781  10.410
15499SOL    HW146521   2.933   6.825  10.491
15499SOL    HW246522   2.932   6.818  10.327
15500SOL     OW46523   3.500   6.685  10.389
15500SOL    HW146524   3.505   6.766  10.448
15500SOL    HW246525   3.414   6.687  10.338
15501SOL     OW46526   2.777   5.675  10.712
15501SOL    HW146527   2.802   5.655  10.617
15501SOL    HW246528   2.849   5.731  10.754
15502SOL     OW46529   2.842   6.702  11.029
15502SOL    HW146530   2.743   6.708  11.039
15502SOL    HW246531   2.865   6.622  10.973
15503SOL     OW46532   2.567   6.636   9.678
15503SOL    HW146533   2.553   6.643   9.777
15503SOL    HW246534   2.651   6.585   9.660
15504SOL     OW46535   2.272   6.399  10.561
15504SOL    HW146536   2.358   6.411  10.611
15504SOL    HW246537   2.230   6.312  10.588
15505SOL     OW46538   3.136   5.972  10.572
15505SOL    HW146539   3.157   6.046  10.636
15505SOL    HW246540   3.047   5.989  10.529
15506SOL     OW46541   1.926   7.150  10.641
15506SOL    HW146542   1.880   7.232  10.607
15506SOL    HW246543   2.024   7.169  10.650
15507SOL     OW46544   2.229   6.686   9.811
15507SOL    HW146545   2.222   6.769   9.755
15507SOL    HW246546   2.233   6.606   9.751
15508SOL     OW46547   2.428   6.123  10.175
15508SOL    HW146548   2.440   6.189  10.101
15508SOL    HW246549   2.474   6.157  10.258
15509SOL     OW46550   3.114   6.934   9.698
15509SOL    HW146551   3.164   7.011   9.738
15509SOL    HW246552   3.019   6.936   9.730
15510SOL     OW46553   3.134   7.031  10.452
15510SOL    HW146554   3.181   7.044  10.539
15510SOL    HW246555   3.068   6.957  10.461
15511SOL     OW46556   3.444   6.225   9.782
15511SOL    HW146557   3.413   6.286   9.855
15511SOL    HW246558   3.494   6.277   9.713
15512SOL     OW46559   2.216   7.096  10.639
15512SOL    HW146560   2.195   7.052  10.552
15512SOL    HW246561   2.313   7.122  10.642
15513SOL     OW46562   2.264   6.337  10.908
15513SOL    HW146563   2.332   6.392  10.861
15513SOL    HW246564   2.304   6.249  10.935
15514SOL     OW46565   3.449   6.365  10.980
15514SOL    HW146566   3.357   6.403  10.975
15514SOL    HW246567   3.509   6.412  10.915
15515SOL     OW46568   2.875   5.691  11.080
15515SOL    HW146569   2.881   5.776  11.028
15515SOL    HW246570   2.907   5.615  11.023
15516SOL     OW46571   2.366   5.636  11.050
15516SOL    HW146572   2.324   5.579  10.980
15516SOL    HW246573   2.300   5.705  11.082
15517SOL     OW46574   2.435   6.456  10.339
15517SOL    HW146575   2.479   6.545  10.330
15517SOL    HW246576   2.372   6.456  10.416
15518SOL     OW46577   3.222   6.448  10.355
15518SOL    HW146578   3.147   6.448  10.289
15518SOL    HW246579   3.259   6.356  10.364
15519SOL     OW46580   3.071   6.111   9.585
15519SOL    HW146581   3.084   6.027   9.639
15519SOL    HW246582   3.042   6.185   9.645
15520SOL     OW46583   2.169   5.799  10.541
15520SOL    HW146584   2.146   5.836  10.631
15520SOL    HW246585   2.139   5.704  10.535
15521SOL     OW46586   1.899   6.896  10.592
15521SOL    HW146587   1.952   6.847  10.660
15521SOL    HW246588   1.921   6.994  10.597
15522SOL     OW46589   2.594   6.220  10.374
15522SOL    HW146590   2.653   6.194  10.298
15522SOL    HW246591   2.566   6.316  10.363
15523SOL     OW46592   3.590   6.521  11.164
15523SOL    HW146593   3.544   6.514  11.075
15523SOL    HW246594   3.528   6.565  11.230
15524SOL     OW46595   2.169   5.649   9.928
15524SOL    HW146596   2.158   5.743   9.961
15524SOL    HW246597   2.164   5.586  10.005
15525SOL     OW46598   3.484   5.953   9.684
15525SOL    HW146599   3.486   5.877   9.748
15525SOL    HW246600   3.436   6.030   9.724
15526SOL     OW46601   2.885   6.352  10.276
15526SOL    HW146602   2.900   6.373  10.372
15526SOL    HW246603   2.855   6.257  10.267
15527SOL     OW46604   2.842   7.159  11.010
15527SOL    HW146605   2.822   7.203  10.922
15527SOL    HW246606   2.881   7.068  10.994
15528SOL     OW46607   3.721   7.104  10.915
15528SOL    HW146608   3.735   7.131  10.820
15528SOL    HW246609   3.804   7.126  10.968
15529SOL     OW46610   2.212   6.484  11.114
15529SOL    HW146611   2.288   6.528  11.162
15529SOL    HW246612   2.247   6.437  11.032
15530SOL     OW46613   3.402   5.860   9.435
15530SOL    HW146614   3.341   5.785   9.458
15530SOL    HW246615   3.424   5.912   9.518
15531SOL     OW46616   3.165   6.424   9.352
15531SOL    HW146617   3.199   6.331   9.367
15531SOL    HW246618   3.183   6.451   9.257
15532SOL     OW46619   2.930   6.919  10.159
15532SOL    HW146620   2.937   6.835  10.104
15532SOL    HW246621   2.992   6.988  10.123
15533SOL     OW46622   2.181   6.396  10.259
15533SOL    HW146623   2.274   6.432  10.264
15533SOL    HW246624   2.175   6.311  10.311
15534SOL     OW46625   2.201   6.095  10.316
15534SOL    HW146626   2.149   6.012  10.299
15534SOL    HW246627   2.278   6.100  10.252
15535SOL     OW46628   3.000   5.966  10.988
15535SOL    HW146629   2.955   6.029  11.052
15535SOL    HW246630   3.093   5.997  10.971
15536SOL     OW46631   3.022   5.793  10.787
15536SOL    HW146632   3.022   5.857  10.864
15536SOL    HW246633   3.050   5.841  10.704
15537SOL     OW46634   1.870   6.912   9.510
15537SOL    HW146635   1.777   6.933   9.479
15537SOL    HW246636   1.880   6.813   9.523
15538SOL     OW46637   1.950   7.387  10.237
15538SOL    HW146638   1.908   7.301  10.210
15538SOL    HW246639   2.044   7.390  10.203
15539SOL     OW46640   2.366   7.154  10.220
15539SOL    HW146641   2.432   7.228  10.229
15539SOL    HW246642   2.410   7.075  10.178
15540SOL     OW46643   2.864   6.382  10.548
15540SOL    HW146644   2.905   6.350  10.634
15540SOL    HW246645   2.768   6.355  10.545
15541SOL     OW46646   1.902   6.130  10.424
15541SOL    HW146647   1.987   6.097  10.383
15541SOL    HW246648   1.915   6.145  10.522
15542SOL     OW46649   2.051   6.106  11.032
15542SOL    HW146650   2.110   6.066  10.962
15542SOL    HW246651   1.993   6.177  10.991
15543SOL     OW46652   3.231   6.536  10.970
15543SOL    HW146653   3.270   6.625  10.990
15543SOL    HW246654   3.241   6.516  10.873
15544SOL     OW46655   2.677   6.158   9.635
15544SOL    HW146656   2.684   6.069   9.589
15544SOL    HW246657   2.583   6.192   9.627
15545SOL     OW46658   3.519   6.190  10.516
15545SOL    HW146659   3.481   6.121  10.578
15545SOL    HW246660   3.601   6.154  10.472
15546SOL     OW46661   2.114   7.150  11.054
15546SOL    HW146662   2.084   7.207  11.130
15546SOL    HW246663   2.107   7.053  11.080
15547SOL     OW46664   2.533   6.050  10.579
15547SOL    HW146665   2.499   5.961  10.549
15547SOL    HW246666   2.559   6.104  10.499
15548SOL     OW46667   2.792   7.264  10.775
15548SOL    HW146668   2.768   7.246  10.680
15548SOL    HW246669   2.822   7.358  10.785
15549SOL     OW46670   2.335   6.086   9.501
15549SOL    HW146671   2.396   6.166   9.505
15549SOL    HW246672   2.240   6.117   9.508
15550SOL     OW46673   2.021   6.723  10.776
15550SOL    HW146674   2.043   6.662  10.852
15550SOL    HW246675   2.031   6.674  10.690
15551SOL     OW46676   3.209   6.645  10.544
15551SOL    HW146677   3.233   6.582  10.470
15551SOL    HW246678   3.119   6.685  10.526
15552SOL     OW46679   3.164   6.441   9.619
15552SOL    HW146680   3.078   6.410   9.661
15552SOL    HW246681   3.160   6.427   9.520
15553SOL     OW46682   3.621   7.333  10.464
15553SOL    HW146683   3.682   7.363  10.391
15553SOL    HW246684   3.583   7.244  10.442
15554SOL     OW46685   3.114   7.317  10.438
15554SOL    HW146686   3.198   7.322  10.384
15554SOL    HW246687   3.091   7.221  10.456
15555SOL     OW46688   1.945   6.844  10.332
15555SOL    HW146689   1.940   6.843  10.432
15555SOL    HW246690   1.862   6.803  10.294
15556SOL     OW46691   2.550   7.248  11.026
15556SOL    HW146692   2.494   7.329  11.035
15556SOL    HW246693   2.602   7.252  10.940
15557SOL     OW46694   3.588   5.721   9.833
15557SOL    HW146695   3.661   5.704   9.766
15557SOL    HW246696   3.557   5.634   9.871
15558SOL     OW46697   3.250   7.159   9.787
15558SOL    HW146698   3.317   7.171   9.713
15558SOL    HW246699   3.210   7.248   9.810
15559SOL     OW46700   1.992   7.380  11.161
15559SOL    HW146701   1.951   7.306  11.214
15559SOL    HW246702   2.056   7.431  11.219
15560SOL     OW46703   3.142   6.513   9.982
15560SOL    HW146704   3.202   6.432   9.984
15560SOL    HW246705   3.182   6.582   9.922
15561SOL     OW46706   2.692   6.859  10.732
15561SOL    HW146707   2.687   6.892  10.827
15561SOL    HW246708   2.606   6.878  10.686
15562SOL     OW46709   2.534   7.202   9.464
15562SOL    HW146710   2.543   7.212   9.365
15562SOL    HW246711   2.494   7.113   9.485
15563SOL     OW46712   3.512   7.306  10.704
15563SOL    HW146713   3.565   7.316  10.620
15563SOL    HW246714   3.485   7.396  10.738
15564SOL     OW46715   3.703   5.761  10.273
15564SOL    HW146716   3.742   5.676  10.237
15564SOL    HW246717   3.605   5.763  10.254
15565SOL     OW46718   2.125   5.912  10.030
15565SOL    HW146719   2.046   5.963   9.996
15565SOL    HW246720   2.116   5.897  10.128
15566SOL     OW46721   3.056   7.198   9.341
15566SOL    HW146722   3.062   7.105   9.378
15566SOL    HW246723   2.997   7.198   9.261
15567SOL     OW46724   2.684   6.588  10.682
15567SOL    HW146725   2.724   6.587  10.590
15567SOL    HW246726   2.694   6.680  10.722
15568SOL     OW46727   2.778   6.496   9.601
15568SOL    HW146728   2.841   6.534   9.533
15568SOL    HW246729   2.818   6.413   9.640
15569SOL     OW46730   3.366   7.193   9.354
15569SOL    HW146731   3.274   7.230   9.361
15569SOL    HW246732   3.404   7.213   9.264
15570SOL     OW46733   2.234   6.874  10.800
15570SOL    HW146734   2.221   6.967  10.766
15570SOL    HW246735   2.150   6.822  10.787
15571SOL     OW46736   3.476   6.878  10.599
15571SOL    HW146737   3.536   6.881  10.679
15571SOL    HW246738   3.401   6.942  10.612
15572SOL     OW46739   2.901   6.684  10.006
15572SOL    HW146740   2.831   6.637  10.060
15572SOL    HW246741   2.960   6.616   9.963
15573SOL     OW46742   2.876   5.822  10.281
15573SOL    HW146743   2.868   5.786  10.188
15573SOL    HW246744   2.874   5.746  10.346
15574SOL     OW46745   2.452   7.073   9.801
15574SOL    HW146746   2.494   7.015   9.731
15574SOL    HW246747   2.408   7.152   9.757
15575SOL     OW46748   3.571   5.971  10.691
15575SOL    HW146749   3.644   6.040  10.695
15575SOL    HW246750   3.599   5.896  10.632
15576SOL     OW46751   2.117   6.934   9.600
15576SOL    HW146752   2.021   6.935   9.573
15576SOL    HW246753   2.129   6.987   9.684
15577SOL     OW46754   1.967   6.599  11.036
15577SOL    HW146755   1.890   6.566  11.090
15577SOL    HW246756   2.052   6.569  11.078
15578SOL     OW46757   2.534   5.789  10.799
15578SOL    HW146758   2.624   5.773  10.759
15578SOL    HW246759   2.542   5.794  10.898
15579SOL     OW46760   1.937   5.931   9.343
15579SOL    HW146761   1.845   5.903   9.314
15579SOL    HW246762   1.968   6.008   9.287
15580SOL     OW46763   3.302   6.442  10.708
15580SOL    HW146764   3.245   6.494  10.645
15580SOL    HW246765   3.398   6.454  10.684
15581SOL     OW46766   1.934   5.752   9.628
15581SOL    HW146767   1.917   5.835   9.574
15581SOL    HW246768   2.024   5.715   9.606
15582SOL     OW46769   3.045   6.921   9.429
15582SOL    HW146770   2.946   6.910   9.431
15582SOL    HW246771   3.079   6.936   9.522
15583SOL     OW46772   2.475   6.428  10.741
15583SOL    HW146773   2.531   6.509  10.724
15583SOL    HW246774   2.534   6.348  10.744
15584SOL     OW46775   3.355   7.353  10.269
15584SOL    HW146776   3.388   7.417  10.200
15584SOL    HW246777   3.421   7.347  10.344
15585SOL     OW46778   2.578   6.151  11.018
15585SOL    HW146779   2.597   6.216  11.092
15585SOL    HW246780   2.638   6.071  11.027
15586SOL     OW46781   3.312   6.806  10.943
15586SOL    HW146782   3.303   6.796  11.042
15586SOL    HW246783   3.408   6.799  10.917
15587SOL     OW46784   2.252   7.327  10.870
15587SOL    HW146785   2.161   7.368  10.868
15587SOL    HW246786   2.245   7.233  10.902
15588SOL     OW46787   3.536   6.469  10.564
15588SOL    HW146788   3.509   6.380  10.527
15588SOL    HW246789   3.537   6.537  10.491
15589SOL     OW46790   3.087   5.911   9.759
15589SOL    HW146791   3.152   5.837   9.748
15589SOL    HW246792   3.107   5.961   9.843
15590SOL     OW46793   2.456   6.331   9.962
15590SOL    HW146794   2.506   6.416   9.943
15590SOL    HW246795   2.368   6.333   9.914
15591SOL     OW46796   3.639   5.928  10.952
15591SOL    HW146797   3.622   5.959  10.858
15591SOL    HW246798   3.555   5.891  10.990
15592SOL     OW46799   3.592   6.520  10.827
15592SOL    HW146800   3.630   6.611  10.842
15592SOL    HW246801   3.584   6.503  10.728
15593SOL     OW46802   2.721   6.960   9.326
15593SOL    HW146803   2.675   6.975   9.414
15593SOL    HW246804   2.765   7.045   9.296
15594SOL     OW46805   2.523   7.376  10.263
15594SOL    HW146806   2.477   7.464  10.250
15594SOL    HW246807   2.622   7.388  10.256
15595SOL     OW46808   2.721   6.542  10.171
15595SOL    HW146809   2.775   6.473  10.219
15595SOL    HW246810   2.689   6.611  10.237
15596SOL     OW46811   2.945   6.570   9.397
15596SOL    HW146812   2.922   6.623   9.315
15596SOL    HW246813   3.026   6.514   9.378
15597SOL     OW46814   3.723   7.155  10.161
15597SOL    HW146815   3.652   7.143  10.091
15597SOL    HW246816   3.724   7.076  10.221
15598SOL     OW46817   2.083   6.900  11.154
15598SOL    HW146818   2.018   6.827  11.133
15598SOL    HW246819   2.087   6.914  11.252
15599SOL     OW46820   1.941   6.826   9.963
15599SOL    HW146821   1.940   6.779  10.051
15599SOL    HW246822   2.023   6.798   9.912
15600SOL     OW46823   2.534   6.977  10.934
15600SOL    HW146824   2.456   6.927  10.972
15600SOL    HW246825   2.531   7.072  10.965
15601SOL     OW46826   3.686   5.778  10.537
15601SOL    HW146827   3.682   5.688  10.581
15601SOL    HW246828   3.689   5.767  10.438
15602SOL     OW46829   2.290   6.010   9.830
15602SOL    HW146830   2.320   5.938   9.768
15602SOL    HW246831   2.251   5.970   9.913
15603SOL     OW46832   3.567   7.073  10.414
15603SOL    HW146833   3.474   7.048  10.387
15603SOL    HW246834   3.593   7.023  10.496
15604SOL     OW46835   2.179   6.133  10.590
15604SOL    HW146836   2.217   6.074  10.662
15604SOL    HW246837   2.219   6.107  10.502
15605SOL     OW46838   2.674   7.172   9.997
15605SOL    HW146839   2.706   7.182   9.903
15605SOL    HW246840   2.595   7.110   9.999
15606SOL     OW46841   3.286   5.800  10.422
15606SOL    HW146842   3.338   5.735  10.477
15606SOL    HW246843   3.237   5.863  10.483
15607SOL     OW46844   2.863   5.620  10.464
15607SOL    HW146845   2.800   5.548  10.433
15607SOL    HW246846   2.956   5.584  10.464
15608SOL     OW46847   2.632   6.916   9.611
15608SOL    HW146848   2.586   6.829   9.628
15608SOL    HW246849   2.723   6.913   9.652
15609SOL     OW46850   2.480   7.153  10.594
15609SOL    HW146851   2.475   7.235  10.651
15609SOL    HW246852   2.569   7.150  10.549
15610SOL     OW46853   3.214   5.638   9.478
15610SOL    HW146854   3.249   5.597   9.394
15610SOL    HW246855   3.124   5.600   9.498
15611SOL     OW46856   3.162   6.039  10.001
15611SOL    HW146857   3.103   6.119  10.005
15611SOL    HW246858   3.177   6.004  10.094
15612SOL     OW46859   3.455   5.807  10.192
15612SOL    HW146860   3.371   5.806  10.246
15612SOL    HW246861   3.457   5.890  10.136
15613SOL     OW46862   1.901   6.663   9.610
15613SOL    HW146863   2.000   6.652   9.601
15613SOL    HW246864   1.861   6.577   9.642
15614SOL     OW46865   2.737   7.232   9.647
15614SOL    HW146866   2.660   7.197   9.593
15614SOL    HW246867   2.705   7.303   9.709
15615SOL     OW46868   2.092   6.214  11.285
15615SOL    HW146869   1.999   6.212  11.322
15615SOL    HW246870   2.093   6.175  11.193
15616SOL     OW46871   2.087   5.861  12.168
15616SOL    HW146872   2.122   5.844  12.260
15616SOL    HW246873   1.999   5.816  12.156
15617SOL     OW46874   1.881   5.954  11.819
15617SOL    HW146875   1.799   5.997  11.858
15617SOL    HW246876   1.853   5.881  11.756
15618SOL     OW46877   2.431   6.861  12.337
15618SOL    HW146878   2.338   6.854  12.300
15618SOL    HW246879   2.442   6.950  12.381
15619SOL     OW46880   3.417   7.097  11.875
15619SOL    HW146881   3.360   7.081  11.956
15619SOL    HW246882   3.358   7.107  11.795
15620SOL     OW46883   2.997   6.289  11.889
15620SOL    HW146884   3.054   6.367  11.864
15620SOL    HW246885   2.937   6.315  11.965
15621SOL     OW46886   3.617   6.193  11.403
15621SOL    HW146887   3.605   6.180  11.304
15621SOL    HW246888   3.587   6.112  11.452
15622SOL     OW46889   2.547   6.598  11.837
15622SOL    HW146890   2.616   6.582  11.907
15622SOL    HW246891   2.474   6.655  11.875
15623SOL     OW46892   2.197   7.021  12.233
15623SOL    HW146893   2.119   6.990  12.180
15623SOL    HW246894   2.255   7.079  12.176
15624SOL     OW46895   3.322   7.091  12.511
15624SOL    HW146896   3.346   7.185  12.537
15624SOL    HW246897   3.306   7.037  12.593
15625SOL     OW46898   2.300   5.978  12.671
15625SOL    HW146899   2.382   5.922  12.680
15625SOL    HW246900   2.219   5.920  12.675
15626SOL     OW46901   3.465   6.033  11.909
15626SOL    HW146902   3.391   6.079  11.859
15626SOL    HW246903   3.516   6.101  11.962
15627SOL     OW46904   2.093   7.299  11.655
15627SOL    HW146905   2.127   7.376  11.709
15627SOL    HW246906   2.137   7.299  11.565
15628SOL     OW46907   2.092   7.020  11.710
15628SOL    HW146908   2.066   7.116  11.710
15628SOL    HW246909   2.021   6.966  11.755
15629SOL     OW46910   2.102   6.677  12.058
15629SOL    HW146911   2.116   6.593  12.110
15629SOL    HW246912   2.047   6.741  12.113
15630SOL     OW46913   2.482   7.372  12.611
15630SOL    HW146914   2.390   7.355  12.646
15630SOL    HW246915   2.510   7.464  12.637
15631SOL     OW46916   2.468   6.550  11.295
15631SOL    HW146917   2.475   6.634  11.241
15631SOL    HW246918   2.514   6.563  11.383
15632SOL     OW46919   3.456   5.700  12.652
15632SOL    HW146920   3.438   5.767  12.580
15632SOL    HW246921   3.453   5.746  12.741
15633SOL     OW46922   1.984   6.229  11.735
15633SOL    HW146923   1.939   6.141  11.752
15633SOL    HW246924   1.983   6.283  11.819
15634SOL     OW46925   3.704   7.353  11.531
15634SOL    HW146926   3.758   7.324  11.611
15634SOL    HW246927   3.734   7.443  11.502
15635SOL     OW46928   1.889   7.182  11.289
15635SOL    HW146929   1.870   7.086  11.310
15635SOL    HW246930   1.856   7.240  11.364
15636SOL     OW46931   3.551   6.508  11.784
15636SOL    HW146932   3.646   6.479  11.792
15636SOL    HW246933   3.543   6.573  11.709
15637SOL     OW46934   3.503   6.694  11.604
15637SOL    HW146935   3.589   6.696  11.552
15637SOL    HW246936   3.517   6.741  11.692
15638SOL     OW46937   1.975   6.323  12.769
15638SOL    HW146938   2.063   6.310  12.814
15638SOL    HW246939   1.962   6.420  12.747
15639SOL     OW46940   2.475   6.951  11.898
15639SOL    HW146941   2.426   6.864  11.907
15639SOL    HW246942   2.452   6.994  11.811
15640SOL     OW46943   3.155   6.814  12.595
15640SOL    HW146944   3.192   6.741  12.537
15640SOL    HW246945   3.207   6.819  12.680
15641SOL     OW46946   2.671   5.590  11.674
15641SOL    HW146947   2.711   5.681  11.665
15641SOL    HW246948   2.571   5.598  11.680
15642SOL     OW46949   2.059   6.562  12.436
15642SOL    HW146950   2.148   6.517  12.422
15642SOL    HW246951   1.986   6.497  12.417
15643SOL     OW46952   3.387   6.585  11.362
15643SOL    HW146953   3.324   6.509  11.375
15643SOL    HW246954   3.435   6.603  11.448
15644SOL     OW46955   3.328   7.003  12.125
15644SOL    HW146956   3.269   7.009  12.205
15644SOL    HW246957   3.313   6.915  12.079
15645SOL     OW46958   3.529   7.300  11.744
15645SOL    HW146959   3.488   7.277  11.656
15645SOL    HW246960   3.511   7.226  11.809
15646SOL     OW46961   2.460   6.315  11.442
15646SOL    HW146962   2.484   6.384  11.374
15646SOL    HW246963   2.382   6.348  11.496
15647SOL     OW46964   3.143   5.931  12.116
15647SOL    HW146965   3.057   5.881  12.103
15647SOL    HW246966   3.205   5.877  12.172
15648SOL     OW46967   3.438   7.248  11.479
15648SOL    HW146968   3.527   7.294  11.482
15648SOL    HW246969   3.417   7.224  11.384
15649SOL     OW46970   2.669   6.191  12.637
15649SOL    HW146971   2.622   6.188  12.726
15649SOL    HW246972   2.618   6.136  12.571
15650SOL     OW46973   2.835   6.476  12.744
15650SOL    HW146974   2.881   6.392  12.715
15650SOL    HW246975   2.779   6.510  12.669
15651SOL     OW46976   2.853   5.996  12.414
15651SOL    HW146977   2.776   6.030  12.468
15651SOL    HW246978   2.819   5.945  12.335
15652SOL     OW46979   2.903   6.287  11.601
15652SOL    HW146980   2.929   6.283  11.697
15652SOL    HW246981   2.818   6.236  11.587
15653SOL     OW46982   1.938   6.397  11.961
15653SOL    HW146983   2.037   6.385  11.970
15653SOL    HW246984   1.914   6.492  11.982
15654SOL     OW46985   1.992   7.407  12.743
15654SOL    HW146986   1.982   7.392  12.842
15654SOL    HW246987   1.906   7.443  12.707
15655SOL     OW46988   2.727   5.934  11.367
15655SOL    HW146989   2.786   5.997  11.318
15655SOL    HW246990   2.746   5.840  11.338
15656SOL     OW46991   3.224   6.730  11.717
15656SOL    HW146992   3.307   6.701  11.669
15656SOL    HW246993   3.175   6.797  11.661
15657SOL     OW46994   2.412   5.782  12.057
15657SOL    HW146995   2.407   5.777  12.157
15657SOL    HW246996   2.414   5.878  12.028
15658SOL     OW46997   2.870   7.042  11.649
15658SOL    HW146998   2.824   7.114  11.597
15658SOL    HW246999   2.866   7.062  11.747
15659SOL     OW47000   2.213   7.387  12.025
15659SOL    HW147001   2.263   7.301  12.031
15659SOL    HW247002   2.278   7.464  12.022
15660SOL     OW47003   3.657   6.652  12.045
15660SOL    HW147004   3.595   6.637  11.969
15660SOL    HW247005   3.605   6.663  12.130
15661SOL     OW47006   3.089   7.136  12.678
15661SOL    HW147007   3.095   7.059  12.742
15661SOL    HW247008   3.037   7.110  12.598
15662SOL     OW47009   2.183   6.529  11.414
15662SOL    HW147010   2.265   6.568  11.372
15662SOL    HW247011   2.156   6.447  11.365
15663SOL     OW47012   3.320   6.321  11.900
15663SOL    HW147013   3.315   6.256  11.975
15663SOL    HW247014   3.400   6.380  11.913
15664SOL     OW47015   2.973   7.362  11.409
15664SOL    HW147016   2.913   7.300  11.459
15664SOL    HW247017   3.004   7.318  11.324
15665SOL     OW47018   2.064   5.871  12.670
15665SOL    HW147019   1.984   5.931  12.657
15665SOL    HW247020   2.054   5.822  12.756
15666SOL     OW47021   3.494   6.963  11.253
15666SOL    HW147022   3.462   7.057  11.243
15666SOL    HW247023   3.418   6.900  11.241
15667SOL     OW47024   2.326   7.329  11.495
15667SOL    HW147025   2.359   7.368  11.581
15667SOL    HW247026   2.402   7.322  11.430
15668SOL     OW47027   3.262   5.693  11.598
15668SOL    HW147028   3.238   5.656  11.508
15668SOL    HW247029   3.361   5.709  11.602
15669SOL     OW47030   2.111   7.371  12.413
15669SOL    HW147031   2.168   7.306  12.463
15669SOL    HW247032   2.095   7.338  12.320
15670SOL     OW47033   2.802   7.284  12.076
15670SOL    HW147034   2.882   7.227  12.097
15670SOL    HW247035   2.753   7.244  11.999
15671SOL     OW47036   2.244   6.286  11.652
15671SOL    HW147037   2.289   6.196  11.649
15671SOL    HW247038   2.150   6.275  11.685
15672SOL     OW47039   2.476   5.708  11.289
15672SOL    HW147040   2.574   5.686  11.296
15672SOL    HW247041   2.445   5.691  11.196
15673SOL     OW47042   2.750   7.100  12.367
15673SOL    HW147043   2.727   7.075  12.273
15673SOL    HW247044   2.811   7.031  12.406
15674SOL     OW47045   3.213   6.176  12.605
15674SOL    HW147046   3.241   6.133  12.690
15674SOL    HW247047   3.238   6.272  12.606
15675SOL     OW47048   2.665   6.988  12.096
15675SOL    HW147049   2.755   7.002  12.054
15675SOL    HW247050   2.594   6.990  12.025
15676SOL     OW47051   2.784   6.089  12.071
15676SOL    HW147052   2.759   6.080  11.975
15676SOL    HW247053   2.832   6.007  12.102
15677SOL     OW47054   2.401   5.650  11.684
15677SOL    HW147055   2.320   5.651  11.742
15677SOL    HW247056   2.404   5.733  11.629
15678SOL     OW47057   3.296   6.774  11.213
15678SOL    HW147058   3.328   6.698  11.270
15678SOL    HW247059   3.204   6.801  11.243
15679SOL     OW47060   2.159   5.621  11.343
15679SOL    HW147061   2.208   5.705  11.322
15679SOL    HW247062   2.221   5.556  11.388
15680SOL     OW47063   2.797   5.822  11.652
15680SOL    HW147064   2.749   5.863  11.574
15680SOL    HW247065   2.896   5.820  11.633
15681SOL     OW47066   2.938   6.269  12.636
15681SOL    HW147067   2.858   6.208  12.639
15681SOL    HW247068   3.019   6.216  12.612
15682SOL     OW47069   3.089   7.156  11.965
15682SOL    HW147070   3.110   7.230  11.900
15682SOL    HW247071   3.157   7.156  12.038
15683SOL     OW47072   2.321   6.738  11.913
15683SOL    HW147073   2.250   6.711  11.978
15683SOL    HW247074   2.295   6.710  11.820
15684SOL     OW47075   3.133   7.383  11.763
15684SOL    HW147076   3.177   7.447  11.699
15684SOL    HW247077   3.083   7.435  11.833
15685SOL     OW47078   2.894   6.135  11.188
15685SOL    HW147079   2.853   6.217  11.149
15685SOL    HW247080   2.958   6.161  11.261
15686SOL     OW47081   1.940   6.142  12.558
15686SOL    HW147082   2.032   6.141  12.517
15686SOL    HW247083   1.934   6.216  12.625
15687SOL     OW47084   2.423   5.808  12.319
15687SOL    HW147085   2.461   5.724  12.356
15687SOL    HW247086   2.335   5.827  12.363
15688SOL     OW47087   2.728   6.040  11.814
15688SOL    HW147088   2.696   6.112  11.752
15688SOL    HW247089   2.752   5.959  11.761
15689SOL     OW47090   2.879   5.625  11.925
15689SOL    HW147091   2.807   5.630  11.856
15689SOL    HW247092   2.855   5.556  11.994
15690SOL     OW47093   3.291   6.759  12.039
15690SOL    HW147094   3.236   6.675  12.032
15690SOL    HW247095   3.317   6.788  11.947
15691SOL     OW47096   3.328   6.176  12.164
15691SOL    HW147097   3.298   6.081  12.171
15691SOL    HW247098   3.401   6.192  12.230
15692SOL     OW47099   3.719   6.419  11.549
15692SOL    HW147100   3.761   6.355  11.613
15692SOL    HW247101   3.681   6.368  11.471
15693SOL     OW47102   2.350   6.971  11.346
15693SOL    HW147103   2.263   6.956  11.393
15693SOL    HW247104   2.333   6.997  11.251
15694SOL     OW47105   3.526   6.866  11.829
15694SOL    HW147106   3.625   6.874  11.843
15694SOL    HW247107   3.481   6.950  11.860
15695SOL     OW47108   3.252   6.161  11.250
15695SOL    HW147109   3.198   6.140  11.331
15695SOL    HW247110   3.343   6.120  11.259
15696SOL     OW47111   2.389   5.842  11.500
15696SOL    HW147112   2.416   5.783  11.425
15696SOL    HW247113   2.389   5.937  11.469
15697SOL     OW47114   3.616   6.809  12.760
15697SOL    HW147115   3.707   6.770  12.747
15697SOL    HW247116   3.624   6.905  12.784
15698SOL     OW47117   2.926   6.933  12.512
15698SOL    HW147118   2.846   6.910  12.567
15698SOL    HW247119   3.009   6.907  12.561
15699SOL     OW47120   2.973   6.781  12.272
15699SOL    HW147121   2.933   6.825  12.353
15699SOL    HW247122   2.932   6.818  12.189
15700SOL     OW47123   3.500   6.685  12.251
15700SOL    HW147124   3.505   6.766  12.310
15700SOL    HW247125   3.414   6.687  12.200
15701SOL     OW47126   2.777   5.675  12.574
15701SOL    HW147127   2.802   5.655  12.479
15701SOL    HW247128   2.849   5.731  12.616
15702SOL     OW47129   2.567   6.636  11.540
15702SOL    HW147130   2.553   6.643  11.639
15702SOL    HW247131   2.651   6.585  11.522
15703SOL     OW47132   2.272   6.399  12.423
15703SOL    HW147133   2.358   6.411  12.473
15703SOL    HW247134   2.230   6.312  12.450
15704SOL     OW47135   3.136   5.972  12.434
15704SOL    HW147136   3.157   6.046  12.498
15704SOL    HW247137   3.047   5.989  12.391
15705SOL     OW47138   1.926   7.150  12.503
15705SOL    HW147139   1.880   7.232  12.469
15705SOL    HW247140   2.024   7.169  12.512
15706SOL     OW47141   2.229   6.686  11.673
15706SOL    HW147142   2.222   6.769  11.617
15706SOL    HW247143   2.233   6.606  11.613
15707SOL     OW47144   2.428   6.123  12.037
15707SOL    HW147145   2.440   6.189  11.963
15707SOL    HW247146   2.474   6.157  12.120
15708SOL     OW47147   3.114   6.934  11.560
15708SOL    HW147148   3.164   7.011  11.600
15708SOL    HW247149   3.019   6.936  11.592
15709SOL     OW47150   3.134   7.031  12.314
15709SOL    HW147151   3.181   7.044  12.401
15709SOL    HW247152   3.068   6.957  12.323
15710SOL     OW47153   3.444   6.225  11.644
15710SOL    HW147154   3.413   6.286  11.717
15710SOL    HW247155   3.494   6.277  11.575
15711SOL     OW47156   2.216   7.096  12.501
15711SOL    HW147157   2.195   7.052  12.414
15711SOL    HW247158   2.313   7.122  12.504
15712SOL     OW47159   2.264   6.337  12.770
15712SOL    HW147160   2.332   6.392  12.723
15712SOL    HW247161   2.304   6.249  12.797
15713SOL     OW47162   3.449   6.365  12.842
15713SOL    HW147163   3.357   6.403  12.837
15713SOL    HW247164   3.509   6.412  12.777
15714SOL     OW47165   2.435   6.456  12.201
15714SOL    HW147166   2.479   6.545  12.192
15714SOL    HW247167   2.372   6.456  12.278
15715SOL     OW47168   3.222   6.448  12.217
15715SOL    HW147169   3.147   6.448  12.151
15715SOL    HW247170   3.259   6.356  12.226
15716SOL     OW47171   3.071   6.111  11.447
15716SOL    HW147172   3.084   6.027  11.501
15716SOL    HW247173   3.042   6.185  11.507
15717SOL     OW47174   2.169   5.799  12.403
15717SOL    HW147175   2.146   5.836  12.493
15717SOL    HW247176   2.139   5.704  12.397
15718SOL     OW47177   1.899   6.896  12.454
15718SOL    HW147178   1.952   6.847  12.522
15718SOL    HW247179   1.921   6.994  12.459
15719SOL     OW47180   2.594   6.220  12.236
15719SOL    HW147181   2.653   6.194  12.160
15719SOL    HW247182   2.566   6.316  12.225
15720SOL     OW47183   2.169   5.649  11.790
15720SOL    HW147184   2.158   5.743  11.823
15720SOL    HW247185   2.164   5.586  11.867
15721SOL     OW47186   3.484   5.953  11.546
15721SOL    HW147187   3.486   5.877  11.610
15721SOL    HW247188   3.436   6.030  11.586
15722SOL     OW47189   2.885   6.352  12.138
15722SOL    HW147190   2.900   6.373  12.234
15722SOL    HW247191   2.855   6.257  12.129
15723SOL     OW47192   3.402   5.860  11.297
15723SOL    HW147193   3.341   5.785  11.320
15723SOL    HW247194   3.424   5.912  11.380
15724SOL     OW47195   3.165   6.424  11.214
15724SOL    HW147196   3.199   6.331  11.229
15724SOL    HW247197   3.183   6.451  11.119
15725SOL     OW47198   2.930   6.919  12.021
15725SOL    HW147199   2.937   6.835  11.966
15725SOL    HW247200   2.992   6.988  11.985
15726SOL     OW47201   2.181   6.396  12.121
15726SOL    HW147202   2.274   6.432  12.126
15726SOL    HW247203   2.175   6.311  12.173
15727SOL     OW47204   2.201   6.095  12.178
15727SOL    HW147205   2.149   6.012  12.161
15727SOL    HW247206   2.278   6.100  12.114
15728SOL     OW47207   3.022   5.793  12.649
15728SOL    HW147208   3.022   5.857  12.726
15728SOL    HW247209   3.050   5.841  12.566
15729SOL     OW47210   1.870   6.912  11.372
15729SOL    HW147211   1.777   6.933  11.341
15729SOL    HW247212   1.880   6.813  11.385
15730SOL     OW47213   1.950   7.387  12.099
15730SOL    HW147214   1.908   7.301  12.072
15730SOL    HW247215   2.044   7.390  12.065
15731SOL     OW47216   2.366   7.154  12.082
15731SOL    HW147217   2.432   7.228  12.091
15731SOL    HW247218   2.410   7.075  12.040
15732SOL     OW47219   2.864   6.382  12.410
15732SOL    HW147220   2.905   6.350  12.496
15732SOL    HW247221   2.768   6.355  12.407
15733SOL     OW47222   1.902   6.130  12.286
15733SOL    HW147223   1.987   6.097  12.245
15733SOL    HW247224   1.915   6.145  12.384
15734SOL     OW47225   2.677   6.158  11.497
15734SOL    HW147226   2.684   6.069  11.451
15734SOL    HW247227   2.583   6.192  11.489
15735SOL     OW47228   3.519   6.190  12.378
15735SOL    HW147229   3.481   6.121  12.440
15735SOL    HW247230   3.601   6.154  12.334
15736SOL     OW47231   2.114   7.150  12.916
15736SOL    HW147232   2.084   7.207  12.992
15736SOL    HW247233   2.107   7.053  12.942
15737SOL     OW47234   2.533   6.050  12.441
15737SOL    HW147235   2.499   5.961  12.411
15737SOL    HW247236   2.559   6.104  12.361
15738SOL     OW47237   2.792   7.264  12.637
15738SOL    HW147238   2.768   7.246  12.542
15738SOL    HW247239   2.822   7.358  12.647
15739SOL     OW47240   2.335   6.086  11.363
15739SOL    HW147241   2.396   6.166  11.367
15739SOL    HW247242   2.240   6.117  11.370
15740SOL     OW47243   2.021   6.723  12.638
15740SOL    HW147244   2.043   6.662  12.714
15740SOL    HW247245   2.031   6.674  12.552
15741SOL     OW47246   3.209   6.645  12.406
15741SOL    HW147247   3.233   6.582  12.332
15741SOL    HW247248   3.119   6.685  12.388
15742SOL     OW47249   3.164   6.441  11.481
15742SOL    HW147250   3.078   6.410  11.523
15742SOL    HW247251   3.160   6.427  11.382
15743SOL     OW47252   3.621   7.333  12.326
15743SOL    HW147253   3.682   7.363  12.253
15743SOL    HW247254   3.583   7.244  12.304
15744SOL     OW47255   3.114   7.317  12.300
15744SOL    HW147256   3.198   7.322  12.246
15744SOL    HW247257   3.091   7.221  12.318
15745SOL     OW47258   1.945   6.844  12.194
15745SOL    HW147259   1.940   6.843  12.294
15745SOL    HW247260   1.862   6.803  12.156
15746SOL     OW47261   3.588   5.721  11.695
15746SOL    HW147262   3.661   5.704  11.628
15746SOL    HW247263   3.557   5.634  11.733
15747SOL     OW47264   3.250   7.159  11.649
15747SOL    HW147265   3.317   7.171  11.575
15747SOL    HW247266   3.210   7.248  11.672
15748SOL     OW47267   3.142   6.513  11.844
15748SOL    HW147268   3.202   6.432  11.846
15748SOL    HW247269   3.182   6.582  11.784
15749SOL     OW47270   2.692   6.859  12.594
15749SOL    HW147271   2.687   6.892  12.689
15749SOL    HW247272   2.606   6.878  12.548
15750SOL     OW47273   2.534   7.202  11.326
15750SOL    HW147274   2.543   7.212  11.227
15750SOL    HW247275   2.494   7.113  11.347
15751SOL     OW47276   3.512   7.306  12.566
15751SOL    HW147277   3.565   7.316  12.482
15751SOL    HW247278   3.485   7.396  12.600
15752SOL     OW47279   3.703   5.761  12.135
15752SOL    HW147280   3.742   5.676  12.099
15752SOL    HW247281   3.605   5.763  12.116
15753SOL     OW47282   2.125   5.912  11.892
15753SOL    HW147283   2.046   5.963  11.858
15753SOL    HW247284   2.116   5.897  11.990
15754SOL     OW47285   3.056   7.198  11.203
15754SOL    HW147286   3.062   7.105  11.240
15754SOL    HW247287   2.997   7.198  11.123
15755SOL     OW47288   2.684   6.588  12.544
15755SOL    HW147289   2.724   6.587  12.452
15755SOL    HW247290   2.694   6.680  12.584
15756SOL     OW47291   2.778   6.496  11.463
15756SOL    HW147292   2.841   6.534  11.395
15756SOL    HW247293   2.818   6.413  11.502
15757SOL     OW47294   3.366   7.193  11.216
15757SOL    HW147295   3.274   7.230  11.223
15757SOL    HW247296   3.404   7.213  11.126
15758SOL     OW47297   2.234   6.874  12.662
15758SOL    HW147298   2.221   6.967  12.628
15758SOL    HW247299   2.150   6.822  12.649
15759SOL     OW47300   3.476   6.878  12.461
15759SOL    HW147301   3.536   6.881  12.541
15759SOL    HW247302   3.401   6.942  12.474
15760SOL     OW47303   2.901   6.684  11.868
15760SOL    HW147304   2.831   6.637  11.922
15760SOL    HW247305   2.960   6.616  11.825
15761SOL     OW47306   2.876   5.822  12.143
15761SOL    HW147307   2.868   5.786  12.050
15761SOL    HW247308   2.874   5.746  12.208
15762SOL     OW47309   2.452   7.073  11.663
15762SOL    HW147310   2.494   7.015  11.593
15762SOL    HW247311   2.408   7.152  11.619
15763SOL     OW47312   3.571   5.971  12.553
15763SOL    HW147313   3.644   6.040  12.557
15763SOL    HW247314   3.599   5.896  12.494
15764SOL     OW47315   2.117   6.934  11.462
15764SOL    HW147316   2.021   6.935  11.435
15764SOL    HW247317   2.129   6.987  11.546
15765SOL     OW47318   1.967   6.599  12.898
15765SOL    HW147319   1.890   6.566  12.952
15765SOL    HW247320   2.052   6.569  12.940
15766SOL     OW47321   2.534   5.789  12.661
15766SOL    HW147322   2.624   5.773  12.621
15766SOL    HW247323   2.542   5.794  12.760
15767SOL     OW47324   1.937   5.931  11.205
15767SOL    HW147325   1.845   5.903  11.176
15767SOL    HW247326   1.968   6.008  11.149
15768SOL     OW47327   3.302   6.442  12.570
15768SOL    HW147328   3.245   6.494  12.507
15768SOL    HW247329   3.398   6.454  12.546
15769SOL     OW47330   1.934   5.752  11.490
15769SOL    HW147331   1.917   5.835  11.436
15769SOL    HW247332   2.024   5.715  11.468
15770SOL     OW47333   3.045   6.921  11.291
15770SOL    HW147334   2.946   6.910  11.293
15770SOL    HW247335   3.079   6.936  11.384
15771SOL     OW47336   2.475   6.428  12.603
15771SOL    HW147337   2.531   6.509  12.586
15771SOL    HW247338   2.534   6.348  12.606
15772SOL     OW47339   3.355   7.353  12.131
15772SOL    HW147340   3.388   7.417  12.062
15772SOL    HW247341   3.421   7.347  12.206
15773SOL     OW47342   2.578   6.151  12.880
15773SOL    HW147343   2.597   6.216  12.954
15773SOL    HW247344   2.638   6.071  12.889
15774SOL     OW47345   2.252   7.327  12.732
15774SOL    HW147346   2.161   7.368  12.730
15774SOL    HW247347   2.245   7.233  12.764
15775SOL     OW47348   3.536   6.469  12.426
15775SOL    HW147349   3.509   6.380  12.389
15775SOL    HW247350   3.537   6.537  12.353
15776SOL     OW47351   3.087   5.911  11.621
15776SOL    HW147352   3.152   5.837  11.610
15776SOL    HW247353   3.107   5.961  11.705
15777SOL     OW47354   2.456   6.331  11.824
15777SOL    HW147355   2.506   6.416  11.805
15777SOL    HW247356   2.368   6.333  11.776
15778SOL     OW47357   3.639   5.928  12.814
15778SOL    HW147358   3.622   5.959  12.720
15778SOL    HW247359   3.555   5.891  12.852
15779SOL     OW47360   3.592   6.520  12.689
15779SOL    HW147361   3.630   6.611  12.704
15779SOL    HW247362   3.584   6.503  12.590
15780SOL     OW47363   2.721   6.960  11.188
15780SOL    HW147364   2.675   6.975  11.276
15780SOL    HW247365   2.765   7.045  11.158
15781SOL     OW47366   2.523   7.376  12.125
15781SOL    HW147367   2.477   7.464  12.112
15781SOL    HW247368   2.622   7.388  12.118
15782SOL     OW47369   2.721   6.542  12.033
15782SOL    HW147370   2.775   6.473  12.081
15782SOL    HW247371   2.689   6.611  12.099
15783SOL     OW47372   2.945   6.570  11.259
15783SOL    HW147373   2.922   6.623  11.177
15783SOL    HW247374   3.026   6.514  11.240
15784SOL     OW47375   3.723   7.155  12.023
15784SOL    HW147376   3.652   7.143  11.953
15784SOL    HW247377   3.724   7.076  12.083
15785SOL     OW47378   1.941   6.826  11.825
15785SOL    HW147379   1.940   6.779  11.913
15785SOL    HW247380   2.023   6.798  11.774
15786SOL     OW47381   2.534   6.977  12.796
15786SOL    HW147382   2.456   6.927  12.834
15786SOL    HW247383   2.531   7.072  12.827
15787SOL     OW47384   3.686   5.778  12.399
15787SOL    HW147385   3.682   5.688  12.443
15787SOL    HW247386   3.689   5.767  12.300
15788SOL     OW47387   2.290   6.010  11.692
15788SOL    HW147388   2.320   5.938  11.630
15788SOL    HW247389   2.251   5.970  11.775
15789SOL     OW47390   3.567   7.073  12.276
15789SOL    HW147391   3.474   7.048  12.249
15789SOL    HW247392   3.593   7.023  12.358
15790SOL     OW47393   2.179   6.133  12.452
15790SOL    HW147394   2.217   6.074  12.524
15790SOL    HW247395   2.219   6.107  12.364
15791SOL     OW47396   2.674   7.172  11.859
15791SOL    HW147397   2.706   7.182  11.765
15791SOL    HW247398   2.595   7.110  11.861
15792SOL     OW47399   3.286   5.800  12.284
15792SOL    HW147400   3.338   5.735  12.339
15792SOL    HW247401   3.237   5.863  12.345
15793SOL     OW47402   2.863   5.620  12.326
15793SOL    HW147403   2.800   5.548  12.295
15793SOL    HW247404   2.956   5.584  12.326
15794SOL     OW47405   2.632   6.916  11.473
15794SOL    HW147406   2.586   6.829  11.490
15794SOL    HW247407   2.723   6.913  11.514
15795SOL     OW47408   2.480   7.153  12.456
15795SOL    HW147409   2.475   7.235  12.513
15795SOL    HW247410   2.569   7.150  12.411
15796SOL     OW47411   3.214   5.638  11.340
15796SOL    HW147412   3.249   5.597  11.256
15796SOL    HW247413   3.124   5.600  11.360
15797SOL     OW47414   3.162   6.039  11.863
15797SOL    HW147415   3.103   6.119  11.867
15797SOL    HW247416   3.177   6.004  11.956
15798SOL     OW47417   3.455   5.807  12.054
15798SOL    HW147418   3.371   5.806  12.108
15798SOL    HW247419   3.457   5.890  11.998
15799SOL     OW47420   1.901   6.663  11.472
15799SOL    HW147421   2.000   6.652  11.463
15799SOL    HW247422   1.861   6.577  11.504
15800SOL     OW47423   2.737   7.232  11.509
15800SOL    HW147424   2.660   7.197  11.455
15800SOL    HW247425   2.705   7.303  11.571
15801SOL     OW47426   2.092   8.076   0.113
15801SOL    HW147427   1.999   8.074   0.150
15801SOL    HW247428   2.093   8.037   0.021
15802SOL     OW47429   2.087   7.723   0.996
15802SOL    HW147430   2.122   7.706   1.088
15802SOL    HW247431   1.999   7.678   0.984
15803SOL     OW47432   1.881   7.816   0.647
15803SOL    HW147433   1.799   7.859   0.686
15803SOL    HW247434   1.853   7.743   0.584
15804SOL     OW47435   2.431   8.723   1.165
15804SOL    HW147436   2.338   8.716   1.128
15804SOL    HW247437   2.442   8.812   1.209
15805SOL     OW47438   3.417   8.959   0.703
15805SOL    HW147439   3.360   8.943   0.784
15805SOL    HW247440   3.358   8.969   0.623
15806SOL     OW47441   2.997   8.151   0.717
15806SOL    HW147442   3.054   8.229   0.692
15806SOL    HW247443   2.937   8.177   0.793
15807SOL     OW47444   3.617   8.055   0.231
15807SOL    HW147445   3.605   8.042   0.132
15807SOL    HW247446   3.587   7.974   0.280
15808SOL     OW47447   2.630   8.592   1.023
15808SOL    HW147448   2.552   8.609   1.083
15808SOL    HW247449   2.664   8.679   0.987
15809SOL     OW47450   2.712   8.246   1.823
15809SOL    HW147451   2.708   8.322   1.888
15809SOL    HW247452   2.734   8.282   1.732
15810SOL     OW47453   2.547   8.460   0.665
15810SOL    HW147454   2.616   8.444   0.735
15810SOL    HW247455   2.474   8.517   0.703
15811SOL     OW47456   2.548   8.609   1.803
15811SOL    HW147457   2.608   8.688   1.817
15811SOL    HW247458   2.462   8.640   1.762
15812SOL     OW47459   2.197   8.883   1.061
15812SOL    HW147460   2.119   8.852   1.008
15812SOL    HW247461   2.255   8.941   1.004
15813SOL     OW47462   3.322   8.953   1.339
15813SOL    HW147463   3.346   9.047   1.365
15813SOL    HW247464   3.306   8.899   1.421
15814SOL     OW47465   2.300   7.840   1.499
15814SOL    HW147466   2.382   7.784   1.508
15814SOL    HW247467   2.219   7.782   1.503
15815SOL     OW47468   3.465   7.895   0.737
15815SOL    HW147469   3.391   7.941   0.687
15815SOL    HW247470   3.516   7.963   0.790
15816SOL     OW47471   2.093   9.161   0.483
15816SOL    HW147472   2.127   9.238   0.537
15816SOL    HW247473   2.137   9.161   0.393
15817SOL     OW47474   2.989   8.789   1.690
15817SOL    HW147475   3.036   8.789   1.778
15817SOL    HW247476   2.941   8.702   1.679
15818SOL     OW47477   2.092   8.882   0.538
15818SOL    HW147478   2.066   8.978   0.538
15818SOL    HW247479   2.021   8.828   0.583
15819SOL     OW47480   2.102   8.539   0.886
15819SOL    HW147481   2.116   8.455   0.938
15819SOL    HW247482   2.047   8.603   0.941
15820SOL     OW47483   2.482   9.234   1.439
15820SOL    HW147484   2.390   9.217   1.474
15820SOL    HW247485   2.510   9.326   1.465
15821SOL     OW47486   2.468   8.412   0.123
15821SOL    HW147487   2.475   8.496   0.069
15821SOL    HW247488   2.514   8.425   0.211
15822SOL     OW47489   3.456   7.562   1.480
15822SOL    HW147490   3.438   7.629   1.408
15822SOL    HW247491   3.453   7.608   1.569
15823SOL     OW47492   1.984   8.091   0.563
15823SOL    HW147493   1.939   8.003   0.580
15823SOL    HW247494   1.983   8.145   0.647
15824SOL     OW47495   3.704   9.215   0.359
15824SOL    HW147496   3.758   9.186   0.439
15824SOL    HW247497   3.734   9.305   0.330
15825SOL     OW47498   1.889   9.044   0.117
15825SOL    HW147499   1.870   8.948   0.138
15825SOL    HW247500   1.856   9.102   0.192
15826SOL     OW47501   3.551   8.370   0.612
15826SOL    HW147502   3.646   8.341   0.620
15826SOL    HW247503   3.543   8.435   0.537
15827SOL     OW47504   3.503   8.556   0.432
15827SOL    HW147505   3.589   8.558   0.380
15827SOL    HW247506   3.517   8.603   0.520
15828SOL     OW47507   2.475   8.813   0.726
15828SOL    HW147508   2.426   8.726   0.735
15828SOL    HW247509   2.452   8.856   0.639
15829SOL     OW47510   3.155   8.676   1.423
15829SOL    HW147511   3.192   8.603   1.365
15829SOL    HW247512   3.207   8.681   1.508
15830SOL     OW47513   2.671   7.452   0.502
15830SOL    HW147514   2.711   7.543   0.493
15830SOL    HW247515   2.571   7.460   0.508
15831SOL     OW47516   2.059   8.424   1.264
15831SOL    HW147517   2.148   8.379   1.250
15831SOL    HW247518   1.986   8.359   1.245
15832SOL     OW47519   3.387   8.447   0.190
15832SOL    HW147520   3.324   8.371   0.203
15832SOL    HW247521   3.435   8.465   0.276
15833SOL     OW47522   3.049   9.240   1.616
15833SOL    HW147523   3.073   9.300   1.540
15833SOL    HW247524   3.056   9.145   1.586
15834SOL     OW47525   2.179   7.699   1.801
15834SOL    HW147526   2.250   7.770   1.807
15834SOL    HW247527   2.091   7.738   1.829
15835SOL     OW47528   3.328   8.865   0.953
15835SOL    HW147529   3.269   8.871   1.033
15835SOL    HW247530   3.313   8.777   0.907
15836SOL     OW47531   3.529   9.162   0.572
15836SOL    HW147532   3.488   9.139   0.484
15836SOL    HW247533   3.511   9.088   0.637
15837SOL     OW47534   2.460   8.177   0.270
15837SOL    HW147535   2.484   8.246   0.202
15837SOL    HW247536   2.382   8.210   0.324
15838SOL     OW47537   3.143   7.793   0.944
15838SOL    HW147538   3.057   7.743   0.931
15838SOL    HW247539   3.205   7.739   1.000
15839SOL     OW47540   3.438   9.110   0.307
15839SOL    HW147541   3.527   9.156   0.310
15839SOL    HW247542   3.417   9.086   0.212
15840SOL     OW47543   2.669   8.053   1.465
15840SOL    HW147544   2.622   8.050   1.554
15840SOL    HW247545   2.618   7.998   1.399
15841SOL     OW47546   3.256   7.917   1.674
15841SOL    HW147547   3.236   7.960   1.762
15841SOL    HW247548   3.334   7.855   1.683
15842SOL     OW47549   2.835   8.338   1.572
15842SOL    HW147550   2.881   8.254   1.543
15842SOL    HW247551   2.779   8.372   1.497
15843SOL     OW47552   2.853   7.858   1.242
15843SOL    HW147553   2.776   7.892   1.296
15843SOL    HW247554   2.819   7.807   1.163
15844SOL     OW47555   2.903   8.149   0.429
15844SOL    HW147556   2.929   8.145   0.525
15844SOL    HW247557   2.818   8.098   0.415
15845SOL     OW47558   1.938   8.259   0.789
15845SOL    HW147559   2.037   8.247   0.798
15845SOL    HW247560   1.914   8.354   0.810
15846SOL     OW47561   1.992   9.269   1.571
15846SOL    HW147562   1.982   9.254   1.670
15846SOL    HW247563   1.906   9.305   1.535
15847SOL     OW47564   2.727   7.796   0.195
15847SOL    HW147565   2.786   7.859   0.146
15847SOL    HW247566   2.746   7.702   0.166
15848SOL     OW47567   3.581   8.033   1.831
15848SOL    HW147568   3.555   8.122   1.795
15848SOL    HW247569   3.579   7.965   1.758
15849SOL     OW47570   3.224   8.592   0.545
15849SOL    HW147571   3.307   8.563   0.497
15849SOL    HW247572   3.175   8.659   0.489
15850SOL     OW47573   2.412   7.644   0.885
15850SOL    HW147574   2.407   7.639   0.985
15850SOL    HW247575   2.414   7.740   0.856
15851SOL     OW47576   2.870   8.904   0.477
15851SOL    HW147577   2.824   8.976   0.425
15851SOL    HW247578   2.866   8.924   0.575
15852SOL     OW47579   2.213   9.249   0.853
15852SOL    HW147580   2.263   9.163   0.859
15852SOL    HW247581   2.278   9.326   0.850
15853SOL     OW47582   3.657   8.514   0.873
15853SOL    HW147583   3.595   8.499   0.797
15853SOL    HW247584   3.605   8.525   0.958
15854SOL     OW47585   3.089   8.998   1.506
15854SOL    HW147586   3.095   8.921   1.570
15854SOL    HW247587   3.037   8.972   1.426
15855SOL     OW47588   2.183   8.391   0.242
15855SOL    HW147589   2.265   8.430   0.200
15855SOL    HW247590   2.156   8.309   0.193
15856SOL     OW47591   3.320   8.183   0.728
15856SOL    HW147592   3.315   8.118   0.803
15856SOL    HW247593   3.400   8.242   0.741
15857SOL     OW47594   2.323   8.714   1.727
15857SOL    HW147595   2.273   8.715   1.641
15857SOL    HW247596   2.260   8.696   1.803
15858SOL     OW47597   2.973   9.224   0.237
15858SOL    HW147598   2.913   9.162   0.287
15858SOL    HW247599   3.004   9.180   0.152
15859SOL     OW47600   2.064   7.733   1.498
15859SOL    HW147601   1.984   7.793   1.485
15859SOL    HW247602   2.054   7.684   1.584
15860SOL     OW47603   3.494   8.825   0.081
15860SOL    HW147604   3.462   8.919   0.071
15860SOL    HW247605   3.418   8.762   0.069
15861SOL     OW47606   2.326   9.191   0.323
15861SOL    HW147607   2.359   9.230   0.409
15861SOL    HW247608   2.402   9.184   0.258
15862SOL     OW47609   3.262   7.555   0.426
15862SOL    HW147610   3.238   7.518   0.336
15862SOL    HW247611   3.361   7.571   0.430
15863SOL     OW47612   2.111   9.233   1.241
15863SOL    HW147613   2.168   9.168   1.291
15863SOL    HW247614   2.095   9.200   1.148
15864SOL     OW47615   2.802   9.146   0.904
15864SOL    HW147616   2.882   9.089   0.925
15864SOL    HW247617   2.753   9.106   0.827
15865SOL     OW47618   2.244   8.148   0.480
15865SOL    HW147619   2.289   8.058   0.477
15865SOL    HW247620   2.150   8.137   0.513
15866SOL     OW47621   3.409   7.670   1.729
15866SOL    HW147622   3.404   7.707   1.821
15866SOL    HW247623   3.337   7.601   1.717
15867SOL     OW47624   2.476   7.570   0.117
15867SOL    HW147625   2.574   7.548   0.124
15867SOL    HW247626   2.445   7.553   0.024
15868SOL     OW47627   2.643   7.712   1.749
15868SOL    HW147628   2.710   7.651   1.792
15868SOL    HW247629   2.570   7.731   1.814
15869SOL     OW47630   2.750   8.962   1.195
15869SOL    HW147631   2.727   8.937   1.101
15869SOL    HW247632   2.811   8.893   1.234
15870SOL     OW47633   3.213   8.038   1.433
15870SOL    HW147634   3.241   7.995   1.518
15870SOL    HW247635   3.238   8.134   1.434
15871SOL     OW47636   2.665   8.850   0.924
15871SOL    HW147637   2.755   8.864   0.882
15871SOL    HW247638   2.594   8.852   0.853
15872SOL     OW47639   2.784   7.951   0.899
15872SOL    HW147640   2.759   7.942   0.803
15872SOL    HW247641   2.832   7.869   0.930
15873SOL     OW47642   2.401   7.512   0.512
15873SOL    HW147643   2.320   7.513   0.570
15873SOL    HW247644   2.404   7.595   0.457
15874SOL     OW47645   3.296   8.636   0.041
15874SOL    HW147646   3.328   8.560   0.098
15874SOL    HW247647   3.204   8.663   0.071
15875SOL     OW47648   2.159   7.483   0.171
15875SOL    HW147649   2.208   7.567   0.150
15875SOL    HW247650   2.221   7.418   0.216
15876SOL     OW47651   2.797   7.684   0.480
15876SOL    HW147652   2.749   7.725   0.402
15876SOL    HW247653   2.896   7.682   0.461
15877SOL     OW47654   2.938   8.131   1.464
15877SOL    HW147655   2.858   8.070   1.467
15877SOL    HW247656   3.019   8.078   1.440
15878SOL     OW47657   3.089   9.018   0.793
15878SOL    HW147658   3.110   9.092   0.728
15878SOL    HW247659   3.157   9.018   0.866
15879SOL     OW47660   2.321   8.600   0.741
15879SOL    HW147661   2.250   8.573   0.806
15879SOL    HW247662   2.295   8.572   0.648
15880SOL     OW47663   3.133   9.245   0.591
15880SOL    HW147664   3.177   9.309   0.527
15880SOL    HW247665   3.083   9.297   0.661
15881SOL     OW47666   2.894   7.997   0.016
15881SOL    HW147667   2.853   8.079  -0.023
15881SOL    HW247668   2.958   8.023   0.089
15882SOL     OW47669   1.940   8.004   1.386
15882SOL    HW147670   2.032   8.003   1.345
15882SOL    HW247671   1.934   8.078   1.453
15883SOL     OW47672   2.423   7.670   1.147
15883SOL    HW147673   2.461   7.586   1.184
15883SOL    HW247674   2.335   7.689   1.191
15884SOL     OW47675   2.728   7.902   0.642
15884SOL    HW147676   2.696   7.974   0.580
15884SOL    HW247677   2.752   7.821   0.589
15885SOL     OW47678   2.879   7.487   0.753
15885SOL    HW147679   2.807   7.492   0.684
15885SOL    HW247680   2.855   7.418   0.822
15886SOL     OW47681   3.291   8.621   0.867
15886SOL    HW147682   3.236   8.537   0.860
15886SOL    HW247683   3.317   8.650   0.775
15887SOL     OW47684   3.328   8.038   0.992
15887SOL    HW147685   3.298   7.943   0.999
15887SOL    HW247686   3.401   8.054   1.058
15888SOL     OW47687   3.719   8.281   0.377
15888SOL    HW147688   3.761   8.217   0.441
15888SOL    HW247689   3.681   8.230   0.299
15889SOL     OW47690   2.350   8.833   0.174
15889SOL    HW147691   2.263   8.818   0.221
15889SOL    HW247692   2.333   8.859   0.079
15890SOL     OW47693   3.526   8.728   0.657
15890SOL    HW147694   3.625   8.736   0.671
15890SOL    HW247695   3.481   8.812   0.688
15891SOL     OW47696   3.252   8.023   0.078
15891SOL    HW147697   3.198   8.002   0.159
15891SOL    HW247698   3.343   7.982   0.087
15892SOL     OW47699   2.389   7.704   0.328
15892SOL    HW147700   2.416   7.645   0.253
15892SOL    HW247701   2.389   7.799   0.297
15893SOL     OW47702   3.616   8.671   1.588
15893SOL    HW147703   3.707   8.632   1.575
15893SOL    HW247704   3.624   8.767   1.612
15894SOL     OW47705   2.926   8.795   1.340
15894SOL    HW147706   2.846   8.772   1.395
15894SOL    HW247707   3.009   8.769   1.389
15895SOL     OW47708   3.454   9.077   1.625
15895SOL    HW147709   3.481   9.111   1.535
15895SOL    HW247710   3.533   9.039   1.671
15896SOL     OW47711   2.973   8.643   1.100
15896SOL    HW147712   2.933   8.687   1.181
15896SOL    HW247713   2.932   8.680   1.017
15897SOL     OW47714   3.500   8.547   1.079
15897SOL    HW147715   3.505   8.628   1.138
15897SOL    HW247716   3.414   8.549   1.028
15898SOL     OW47717   2.777   7.537   1.402
15898SOL    HW147718   2.802   7.517   1.307
15898SOL    HW247719   2.849   7.593   1.444
15899SOL     OW47720   2.842   8.564   1.719
15899SOL    HW147721   2.743   8.570   1.729
15899SOL    HW247722   2.865   8.484   1.663
15900SOL     OW47723   2.567   8.498   0.368
15900SOL    HW147724   2.553   8.505   0.467
15900SOL    HW247725   2.651   8.447   0.350
15901SOL     OW47726   2.272   8.261   1.251
15901SOL    HW147727   2.358   8.273   1.301
15901SOL    HW247728   2.230   8.174   1.278
15902SOL     OW47729   3.136   7.834   1.262
15902SOL    HW147730   3.157   7.908   1.326
15902SOL    HW247731   3.047   7.851   1.219
15903SOL     OW47732   1.926   9.012   1.331
15903SOL    HW147733   1.880   9.094   1.297
15903SOL    HW247734   2.024   9.031   1.340
15904SOL     OW47735   2.229   8.548   0.501
15904SOL    HW147736   2.222   8.631   0.445
15904SOL    HW247737   2.233   8.468   0.441
15905SOL     OW47738   2.428   7.985   0.865
15905SOL    HW147739   2.440   8.051   0.791
15905SOL    HW247740   2.474   8.019   0.948
15906SOL     OW47741   3.114   8.796   0.388
15906SOL    HW147742   3.164   8.873   0.428
15906SOL    HW247743   3.019   8.798   0.420
15907SOL     OW47744   3.134   8.893   1.142
15907SOL    HW147745   3.181   8.906   1.229
15907SOL    HW247746   3.068   8.819   1.151
15908SOL     OW47747   3.444   8.087   0.472
15908SOL    HW147748   3.413   8.148   0.545
15908SOL    HW247749   3.494   8.139   0.403
15909SOL     OW47750   2.216   8.958   1.329
15909SOL    HW147751   2.195   8.914   1.242
15909SOL    HW247752   2.313   8.984   1.332
15910SOL     OW47753   2.264   8.199   1.598
15910SOL    HW147754   2.332   8.254   1.551
15910SOL    HW247755   2.304   8.111   1.625
15911SOL     OW47756   3.449   8.227   1.670
15911SOL    HW147757   3.357   8.265   1.665
15911SOL    HW247758   3.509   8.274   1.605
15912SOL     OW47759   2.875   7.553   1.770
15912SOL    HW147760   2.881   7.638   1.718
15912SOL    HW247761   2.907   7.477   1.713
15913SOL     OW47762   2.366   7.498   1.740
15913SOL    HW147763   2.324   7.441   1.670
15913SOL    HW247764   2.300   7.567   1.772
15914SOL     OW47765   2.435   8.318   1.029
15914SOL    HW147766   2.479   8.407   1.020
15914SOL    HW247767   2.372   8.318   1.106
15915SOL     OW47768   3.222   8.310   1.045
15915SOL    HW147769   3.147   8.310   0.979
15915SOL    HW247770   3.259   8.218   1.054
15916SOL     OW47771   3.071   7.973   0.275
15916SOL    HW147772   3.084   7.889   0.329
15916SOL    HW247773   3.042   8.047   0.335
15917SOL     OW47774   2.169   7.661   1.231
15917SOL    HW147775   2.146   7.698   1.321
15917SOL    HW247776   2.139   7.566   1.225
15918SOL     OW47777   1.899   8.758   1.282
15918SOL    HW147778   1.952   8.709   1.350
15918SOL    HW247779   1.921   8.856   1.287
15919SOL     OW47780   2.594   8.082   1.064
15919SOL    HW147781   2.653   8.056   0.988
15919SOL    HW247782   2.566   8.178   1.053
15920SOL     OW47783   3.590   8.383   1.854
15920SOL    HW147784   3.544   8.376   1.765
15920SOL    HW247785   3.528   8.427   1.920
15921SOL     OW47786   2.169   7.511   0.618
15921SOL    HW147787   2.158   7.605   0.651
15921SOL    HW247788   2.164   7.448   0.695
15922SOL     OW47789   3.484   7.815   0.374
15922SOL    HW147790   3.486   7.739   0.438
15922SOL    HW247791   3.436   7.892   0.414
15923SOL     OW47792   2.885   8.214   0.966
15923SOL    HW147793   2.900   8.235   1.062
15923SOL    HW247794   2.855   8.119   0.957
15924SOL     OW47795   2.842   9.021   1.700
15924SOL    HW147796   2.822   9.065   1.612
15924SOL    HW247797   2.881   8.930   1.684
15925SOL     OW47798   3.721   8.966   1.605
15925SOL    HW147799   3.735   8.993   1.510
15925SOL    HW247800   3.804   8.988   1.658
15926SOL     OW47801   2.212   8.346   1.804
15926SOL    HW147802   2.288   8.390   1.852
15926SOL    HW247803   2.247   8.299   1.722
15927SOL     OW47804   3.402   7.722   0.125
15927SOL    HW147805   3.341   7.647   0.148
15927SOL    HW247806   3.424   7.774   0.208
15928SOL     OW47807   3.165   8.286   0.042
15928SOL    HW147808   3.199   8.193   0.057
15928SOL    HW247809   3.183   8.313  -0.053
15929SOL     OW47810   2.930   8.781   0.849
15929SOL    HW147811   2.937   8.697   0.794
15929SOL    HW247812   2.992   8.850   0.813
15930SOL     OW47813   2.181   8.258   0.949
15930SOL    HW147814   2.274   8.294   0.954
15930SOL    HW247815   2.175   8.173   1.001
15931SOL     OW47816   2.201   7.957   1.006
15931SOL    HW147817   2.149   7.874   0.989
15931SOL    HW247818   2.278   7.962   0.942
15932SOL     OW47819   3.000   7.828   1.678
15932SOL    HW147820   2.955   7.891   1.742
15932SOL    HW247821   3.093   7.859   1.661
15933SOL     OW47822   3.022   7.655   1.477
15933SOL    HW147823   3.022   7.719   1.554
15933SOL    HW247824   3.050   7.703   1.394
15934SOL     OW47825   1.870   8.774   0.200
15934SOL    HW147826   1.777   8.795   0.169
15934SOL    HW247827   1.880   8.675   0.213
15935SOL     OW47828   1.950   9.249   0.927
15935SOL    HW147829   1.908   9.163   0.900
15935SOL    HW247830   2.044   9.252   0.893
15936SOL     OW47831   2.366   9.016   0.910
15936SOL    HW147832   2.432   9.090   0.919
15936SOL    HW247833   2.410   8.937   0.868
15937SOL     OW47834   2.864   8.244   1.238
15937SOL    HW147835   2.905   8.212   1.324
15937SOL    HW247836   2.768   8.217   1.235
15938SOL     OW47837   1.902   7.992   1.114
15938SOL    HW147838   1.987   7.959   1.073
15938SOL    HW247839   1.915   8.007   1.212
15939SOL     OW47840   2.051   7.968   1.722
15939SOL    HW147841   2.110   7.928   1.652
15939SOL    HW247842   1.993   8.039   1.681
15940SOL     OW47843   3.231   8.398   1.660
15940SOL    HW147844   3.270   8.487   1.680
15940SOL    HW247845   3.241   8.378   1.563
15941SOL     OW47846   2.677   8.020   0.325
15941SOL    HW147847   2.684   7.931   0.279
15941SOL    HW247848   2.583   8.054   0.317
15942SOL     OW47849   3.519   8.052   1.206
15942SOL    HW147850   3.481   7.983   1.268
15942SOL    HW247851   3.601   8.016   1.162
15943SOL     OW47852   2.114   9.012   1.744
15943SOL    HW147853   2.084   9.069   1.820
15943SOL    HW247854   2.107   8.915   1.770
15944SOL     OW47855   2.533   7.912   1.269
15944SOL    HW147856   2.499   7.823   1.239
15944SOL    HW247857   2.559   7.966   1.189
15945SOL     OW47858   2.792   9.126   1.465
15945SOL    HW147859   2.768   9.108   1.370
15945SOL    HW247860   2.822   9.220   1.475
15946SOL     OW47861   2.335   7.948   0.191
15946SOL    HW147862   2.396   8.028   0.195
15946SOL    HW247863   2.240   7.979   0.198
15947SOL     OW47864   2.021   8.585   1.466
15947SOL    HW147865   2.043   8.524   1.542
15947SOL    HW247866   2.031   8.536   1.380
15948SOL     OW47867   3.209   8.507   1.234
15948SOL    HW147868   3.233   8.444   1.160
15948SOL    HW247869   3.119   8.547   1.216
15949SOL     OW47870   3.164   8.303   0.309
15949SOL    HW147871   3.078   8.272   0.351
15949SOL    HW247872   3.160   8.289   0.210
15950SOL     OW47873   3.621   9.195   1.154
15950SOL    HW147874   3.682   9.225   1.081
15950SOL    HW247875   3.583   9.106   1.132
15951SOL     OW47876   3.114   9.179   1.128
15951SOL    HW147877   3.198   9.184   1.074
15951SOL    HW247878   3.091   9.083   1.146
15952SOL     OW47879   1.945   8.706   1.022
15952SOL    HW147880   1.940   8.705   1.122
15952SOL    HW247881   1.862   8.665   0.984
15953SOL     OW47882   2.550   9.110   1.716
15953SOL    HW147883   2.494   9.191   1.725
15953SOL    HW247884   2.602   9.114   1.630
15954SOL     OW47885   2.765   7.534   0.133
15954SOL    HW147886   2.816   7.535   0.047
15954SOL    HW247887   2.821   7.492   0.204
15955SOL     OW47888   3.588   7.583   0.523
15955SOL    HW147889   3.661   7.566   0.456
15955SOL    HW247890   3.557   7.496   0.561
15956SOL     OW47891   3.250   9.021   0.477
15956SOL    HW147892   3.317   9.033   0.403
15956SOL    HW247893   3.210   9.110   0.500
15957SOL     OW47894   1.992   9.242   1.851
15957SOL    HW147895   1.951   9.168   1.904
15957SOL    HW247896   2.056   9.293   1.909
15958SOL     OW47897   3.142   8.375   0.672
15958SOL    HW147898   3.202   8.294   0.674
15958SOL    HW247899   3.182   8.444   0.612
15959SOL     OW47900   2.692   8.721   1.422
15959SOL    HW147901   2.687   8.754   1.517
15959SOL    HW247902   2.606   8.740   1.376
15960SOL     OW47903   2.534   9.064   0.154
15960SOL    HW147904   2.543   9.074   0.055
15960SOL    HW247905   2.494   8.975   0.175
15961SOL     OW47906   3.512   9.168   1.394
15961SOL    HW147907   3.565   9.178   1.310
15961SOL    HW247908   3.485   9.258   1.428
15962SOL     OW47909   3.703   7.623   0.963
15962SOL    HW147910   3.742   7.538   0.927
15962SOL    HW247911   3.605   7.625   0.944
15963SOL     OW47912   2.125   7.774   0.720
15963SOL    HW147913   2.046   7.825   0.686
15963SOL    HW247914   2.116   7.759   0.818
15964SOL     OW47915   3.056   9.060   0.031
15964SOL    HW147916   3.062   8.967   0.068
15964SOL    HW247917   2.997   9.060  -0.049
15965SOL     OW47918   2.684   8.450   1.372
15965SOL    HW147919   2.724   8.449   1.280
15965SOL    HW247920   2.694   8.542   1.412
15966SOL     OW47921   2.778   8.358   0.291
15966SOL    HW147922   2.841   8.396   0.223
15966SOL    HW247923   2.818   8.275   0.330
15967SOL     OW47924   3.366   9.055   0.044
15967SOL    HW147925   3.274   9.092   0.051
15967SOL    HW247926   3.404   9.075  -0.046
15968SOL     OW47927   2.234   8.736   1.490
15968SOL    HW147928   2.221   8.829   1.456
15968SOL    HW247929   2.150   8.684   1.477
15969SOL     OW47930   3.476   8.740   1.289
15969SOL    HW147931   3.536   8.743   1.369
15969SOL    HW247932   3.401   8.804   1.302
15970SOL     OW47933   2.901   8.546   0.696
15970SOL    HW147934   2.831   8.499   0.750
15970SOL    HW247935   2.960   8.478   0.653
15971SOL     OW47936   2.876   7.684   0.971
15971SOL    HW147937   2.868   7.648   0.878
15971SOL    HW247938   2.874   7.608   1.036
15972SOL     OW47939   2.452   8.935   0.491
15972SOL    HW147940   2.494   8.877   0.421
15972SOL    HW247941   2.408   9.014   0.447
15973SOL     OW47942   3.571   7.833   1.381
15973SOL    HW147943   3.644   7.902   1.385
15973SOL    HW247944   3.599   7.758   1.322
15974SOL     OW47945   2.117   8.796   0.290
15974SOL    HW147946   2.021   8.797   0.263
15974SOL    HW247947   2.129   8.849   0.374
15975SOL     OW47948   1.967   8.461   1.726
15975SOL    HW147949   1.890   8.428   1.780
15975SOL    HW247950   2.052   8.431   1.768
15976SOL     OW47951   2.534   7.651   1.489
15976SOL    HW147952   2.624   7.635   1.449
15976SOL    HW247953   2.542   7.656   1.588
15977SOL     OW47954   3.302   8.304   1.398
15977SOL    HW147955   3.245   8.356   1.335
15977SOL    HW247956   3.398   8.316   1.374
15978SOL     OW47957   1.934   7.614   0.318
15978SOL    HW147958   1.917   7.697   0.264
15978SOL    HW247959   2.024   7.577   0.296
15979SOL     OW47960   3.045   8.783   0.119
15979SOL    HW147961   2.946   8.772   0.121
15979SOL    HW247962   3.079   8.798   0.212
15980SOL     OW47963   2.475   8.290   1.431
15980SOL    HW147964   2.531   8.371   1.414
15980SOL    HW247965   2.534   8.210   1.434
15981SOL     OW47966   3.355   9.215   0.959
15981SOL    HW147967   3.388   9.279   0.890
15981SOL    HW247968   3.421   9.209   1.034
15982SOL     OW47969   2.578   8.013   1.708
15982SOL    HW147970   2.597   8.078   1.782
15982SOL    HW247971   2.638   7.933   1.717
15983SOL     OW47972   3.312   8.668   1.633
15983SOL    HW147973   3.303   8.658   1.732
15983SOL    HW247974   3.408   8.661   1.607
15984SOL     OW47975   2.252   9.189   1.560
15984SOL    HW147976   2.161   9.230   1.558
15984SOL    HW247977   2.245   9.095   1.592
15985SOL     OW47978   3.536   8.331   1.254
15985SOL    HW147979   3.509   8.242   1.217
15985SOL    HW247980   3.537   8.399   1.181
15986SOL     OW47981   3.087   7.773   0.449
15986SOL    HW147982   3.152   7.699   0.438
15986SOL    HW247983   3.107   7.823   0.533
15987SOL     OW47984   2.456   8.193   0.652
15987SOL    HW147985   2.506   8.278   0.633
15987SOL    HW247986   2.368   8.195   0.604
15988SOL     OW47987   3.639   7.790   1.642
15988SOL    HW147988   3.622   7.821   1.548
15988SOL    HW247989   3.555   7.753   1.680
15989SOL     OW47990   3.592   8.382   1.517
15989SOL    HW147991   3.630   8.473   1.532
15989SOL    HW247992   3.584   8.365   1.418
15990SOL     OW47993   2.721   8.822   0.016
15990SOL    HW147994   2.675   8.837   0.104
15990SOL    HW247995   2.765   8.907  -0.014
15991SOL     OW47996   2.523   9.238   0.953
15991SOL    HW147997   2.477   9.326   0.940
15991SOL    HW247998   2.622   9.250   0.946
15992SOL     OW47999   2.721   8.404   0.861
15992SOL    HW148000   2.775   8.335   0.909
15992SOL    HW248001   2.689   8.473   0.927
15993SOL     OW48002   2.945   8.432   0.087
15993SOL    HW148003   2.922   8.485   0.005
15993SOL    HW248004   3.026   8.376   0.068
15994SOL     OW48005   3.723   9.017   0.851
15994SOL    HW148006   3.652   9.005   0.781
15994SOL    HW248007   3.724   8.938   0.911
15995SOL     OW48008   2.083   8.762   1.844
15995SOL    HW148009   2.018   8.689   1.823
15995SOL    HW248010   2.087   8.776   1.942
15996SOL     OW48011   1.941   8.688   0.653
15996SOL    HW148012   1.940   8.641   0.741
15996SOL    HW248013   2.023   8.660   0.602
15997SOL     OW48014   2.534   8.839   1.624
15997SOL    HW148015   2.456   8.789   1.662
15997SOL    HW248016   2.531   8.934   1.655
15998SOL     OW48017   3.686   7.640   1.227
15998SOL    HW148018   3.682   7.550   1.271
15998SOL    HW248019   3.689   7.629   1.128
15999SOL     OW48020   2.290   7.872   0.520
15999SOL    HW148021   2.320   7.800   0.458
15999SOL    HW248022   2.251   7.832   0.603
16000SOL     OW48023   3.567   8.935   1.104
16000SOL    HW148024   3.474   8.910   1.077
16000SOL    HW248025   3.593   8.885   1.186
16001SOL     OW48026   2.179   7.995   1.280
16001SOL    HW148027   2.217   7.936   1.352
16001SOL    HW248028   2.219   7.969   1.192
16002SOL     OW48029   2.674   9.034   0.687
16002SOL    HW148030   2.706   9.044   0.593
16002SOL    HW248031   2.595   8.972   0.689
16003SOL     OW48032   3.286   7.662   1.112
16003SOL    HW148033   3.338   7.597   1.167
16003SOL    HW248034   3.237   7.725   1.173
16004SOL     OW48035   2.863   7.482   1.154
16004SOL    HW148036   2.800   7.410   1.123
16004SOL    HW248037   2.956   7.446   1.154
16005SOL     OW48038   2.632   8.778   0.301
16005SOL    HW148039   2.586   8.691   0.318
16005SOL    HW248040   2.723   8.775   0.342
16006SOL     OW48041   2.480   9.015   1.284
16006SOL    HW148042   2.475   9.097   1.341
16006SOL    HW248043   2.569   9.012   1.239
16007SOL     OW48044   3.214   7.500   0.168
16007SOL    HW148045   3.249   7.459   0.084
16007SOL    HW248046   3.124   7.462   0.188
16008SOL     OW48047   3.162   7.901   0.691
16008SOL    HW148048   3.103   7.981   0.695
16008SOL    HW248049   3.177   7.866   0.784
16009SOL     OW48050   3.455   7.669   0.882
16009SOL    HW148051   3.371   7.668   0.936
16009SOL    HW248052   3.457   7.752   0.826
16010SOL     OW48053   1.901   8.525   0.300
16010SOL    HW148054   2.000   8.514   0.291
16010SOL    HW248055   1.861   8.439   0.332
16011SOL     OW48056   2.737   9.094   0.337
16011SOL    HW148057   2.660   9.059   0.283
16011SOL    HW248058   2.705   9.165   0.399
16012SOL     OW48059   2.092   8.076   1.975
16012SOL    HW148060   1.999   8.074   2.012
16012SOL    HW248061   2.093   8.037   1.883
16013SOL     OW48062   2.087   7.723   2.858
16013SOL    HW148063   2.122   7.706   2.950
16013SOL    HW248064   1.999   7.678   2.846
16014SOL     OW48065   1.881   7.816   2.509
16014SOL    HW148066   1.799   7.859   2.548
16014SOL    HW248067   1.853   7.743   2.446
16015SOL     OW48068   2.431   8.723   3.027
16015SOL    HW148069   2.338   8.716   2.990
16015SOL    HW248070   2.442   8.812   3.071
16016SOL     OW48071   3.417   8.959   2.565
16016SOL    HW148072   3.360   8.943   2.646
16016SOL    HW248073   3.358   8.969   2.485
16017SOL     OW48074   2.997   8.151   2.579
16017SOL    HW148075   3.054   8.229   2.554
16017SOL    HW248076   2.937   8.177   2.655
16018SOL     OW48077   3.617   8.055   2.093
16018SOL    HW148078   3.605   8.042   1.994
16018SOL    HW248079   3.587   7.974   2.142
16019SOL     OW48080   2.630   8.592   2.885
16019SOL    HW148081   2.552   8.609   2.945
16019SOL    HW248082   2.664   8.679   2.849
16020SOL     OW48083   2.712   8.246   3.685
16020SOL    HW148084   2.708   8.322   3.750
16020SOL    HW248085   2.734   8.282   3.594
16021SOL     OW48086   2.547   8.460   2.527
16021SOL    HW148087   2.616   8.444   2.597
16021SOL    HW248088   2.474   8.517   2.565
16022SOL     OW48089   2.548   8.609   3.665
16022SOL    HW148090   2.608   8.688   3.679
16022SOL    HW248091   2.462   8.640   3.624
16023SOL     OW48092   2.197   8.883   2.923
16023SOL    HW148093   2.119   8.852   2.870
16023SOL    HW248094   2.255   8.941   2.866
16024SOL     OW48095   3.322   8.953   3.201
16024SOL    HW148096   3.346   9.047   3.227
16024SOL    HW248097   3.306   8.899   3.283
16025SOL     OW48098   2.300   7.840   3.361
16025SOL    HW148099   2.382   7.784   3.370
16025SOL    HW248100   2.219   7.782   3.365
16026SOL     OW48101   3.465   7.895   2.599
16026SOL    HW148102   3.391   7.941   2.549
16026SOL    HW248103   3.516   7.963   2.652
16027SOL     OW48104   2.093   9.161   2.345
16027SOL    HW148105   2.127   9.238   2.399
16027SOL    HW248106   2.137   9.161   2.255
16028SOL     OW48107   2.989   8.789   3.552
16028SOL    HW148108   3.036   8.789   3.640
16028SOL    HW248109   2.941   8.702   3.541
16029SOL     OW48110   2.092   8.882   2.400
16029SOL    HW148111   2.066   8.978   2.400
16029SOL    HW248112   2.021   8.828   2.445
16030SOL     OW48113   2.102   8.539   2.748
16030SOL    HW148114   2.116   8.455   2.800
16030SOL    HW248115   2.047   8.603   2.803
16031SOL     OW48116   2.482   9.234   3.301
16031SOL    HW148117   2.390   9.217   3.336
16031SOL    HW248118   2.510   9.326   3.327
16032SOL     OW48119   2.468   8.412   1.985
16032SOL    HW148120   2.475   8.496   1.931
16032SOL    HW248121   2.514   8.425   2.073
16033SOL     OW48122   3.456   7.562   3.342
16033SOL    HW148123   3.438   7.629   3.270
16033SOL    HW248124   3.453   7.608   3.431
16034SOL     OW48125   1.984   8.091   2.425
16034SOL    HW148126   1.939   8.003   2.442
16034SOL    HW248127   1.983   8.145   2.509
16035SOL     OW48128   3.704   9.215   2.221
16035SOL    HW148129   3.758   9.186   2.301
16035SOL    HW248130   3.734   9.305   2.192
16036SOL     OW48131   1.889   9.044   1.979
16036SOL    HW148132   1.870   8.948   2.000
16036SOL    HW248133   1.856   9.102   2.054
16037SOL     OW48134   3.551   8.370   2.474
16037SOL    HW148135   3.646   8.341   2.482
16037SOL    HW248136   3.543   8.435   2.399
16038SOL     OW48137   3.503   8.556   2.294
16038SOL    HW148138   3.589   8.558   2.242
16038SOL    HW248139   3.517   8.603   2.382
16039SOL     OW48140   1.975   8.185   3.459
16039SOL    HW148141   2.063   8.172   3.504
16039SOL    HW248142   1.962   8.282   3.437
16040SOL     OW48143   2.475   8.813   2.588
16040SOL    HW148144   2.426   8.726   2.597
16040SOL    HW248145   2.452   8.856   2.501
16041SOL     OW48146   3.155   8.676   3.285
16041SOL    HW148147   3.192   8.603   3.227
16041SOL    HW248148   3.207   8.681   3.370
16042SOL     OW48149   2.671   7.452   2.364
16042SOL    HW148150   2.711   7.543   2.355
16042SOL    HW248151   2.571   7.460   2.370
16043SOL     OW48152   2.059   8.424   3.126
16043SOL    HW148153   2.148   8.379   3.112
16043SOL    HW248154   1.986   8.359   3.107
16044SOL     OW48155   3.387   8.447   2.052
16044SOL    HW148156   3.324   8.371   2.065
16044SOL    HW248157   3.435   8.465   2.138
16045SOL     OW48158   3.049   9.240   3.478
16045SOL    HW148159   3.073   9.300   3.402
16045SOL    HW248160   3.056   9.145   3.448
16046SOL     OW48161   2.179   7.699   3.663
16046SOL    HW148162   2.250   7.770   3.669
16046SOL    HW248163   2.091   7.738   3.691
16047SOL     OW48164   3.328   8.865   2.815
16047SOL    HW148165   3.269   8.871   2.895
16047SOL    HW248166   3.313   8.777   2.769
16048SOL     OW48167   3.529   9.162   2.434
16048SOL    HW148168   3.488   9.139   2.346
16048SOL    HW248169   3.511   9.088   2.499
16049SOL     OW48170   2.460   8.177   2.132
16049SOL    HW148171   2.484   8.246   2.064
16049SOL    HW248172   2.382   8.210   2.186
16050SOL     OW48173   3.143   7.793   2.806
16050SOL    HW148174   3.057   7.743   2.793
16050SOL    HW248175   3.205   7.739   2.862
16051SOL     OW48176   3.438   9.110   2.169
16051SOL    HW148177   3.527   9.156   2.172
16051SOL    HW248178   3.417   9.086   2.074
16052SOL     OW48179   2.669   8.053   3.327
16052SOL    HW148180   2.622   8.050   3.416
16052SOL    HW248181   2.618   7.998   3.261
16053SOL     OW48182   3.256   7.917   3.536
16053SOL    HW148183   3.236   7.960   3.624
16053SOL    HW248184   3.334   7.855   3.545
16054SOL     OW48185   2.835   8.338   3.434
16054SOL    HW148186   2.881   8.254   3.405
16054SOL    HW248187   2.779   8.372   3.359
16055SOL     OW48188   2.853   7.858   3.104
16055SOL    HW148189   2.776   7.892   3.158
16055SOL    HW248190   2.819   7.807   3.025
16056SOL     OW48191   2.903   8.149   2.291
16056SOL    HW148192   2.929   8.145   2.387
16056SOL    HW248193   2.818   8.098   2.277
16057SOL     OW48194   1.938   8.259   2.651
16057SOL    HW148195   2.037   8.247   2.660
16057SOL    HW248196   1.914   8.354   2.672
16058SOL     OW48197   1.992   9.269   3.433
16058SOL    HW148198   1.982   9.254   3.532
16058SOL    HW248199   1.906   9.305   3.397
16059SOL     OW48200   2.727   7.796   2.057
16059SOL    HW148201   2.786   7.859   2.008
16059SOL    HW248202   2.746   7.702   2.028
16060SOL     OW48203   3.581   8.033   3.693
16060SOL    HW148204   3.555   8.122   3.657
16060SOL    HW248205   3.579   7.965   3.620
16061SOL     OW48206   3.224   8.592   2.407
16061SOL    HW148207   3.307   8.563   2.359
16061SOL    HW248208   3.175   8.659   2.351
16062SOL     OW48209   2.412   7.644   2.747
16062SOL    HW148210   2.407   7.639   2.847
16062SOL    HW248211   2.414   7.740   2.718
16063SOL     OW48212   2.870   8.904   2.339
16063SOL    HW148213   2.824   8.976   2.287
16063SOL    HW248214   2.866   8.924   2.437
16064SOL     OW48215   2.213   9.249   2.715
16064SOL    HW148216   2.263   9.163   2.721
16064SOL    HW248217   2.278   9.326   2.712
16065SOL     OW48218   3.657   8.514   2.735
16065SOL    HW148219   3.595   8.499   2.659
16065SOL    HW248220   3.605   8.525   2.820
16066SOL     OW48221   3.089   8.998   3.368
16066SOL    HW148222   3.095   8.921   3.432
16066SOL    HW248223   3.037   8.972   3.288
16067SOL     OW48224   2.183   8.391   2.104
16067SOL    HW148225   2.265   8.430   2.062
16067SOL    HW248226   2.156   8.309   2.055
16068SOL     OW48227   3.320   8.183   2.590
16068SOL    HW148228   3.315   8.118   2.665
16068SOL    HW248229   3.400   8.242   2.603
16069SOL     OW48230   2.323   8.714   3.589
16069SOL    HW148231   2.273   8.715   3.503
16069SOL    HW248232   2.260   8.696   3.665
16070SOL     OW48233   2.973   9.224   2.099
16070SOL    HW148234   2.913   9.162   2.149
16070SOL    HW248235   3.004   9.180   2.014
16071SOL     OW48236   2.064   7.733   3.360
16071SOL    HW148237   1.984   7.793   3.347
16071SOL    HW248238   2.054   7.684   3.446
16072SOL     OW48239   3.494   8.825   1.943
16072SOL    HW148240   3.462   8.919   1.933
16072SOL    HW248241   3.418   8.762   1.931
16073SOL     OW48242   2.326   9.191   2.185
16073SOL    HW148243   2.359   9.230   2.271
16073SOL    HW248244   2.402   9.184   2.120
16074SOL     OW48245   3.262   7.555   2.288
16074SOL    HW148246   3.238   7.518   2.198
16074SOL    HW248247   3.361   7.571   2.292
16075SOL     OW48248   2.111   9.233   3.103
16075SOL    HW148249   2.168   9.168   3.153
16075SOL    HW248250   2.095   9.200   3.010
16076SOL     OW48251   2.802   9.146   2.766
16076SOL    HW148252   2.882   9.089   2.787
16076SOL    HW248253   2.753   9.106   2.689
16077SOL     OW48254   2.244   8.148   2.342
16077SOL    HW148255   2.289   8.058   2.339
16077SOL    HW248256   2.150   8.137   2.375
16078SOL     OW48257   3.409   7.670   3.591
16078SOL    HW148258   3.404   7.707   3.683
16078SOL    HW248259   3.337   7.601   3.579
16079SOL     OW48260   2.476   7.570   1.979
16079SOL    HW148261   2.574   7.548   1.986
16079SOL    HW248262   2.445   7.553   1.886
16080SOL     OW48263   2.643   7.712   3.611
16080SOL    HW148264   2.710   7.651   3.654
16080SOL    HW248265   2.570   7.731   3.676
16081SOL     OW48266   2.750   8.962   3.057
16081SOL    HW148267   2.727   8.937   2.963
16081SOL    HW248268   2.811   8.893   3.096
16082SOL     OW48269   3.213   8.038   3.295
16082SOL    HW148270   3.241   7.995   3.380
16082SOL    HW248271   3.238   8.134   3.296
16083SOL     OW48272   2.665   8.850   2.786
16083SOL    HW148273   2.755   8.864   2.744
16083SOL    HW248274   2.594   8.852   2.715
16084SOL     OW48275   2.784   7.951   2.761
16084SOL    HW148276   2.759   7.942   2.665
16084SOL    HW248277   2.832   7.869   2.792
16085SOL     OW48278   2.401   7.512   2.374
16085SOL    HW148279   2.320   7.513   2.432
16085SOL    HW248280   2.404   7.595   2.319
16086SOL     OW48281   3.296   8.636   1.903
16086SOL    HW148282   3.328   8.560   1.960
16086SOL    HW248283   3.204   8.663   1.933
16087SOL     OW48284   2.159   7.483   2.033
16087SOL    HW148285   2.208   7.567   2.012
16087SOL    HW248286   2.221   7.418   2.078
16088SOL     OW48287   2.797   7.684   2.342
16088SOL    HW148288   2.749   7.725   2.264
16088SOL    HW248289   2.896   7.682   2.323
16089SOL     OW48290   2.938   8.131   3.326
16089SOL    HW148291   2.858   8.070   3.329
16089SOL    HW248292   3.019   8.078   3.302
16090SOL     OW48293   3.089   9.018   2.655
16090SOL    HW148294   3.110   9.092   2.590
16090SOL    HW248295   3.157   9.018   2.728
16091SOL     OW48296   2.321   8.600   2.603
16091SOL    HW148297   2.250   8.573   2.668
16091SOL    HW248298   2.295   8.572   2.510
16092SOL     OW48299   3.133   9.245   2.453
16092SOL    HW148300   3.177   9.309   2.389
16092SOL    HW248301   3.083   9.297   2.523
16093SOL     OW48302   2.894   7.997   1.878
16093SOL    HW148303   2.853   8.079   1.839
16093SOL    HW248304   2.958   8.023   1.951
16094SOL     OW48305   1.940   8.004   3.248
16094SOL    HW148306   2.032   8.003   3.207
16094SOL    HW248307   1.934   8.078   3.315
16095SOL     OW48308   2.423   7.670   3.009
16095SOL    HW148309   2.461   7.586   3.046
16095SOL    HW248310   2.335   7.689   3.053
16096SOL     OW48311   2.728   7.902   2.504
16096SOL    HW148312   2.696   7.974   2.442
16096SOL    HW248313   2.752   7.821   2.451
16097SOL     OW48314   2.879   7.487   2.615
16097SOL    HW148315   2.807   7.492   2.546
16097SOL    HW248316   2.855   7.418   2.684
16098SOL     OW48317   3.291   8.621   2.729
16098SOL    HW148318   3.236   8.537   2.722
16098SOL    HW248319   3.317   8.650   2.637
16099SOL     OW48320   3.328   8.038   2.854
16099SOL    HW148321   3.298   7.943   2.861
16099SOL    HW248322   3.401   8.054   2.920
16100SOL     OW48323   3.719   8.281   2.239
16100SOL    HW148324   3.761   8.217   2.303
16100SOL    HW248325   3.681   8.230   2.161
16101SOL     OW48326   2.350   8.833   2.036
16101SOL    HW148327   2.263   8.818   2.083
16101SOL    HW248328   2.333   8.859   1.941
16102SOL     OW48329   3.526   8.728   2.519
16102SOL    HW148330   3.625   8.736   2.533
16102SOL    HW248331   3.481   8.812   2.550
16103SOL     OW48332   3.252   8.023   1.940
16103SOL    HW148333   3.198   8.002   2.021
16103SOL    HW248334   3.343   7.982   1.949
16104SOL     OW48335   2.389   7.704   2.190
16104SOL    HW148336   2.416   7.645   2.115
16104SOL    HW248337   2.389   7.799   2.159
16105SOL     OW48338   3.616   8.671   3.450
16105SOL    HW148339   3.707   8.632   3.437
16105SOL    HW248340   3.624   8.767   3.474
16106SOL     OW48341   2.926   8.795   3.202
16106SOL    HW148342   2.846   8.772   3.257
16106SOL    HW248343   3.009   8.769   3.251
16107SOL     OW48344   3.454   9.077   3.487
16107SOL    HW148345   3.481   9.111   3.397
16107SOL    HW248346   3.533   9.039   3.533
16108SOL     OW48347   2.973   8.643   2.962
16108SOL    HW148348   2.933   8.687   3.043
16108SOL    HW248349   2.932   8.680   2.879
16109SOL     OW48350   3.500   8.547   2.941
16109SOL    HW148351   3.505   8.628   3.000
16109SOL    HW248352   3.414   8.549   2.890
16110SOL     OW48353   2.777   7.537   3.264
16110SOL    HW148354   2.802   7.517   3.169
16110SOL    HW248355   2.849   7.593   3.306
16111SOL     OW48356   2.842   8.564   3.581
16111SOL    HW148357   2.743   8.570   3.591
16111SOL    HW248358   2.865   8.484   3.525
16112SOL     OW48359   2.567   8.498   2.230
16112SOL    HW148360   2.553   8.505   2.329
16112SOL    HW248361   2.651   8.447   2.212
16113SOL     OW48362   2.272   8.261   3.113
16113SOL    HW148363   2.358   8.273   3.163
16113SOL    HW248364   2.230   8.174   3.140
16114SOL     OW48365   3.136   7.834   3.124
16114SOL    HW148366   3.157   7.908   3.188
16114SOL    HW248367   3.047   7.851   3.081
16115SOL     OW48368   1.926   9.012   3.193
16115SOL    HW148369   1.880   9.094   3.159
16115SOL    HW248370   2.024   9.031   3.202
16116SOL     OW48371   2.229   8.548   2.363
16116SOL    HW148372   2.222   8.631   2.307
16116SOL    HW248373   2.233   8.468   2.303
16117SOL     OW48374   2.428   7.985   2.727
16117SOL    HW148375   2.440   8.051   2.653
16117SOL    HW248376   2.474   8.019   2.810
16118SOL     OW48377   3.114   8.796   2.250
16118SOL    HW148378   3.164   8.873   2.290
16118SOL    HW248379   3.019   8.798   2.282
16119SOL     OW48380   3.134   8.893   3.004
16119SOL    HW148381   3.181   8.906   3.091
16119SOL    HW248382   3.068   8.819   3.013
16120SOL     OW48383   3.444   8.087   2.334
16120SOL    HW148384   3.413   8.148   2.407
16120SOL    HW248385   3.494   8.139   2.265
16121SOL     OW48386   2.216   8.958   3.191
16121SOL    HW148387   2.195   8.914   3.104
16121SOL    HW248388   2.313   8.984   3.194
16122SOL     OW48389   2.264   8.199   3.460
16122SOL    HW148390   2.332   8.254   3.413
16122SOL    HW248391   2.304   8.111   3.487
16123SOL     OW48392   3.449   8.227   3.532
16123SOL    HW148393   3.357   8.265   3.527
16123SOL    HW248394   3.509   8.274   3.467
16124SOL     OW48395   2.875   7.553   3.632
16124SOL    HW148396   2.881   7.638   3.580
16124SOL    HW248397   2.907   7.477   3.575
16125SOL     OW48398   2.366   7.498   3.602
16125SOL    HW148399   2.324   7.441   3.532
16125SOL    HW248400   2.300   7.567   3.634
16126SOL     OW48401   2.435   8.318   2.891
16126SOL    HW148402   2.479   8.407   2.882
16126SOL    HW248403   2.372   8.318   2.968
16127SOL     OW48404   3.222   8.310   2.907
16127SOL    HW148405   3.147   8.310   2.841
16127SOL    HW248406   3.259   8.218   2.916
16128SOL     OW48407   3.071   7.973   2.137
16128SOL    HW148408   3.084   7.889   2.191
16128SOL    HW248409   3.042   8.047   2.197
16129SOL     OW48410   2.169   7.661   3.093
16129SOL    HW148411   2.146   7.698   3.183
16129SOL    HW248412   2.139   7.566   3.087
16130SOL     OW48413   1.899   8.758   3.144
16130SOL    HW148414   1.952   8.709   3.212
16130SOL    HW248415   1.921   8.856   3.149
16131SOL     OW48416   2.594   8.082   2.926
16131SOL    HW148417   2.653   8.056   2.850
16131SOL    HW248418   2.566   8.178   2.915
16132SOL     OW48419   2.169   7.511   2.480
16132SOL    HW148420   2.158   7.605   2.513
16132SOL    HW248421   2.164   7.448   2.557
16133SOL     OW48422   3.484   7.815   2.236
16133SOL    HW148423   3.486   7.739   2.300
16133SOL    HW248424   3.436   7.892   2.276
16134SOL     OW48425   2.885   8.214   2.828
16134SOL    HW148426   2.900   8.235   2.924
16134SOL    HW248427   2.855   8.119   2.819
16135SOL     OW48428   2.842   9.021   3.562
16135SOL    HW148429   2.822   9.065   3.474
16135SOL    HW248430   2.881   8.930   3.546
16136SOL     OW48431   3.721   8.966   3.467
16136SOL    HW148432   3.735   8.993   3.372
16136SOL    HW248433   3.804   8.988   3.520
16137SOL     OW48434   2.212   8.346   3.666
16137SOL    HW148435   2.288   8.390   3.714
16137SOL    HW248436   2.247   8.299   3.584
16138SOL     OW48437   3.402   7.722   1.987
16138SOL    HW148438   3.341   7.647   2.010
16138SOL    HW248439   3.424   7.774   2.070
16139SOL     OW48440   3.165   8.286   1.904
16139SOL    HW148441   3.199   8.193   1.919
16139SOL    HW248442   3.183   8.313   1.809
16140SOL     OW48443   2.930   8.781   2.711
16140SOL    HW148444   2.937   8.697   2.656
16140SOL    HW248445   2.992   8.850   2.675
16141SOL     OW48446   2.181   8.258   2.811
16141SOL    HW148447   2.274   8.294   2.816
16141SOL    HW248448   2.175   8.173   2.863
16142SOL     OW48449   2.201   7.957   2.868
16142SOL    HW148450   2.149   7.874   2.851
16142SOL    HW248451   2.278   7.962   2.804
16143SOL     OW48452   3.000   7.828   3.540
16143SOL    HW148453   2.955   7.891   3.604
16143SOL    HW248454   3.093   7.859   3.523
16144SOL     OW48455   3.022   7.655   3.339
16144SOL    HW148456   3.022   7.719   3.416
16144SOL    HW248457   3.050   7.703   3.256
16145SOL     OW48458   1.870   8.774   2.062
16145SOL    HW148459   1.777   8.795   2.031
16145SOL    HW248460   1.880   8.675   2.075
16146SOL     OW48461   1.950   9.249   2.789
16146SOL    HW148462   1.908   9.163   2.762
16146SOL    HW248463   2.044   9.252   2.755
16147SOL     OW48464   2.366   9.016   2.772
16147SOL    HW148465   2.432   9.090   2.781
16147SOL    HW248466   2.410   8.937   2.730
16148SOL     OW48467   2.864   8.244   3.100
16148SOL    HW148468   2.905   8.212   3.186
16148SOL    HW248469   2.768   8.217   3.097
16149SOL     OW48470   1.902   7.992   2.976
16149SOL    HW148471   1.987   7.959   2.935
16149SOL    HW248472   1.915   8.007   3.074
16150SOL     OW48473   2.051   7.968   3.584
16150SOL    HW148474   2.110   7.928   3.514
16150SOL    HW248475   1.993   8.039   3.543
16151SOL     OW48476   3.231   8.398   3.522
16151SOL    HW148477   3.270   8.487   3.542
16151SOL    HW248478   3.241   8.378   3.425
16152SOL     OW48479   2.677   8.020   2.187
16152SOL    HW148480   2.684   7.931   2.141
16152SOL    HW248481   2.583   8.054   2.179
16153SOL     OW48482   3.519   8.052   3.068
16153SOL    HW148483   3.481   7.983   3.130
16153SOL    HW248484   3.601   8.016   3.024
16154SOL     OW48485   2.114   9.012   3.606
16154SOL    HW148486   2.084   9.069   3.682
16154SOL    HW248487   2.107   8.915   3.632
16155SOL     OW48488   2.533   7.912   3.131
16155SOL    HW148489   2.499   7.823   3.101
16155SOL    HW248490   2.559   7.966   3.051
16156SOL     OW48491   2.792   9.126   3.327
16156SOL    HW148492   2.768   9.108   3.232
16156SOL    HW248493   2.822   9.220   3.337
16157SOL     OW48494   2.335   7.948   2.053
16157SOL    HW148495   2.396   8.028   2.057
16157SOL    HW248496   2.240   7.979   2.060
16158SOL     OW48497   2.021   8.585   3.328
16158SOL    HW148498   2.043   8.524   3.404
16158SOL    HW248499   2.031   8.536   3.242
16159SOL     OW48500   3.209   8.507   3.096
16159SOL    HW148501   3.233   8.444   3.022
16159SOL    HW248502   3.119   8.547   3.078
16160SOL     OW48503   3.164   8.303   2.171
16160SOL    HW148504   3.078   8.272   2.213
16160SOL    HW248505   3.160   8.289   2.072
16161SOL     OW48506   3.621   9.195   3.016
16161SOL    HW148507   3.682   9.225   2.943
16161SOL    HW248508   3.583   9.106   2.994
16162SOL     OW48509   3.114   9.179   2.990
16162SOL    HW148510   3.198   9.184   2.936
16162SOL    HW248511   3.091   9.083   3.008
16163SOL     OW48512   1.945   8.706   2.884
16163SOL    HW148513   1.940   8.705   2.984
16163SOL    HW248514   1.862   8.665   2.846
16164SOL     OW48515   2.550   9.110   3.578
16164SOL    HW148516   2.494   9.191   3.587
16164SOL    HW248517   2.602   9.114   3.492
16165SOL     OW48518   3.588   7.583   2.385
16165SOL    HW148519   3.661   7.566   2.318
16165SOL    HW248520   3.557   7.496   2.423
16166SOL     OW48521   3.250   9.021   2.339
16166SOL    HW148522   3.317   9.033   2.265
16166SOL    HW248523   3.210   9.110   2.362
16167SOL     OW48524   1.992   9.242   3.713
16167SOL    HW148525   1.951   9.168   3.766
16167SOL    HW248526   2.056   9.293   3.771
16168SOL     OW48527   3.142   8.375   2.534
16168SOL    HW148528   3.202   8.294   2.536
16168SOL    HW248529   3.182   8.444   2.474
16169SOL     OW48530   2.692   8.721   3.284
16169SOL    HW148531   2.687   8.754   3.379
16169SOL    HW248532   2.606   8.740   3.238
16170SOL     OW48533   2.534   9.064   2.016
16170SOL    HW148534   2.543   9.074   1.917
16170SOL    HW248535   2.494   8.975   2.037
16171SOL     OW48536   3.512   9.168   3.256
16171SOL    HW148537   3.565   9.178   3.172
16171SOL    HW248538   3.485   9.258   3.290
16172SOL     OW48539   3.703   7.623   2.825
16172SOL    HW148540   3.742   7.538   2.789
16172SOL    HW248541   3.605   7.625   2.806
16173SOL     OW48542   2.125   7.774   2.582
16173SOL    HW148543   2.046   7.825   2.548
16173SOL    HW248544   2.116   7.759   2.680
16174SOL     OW48545   3.056   9.060   1.893
16174SOL    HW148546   3.062   8.967   1.930
16174SOL    HW248547   2.997   9.060   1.813
16175SOL     OW48548   2.684   8.450   3.234
16175SOL    HW148549   2.724   8.449   3.142
16175SOL    HW248550   2.694   8.542   3.274
16176SOL     OW48551   2.778   8.358   2.153
16176SOL    HW148552   2.841   8.396   2.085
16176SOL    HW248553   2.818   8.275   2.192
16177SOL     OW48554   3.366   9.055   1.906
16177SOL    HW148555   3.274   9.092   1.913
16177SOL    HW248556   3.404   9.075   1.816
16178SOL     OW48557   2.234   8.736   3.352
16178SOL    HW148558   2.221   8.829   3.318
16178SOL    HW248559   2.150   8.684   3.339
16179SOL     OW48560   3.476   8.740   3.151
16179SOL    HW148561   3.536   8.743   3.231
16179SOL    HW248562   3.401   8.804   3.164
16180SOL     OW48563   2.901   8.546   2.558
16180SOL    HW148564   2.831   8.499   2.612
16180SOL    HW248565   2.960   8.478   2.515
16181SOL     OW48566   2.876   7.684   2.833
16181SOL    HW148567   2.868   7.648   2.740
16181SOL    HW248568   2.874   7.608   2.898
16182SOL     OW48569   2.452   8.935   2.353
16182SOL    HW148570   2.494   8.877   2.283
16182SOL    HW248571   2.408   9.014   2.309
16183SOL     OW48572   3.571   7.833   3.243
16183SOL    HW148573   3.644   7.902   3.247
16183SOL    HW248574   3.599   7.758   3.184
16184SOL     OW48575   2.117   8.796   2.152
16184SOL    HW148576   2.021   8.797   2.125
16184SOL    HW248577   2.129   8.849   2.236
16185SOL     OW48578   1.967   8.461   3.588
16185SOL    HW148579   1.890   8.428   3.642
16185SOL    HW248580   2.052   8.431   3.630
16186SOL     OW48581   2.534   7.651   3.351
16186SOL    HW148582   2.624   7.635   3.311
16186SOL    HW248583   2.542   7.656   3.450
16187SOL     OW48584   1.937   7.793   1.895
16187SOL    HW148585   1.845   7.765   1.866
16187SOL    HW248586   1.968   7.870   1.839
16188SOL     OW48587   3.302   8.304   3.260
16188SOL    HW148588   3.245   8.356   3.197
16188SOL    HW248589   3.398   8.316   3.236
16189SOL     OW48590   1.934   7.614   2.180
16189SOL    HW148591   1.917   7.697   2.126
16189SOL    HW248592   2.024   7.577   2.158
16190SOL     OW48593   3.045   8.783   1.981
16190SOL    HW148594   2.946   8.772   1.983
16190SOL    HW248595   3.079   8.798   2.074
16191SOL     OW48596   2.475   8.290   3.293
16191SOL    HW148597   2.531   8.371   3.276
16191SOL    HW248598   2.534   8.210   3.296
16192SOL     OW48599   3.355   9.215   2.821
16192SOL    HW148600   3.388   9.279   2.752
16192SOL    HW248601   3.421   9.209   2.896
16193SOL     OW48602   2.578   8.013   3.570
16193SOL    HW148603   2.597   8.078   3.644
16193SOL    HW248604   2.638   7.933   3.579
16194SOL     OW48605   3.312   8.668   3.495
16194SOL    HW148606   3.303   8.658   3.594
16194SOL    HW248607   3.408   8.661   3.469
16195SOL     OW48608   2.252   9.189   3.422
16195SOL    HW148609   2.161   9.230   3.420
16195SOL    HW248610   2.245   9.095   3.454
16196SOL     OW48611   3.536   8.331   3.116
16196SOL    HW148612   3.509   8.242   3.079
16196SOL    HW248613   3.537   8.399   3.043
16197SOL     OW48614   3.087   7.773   2.311
16197SOL    HW148615   3.152   7.699   2.300
16197SOL    HW248616   3.107   7.823   2.395
16198SOL     OW48617   2.456   8.193   2.514
16198SOL    HW148618   2.506   8.278   2.495
16198SOL    HW248619   2.368   8.195   2.466
16199SOL     OW48620   3.639   7.790   3.504
16199SOL    HW148621   3.622   7.821   3.410
16199SOL    HW248622   3.555   7.753   3.542
16200SOL     OW48623   3.592   8.382   3.379
16200SOL    HW148624   3.630   8.473   3.394
16200SOL    HW248625   3.584   8.365   3.280
16201SOL     OW48626   2.721   8.822   1.878
16201SOL    HW148627   2.675   8.837   1.966
16201SOL    HW248628   2.765   8.907   1.848
16202SOL     OW48629   2.523   9.238   2.815
16202SOL    HW148630   2.477   9.326   2.802
16202SOL    HW248631   2.622   9.250   2.808
16203SOL     OW48632   2.721   8.404   2.723
16203SOL    HW148633   2.775   8.335   2.771
16203SOL    HW248634   2.689   8.473   2.789
16204SOL     OW48635   2.945   8.432   1.949
16204SOL    HW148636   2.922   8.485   1.867
16204SOL    HW248637   3.026   8.376   1.930
16205SOL     OW48638   3.723   9.017   2.713
16205SOL    HW148639   3.652   9.005   2.643
16205SOL    HW248640   3.724   8.938   2.773
16206SOL     OW48641   2.083   8.762   3.706
16206SOL    HW148642   2.018   8.689   3.685
16206SOL    HW248643   2.087   8.776   3.804
16207SOL     OW48644   1.941   8.688   2.515
16207SOL    HW148645   1.940   8.641   2.603
16207SOL    HW248646   2.023   8.660   2.464
16208SOL     OW48647   2.534   8.839   3.486
16208SOL    HW148648   2.456   8.789   3.524
16208SOL    HW248649   2.531   8.934   3.517
16209SOL     OW48650   3.686   7.640   3.089
16209SOL    HW148651   3.682   7.550   3.133
16209SOL    HW248652   3.689   7.629   2.990
16210SOL     OW48653   2.290   7.872   2.382
16210SOL    HW148654   2.320   7.800   2.320
16210SOL    HW248655   2.251   7.832   2.465
16211SOL     OW48656   3.567   8.935   2.966
16211SOL    HW148657   3.474   8.910   2.939
16211SOL    HW248658   3.593   8.885   3.048
16212SOL     OW48659   2.179   7.995   3.142
16212SOL    HW148660   2.217   7.936   3.214
16212SOL    HW248661   2.219   7.969   3.054
16213SOL     OW48662   2.674   9.034   2.549
16213SOL    HW148663   2.706   9.044   2.455
16213SOL    HW248664   2.595   8.972   2.551
16214SOL     OW48665   3.286   7.662   2.974
16214SOL    HW148666   3.338   7.597   3.029
16214SOL    HW248667   3.237   7.725   3.035
16215SOL     OW48668   2.863   7.482   3.016
16215SOL    HW148669   2.800   7.410   2.985
16215SOL    HW248670   2.956   7.446   3.016
16216SOL     OW48671   2.632   8.778   2.163
16216SOL    HW148672   2.586   8.691   2.180
16216SOL    HW248673   2.723   8.775   2.204
16217SOL     OW48674   2.480   9.015   3.146
16217SOL    HW148675   2.475   9.097   3.203
16217SOL    HW248676   2.569   9.012   3.101
16218SOL     OW48677   3.214   7.500   2.030
16218SOL    HW148678   3.249   7.459   1.946
16218SOL    HW248679   3.124   7.462   2.050
16219SOL     OW48680   3.162   7.901   2.553
16219SOL    HW148681   3.103   7.981   2.557
16219SOL    HW248682   3.177   7.866   2.646
16220SOL     OW48683   3.455   7.669   2.744
16220SOL    HW148684   3.371   7.668   2.798
16220SOL    HW248685   3.457   7.752   2.688
16221SOL     OW48686   1.901   8.525   2.162
16221SOL    HW148687   2.000   8.514   2.153
16221SOL    HW248688   1.861   8.439   2.194
16222SOL     OW48689   2.737   9.094   2.199
16222SOL    HW148690   2.660   9.059   2.145
16222SOL    HW248691   2.705   9.165   2.261
16223SOL     OW48692   2.092   8.076   3.837
16223SOL    HW148693   1.999   8.074   3.874
16223SOL    HW248694   2.093   8.037   3.745
16224SOL     OW48695   2.087   7.723   4.720
16224SOL    HW148696   2.122   7.706   4.812
16224SOL    HW248697   1.999   7.678   4.708
16225SOL     OW48698   1.881   7.816   4.371
16225SOL    HW148699   1.799   7.859   4.410
16225SOL    HW248700   1.853   7.743   4.308
16226SOL     OW48701   2.431   8.723   4.889
16226SOL    HW148702   2.338   8.716   4.852
16226SOL    HW248703   2.442   8.812   4.933
16227SOL     OW48704   3.417   8.959   4.427
16227SOL    HW148705   3.360   8.943   4.508
16227SOL    HW248706   3.358   8.969   4.347
16228SOL     OW48707   2.997   8.151   4.441
16228SOL    HW148708   3.054   8.229   4.416
16228SOL    HW248709   2.937   8.177   4.517
16229SOL     OW48710   3.617   8.055   3.955
16229SOL    HW148711   3.605   8.042   3.856
16229SOL    HW248712   3.587   7.974   4.004
16230SOL     OW48713   2.630   8.592   4.747
16230SOL    HW148714   2.552   8.609   4.807
16230SOL    HW248715   2.664   8.679   4.711
16231SOL     OW48716   2.712   8.246   5.547
16231SOL    HW148717   2.708   8.322   5.612
16231SOL    HW248718   2.734   8.282   5.456
16232SOL     OW48719   2.547   8.460   4.389
16232SOL    HW148720   2.616   8.444   4.459
16232SOL    HW248721   2.474   8.517   4.427
16233SOL     OW48722   2.548   8.609   5.527
16233SOL    HW148723   2.608   8.688   5.541
16233SOL    HW248724   2.462   8.640   5.486
16234SOL     OW48725   2.197   8.883   4.785
16234SOL    HW148726   2.119   8.852   4.732
16234SOL    HW248727   2.255   8.941   4.728
16235SOL     OW48728   3.322   8.953   5.063
16235SOL    HW148729   3.346   9.047   5.089
16235SOL    HW248730   3.306   8.899   5.145
16236SOL     OW48731   2.300   7.840   5.223
16236SOL    HW148732   2.382   7.784   5.232
16236SOL    HW248733   2.219   7.782   5.227
16237SOL     OW48734   3.465   7.895   4.461
16237SOL    HW148735   3.391   7.941   4.411
16237SOL    HW248736   3.516   7.963   4.514
16238SOL     OW48737   2.093   9.161   4.207
16238SOL    HW148738   2.127   9.238   4.261
16238SOL    HW248739   2.137   9.161   4.117
16239SOL     OW48740   2.989   8.789   5.414
16239SOL    HW148741   3.036   8.789   5.502
16239SOL    HW248742   2.941   8.702   5.403
16240SOL     OW48743   2.092   8.882   4.262
16240SOL    HW148744   2.066   8.978   4.262
16240SOL    HW248745   2.021   8.828   4.307
16241SOL     OW48746   2.102   8.539   4.610
16241SOL    HW148747   2.116   8.455   4.662
16241SOL    HW248748   2.047   8.603   4.665
16242SOL     OW48749   2.482   9.234   5.163
16242SOL    HW148750   2.390   9.217   5.198
16242SOL    HW248751   2.510   9.326   5.189
16243SOL     OW48752   3.456   7.562   5.204
16243SOL    HW148753   3.438   7.629   5.132
16243SOL    HW248754   3.453   7.608   5.293
16244SOL     OW48755   1.984   8.091   4.287
16244SOL    HW148756   1.939   8.003   4.304
16244SOL    HW248757   1.983   8.145   4.371
16245SOL     OW48758   3.704   9.215   4.083
16245SOL    HW148759   3.758   9.186   4.163
16245SOL    HW248760   3.734   9.305   4.054
16246SOL     OW48761   1.889   9.044   3.841
16246SOL    HW148762   1.870   8.948   3.862
16246SOL    HW248763   1.856   9.102   3.916
16247SOL     OW48764   3.551   8.370   4.336
16247SOL    HW148765   3.646   8.341   4.344
16247SOL    HW248766   3.543   8.435   4.261
16248SOL     OW48767   3.503   8.556   4.156
16248SOL    HW148768   3.589   8.558   4.104
16248SOL    HW248769   3.517   8.603   4.244
16249SOL     OW48770   1.975   8.185   5.321
16249SOL    HW148771   2.063   8.172   5.366
16249SOL    HW248772   1.962   8.282   5.299
16250SOL     OW48773   2.475   8.813   4.450
16250SOL    HW148774   2.426   8.726   4.459
16250SOL    HW248775   2.452   8.856   4.363
16251SOL     OW48776   3.155   8.676   5.147
16251SOL    HW148777   3.192   8.603   5.089
16251SOL    HW248778   3.207   8.681   5.232
16252SOL     OW48779   2.671   7.452   4.226
16252SOL    HW148780   2.711   7.543   4.217
16252SOL    HW248781   2.571   7.460   4.232
16253SOL     OW48782   2.059   8.424   4.988
16253SOL    HW148783   2.148   8.379   4.974
16253SOL    HW248784   1.986   8.359   4.969
16254SOL     OW48785   3.387   8.447   3.914
16254SOL    HW148786   3.324   8.371   3.927
16254SOL    HW248787   3.435   8.465   4.000
16255SOL     OW48788   3.049   9.240   5.340
16255SOL    HW148789   3.073   9.300   5.264
16255SOL    HW248790   3.056   9.145   5.310
16256SOL     OW48791   2.179   7.699   5.525
16256SOL    HW148792   2.250   7.770   5.531
16256SOL    HW248793   2.091   7.738   5.553
16257SOL     OW48794   3.328   8.865   4.677
16257SOL    HW148795   3.269   8.871   4.757
16257SOL    HW248796   3.313   8.777   4.631
16258SOL     OW48797   3.529   9.162   4.296
16258SOL    HW148798   3.488   9.139   4.208
16258SOL    HW248799   3.511   9.088   4.361
16259SOL     OW48800   2.460   8.177   3.994
16259SOL    HW148801   2.484   8.246   3.926
16259SOL    HW248802   2.382   8.210   4.048
16260SOL     OW48803   3.143   7.793   4.668
16260SOL    HW148804   3.057   7.743   4.655
16260SOL    HW248805   3.205   7.739   4.724
16261SOL     OW48806   3.438   9.110   4.031
16261SOL    HW148807   3.527   9.156   4.034
16261SOL    HW248808   3.417   9.086   3.936
16262SOL     OW48809   2.669   8.053   5.189
16262SOL    HW148810   2.622   8.050   5.278
16262SOL    HW248811   2.618   7.998   5.123
16263SOL     OW48812   3.256   7.917   5.398
16263SOL    HW148813   3.236   7.960   5.486
16263SOL    HW248814   3.334   7.855   5.407
16264SOL     OW48815   2.835   8.338   5.296
16264SOL    HW148816   2.881   8.254   5.267
16264SOL    HW248817   2.779   8.372   5.221
16265SOL     OW48818   2.853   7.858   4.966
16265SOL    HW148819   2.776   7.892   5.020
16265SOL    HW248820   2.819   7.807   4.887
16266SOL     OW48821   2.903   8.149   4.153
16266SOL    HW148822   2.929   8.145   4.249
16266SOL    HW248823   2.818   8.098   4.139
16267SOL     OW48824   1.938   8.259   4.513
16267SOL    HW148825   2.037   8.247   4.522
16267SOL    HW248826   1.914   8.354   4.534
16268SOL     OW48827   1.992   9.269   5.295
16268SOL    HW148828   1.982   9.254   5.394
16268SOL    HW248829   1.906   9.305   5.259
16269SOL     OW48830   2.727   7.796   3.919
16269SOL    HW148831   2.786   7.859   3.870
16269SOL    HW248832   2.746   7.702   3.890
16270SOL     OW48833   3.581   8.033   5.555
16270SOL    HW148834   3.555   8.122   5.519
16270SOL    HW248835   3.579   7.965   5.482
16271SOL     OW48836   3.224   8.592   4.269
16271SOL    HW148837   3.307   8.563   4.221
16271SOL    HW248838   3.175   8.659   4.213
16272SOL     OW48839   2.412   7.644   4.609
16272SOL    HW148840   2.407   7.639   4.709
16272SOL    HW248841   2.414   7.740   4.580
16273SOL     OW48842   2.870   8.904   4.201
16273SOL    HW148843   2.824   8.976   4.149
16273SOL    HW248844   2.866   8.924   4.299
16274SOL     OW48845   2.213   9.249   4.577
16274SOL    HW148846   2.263   9.163   4.583
16274SOL    HW248847   2.278   9.326   4.574
16275SOL     OW48848   3.657   8.514   4.597
16275SOL    HW148849   3.595   8.499   4.521
16275SOL    HW248850   3.605   8.525   4.682
16276SOL     OW48851   3.089   8.998   5.230
16276SOL    HW148852   3.095   8.921   5.294
16276SOL    HW248853   3.037   8.972   5.150
16277SOL     OW48854   2.183   8.391   3.966
16277SOL    HW148855   2.265   8.430   3.924
16277SOL    HW248856   2.156   8.309   3.917
16278SOL     OW48857   3.320   8.183   4.452
16278SOL    HW148858   3.315   8.118   4.527
16278SOL    HW248859   3.400   8.242   4.465
16279SOL     OW48860   2.323   8.714   5.451
16279SOL    HW148861   2.273   8.715   5.365
16279SOL    HW248862   2.260   8.696   5.527
16280SOL     OW48863   2.973   9.224   3.961
16280SOL    HW148864   2.913   9.162   4.011
16280SOL    HW248865   3.004   9.180   3.876
16281SOL     OW48866   2.064   7.733   5.222
16281SOL    HW148867   1.984   7.793   5.209
16281SOL    HW248868   2.054   7.684   5.308
16282SOL     OW48869   3.494   8.825   3.805
16282SOL    HW148870   3.462   8.919   3.795
16282SOL    HW248871   3.418   8.762   3.793
16283SOL     OW48872   2.326   9.191   4.047
16283SOL    HW148873   2.359   9.230   4.133
16283SOL    HW248874   2.402   9.184   3.982
16284SOL     OW48875   3.262   7.555   4.150
16284SOL    HW148876   3.238   7.518   4.060
16284SOL    HW248877   3.361   7.571   4.154
16285SOL     OW48878   2.111   9.233   4.965
16285SOL    HW148879   2.168   9.168   5.015
16285SOL    HW248880   2.095   9.200   4.872
16286SOL     OW48881   2.802   9.146   4.628
16286SOL    HW148882   2.882   9.089   4.649
16286SOL    HW248883   2.753   9.106   4.551
16287SOL     OW48884   2.244   8.148   4.204
16287SOL    HW148885   2.289   8.058   4.201
16287SOL    HW248886   2.150   8.137   4.237
16288SOL     OW48887   3.409   7.670   5.453
16288SOL    HW148888   3.404   7.707   5.545
16288SOL    HW248889   3.337   7.601   5.441
16289SOL     OW48890   2.476   7.570   3.841
16289SOL    HW148891   2.574   7.548   3.848
16289SOL    HW248892   2.445   7.553   3.748
16290SOL     OW48893   2.643   7.712   5.473
16290SOL    HW148894   2.710   7.651   5.516
16290SOL    HW248895   2.570   7.731   5.538
16291SOL     OW48896   2.750   8.962   4.919
16291SOL    HW148897   2.727   8.937   4.825
16291SOL    HW248898   2.811   8.893   4.958
16292SOL     OW48899   3.213   8.038   5.157
16292SOL    HW148900   3.241   7.995   5.242
16292SOL    HW248901   3.238   8.134   5.158
16293SOL     OW48902   2.665   8.850   4.648
16293SOL    HW148903   2.755   8.864   4.606
16293SOL    HW248904   2.594   8.852   4.577
16294SOL     OW48905   2.784   7.951   4.623
16294SOL    HW148906   2.759   7.942   4.527
16294SOL    HW248907   2.832   7.869   4.654
16295SOL     OW48908   2.401   7.512   4.236
16295SOL    HW148909   2.320   7.513   4.294
16295SOL    HW248910   2.404   7.595   4.181
16296SOL     OW48911   3.296   8.636   3.765
16296SOL    HW148912   3.328   8.560   3.822
16296SOL    HW248913   3.204   8.663   3.795
16297SOL     OW48914   2.159   7.483   3.895
16297SOL    HW148915   2.208   7.567   3.874
16297SOL    HW248916   2.221   7.418   3.940
16298SOL     OW48917   2.797   7.684   4.204
16298SOL    HW148918   2.749   7.725   4.126
16298SOL    HW248919   2.896   7.682   4.185
16299SOL     OW48920   2.938   8.131   5.188
16299SOL    HW148921   2.858   8.070   5.191
16299SOL    HW248922   3.019   8.078   5.164
16300SOL     OW48923   3.089   9.018   4.517
16300SOL    HW148924   3.110   9.092   4.452
16300SOL    HW248925   3.157   9.018   4.590
16301SOL     OW48926   2.321   8.600   4.465
16301SOL    HW148927   2.250   8.573   4.530
16301SOL    HW248928   2.295   8.572   4.372
16302SOL     OW48929   3.133   9.245   4.315
16302SOL    HW148930   3.177   9.309   4.251
16302SOL    HW248931   3.083   9.297   4.385
16303SOL     OW48932   2.894   7.997   3.740
16303SOL    HW148933   2.853   8.079   3.701
16303SOL    HW248934   2.958   8.023   3.813
16304SOL     OW48935   1.940   8.004   5.110
16304SOL    HW148936   2.032   8.003   5.069
16304SOL    HW248937   1.934   8.078   5.177
16305SOL     OW48938   2.423   7.670   4.871
16305SOL    HW148939   2.461   7.586   4.908
16305SOL    HW248940   2.335   7.689   4.915
16306SOL     OW48941   2.728   7.902   4.366
16306SOL    HW148942   2.696   7.974   4.304
16306SOL    HW248943   2.752   7.821   4.313
16307SOL     OW48944   2.879   7.487   4.477
16307SOL    HW148945   2.807   7.492   4.408
16307SOL    HW248946   2.855   7.418   4.546
16308SOL     OW48947   3.291   8.621   4.591
16308SOL    HW148948   3.236   8.537   4.584
16308SOL    HW248949   3.317   8.650   4.499
16309SOL     OW48950   3.328   8.038   4.716
16309SOL    HW148951   3.298   7.943   4.723
16309SOL    HW248952   3.401   8.054   4.782
16310SOL     OW48953   3.719   8.281   4.101
16310SOL    HW148954   3.761   8.217   4.165
16310SOL    HW248955   3.681   8.230   4.023
16311SOL     OW48956   2.350   8.833   3.898
16311SOL    HW148957   2.263   8.818   3.945
16311SOL    HW248958   2.333   8.859   3.803
16312SOL     OW48959   3.526   8.728   4.381
16312SOL    HW148960   3.625   8.736   4.395
16312SOL    HW248961   3.481   8.812   4.412
16313SOL     OW48962   3.252   8.023   3.802
16313SOL    HW148963   3.198   8.002   3.883
16313SOL    HW248964   3.343   7.982   3.811
16314SOL     OW48965   2.389   7.704   4.052
16314SOL    HW148966   2.416   7.645   3.977
16314SOL    HW248967   2.389   7.799   4.021
16315SOL     OW48968   3.616   8.671   5.312
16315SOL    HW148969   3.707   8.632   5.299
16315SOL    HW248970   3.624   8.767   5.336
16316SOL     OW48971   2.926   8.795   5.064
16316SOL    HW148972   2.846   8.772   5.119
16316SOL    HW248973   3.009   8.769   5.113
16317SOL     OW48974   3.454   9.077   5.349
16317SOL    HW148975   3.481   9.111   5.259
16317SOL    HW248976   3.533   9.039   5.395
16318SOL     OW48977   2.973   8.643   4.824
16318SOL    HW148978   2.933   8.687   4.905
16318SOL    HW248979   2.932   8.680   4.741
16319SOL     OW48980   3.500   8.547   4.803
16319SOL    HW148981   3.505   8.628   4.862
16319SOL    HW248982   3.414   8.549   4.752
16320SOL     OW48983   2.777   7.537   5.126
16320SOL    HW148984   2.802   7.517   5.031
16320SOL    HW248985   2.849   7.593   5.168
16321SOL     OW48986   2.842   8.564   5.443
16321SOL    HW148987   2.743   8.570   5.453
16321SOL    HW248988   2.865   8.484   5.387
16322SOL     OW48989   2.567   8.498   4.092
16322SOL    HW148990   2.553   8.505   4.191
16322SOL    HW248991   2.651   8.447   4.074
16323SOL     OW48992   2.272   8.261   4.975
16323SOL    HW148993   2.358   8.273   5.025
16323SOL    HW248994   2.230   8.174   5.002
16324SOL     OW48995   3.136   7.834   4.986
16324SOL    HW148996   3.157   7.908   5.050
16324SOL    HW248997   3.047   7.851   4.943
16325SOL     OW48998   1.926   9.012   5.055
16325SOL    HW148999   1.880   9.094   5.021
16325SOL    HW249000   2.024   9.031   5.064
16326SOL     OW49001   2.229   8.548   4.225
16326SOL    HW149002   2.222   8.631   4.169
16326SOL    HW249003   2.233   8.468   4.165
16327SOL     OW49004   2.428   7.985   4.589
16327SOL    HW149005   2.440   8.051   4.515
16327SOL    HW249006   2.474   8.019   4.672
16328SOL     OW49007   3.114   8.796   4.112
16328SOL    HW149008   3.164   8.873   4.152
16328SOL    HW249009   3.019   8.798   4.144
16329SOL     OW49010   3.134   8.893   4.866
16329SOL    HW149011   3.181   8.906   4.953
16329SOL    HW249012   3.068   8.819   4.875
16330SOL     OW49013   3.444   8.087   4.196
16330SOL    HW149014   3.413   8.148   4.269
16330SOL    HW249015   3.494   8.139   4.127
16331SOL     OW49016   2.216   8.958   5.053
16331SOL    HW149017   2.195   8.914   4.966
16331SOL    HW249018   2.313   8.984   5.056
16332SOL     OW49019   2.264   8.199   5.322
16332SOL    HW149020   2.332   8.254   5.275
16332SOL    HW249021   2.304   8.111   5.349
16333SOL     OW49022   3.449   8.227   5.394
16333SOL    HW149023   3.357   8.265   5.389
16333SOL    HW249024   3.509   8.274   5.329
16334SOL     OW49025   2.875   7.553   5.494
16334SOL    HW149026   2.881   7.638   5.442
16334SOL    HW249027   2.907   7.477   5.437
16335SOL     OW49028   2.366   7.498   5.464
16335SOL    HW149029   2.324   7.441   5.394
16335SOL    HW249030   2.300   7.567   5.496
16336SOL     OW49031   2.435   8.318   4.753
16336SOL    HW149032   2.479   8.407   4.744
16336SOL    HW249033   2.372   8.318   4.830
16337SOL     OW49034   3.222   8.310   4.769
16337SOL    HW149035   3.147   8.310   4.703
16337SOL    HW249036   3.259   8.218   4.778
16338SOL     OW49037   3.071   7.973   3.999
16338SOL    HW149038   3.084   7.889   4.053
16338SOL    HW249039   3.042   8.047   4.059
16339SOL     OW49040   2.169   7.661   4.955
16339SOL    HW149041   2.146   7.698   5.045
16339SOL    HW249042   2.139   7.566   4.949
16340SOL     OW49043   1.899   8.758   5.006
16340SOL    HW149044   1.952   8.709   5.074
16340SOL    HW249045   1.921   8.856   5.011
16341SOL     OW49046   2.594   8.082   4.788
16341SOL    HW149047   2.653   8.056   4.712
16341SOL    HW249048   2.566   8.178   4.777
16342SOL     OW49049   3.590   8.383   5.578
16342SOL    HW149050   3.544   8.376   5.489
16342SOL    HW249051   3.528   8.427   5.644
16343SOL     OW49052   2.169   7.511   4.342
16343SOL    HW149053   2.158   7.605   4.375
16343SOL    HW249054   2.164   7.448   4.419
16344SOL     OW49055   3.484   7.815   4.098
16344SOL    HW149056   3.486   7.739   4.162
16344SOL    HW249057   3.436   7.892   4.138
16345SOL     OW49058   2.885   8.214   4.690
16345SOL    HW149059   2.900   8.235   4.786
16345SOL    HW249060   2.855   8.119   4.681
16346SOL     OW49061   2.842   9.021   5.424
16346SOL    HW149062   2.822   9.065   5.336
16346SOL    HW249063   2.881   8.930   5.408
16347SOL     OW49064   3.721   8.966   5.329
16347SOL    HW149065   3.735   8.993   5.234
16347SOL    HW249066   3.804   8.988   5.382
16348SOL     OW49067   2.212   8.346   5.528
16348SOL    HW149068   2.288   8.390   5.576
16348SOL    HW249069   2.247   8.299   5.446
16349SOL     OW49070   3.402   7.722   3.849
16349SOL    HW149071   3.341   7.647   3.872
16349SOL    HW249072   3.424   7.774   3.932
16350SOL     OW49073   3.165   8.286   3.766
16350SOL    HW149074   3.199   8.193   3.781
16350SOL    HW249075   3.183   8.313   3.671
16351SOL     OW49076   2.930   8.781   4.573
16351SOL    HW149077   2.937   8.697   4.518
16351SOL    HW249078   2.992   8.850   4.537
16352SOL     OW49079   2.181   8.258   4.673
16352SOL    HW149080   2.274   8.294   4.678
16352SOL    HW249081   2.175   8.173   4.725
16353SOL     OW49082   2.201   7.957   4.730
16353SOL    HW149083   2.149   7.874   4.713
16353SOL    HW249084   2.278   7.962   4.666
16354SOL     OW49085   3.000   7.828   5.402
16354SOL    HW149086   2.955   7.891   5.466
16354SOL    HW249087   3.093   7.859   5.385
16355SOL     OW49088   3.022   7.655   5.201
16355SOL    HW149089   3.022   7.719   5.278
16355SOL    HW249090   3.050   7.703   5.118
16356SOL     OW49091   1.870   8.774   3.924
16356SOL    HW149092   1.777   8.795   3.893
16356SOL    HW249093   1.880   8.675   3.937
16357SOL     OW49094   1.950   9.249   4.651
16357SOL    HW149095   1.908   9.163   4.624
16357SOL    HW249096   2.044   9.252   4.617
16358SOL     OW49097   2.366   9.016   4.634
16358SOL    HW149098   2.432   9.090   4.643
16358SOL    HW249099   2.410   8.937   4.592
16359SOL     OW49100   2.864   8.244   4.962
16359SOL    HW149101   2.905   8.212   5.048
16359SOL    HW249102   2.768   8.217   4.959
16360SOL     OW49103   1.902   7.992   4.838
16360SOL    HW149104   1.987   7.959   4.797
16360SOL    HW249105   1.915   8.007   4.936
16361SOL     OW49106   2.051   7.968   5.446
16361SOL    HW149107   2.110   7.928   5.376
16361SOL    HW249108   1.993   8.039   5.405
16362SOL     OW49109   3.231   8.398   5.384
16362SOL    HW149110   3.270   8.487   5.404
16362SOL    HW249111   3.241   8.378   5.287
16363SOL     OW49112   2.677   8.020   4.049
16363SOL    HW149113   2.684   7.931   4.003
16363SOL    HW249114   2.583   8.054   4.041
16364SOL     OW49115   3.519   8.052   4.930
16364SOL    HW149116   3.481   7.983   4.992
16364SOL    HW249117   3.601   8.016   4.886
16365SOL     OW49118   2.114   9.012   5.468
16365SOL    HW149119   2.084   9.069   5.544
16365SOL    HW249120   2.107   8.915   5.494
16366SOL     OW49121   2.533   7.912   4.993
16366SOL    HW149122   2.499   7.823   4.963
16366SOL    HW249123   2.559   7.966   4.913
16367SOL     OW49124   2.792   9.126   5.189
16367SOL    HW149125   2.768   9.108   5.094
16367SOL    HW249126   2.822   9.220   5.199
16368SOL     OW49127   2.335   7.948   3.915
16368SOL    HW149128   2.396   8.028   3.919
16368SOL    HW249129   2.240   7.979   3.922
16369SOL     OW49130   2.021   8.585   5.190
16369SOL    HW149131   2.043   8.524   5.266
16369SOL    HW249132   2.031   8.536   5.104
16370SOL     OW49133   3.209   8.507   4.958
16370SOL    HW149134   3.233   8.444   4.884
16370SOL    HW249135   3.119   8.547   4.940
16371SOL     OW49136   3.164   8.303   4.033
16371SOL    HW149137   3.078   8.272   4.075
16371SOL    HW249138   3.160   8.289   3.934
16372SOL     OW49139   3.621   9.195   4.878
16372SOL    HW149140   3.682   9.225   4.805
16372SOL    HW249141   3.583   9.106   4.856
16373SOL     OW49142   3.114   9.179   4.852
16373SOL    HW149143   3.198   9.184   4.798
16373SOL    HW249144   3.091   9.083   4.870
16374SOL     OW49145   1.945   8.706   4.746
16374SOL    HW149146   1.940   8.705   4.846
16374SOL    HW249147   1.862   8.665   4.708
16375SOL     OW49148   2.550   9.110   5.440
16375SOL    HW149149   2.494   9.191   5.449
16375SOL    HW249150   2.602   9.114   5.354
16376SOL     OW49151   3.588   7.583   4.247
16376SOL    HW149152   3.661   7.566   4.180
16376SOL    HW249153   3.557   7.496   4.285
16377SOL     OW49154   3.250   9.021   4.201
16377SOL    HW149155   3.317   9.033   4.127
16377SOL    HW249156   3.210   9.110   4.224
16378SOL     OW49157   1.992   9.242   5.575
16378SOL    HW149158   1.951   9.168   5.628
16378SOL    HW249159   2.056   9.293   5.633
16379SOL     OW49160   3.142   8.375   4.396
16379SOL    HW149161   3.202   8.294   4.398
16379SOL    HW249162   3.182   8.444   4.336
16380SOL     OW49163   2.692   8.721   5.146
16380SOL    HW149164   2.687   8.754   5.241
16380SOL    HW249165   2.606   8.740   5.100
16381SOL     OW49166   2.534   9.064   3.878
16381SOL    HW149167   2.543   9.074   3.779
16381SOL    HW249168   2.494   8.975   3.899
16382SOL     OW49169   3.512   9.168   5.118
16382SOL    HW149170   3.565   9.178   5.034
16382SOL    HW249171   3.485   9.258   5.152
16383SOL     OW49172   3.703   7.623   4.687
16383SOL    HW149173   3.742   7.538   4.651
16383SOL    HW249174   3.605   7.625   4.668
16384SOL     OW49175   2.125   7.774   4.444
16384SOL    HW149176   2.046   7.825   4.410
16384SOL    HW249177   2.116   7.759   4.542
16385SOL     OW49178   3.056   9.060   3.755
16385SOL    HW149179   3.062   8.967   3.792
16385SOL    HW249180   2.997   9.060   3.675
16386SOL     OW49181   2.684   8.450   5.096
16386SOL    HW149182   2.724   8.449   5.004
16386SOL    HW249183   2.694   8.542   5.136
16387SOL     OW49184   2.778   8.358   4.015
16387SOL    HW149185   2.841   8.396   3.947
16387SOL    HW249186   2.818   8.275   4.054
16388SOL     OW49187   3.366   9.055   3.768
16388SOL    HW149188   3.274   9.092   3.775
16388SOL    HW249189   3.404   9.075   3.678
16389SOL     OW49190   2.234   8.736   5.214
16389SOL    HW149191   2.221   8.829   5.180
16389SOL    HW249192   2.150   8.684   5.201
16390SOL     OW49193   3.476   8.740   5.013
16390SOL    HW149194   3.536   8.743   5.093
16390SOL    HW249195   3.401   8.804   5.026
16391SOL     OW49196   2.901   8.546   4.420
16391SOL    HW149197   2.831   8.499   4.474
16391SOL    HW249198   2.960   8.478   4.377
16392SOL     OW49199   2.876   7.684   4.695
16392SOL    HW149200   2.868   7.648   4.602
16392SOL    HW249201   2.874   7.608   4.760
16393SOL     OW49202   2.452   8.935   4.215
16393SOL    HW149203   2.494   8.877   4.145
16393SOL    HW249204   2.408   9.014   4.171
16394SOL     OW49205   3.571   7.833   5.105
16394SOL    HW149206   3.644   7.902   5.109
16394SOL    HW249207   3.599   7.758   5.046
16395SOL     OW49208   2.117   8.796   4.014
16395SOL    HW149209   2.021   8.797   3.987
16395SOL    HW249210   2.129   8.849   4.098
16396SOL     OW49211   1.967   8.461   5.450
16396SOL    HW149212   1.890   8.428   5.504
16396SOL    HW249213   2.052   8.431   5.492
16397SOL     OW49214   2.534   7.651   5.213
16397SOL    HW149215   2.624   7.635   5.173
16397SOL    HW249216   2.542   7.656   5.312
16398SOL     OW49217   1.937   7.793   3.757
16398SOL    HW149218   1.845   7.765   3.728
16398SOL    HW249219   1.968   7.870   3.701
16399SOL     OW49220   3.302   8.304   5.122
16399SOL    HW149221   3.245   8.356   5.059
16399SOL    HW249222   3.398   8.316   5.098
16400SOL     OW49223   1.934   7.614   4.042
16400SOL    HW149224   1.917   7.697   3.988
16400SOL    HW249225   2.024   7.577   4.020
16401SOL     OW49226   3.045   8.783   3.843
16401SOL    HW149227   2.946   8.772   3.845
16401SOL    HW249228   3.079   8.798   3.936
16402SOL     OW49229   2.475   8.290   5.155
16402SOL    HW149230   2.531   8.371   5.138
16402SOL    HW249231   2.534   8.210   5.158
16403SOL     OW49232   3.355   9.215   4.683
16403SOL    HW149233   3.388   9.279   4.614
16403SOL    HW249234   3.421   9.209   4.758
16404SOL     OW49235   2.578   8.013   5.432
16404SOL    HW149236   2.597   8.078   5.506
16404SOL    HW249237   2.638   7.933   5.441
16405SOL     OW49238   3.312   8.668   5.357
16405SOL    HW149239   3.303   8.658   5.456
16405SOL    HW249240   3.408   8.661   5.331
16406SOL     OW49241   2.252   9.189   5.284
16406SOL    HW149242   2.161   9.230   5.282
16406SOL    HW249243   2.245   9.095   5.316
16407SOL     OW49244   3.536   8.331   4.978
16407SOL    HW149245   3.509   8.242   4.941
16407SOL    HW249246   3.537   8.399   4.905
16408SOL     OW49247   3.087   7.773   4.173
16408SOL    HW149248   3.152   7.699   4.162
16408SOL    HW249249   3.107   7.823   4.257
16409SOL     OW49250   2.456   8.193   4.376
16409SOL    HW149251   2.506   8.278   4.357
16409SOL    HW249252   2.368   8.195   4.328
16410SOL     OW49253   3.639   7.790   5.366
16410SOL    HW149254   3.622   7.821   5.272
16410SOL    HW249255   3.555   7.753   5.404
16411SOL     OW49256   3.592   8.382   5.241
16411SOL    HW149257   3.630   8.473   5.256
16411SOL    HW249258   3.584   8.365   5.142
16412SOL     OW49259   2.721   8.822   3.740
16412SOL    HW149260   2.675   8.837   3.828
16412SOL    HW249261   2.765   8.907   3.710
16413SOL     OW49262   2.523   9.238   4.677
16413SOL    HW149263   2.477   9.326   4.664
16413SOL    HW249264   2.622   9.250   4.670
16414SOL     OW49265   2.721   8.404   4.585
16414SOL    HW149266   2.775   8.335   4.633
16414SOL    HW249267   2.689   8.473   4.651
16415SOL     OW49268   2.945   8.432   3.811
16415SOL    HW149269   2.922   8.485   3.729
16415SOL    HW249270   3.026   8.376   3.792
16416SOL     OW49271   3.723   9.017   4.575
16416SOL    HW149272   3.652   9.005   4.505
16416SOL    HW249273   3.724   8.938   4.635
16417SOL     OW49274   2.083   8.762   5.568
16417SOL    HW149275   2.018   8.689   5.547
16417SOL    HW249276   2.087   8.776   5.666
16418SOL     OW49277   1.941   8.688   4.377
16418SOL    HW149278   1.940   8.641   4.465
16418SOL    HW249279   2.023   8.660   4.326
16419SOL     OW49280   2.534   8.839   5.348
16419SOL    HW149281   2.456   8.789   5.386
16419SOL    HW249282   2.531   8.934   5.379
16420SOL     OW49283   3.686   7.640   4.951
16420SOL    HW149284   3.682   7.550   4.995
16420SOL    HW249285   3.689   7.629   4.852
16421SOL     OW49286   2.290   7.872   4.244
16421SOL    HW149287   2.320   7.800   4.182
16421SOL    HW249288   2.251   7.832   4.327
16422SOL     OW49289   3.567   8.935   4.828
16422SOL    HW149290   3.474   8.910   4.801
16422SOL    HW249291   3.593   8.885   4.910
16423SOL     OW49292   2.179   7.995   5.004
16423SOL    HW149293   2.217   7.936   5.076
16423SOL    HW249294   2.219   7.969   4.916
16424SOL     OW49295   2.674   9.034   4.411
16424SOL    HW149296   2.706   9.044   4.317
16424SOL    HW249297   2.595   8.972   4.413
16425SOL     OW49298   3.286   7.662   4.836
16425SOL    HW149299   3.338   7.597   4.891
16425SOL    HW249300   3.237   7.725   4.897
16426SOL     OW49301   2.863   7.482   4.878
16426SOL    HW149302   2.800   7.410   4.847
16426SOL    HW249303   2.956   7.446   4.878
16427SOL     OW49304   2.632   8.778   4.025
16427SOL    HW149305   2.586   8.691   4.042
16427SOL    HW249306   2.723   8.775   4.066
16428SOL     OW49307   2.480   9.015   5.008
16428SOL    HW149308   2.475   9.097   5.065
16428SOL    HW249309   2.569   9.012   4.963
16429SOL     OW49310   3.214   7.500   3.892
16429SOL    HW149311   3.249   7.459   3.808
16429SOL    HW249312   3.124   7.462   3.912
16430SOL     OW49313   3.162   7.901   4.415
16430SOL    HW149314   3.103   7.981   4.419
16430SOL    HW249315   3.177   7.866   4.508
16431SOL     OW49316   3.455   7.669   4.606
16431SOL    HW149317   3.371   7.668   4.660
16431SOL    HW249318   3.457   7.752   4.550
16432SOL     OW49319   1.901   8.525   4.024
16432SOL    HW149320   2.000   8.514   4.015
16432SOL    HW249321   1.861   8.439   4.056
16433SOL     OW49322   2.737   9.094   4.061
16433SOL    HW149323   2.660   9.059   4.007
16433SOL    HW249324   2.705   9.165   4.123
16434SOL     OW49325   2.092   8.076   5.699
16434SOL    HW149326   1.999   8.074   5.736
16434SOL    HW249327   2.093   8.037   5.607
16435SOL     OW49328   2.087   7.723   6.582
16435SOL    HW149329   2.122   7.706   6.674
16435SOL    HW249330   1.999   7.678   6.570
16436SOL     OW49331   1.881   7.816   6.233
16436SOL    HW149332   1.799   7.859   6.272
16436SOL    HW249333   1.853   7.743   6.170
16437SOL     OW49334   2.431   8.723   6.751
16437SOL    HW149335   2.338   8.716   6.714
16437SOL    HW249336   2.442   8.812   6.795
16438SOL     OW49337   3.417   8.959   6.289
16438SOL    HW149338   3.360   8.943   6.370
16438SOL    HW249339   3.358   8.969   6.209
16439SOL     OW49340   2.997   8.151   6.303
16439SOL    HW149341   3.054   8.229   6.278
16439SOL    HW249342   2.937   8.177   6.379
16440SOL     OW49343   3.617   8.055   5.817
16440SOL    HW149344   3.605   8.042   5.718
16440SOL    HW249345   3.587   7.974   5.866
16441SOL     OW49346   2.630   8.592   6.609
16441SOL    HW149347   2.552   8.609   6.669
16441SOL    HW249348   2.664   8.679   6.573
16442SOL     OW49349   2.712   8.246   7.409
16442SOL    HW149350   2.708   8.322   7.474
16442SOL    HW249351   2.734   8.282   7.318
16443SOL     OW49352   2.547   8.460   6.251
16443SOL    HW149353   2.616   8.444   6.321
16443SOL    HW249354   2.474   8.517   6.289
16444SOL     OW49355   2.548   8.609   7.389
16444SOL    HW149356   2.608   8.688   7.403
16444SOL    HW249357   2.462   8.640   7.348
16445SOL     OW49358   2.197   8.883   6.647
16445SOL    HW149359   2.119   8.852   6.594
16445SOL    HW249360   2.255   8.941   6.590
16446SOL     OW49361   3.322   8.953   6.925
16446SOL    HW149362   3.346   9.047   6.951
16446SOL    HW249363   3.306   8.899   7.007
16447SOL     OW49364   2.300   7.840   7.085
16447SOL    HW149365   2.382   7.784   7.094
16447SOL    HW249366   2.219   7.782   7.089
16448SOL     OW49367   3.465   7.895   6.323
16448SOL    HW149368   3.391   7.941   6.273
16448SOL    HW249369   3.516   7.963   6.376
16449SOL     OW49370   2.093   9.161   6.069
16449SOL    HW149371   2.127   9.238   6.123
16449SOL    HW249372   2.137   9.161   5.979
16450SOL     OW49373   2.989   8.789   7.276
16450SOL    HW149374   3.036   8.789   7.364
16450SOL    HW249375   2.941   8.702   7.265
16451SOL     OW49376   2.092   8.882   6.124
16451SOL    HW149377   2.066   8.978   6.124
16451SOL    HW249378   2.021   8.828   6.169
16452SOL     OW49379   2.102   8.539   6.472
16452SOL    HW149380   2.116   8.455   6.524
16452SOL    HW249381   2.047   8.603   6.527
16453SOL     OW49382   2.482   9.234   7.025
16453SOL    HW149383   2.390   9.217   7.060
16453SOL    HW249384   2.510   9.326   7.051
16454SOL     OW49385   2.468   8.412   5.709
16454SOL    HW149386   2.475   8.496   5.655
16454SOL    HW249387   2.514   8.425   5.797
16455SOL     OW49388   3.456   7.562   7.066
16455SOL    HW149389   3.438   7.629   6.994
16455SOL    HW249390   3.453   7.608   7.155
16456SOL     OW49391   1.984   8.091   6.149
16456SOL    HW149392   1.939   8.003   6.166
16456SOL    HW249393   1.983   8.145   6.233
16457SOL     OW49394   3.704   9.215   5.945
16457SOL    HW149395   3.758   9.186   6.025
16457SOL    HW249396   3.734   9.305   5.916
16458SOL     OW49397   1.889   9.044   5.703
16458SOL    HW149398   1.870   8.948   5.724
16458SOL    HW249399   1.856   9.102   5.778
16459SOL     OW49400   3.551   8.370   6.198
16459SOL    HW149401   3.646   8.341   6.206
16459SOL    HW249402   3.543   8.435   6.123
16460SOL     OW49403   3.503   8.556   6.018
16460SOL    HW149404   3.589   8.558   5.966
16460SOL    HW249405   3.517   8.603   6.106
16461SOL     OW49406   1.975   8.185   7.183
16461SOL    HW149407   2.063   8.172   7.228
16461SOL    HW249408   1.962   8.282   7.161
16462SOL     OW49409   2.475   8.813   6.312
16462SOL    HW149410   2.426   8.726   6.321
16462SOL    HW249411   2.452   8.856   6.225
16463SOL     OW49412   3.155   8.676   7.009
16463SOL    HW149413   3.192   8.603   6.951
16463SOL    HW249414   3.207   8.681   7.094
16464SOL     OW49415   2.671   7.452   6.088
16464SOL    HW149416   2.711   7.543   6.079
16464SOL    HW249417   2.571   7.460   6.094
16465SOL     OW49418   2.059   8.424   6.850
16465SOL    HW149419   2.148   8.379   6.836
16465SOL    HW249420   1.986   8.359   6.831
16466SOL     OW49421   3.387   8.447   5.776
16466SOL    HW149422   3.324   8.371   5.789
16466SOL    HW249423   3.435   8.465   5.862
16467SOL     OW49424   3.049   9.240   7.202
16467SOL    HW149425   3.073   9.300   7.126
16467SOL    HW249426   3.056   9.145   7.172
16468SOL     OW49427   2.179   7.699   7.387
16468SOL    HW149428   2.250   7.770   7.393
16468SOL    HW249429   2.091   7.738   7.415
16469SOL     OW49430   3.328   8.865   6.539
16469SOL    HW149431   3.269   8.871   6.619
16469SOL    HW249432   3.313   8.777   6.493
16470SOL     OW49433   3.529   9.162   6.158
16470SOL    HW149434   3.488   9.139   6.070
16470SOL    HW249435   3.511   9.088   6.223
16471SOL     OW49436   2.460   8.177   5.856
16471SOL    HW149437   2.484   8.246   5.788
16471SOL    HW249438   2.382   8.210   5.910
16472SOL     OW49439   3.438   9.110   5.893
16472SOL    HW149440   3.527   9.156   5.896
16472SOL    HW249441   3.417   9.086   5.798
16473SOL     OW49442   2.669   8.053   7.051
16473SOL    HW149443   2.622   8.050   7.140
16473SOL    HW249444   2.618   7.998   6.985
16474SOL     OW49445   3.256   7.917   7.260
16474SOL    HW149446   3.236   7.960   7.348
16474SOL    HW249447   3.334   7.855   7.269
16475SOL     OW49448   2.835   8.338   7.158
16475SOL    HW149449   2.881   8.254   7.129
16475SOL    HW249450   2.779   8.372   7.083
16476SOL     OW49451   2.853   7.858   6.828
16476SOL    HW149452   2.776   7.892   6.882
16476SOL    HW249453   2.819   7.807   6.749
16477SOL     OW49454   2.903   8.149   6.015
16477SOL    HW149455   2.929   8.145   6.111
16477SOL    HW249456   2.818   8.098   6.001
16478SOL     OW49457   1.938   8.259   6.375
16478SOL    HW149458   2.037   8.247   6.384
16478SOL    HW249459   1.914   8.354   6.396
16479SOL     OW49460   1.992   9.269   7.157
16479SOL    HW149461   1.982   9.254   7.256
16479SOL    HW249462   1.906   9.305   7.121
16480SOL     OW49463   2.727   7.796   5.781
16480SOL    HW149464   2.786   7.859   5.732
16480SOL    HW249465   2.746   7.702   5.752
16481SOL     OW49466   3.581   8.033   7.417
16481SOL    HW149467   3.555   8.122   7.381
16481SOL    HW249468   3.579   7.965   7.344
16482SOL     OW49469   3.224   8.592   6.131
16482SOL    HW149470   3.307   8.563   6.083
16482SOL    HW249471   3.175   8.659   6.075
16483SOL     OW49472   2.412   7.644   6.471
16483SOL    HW149473   2.407   7.639   6.571
16483SOL    HW249474   2.414   7.740   6.442
16484SOL     OW49475   2.870   8.904   6.063
16484SOL    HW149476   2.824   8.976   6.011
16484SOL    HW249477   2.866   8.924   6.161
16485SOL     OW49478   2.213   9.249   6.439
16485SOL    HW149479   2.263   9.163   6.445
16485SOL    HW249480   2.278   9.326   6.436
16486SOL     OW49481   3.657   8.514   6.459
16486SOL    HW149482   3.595   8.499   6.383
16486SOL    HW249483   3.605   8.525   6.544
16487SOL     OW49484   3.089   8.998   7.092
16487SOL    HW149485   3.095   8.921   7.156
16487SOL    HW249486   3.037   8.972   7.012
16488SOL     OW49487   2.183   8.391   5.828
16488SOL    HW149488   2.265   8.430   5.786
16488SOL    HW249489   2.156   8.309   5.779
16489SOL     OW49490   3.320   8.183   6.314
16489SOL    HW149491   3.315   8.118   6.389
16489SOL    HW249492   3.400   8.242   6.327
16490SOL     OW49493   2.323   8.714   7.313
16490SOL    HW149494   2.273   8.715   7.227
16490SOL    HW249495   2.260   8.696   7.389
16491SOL     OW49496   2.973   9.224   5.823
16491SOL    HW149497   2.913   9.162   5.873
16491SOL    HW249498   3.004   9.180   5.738
16492SOL     OW49499   2.064   7.733   7.084
16492SOL    HW149500   1.984   7.793   7.071
16492SOL    HW249501   2.054   7.684   7.170
16493SOL     OW49502   3.494   8.825   5.667
16493SOL    HW149503   3.462   8.919   5.657
16493SOL    HW249504   3.418   8.762   5.655
16494SOL     OW49505   2.326   9.191   5.909
16494SOL    HW149506   2.359   9.230   5.995
16494SOL    HW249507   2.402   9.184   5.844
16495SOL     OW49508   3.262   7.555   6.012
16495SOL    HW149509   3.238   7.518   5.922
16495SOL    HW249510   3.361   7.571   6.016
16496SOL     OW49511   2.111   9.233   6.827
16496SOL    HW149512   2.168   9.168   6.877
16496SOL    HW249513   2.095   9.200   6.734
16497SOL     OW49514   2.802   9.146   6.490
16497SOL    HW149515   2.882   9.089   6.511
16497SOL    HW249516   2.753   9.106   6.413
16498SOL     OW49517   2.244   8.148   6.066
16498SOL    HW149518   2.289   8.058   6.063
16498SOL    HW249519   2.150   8.137   6.099
16499SOL     OW49520   3.409   7.670   7.315
16499SOL    HW149521   3.404   7.707   7.407
16499SOL    HW249522   3.337   7.601   7.303
16500SOL     OW49523   2.476   7.570   5.703
16500SOL    HW149524   2.574   7.548   5.710
16500SOL    HW249525   2.445   7.553   5.610
16501SOL     OW49526   2.643   7.712   7.335
16501SOL    HW149527   2.710   7.651   7.378
16501SOL    HW249528   2.570   7.731   7.400
16502SOL     OW49529   2.750   8.962   6.781
16502SOL    HW149530   2.727   8.937   6.687
16502SOL    HW249531   2.811   8.893   6.820
16503SOL     OW49532   3.213   8.038   7.019
16503SOL    HW149533   3.241   7.995   7.104
16503SOL    HW249534   3.238   8.134   7.020
16504SOL     OW49535   2.665   8.850   6.510
16504SOL    HW149536   2.755   8.864   6.468
16504SOL    HW249537   2.594   8.852   6.439
16505SOL     OW49538   2.784   7.951   6.485
16505SOL    HW149539   2.759   7.942   6.389
16505SOL    HW249540   2.832   7.869   6.516
16506SOL     OW49541   2.401   7.512   6.098
16506SOL    HW149542   2.320   7.513   6.156
16506SOL    HW249543   2.404   7.595   6.043
16507SOL     OW49544   3.296   8.636   5.627
16507SOL    HW149545   3.328   8.560   5.684
16507SOL    HW249546   3.204   8.663   5.657
16508SOL     OW49547   2.159   7.483   5.757
16508SOL    HW149548   2.208   7.567   5.736
16508SOL    HW249549   2.221   7.418   5.802
16509SOL     OW49550   2.797   7.684   6.066
16509SOL    HW149551   2.749   7.725   5.988
16509SOL    HW249552   2.896   7.682   6.047
16510SOL     OW49553   2.938   8.131   7.050
16510SOL    HW149554   2.858   8.070   7.053
16510SOL    HW249555   3.019   8.078   7.026
16511SOL     OW49556   3.089   9.018   6.379
16511SOL    HW149557   3.110   9.092   6.314
16511SOL    HW249558   3.157   9.018   6.452
16512SOL     OW49559   2.321   8.600   6.327
16512SOL    HW149560   2.250   8.573   6.392
16512SOL    HW249561   2.295   8.572   6.234
16513SOL     OW49562   3.133   9.245   6.177
16513SOL    HW149563   3.177   9.309   6.113
16513SOL    HW249564   3.083   9.297   6.247
16514SOL     OW49565   2.894   7.997   5.602
16514SOL    HW149566   2.853   8.079   5.563
16514SOL    HW249567   2.958   8.023   5.675
16515SOL     OW49568   1.940   8.004   6.972
16515SOL    HW149569   2.032   8.003   6.931
16515SOL    HW249570   1.934   8.078   7.039
16516SOL     OW49571   2.423   7.670   6.733
16516SOL    HW149572   2.461   7.586   6.770
16516SOL    HW249573   2.335   7.689   6.777
16517SOL     OW49574   2.728   7.902   6.228
16517SOL    HW149575   2.696   7.974   6.166
16517SOL    HW249576   2.752   7.821   6.175
16518SOL     OW49577   2.879   7.487   6.339
16518SOL    HW149578   2.807   7.492   6.270
16518SOL    HW249579   2.855   7.418   6.408
16519SOL     OW49580   3.291   8.621   6.453
16519SOL    HW149581   3.236   8.537   6.446
16519SOL    HW249582   3.317   8.650   6.361
16520SOL     OW49583   3.328   8.038   6.578
16520SOL    HW149584   3.298   7.943   6.585
16520SOL    HW249585   3.401   8.054   6.644
16521SOL     OW49586   3.719   8.281   5.963
16521SOL    HW149587   3.761   8.217   6.027
16521SOL    HW249588   3.681   8.230   5.885
16522SOL     OW49589   2.350   8.833   5.760
16522SOL    HW149590   2.263   8.818   5.807
16522SOL    HW249591   2.333   8.859   5.665
16523SOL     OW49592   3.526   8.728   6.243
16523SOL    HW149593   3.625   8.736   6.257
16523SOL    HW249594   3.481   8.812   6.274
16524SOL     OW49595   3.252   8.023   5.664
16524SOL    HW149596   3.198   8.002   5.745
16524SOL    HW249597   3.343   7.982   5.673
16525SOL     OW49598   2.389   7.704   5.914
16525SOL    HW149599   2.416   7.645   5.839
16525SOL    HW249600   2.389   7.799   5.883
16526SOL     OW49601   3.616   8.671   7.174
16526SOL    HW149602   3.707   8.632   7.161
16526SOL    HW249603   3.624   8.767   7.198
16527SOL     OW49604   2.926   8.795   6.926
16527SOL    HW149605   2.846   8.772   6.981
16527SOL    HW249606   3.009   8.769   6.975
16528SOL     OW49607   3.454   9.077   7.211
16528SOL    HW149608   3.481   9.111   7.121
16528SOL    HW249609   3.533   9.039   7.257
16529SOL     OW49610   2.973   8.643   6.686
16529SOL    HW149611   2.933   8.687   6.767
16529SOL    HW249612   2.932   8.680   6.603
16530SOL     OW49613   3.500   8.547   6.665
16530SOL    HW149614   3.505   8.628   6.724
16530SOL    HW249615   3.414   8.549   6.614
16531SOL     OW49616   2.777   7.537   6.988
16531SOL    HW149617   2.802   7.517   6.893
16531SOL    HW249618   2.849   7.593   7.030
16532SOL     OW49619   2.842   8.564   7.305
16532SOL    HW149620   2.743   8.570   7.315
16532SOL    HW249621   2.865   8.484   7.249
16533SOL     OW49622   2.567   8.498   5.954
16533SOL    HW149623   2.553   8.505   6.053
16533SOL    HW249624   2.651   8.447   5.936
16534SOL     OW49625   2.272   8.261   6.837
16534SOL    HW149626   2.358   8.273   6.887
16534SOL    HW249627   2.230   8.174   6.864
16535SOL     OW49628   3.136   7.834   6.848
16535SOL    HW149629   3.157   7.908   6.912
16535SOL    HW249630   3.047   7.851   6.805
16536SOL     OW49631   1.926   9.012   6.917
16536SOL    HW149632   1.880   9.094   6.883
16536SOL    HW249633   2.024   9.031   6.926
16537SOL     OW49634   2.229   8.548   6.087
16537SOL    HW149635   2.222   8.631   6.031
16537SOL    HW249636   2.233   8.468   6.027
16538SOL     OW49637   2.428   7.985   6.451
16538SOL    HW149638   2.440   8.051   6.377
16538SOL    HW249639   2.474   8.019   6.534
16539SOL     OW49640   3.114   8.796   5.974
16539SOL    HW149641   3.164   8.873   6.014
16539SOL    HW249642   3.019   8.798   6.006
16540SOL     OW49643   3.134   8.893   6.728
16540SOL    HW149644   3.181   8.906   6.815
16540SOL    HW249645   3.068   8.819   6.737
16541SOL     OW49646   3.444   8.087   6.058
16541SOL    HW149647   3.413   8.148   6.131
16541SOL    HW249648   3.494   8.139   5.989
16542SOL     OW49649   2.216   8.958   6.915
16542SOL    HW149650   2.195   8.914   6.828
16542SOL    HW249651   2.313   8.984   6.918
16543SOL     OW49652   2.264   8.199   7.184
16543SOL    HW149653   2.332   8.254   7.137
16543SOL    HW249654   2.304   8.111   7.211
16544SOL     OW49655   3.449   8.227   7.256
16544SOL    HW149656   3.357   8.265   7.251
16544SOL    HW249657   3.509   8.274   7.191
16545SOL     OW49658   2.875   7.553   7.356
16545SOL    HW149659   2.881   7.638   7.304
16545SOL    HW249660   2.907   7.477   7.299
16546SOL     OW49661   2.366   7.498   7.326
16546SOL    HW149662   2.324   7.441   7.256
16546SOL    HW249663   2.300   7.567   7.358
16547SOL     OW49664   2.435   8.318   6.615
16547SOL    HW149665   2.479   8.407   6.606
16547SOL    HW249666   2.372   8.318   6.692
16548SOL     OW49667   3.222   8.310   6.631
16548SOL    HW149668   3.147   8.310   6.565
16548SOL    HW249669   3.259   8.218   6.640
16549SOL     OW49670   3.071   7.973   5.861
16549SOL    HW149671   3.084   7.889   5.915
16549SOL    HW249672   3.042   8.047   5.921
16550SOL     OW49673   2.169   7.661   6.817
16550SOL    HW149674   2.146   7.698   6.907
16550SOL    HW249675   2.139   7.566   6.811
16551SOL     OW49676   1.899   8.758   6.868
16551SOL    HW149677   1.952   8.709   6.936
16551SOL    HW249678   1.921   8.856   6.873
16552SOL     OW49679   2.594   8.082   6.650
16552SOL    HW149680   2.653   8.056   6.574
16552SOL    HW249681   2.566   8.178   6.639
16553SOL     OW49682   3.590   8.383   7.440
16553SOL    HW149683   3.544   8.376   7.351
16553SOL    HW249684   3.528   8.427   7.506
16554SOL     OW49685   2.169   7.511   6.204
16554SOL    HW149686   2.158   7.605   6.237
16554SOL    HW249687   2.164   7.448   6.281
16555SOL     OW49688   3.484   7.815   5.960
16555SOL    HW149689   3.486   7.739   6.024
16555SOL    HW249690   3.436   7.892   6.000
16556SOL     OW49691   2.885   8.214   6.552
16556SOL    HW149692   2.900   8.235   6.648
16556SOL    HW249693   2.855   8.119   6.543
16557SOL     OW49694   2.842   9.021   7.286
16557SOL    HW149695   2.822   9.065   7.198
16557SOL    HW249696   2.881   8.930   7.270
16558SOL     OW49697   3.721   8.966   7.191
16558SOL    HW149698   3.735   8.993   7.096
16558SOL    HW249699   3.804   8.988   7.244
16559SOL     OW49700   2.212   8.346   7.390
16559SOL    HW149701   2.288   8.390   7.438
16559SOL    HW249702   2.247   8.299   7.308
16560SOL     OW49703   3.402   7.722   5.711
16560SOL    HW149704   3.341   7.647   5.734
16560SOL    HW249705   3.424   7.774   5.794
16561SOL     OW49706   3.165   8.286   5.628
16561SOL    HW149707   3.199   8.193   5.643
16561SOL    HW249708   3.183   8.313   5.533
16562SOL     OW49709   2.930   8.781   6.435
16562SOL    HW149710   2.937   8.697   6.380
16562SOL    HW249711   2.992   8.850   6.399
16563SOL     OW49712   2.181   8.258   6.535
16563SOL    HW149713   2.274   8.294   6.540
16563SOL    HW249714   2.175   8.173   6.587
16564SOL     OW49715   2.201   7.957   6.592
16564SOL    HW149716   2.149   7.874   6.575
16564SOL    HW249717   2.278   7.962   6.528
16565SOL     OW49718   3.000   7.828   7.264
16565SOL    HW149719   2.955   7.891   7.328
16565SOL    HW249720   3.093   7.859   7.247
16566SOL     OW49721   3.022   7.655   7.063
16566SOL    HW149722   3.022   7.719   7.140
16566SOL    HW249723   3.050   7.703   6.980
16567SOL     OW49724   1.870   8.774   5.786
16567SOL    HW149725   1.777   8.795   5.755
16567SOL    HW249726   1.880   8.675   5.799
16568SOL     OW49727   1.950   9.249   6.513
16568SOL    HW149728   1.908   9.163   6.486
16568SOL    HW249729   2.044   9.252   6.479
16569SOL     OW49730   2.366   9.016   6.496
16569SOL    HW149731   2.432   9.090   6.505
16569SOL    HW249732   2.410   8.937   6.454
16570SOL     OW49733   2.864   8.244   6.824
16570SOL    HW149734   2.905   8.212   6.910
16570SOL    HW249735   2.768   8.217   6.821
16571SOL     OW49736   1.902   7.992   6.700
16571SOL    HW149737   1.987   7.959   6.659
16571SOL    HW249738   1.915   8.007   6.798
16572SOL     OW49739   2.051   7.968   7.308
16572SOL    HW149740   2.110   7.928   7.238
16572SOL    HW249741   1.993   8.039   7.267
16573SOL     OW49742   3.231   8.398   7.246
16573SOL    HW149743   3.270   8.487   7.266
16573SOL    HW249744   3.241   8.378   7.149
16574SOL     OW49745   2.677   8.020   5.911
16574SOL    HW149746   2.684   7.931   5.865
16574SOL    HW249747   2.583   8.054   5.903
16575SOL     OW49748   3.519   8.052   6.792
16575SOL    HW149749   3.481   7.983   6.854
16575SOL    HW249750   3.601   8.016   6.748
16576SOL     OW49751   2.114   9.012   7.330
16576SOL    HW149752   2.084   9.069   7.406
16576SOL    HW249753   2.107   8.915   7.356
16577SOL     OW49754   2.533   7.912   6.855
16577SOL    HW149755   2.499   7.823   6.825
16577SOL    HW249756   2.559   7.966   6.775
16578SOL     OW49757   2.792   9.126   7.051
16578SOL    HW149758   2.768   9.108   6.956
16578SOL    HW249759   2.822   9.220   7.061
16579SOL     OW49760   2.335   7.948   5.777
16579SOL    HW149761   2.396   8.028   5.781
16579SOL    HW249762   2.240   7.979   5.784
16580SOL     OW49763   2.021   8.585   7.052
16580SOL    HW149764   2.043   8.524   7.128
16580SOL    HW249765   2.031   8.536   6.966
16581SOL     OW49766   3.209   8.507   6.820
16581SOL    HW149767   3.233   8.444   6.746
16581SOL    HW249768   3.119   8.547   6.802
16582SOL     OW49769   3.164   8.303   5.895
16582SOL    HW149770   3.078   8.272   5.937
16582SOL    HW249771   3.160   8.289   5.796
16583SOL     OW49772   3.621   9.195   6.740
16583SOL    HW149773   3.682   9.225   6.667
16583SOL    HW249774   3.583   9.106   6.718
16584SOL     OW49775   3.114   9.179   6.714
16584SOL    HW149776   3.198   9.184   6.660
16584SOL    HW249777   3.091   9.083   6.732
16585SOL     OW49778   1.945   8.706   6.608
16585SOL    HW149779   1.940   8.705   6.708
16585SOL    HW249780   1.862   8.665   6.570
16586SOL     OW49781   2.550   9.110   7.302
16586SOL    HW149782   2.494   9.191   7.311
16586SOL    HW249783   2.602   9.114   7.216
16587SOL     OW49784   3.588   7.583   6.109
16587SOL    HW149785   3.661   7.566   6.042
16587SOL    HW249786   3.557   7.496   6.147
16588SOL     OW49787   3.250   9.021   6.063
16588SOL    HW149788   3.317   9.033   5.989
16588SOL    HW249789   3.210   9.110   6.086
16589SOL     OW49790   1.992   9.242   7.437
16589SOL    HW149791   1.951   9.168   7.490
16589SOL    HW249792   2.056   9.293   7.495
16590SOL     OW49793   3.142   8.375   6.258
16590SOL    HW149794   3.202   8.294   6.260
16590SOL    HW249795   3.182   8.444   6.198
16591SOL     OW49796   2.692   8.721   7.008
16591SOL    HW149797   2.687   8.754   7.103
16591SOL    HW249798   2.606   8.740   6.962
16592SOL     OW49799   2.534   9.064   5.740
16592SOL    HW149800   2.543   9.074   5.641
16592SOL    HW249801   2.494   8.975   5.761
16593SOL     OW49802   3.512   9.168   6.980
16593SOL    HW149803   3.565   9.178   6.896
16593SOL    HW249804   3.485   9.258   7.014
16594SOL     OW49805   3.703   7.623   6.549
16594SOL    HW149806   3.742   7.538   6.513
16594SOL    HW249807   3.605   7.625   6.530
16595SOL     OW49808   2.125   7.774   6.306
16595SOL    HW149809   2.046   7.825   6.272
16595SOL    HW249810   2.116   7.759   6.404
16596SOL     OW49811   3.056   9.060   5.617
16596SOL    HW149812   3.062   8.967   5.654
16596SOL    HW249813   2.997   9.060   5.537
16597SOL     OW49814   2.684   8.450   6.958
16597SOL    HW149815   2.724   8.449   6.866
16597SOL    HW249816   2.694   8.542   6.998
16598SOL     OW49817   2.778   8.358   5.877
16598SOL    HW149818   2.841   8.396   5.809
16598SOL    HW249819   2.818   8.275   5.916
16599SOL     OW49820   3.366   9.055   5.630
16599SOL    HW149821   3.274   9.092   5.637
16599SOL    HW249822   3.404   9.075   5.540
16600SOL     OW49823   2.234   8.736   7.076
16600SOL    HW149824   2.221   8.829   7.042
16600SOL    HW249825   2.150   8.684   7.063
16601SOL     OW49826   3.476   8.740   6.875
16601SOL    HW149827   3.536   8.743   6.955
16601SOL    HW249828   3.401   8.804   6.888
16602SOL     OW49829   2.901   8.546   6.282
16602SOL    HW149830   2.831   8.499   6.336
16602SOL    HW249831   2.960   8.478   6.239
16603SOL     OW49832   2.876   7.684   6.557
16603SOL    HW149833   2.868   7.648   6.464
16603SOL    HW249834   2.874   7.608   6.622
16604SOL     OW49835   2.452   8.935   6.077
16604SOL    HW149836   2.494   8.877   6.007
16604SOL    HW249837   2.408   9.014   6.033
16605SOL     OW49838   3.571   7.833   6.967
16605SOL    HW149839   3.644   7.902   6.971
16605SOL    HW249840   3.599   7.758   6.908
16606SOL     OW49841   2.117   8.796   5.876
16606SOL    HW149842   2.021   8.797   5.849
16606SOL    HW249843   2.129   8.849   5.960
16607SOL     OW49844   1.967   8.461   7.312
16607SOL    HW149845   1.890   8.428   7.366
16607SOL    HW249846   2.052   8.431   7.354
16608SOL     OW49847   2.534   7.651   7.075
16608SOL    HW149848   2.624   7.635   7.035
16608SOL    HW249849   2.542   7.656   7.174
16609SOL     OW49850   1.937   7.793   5.619
16609SOL    HW149851   1.845   7.765   5.590
16609SOL    HW249852   1.968   7.870   5.563
16610SOL     OW49853   3.302   8.304   6.984
16610SOL    HW149854   3.245   8.356   6.921
16610SOL    HW249855   3.398   8.316   6.960
16611SOL     OW49856   1.934   7.614   5.904
16611SOL    HW149857   1.917   7.697   5.850
16611SOL    HW249858   2.024   7.577   5.882
16612SOL     OW49859   3.045   8.783   5.705
16612SOL    HW149860   2.946   8.772   5.707
16612SOL    HW249861   3.079   8.798   5.798
16613SOL     OW49862   2.475   8.290   7.017
16613SOL    HW149863   2.531   8.371   7.000
16613SOL    HW249864   2.534   8.210   7.020
16614SOL     OW49865   3.355   9.215   6.545
16614SOL    HW149866   3.388   9.279   6.476
16614SOL    HW249867   3.421   9.209   6.620
16615SOL     OW49868   2.578   8.013   7.294
16615SOL    HW149869   2.597   8.078   7.368
16615SOL    HW249870   2.638   7.933   7.303
16616SOL     OW49871   3.312   8.668   7.219
16616SOL    HW149872   3.303   8.658   7.318
16616SOL    HW249873   3.408   8.661   7.193
16617SOL     OW49874   2.252   9.189   7.146
16617SOL    HW149875   2.161   9.230   7.144
16617SOL    HW249876   2.245   9.095   7.178
16618SOL     OW49877   3.536   8.331   6.840
16618SOL    HW149878   3.509   8.242   6.803
16618SOL    HW249879   3.537   8.399   6.767
16619SOL     OW49880   3.087   7.773   6.035
16619SOL    HW149881   3.152   7.699   6.024
16619SOL    HW249882   3.107   7.823   6.119
16620SOL     OW49883   2.456   8.193   6.238
16620SOL    HW149884   2.506   8.278   6.219
16620SOL    HW249885   2.368   8.195   6.190
16621SOL     OW49886   3.639   7.790   7.228
16621SOL    HW149887   3.622   7.821   7.134
16621SOL    HW249888   3.555   7.753   7.266
16622SOL     OW49889   3.592   8.382   7.103
16622SOL    HW149890   3.630   8.473   7.118
16622SOL    HW249891   3.584   8.365   7.004
16623SOL     OW49892   2.721   8.822   5.602
16623SOL    HW149893   2.675   8.837   5.690
16623SOL    HW249894   2.765   8.907   5.572
16624SOL     OW49895   2.523   9.238   6.539
16624SOL    HW149896   2.477   9.326   6.526
16624SOL    HW249897   2.622   9.250   6.532
16625SOL     OW49898   2.721   8.404   6.447
16625SOL    HW149899   2.775   8.335   6.495
16625SOL    HW249900   2.689   8.473   6.513
16626SOL     OW49901   2.945   8.432   5.673
16626SOL    HW149902   2.922   8.485   5.591
16626SOL    HW249903   3.026   8.376   5.654
16627SOL     OW49904   3.723   9.017   6.437
16627SOL    HW149905   3.652   9.005   6.367
16627SOL    HW249906   3.724   8.938   6.497
16628SOL     OW49907   2.083   8.762   7.430
16628SOL    HW149908   2.018   8.689   7.409
16628SOL    HW249909   2.087   8.776   7.528
16629SOL     OW49910   1.941   8.688   6.239
16629SOL    HW149911   1.940   8.641   6.327
16629SOL    HW249912   2.023   8.660   6.188
16630SOL     OW49913   2.534   8.839   7.210
16630SOL    HW149914   2.456   8.789   7.248
16630SOL    HW249915   2.531   8.934   7.241
16631SOL     OW49916   3.686   7.640   6.813
16631SOL    HW149917   3.682   7.550   6.857
16631SOL    HW249918   3.689   7.629   6.714
16632SOL     OW49919   2.290   7.872   6.106
16632SOL    HW149920   2.320   7.800   6.044
16632SOL    HW249921   2.251   7.832   6.189
16633SOL     OW49922   3.567   8.935   6.690
16633SOL    HW149923   3.474   8.910   6.663
16633SOL    HW249924   3.593   8.885   6.772
16634SOL     OW49925   2.179   7.995   6.866
16634SOL    HW149926   2.217   7.936   6.938
16634SOL    HW249927   2.219   7.969   6.778
16635SOL     OW49928   2.674   9.034   6.273
16635SOL    HW149929   2.706   9.044   6.179
16635SOL    HW249930   2.595   8.972   6.275
16636SOL     OW49931   3.286   7.662   6.698
16636SOL    HW149932   3.338   7.597   6.753
16636SOL    HW249933   3.237   7.725   6.759
16637SOL     OW49934   2.863   7.482   6.740
16637SOL    HW149935   2.800   7.410   6.709
16637SOL    HW249936   2.956   7.446   6.740
16638SOL     OW49937   2.632   8.778   5.887
16638SOL    HW149938   2.586   8.691   5.904
16638SOL    HW249939   2.723   8.775   5.928
16639SOL     OW49940   2.480   9.015   6.870
16639SOL    HW149941   2.475   9.097   6.927
16639SOL    HW249942   2.569   9.012   6.825
16640SOL     OW49943   3.214   7.500   5.754
16640SOL    HW149944   3.249   7.459   5.670
16640SOL    HW249945   3.124   7.462   5.774
16641SOL     OW49946   3.162   7.901   6.277
16641SOL    HW149947   3.103   7.981   6.281
16641SOL    HW249948   3.177   7.866   6.370
16642SOL     OW49949   3.455   7.669   6.468
16642SOL    HW149950   3.371   7.668   6.522
16642SOL    HW249951   3.457   7.752   6.412
16643SOL     OW49952   1.901   8.525   5.886
16643SOL    HW149953   2.000   8.514   5.877
16643SOL    HW249954   1.861   8.439   5.918
16644SOL     OW49955   2.737   9.094   5.923
16644SOL    HW149956   2.660   9.059   5.869
16644SOL    HW249957   2.705   9.165   5.985
16645SOL     OW49958   2.092   8.076   7.561
16645SOL    HW149959   1.999   8.074   7.598
16645SOL    HW249960   2.093   8.037   7.469
16646SOL     OW49961   2.087   7.723   8.444
16646SOL    HW149962   2.122   7.706   8.536
16646SOL    HW249963   1.999   7.678   8.432
16647SOL     OW49964   1.881   7.816   8.095
16647SOL    HW149965   1.799   7.859   8.134
16647SOL    HW249966   1.853   7.743   8.032
16648SOL     OW49967   2.431   8.723   8.613
16648SOL    HW149968   2.338   8.716   8.576
16648SOL    HW249969   2.442   8.812   8.657
16649SOL     OW49970   3.417   8.959   8.151
16649SOL    HW149971   3.360   8.943   8.232
16649SOL    HW249972   3.358   8.969   8.071
16650SOL     OW49973   2.997   8.151   8.165
16650SOL    HW149974   3.054   8.229   8.140
16650SOL    HW249975   2.937   8.177   8.241
16651SOL     OW49976   3.617   8.055   7.679
16651SOL    HW149977   3.605   8.042   7.580
16651SOL    HW249978   3.587   7.974   7.728
16652SOL     OW49979   2.630   8.592   8.471
16652SOL    HW149980   2.552   8.609   8.531
16652SOL    HW249981   2.664   8.679   8.435
16653SOL     OW49982   2.712   8.246   9.271
16653SOL    HW149983   2.708   8.322   9.336
16653SOL    HW249984   2.734   8.282   9.180
16654SOL     OW49985   2.547   8.460   8.113
16654SOL    HW149986   2.616   8.444   8.183
16654SOL    HW249987   2.474   8.517   8.151
16655SOL     OW49988   2.548   8.609   9.251
16655SOL    HW149989   2.608   8.688   9.265
16655SOL    HW249990   2.462   8.640   9.210
16656SOL     OW49991   2.197   8.883   8.509
16656SOL    HW149992   2.119   8.852   8.456
16656SOL    HW249993   2.255   8.941   8.452
16657SOL     OW49994   3.322   8.953   8.787
16657SOL    HW149995   3.346   9.047   8.813
16657SOL    HW249996   3.306   8.899   8.869
16658SOL     OW49997   2.300   7.840   8.947
16658SOL    HW149998   2.382   7.784   8.956
16658SOL    HW249999   2.219   7.782   8.951
16659SOL     OW50000   3.465   7.895   8.185
16659SOL    HW150001   3.391   7.941   8.135
16659SOL    HW250002   3.516   7.963   8.238
16660SOL     OW50003   2.093   9.161   7.931
16660SOL    HW150004   2.127   9.238   7.985
16660SOL    HW250005   2.137   9.161   7.841
16661SOL     OW50006   2.989   8.789   9.138
16661SOL    HW150007   3.036   8.789   9.226
16661SOL    HW250008   2.941   8.702   9.127
16662SOL     OW50009   2.092   8.882   7.986
16662SOL    HW150010   2.066   8.978   7.986
16662SOL    HW250011   2.021   8.828   8.031
16663SOL     OW50012   2.102   8.539   8.334
16663SOL    HW150013   2.116   8.455   8.386
16663SOL    HW250014   2.047   8.603   8.389
16664SOL     OW50015   2.482   9.234   8.887
16664SOL    HW150016   2.390   9.217   8.922
16664SOL    HW250017   2.510   9.326   8.913
16665SOL     OW50018   2.468   8.412   7.571
16665SOL    HW150019   2.475   8.496   7.517
16665SOL    HW250020   2.514   8.425   7.659
16666SOL     OW50021   3.456   7.562   8.928
16666SOL    HW150022   3.438   7.629   8.856
16666SOL    HW250023   3.453   7.608   9.017
16667SOL     OW50024   1.984   8.091   8.011
16667SOL    HW150025   1.939   8.003   8.028
16667SOL    HW250026   1.983   8.145   8.095
16668SOL     OW50027   3.704   9.215   7.807
16668SOL    HW150028   3.758   9.186   7.887
16668SOL    HW250029   3.734   9.305   7.778
16669SOL     OW50030   1.889   9.044   7.565
16669SOL    HW150031   1.870   8.948   7.586
16669SOL    HW250032   1.856   9.102   7.640
16670SOL     OW50033   3.551   8.370   8.060
16670SOL    HW150034   3.646   8.341   8.068
16670SOL    HW250035   3.543   8.435   7.985
16671SOL     OW50036   3.503   8.556   7.880
16671SOL    HW150037   3.589   8.558   7.828
16671SOL    HW250038   3.517   8.603   7.968
16672SOL     OW50039   1.975   8.185   9.045
16672SOL    HW150040   2.063   8.172   9.090
16672SOL    HW250041   1.962   8.282   9.023
16673SOL     OW50042   2.475   8.813   8.174
16673SOL    HW150043   2.426   8.726   8.183
16673SOL    HW250044   2.452   8.856   8.087
16674SOL     OW50045   3.155   8.676   8.871
16674SOL    HW150046   3.192   8.603   8.813
16674SOL    HW250047   3.207   8.681   8.956
16675SOL     OW50048   2.671   7.452   7.950
16675SOL    HW150049   2.711   7.543   7.941
16675SOL    HW250050   2.571   7.460   7.956
16676SOL     OW50051   2.059   8.424   8.712
16676SOL    HW150052   2.148   8.379   8.698
16676SOL    HW250053   1.986   8.359   8.693
16677SOL     OW50054   3.387   8.447   7.638
16677SOL    HW150055   3.324   8.371   7.651
16677SOL    HW250056   3.435   8.465   7.724
16678SOL     OW50057   3.049   9.240   9.064
16678SOL    HW150058   3.073   9.300   8.988
16678SOL    HW250059   3.056   9.145   9.034
16679SOL     OW50060   2.179   7.699   9.249
16679SOL    HW150061   2.250   7.770   9.255
16679SOL    HW250062   2.091   7.738   9.277
16680SOL     OW50063   3.328   8.865   8.401
16680SOL    HW150064   3.269   8.871   8.481
16680SOL    HW250065   3.313   8.777   8.355
16681SOL     OW50066   3.529   9.162   8.020
16681SOL    HW150067   3.488   9.139   7.932
16681SOL    HW250068   3.511   9.088   8.085
16682SOL     OW50069   2.460   8.177   7.718
16682SOL    HW150070   2.484   8.246   7.650
16682SOL    HW250071   2.382   8.210   7.772
16683SOL     OW50072   3.143   7.793   8.392
16683SOL    HW150073   3.057   7.743   8.379
16683SOL    HW250074   3.205   7.739   8.448
16684SOL     OW50075   3.438   9.110   7.755
16684SOL    HW150076   3.527   9.156   7.758
16684SOL    HW250077   3.417   9.086   7.660
16685SOL     OW50078   2.669   8.053   8.913
16685SOL    HW150079   2.622   8.050   9.002
16685SOL    HW250080   2.618   7.998   8.847
16686SOL     OW50081   3.256   7.917   9.122
16686SOL    HW150082   3.236   7.960   9.210
16686SOL    HW250083   3.334   7.855   9.131
16687SOL     OW50084   2.835   8.338   9.020
16687SOL    HW150085   2.881   8.254   8.991
16687SOL    HW250086   2.779   8.372   8.945
16688SOL     OW50087   2.853   7.858   8.690
16688SOL    HW150088   2.776   7.892   8.744
16688SOL    HW250089   2.819   7.807   8.611
16689SOL     OW50090   2.903   8.149   7.877
16689SOL    HW150091   2.929   8.145   7.973
16689SOL    HW250092   2.818   8.098   7.863
16690SOL     OW50093   1.938   8.259   8.237
16690SOL    HW150094   2.037   8.247   8.246
16690SOL    HW250095   1.914   8.354   8.258
16691SOL     OW50096   1.992   9.269   9.019
16691SOL    HW150097   1.982   9.254   9.118
16691SOL    HW250098   1.906   9.305   8.983
16692SOL     OW50099   2.727   7.796   7.643
16692SOL    HW150100   2.786   7.859   7.594
16692SOL    HW250101   2.746   7.702   7.614
16693SOL     OW50102   3.581   8.033   9.279
16693SOL    HW150103   3.555   8.122   9.243
16693SOL    HW250104   3.579   7.965   9.206
16694SOL     OW50105   3.224   8.592   7.993
16694SOL    HW150106   3.307   8.563   7.945
16694SOL    HW250107   3.175   8.659   7.937
16695SOL     OW50108   2.412   7.644   8.333
16695SOL    HW150109   2.407   7.639   8.433
16695SOL    HW250110   2.414   7.740   8.304
16696SOL     OW50111   2.870   8.904   7.925
16696SOL    HW150112   2.824   8.976   7.873
16696SOL    HW250113   2.866   8.924   8.023
16697SOL     OW50114   2.213   9.249   8.301
16697SOL    HW150115   2.263   9.163   8.307
16697SOL    HW250116   2.278   9.326   8.298
16698SOL     OW50117   3.657   8.514   8.321
16698SOL    HW150118   3.595   8.499   8.245
16698SOL    HW250119   3.605   8.525   8.406
16699SOL     OW50120   3.089   8.998   8.954
16699SOL    HW150121   3.095   8.921   9.018
16699SOL    HW250122   3.037   8.972   8.874
16700SOL     OW50123   2.183   8.391   7.690
16700SOL    HW150124   2.265   8.430   7.648
16700SOL    HW250125   2.156   8.309   7.641
16701SOL     OW50126   3.320   8.183   8.176
16701SOL    HW150127   3.315   8.118   8.251
16701SOL    HW250128   3.400   8.242   8.189
16702SOL     OW50129   2.323   8.714   9.175
16702SOL    HW150130   2.273   8.715   9.089
16702SOL    HW250131   2.260   8.696   9.251
16703SOL     OW50132   2.973   9.224   7.685
16703SOL    HW150133   2.913   9.162   7.735
16703SOL    HW250134   3.004   9.180   7.600
16704SOL     OW50135   2.064   7.733   8.946
16704SOL    HW150136   1.984   7.793   8.933
16704SOL    HW250137   2.054   7.684   9.032
16705SOL     OW50138   3.494   8.825   7.529
16705SOL    HW150139   3.462   8.919   7.519
16705SOL    HW250140   3.418   8.762   7.517
16706SOL     OW50141   2.326   9.191   7.771
16706SOL    HW150142   2.359   9.230   7.857
16706SOL    HW250143   2.402   9.184   7.706
16707SOL     OW50144   3.262   7.555   7.874
16707SOL    HW150145   3.238   7.518   7.784
16707SOL    HW250146   3.361   7.571   7.878
16708SOL     OW50147   2.111   9.233   8.689
16708SOL    HW150148   2.168   9.168   8.739
16708SOL    HW250149   2.095   9.200   8.596
16709SOL     OW50150   2.802   9.146   8.352
16709SOL    HW150151   2.882   9.089   8.373
16709SOL    HW250152   2.753   9.106   8.275
16710SOL     OW50153   2.244   8.148   7.928
16710SOL    HW150154   2.289   8.058   7.925
16710SOL    HW250155   2.150   8.137   7.961
16711SOL     OW50156   3.409   7.670   9.177
16711SOL    HW150157   3.404   7.707   9.269
16711SOL    HW250158   3.337   7.601   9.165
16712SOL     OW50159   2.476   7.570   7.565
16712SOL    HW150160   2.574   7.548   7.572
16712SOL    HW250161   2.445   7.553   7.472
16713SOL     OW50162   2.643   7.712   9.197
16713SOL    HW150163   2.710   7.651   9.240
16713SOL    HW250164   2.570   7.731   9.262
16714SOL     OW50165   2.750   8.962   8.643
16714SOL    HW150166   2.727   8.937   8.549
16714SOL    HW250167   2.811   8.893   8.682
16715SOL     OW50168   3.213   8.038   8.881
16715SOL    HW150169   3.241   7.995   8.966
16715SOL    HW250170   3.238   8.134   8.882
16716SOL     OW50171   2.665   8.850   8.372
16716SOL    HW150172   2.755   8.864   8.330
16716SOL    HW250173   2.594   8.852   8.301
16717SOL     OW50174   2.784   7.951   8.347
16717SOL    HW150175   2.759   7.942   8.251
16717SOL    HW250176   2.832   7.869   8.378
16718SOL     OW50177   2.401   7.512   7.960
16718SOL    HW150178   2.320   7.513   8.018
16718SOL    HW250179   2.404   7.595   7.905
16719SOL     OW50180   3.296   8.636   7.489
16719SOL    HW150181   3.328   8.560   7.546
16719SOL    HW250182   3.204   8.663   7.519
16720SOL     OW50183   2.159   7.483   7.619
16720SOL    HW150184   2.208   7.567   7.598
16720SOL    HW250185   2.221   7.418   7.664
16721SOL     OW50186   2.797   7.684   7.928
16721SOL    HW150187   2.749   7.725   7.850
16721SOL    HW250188   2.896   7.682   7.909
16722SOL     OW50189   2.938   8.131   8.912
16722SOL    HW150190   2.858   8.070   8.915
16722SOL    HW250191   3.019   8.078   8.888
16723SOL     OW50192   3.089   9.018   8.241
16723SOL    HW150193   3.110   9.092   8.176
16723SOL    HW250194   3.157   9.018   8.314
16724SOL     OW50195   2.321   8.600   8.189
16724SOL    HW150196   2.250   8.573   8.254
16724SOL    HW250197   2.295   8.572   8.096
16725SOL     OW50198   3.133   9.245   8.039
16725SOL    HW150199   3.177   9.309   7.975
16725SOL    HW250200   3.083   9.297   8.109
16726SOL     OW50201   2.894   7.997   7.464
16726SOL    HW150202   2.853   8.079   7.425
16726SOL    HW250203   2.958   8.023   7.537
16727SOL     OW50204   1.940   8.004   8.834
16727SOL    HW150205   2.032   8.003   8.793
16727SOL    HW250206   1.934   8.078   8.901
16728SOL     OW50207   2.423   7.670   8.595
16728SOL    HW150208   2.461   7.586   8.632
16728SOL    HW250209   2.335   7.689   8.639
16729SOL     OW50210   2.728   7.902   8.090
16729SOL    HW150211   2.696   7.974   8.028
16729SOL    HW250212   2.752   7.821   8.037
16730SOL     OW50213   2.879   7.487   8.201
16730SOL    HW150214   2.807   7.492   8.132
16730SOL    HW250215   2.855   7.418   8.270
16731SOL     OW50216   3.291   8.621   8.315
16731SOL    HW150217   3.236   8.537   8.308
16731SOL    HW250218   3.317   8.650   8.223
16732SOL     OW50219   3.328   8.038   8.440
16732SOL    HW150220   3.298   7.943   8.447
16732SOL    HW250221   3.401   8.054   8.506
16733SOL     OW50222   3.719   8.281   7.825
16733SOL    HW150223   3.761   8.217   7.889
16733SOL    HW250224   3.681   8.230   7.747
16734SOL     OW50225   2.350   8.833   7.622
16734SOL    HW150226   2.263   8.818   7.669
16734SOL    HW250227   2.333   8.859   7.527
16735SOL     OW50228   3.526   8.728   8.105
16735SOL    HW150229   3.625   8.736   8.119
16735SOL    HW250230   3.481   8.812   8.136
16736SOL     OW50231   3.252   8.023   7.526
16736SOL    HW150232   3.198   8.002   7.607
16736SOL    HW250233   3.343   7.982   7.535
16737SOL     OW50234   2.389   7.704   7.776
16737SOL    HW150235   2.416   7.645   7.701
16737SOL    HW250236   2.389   7.799   7.745
16738SOL     OW50237   3.616   8.671   9.036
16738SOL    HW150238   3.707   8.632   9.023
16738SOL    HW250239   3.624   8.767   9.060
16739SOL     OW50240   2.926   8.795   8.788
16739SOL    HW150241   2.846   8.772   8.843
16739SOL    HW250242   3.009   8.769   8.837
16740SOL     OW50243   3.454   9.077   9.073
16740SOL    HW150244   3.481   9.111   8.983
16740SOL    HW250245   3.533   9.039   9.119
16741SOL     OW50246   2.973   8.643   8.548
16741SOL    HW150247   2.933   8.687   8.629
16741SOL    HW250248   2.932   8.680   8.465
16742SOL     OW50249   3.500   8.547   8.527
16742SOL    HW150250   3.505   8.628   8.586
16742SOL    HW250251   3.414   8.549   8.476
16743SOL     OW50252   2.777   7.537   8.850
16743SOL    HW150253   2.802   7.517   8.755
16743SOL    HW250254   2.849   7.593   8.892
16744SOL     OW50255   2.842   8.564   9.167
16744SOL    HW150256   2.743   8.570   9.177
16744SOL    HW250257   2.865   8.484   9.111
16745SOL     OW50258   2.567   8.498   7.816
16745SOL    HW150259   2.553   8.505   7.915
16745SOL    HW250260   2.651   8.447   7.798
16746SOL     OW50261   2.272   8.261   8.699
16746SOL    HW150262   2.358   8.273   8.749
16746SOL    HW250263   2.230   8.174   8.726
16747SOL     OW50264   3.136   7.834   8.710
16747SOL    HW150265   3.157   7.908   8.774
16747SOL    HW250266   3.047   7.851   8.667
16748SOL     OW50267   1.926   9.012   8.779
16748SOL    HW150268   1.880   9.094   8.745
16748SOL    HW250269   2.024   9.031   8.788
16749SOL     OW50270   2.229   8.548   7.949
16749SOL    HW150271   2.222   8.631   7.893
16749SOL    HW250272   2.233   8.468   7.889
16750SOL     OW50273   2.428   7.985   8.313
16750SOL    HW150274   2.440   8.051   8.239
16750SOL    HW250275   2.474   8.019   8.396
16751SOL     OW50276   3.114   8.796   7.836
16751SOL    HW150277   3.164   8.873   7.876
16751SOL    HW250278   3.019   8.798   7.868
16752SOL     OW50279   3.134   8.893   8.590
16752SOL    HW150280   3.181   8.906   8.677
16752SOL    HW250281   3.068   8.819   8.599
16753SOL     OW50282   3.444   8.087   7.920
16753SOL    HW150283   3.413   8.148   7.993
16753SOL    HW250284   3.494   8.139   7.851
16754SOL     OW50285   2.216   8.958   8.777
16754SOL    HW150286   2.195   8.914   8.690
16754SOL    HW250287   2.313   8.984   8.780
16755SOL     OW50288   2.264   8.199   9.046
16755SOL    HW150289   2.332   8.254   8.999
16755SOL    HW250290   2.304   8.111   9.073
16756SOL     OW50291   3.449   8.227   9.118
16756SOL    HW150292   3.357   8.265   9.113
16756SOL    HW250293   3.509   8.274   9.053
16757SOL     OW50294   2.875   7.553   9.218
16757SOL    HW150295   2.881   7.638   9.166
16757SOL    HW250296   2.907   7.477   9.161
16758SOL     OW50297   2.366   7.498   9.188
16758SOL    HW150298   2.324   7.441   9.118
16758SOL    HW250299   2.300   7.567   9.220
16759SOL     OW50300   2.435   8.318   8.477
16759SOL    HW150301   2.479   8.407   8.468
16759SOL    HW250302   2.372   8.318   8.554
16760SOL     OW50303   3.222   8.310   8.493
16760SOL    HW150304   3.147   8.310   8.427
16760SOL    HW250305   3.259   8.218   8.502
16761SOL     OW50306   3.071   7.973   7.723
16761SOL    HW150307   3.084   7.889   7.777
16761SOL    HW250308   3.042   8.047   7.783
16762SOL     OW50309   2.169   7.661   8.679
16762SOL    HW150310   2.146   7.698   8.769
16762SOL    HW250311   2.139   7.566   8.673
16763SOL     OW50312   1.899   8.758   8.730
16763SOL    HW150313   1.952   8.709   8.798
16763SOL    HW250314   1.921   8.856   8.735
16764SOL     OW50315   2.594   8.082   8.512
16764SOL    HW150316   2.653   8.056   8.436
16764SOL    HW250317   2.566   8.178   8.501
16765SOL     OW50318   3.590   8.383   9.302
16765SOL    HW150319   3.544   8.376   9.213
16765SOL    HW250320   3.528   8.427   9.368
16766SOL     OW50321   2.169   7.511   8.066
16766SOL    HW150322   2.158   7.605   8.099
16766SOL    HW250323   2.164   7.448   8.143
16767SOL     OW50324   3.484   7.815   7.822
16767SOL    HW150325   3.486   7.739   7.886
16767SOL    HW250326   3.436   7.892   7.862
16768SOL     OW50327   2.885   8.214   8.414
16768SOL    HW150328   2.900   8.235   8.510
16768SOL    HW250329   2.855   8.119   8.405
16769SOL     OW50330   2.842   9.021   9.148
16769SOL    HW150331   2.822   9.065   9.060
16769SOL    HW250332   2.881   8.930   9.132
16770SOL     OW50333   3.721   8.966   9.053
16770SOL    HW150334   3.735   8.993   8.958
16770SOL    HW250335   3.804   8.988   9.106
16771SOL     OW50336   2.212   8.346   9.252
16771SOL    HW150337   2.288   8.390   9.300
16771SOL    HW250338   2.247   8.299   9.170
16772SOL     OW50339   3.402   7.722   7.573
16772SOL    HW150340   3.341   7.647   7.596
16772SOL    HW250341   3.424   7.774   7.656
16773SOL     OW50342   3.165   8.286   7.490
16773SOL    HW150343   3.199   8.193   7.505
16773SOL    HW250344   3.183   8.313   7.395
16774SOL     OW50345   2.930   8.781   8.297
16774SOL    HW150346   2.937   8.697   8.242
16774SOL    HW250347   2.992   8.850   8.261
16775SOL     OW50348   2.181   8.258   8.397
16775SOL    HW150349   2.274   8.294   8.402
16775SOL    HW250350   2.175   8.173   8.449
16776SOL     OW50351   2.201   7.957   8.454
16776SOL    HW150352   2.149   7.874   8.437
16776SOL    HW250353   2.278   7.962   8.390
16777SOL     OW50354   3.000   7.828   9.126
16777SOL    HW150355   2.955   7.891   9.190
16777SOL    HW250356   3.093   7.859   9.109
16778SOL     OW50357   3.022   7.655   8.925
16778SOL    HW150358   3.022   7.719   9.002
16778SOL    HW250359   3.050   7.703   8.842
16779SOL     OW50360   1.870   8.774   7.648
16779SOL    HW150361   1.777   8.795   7.617
16779SOL    HW250362   1.880   8.675   7.661
16780SOL     OW50363   1.950   9.249   8.375
16780SOL    HW150364   1.908   9.163   8.348
16780SOL    HW250365   2.044   9.252   8.341
16781SOL     OW50366   2.366   9.016   8.358
16781SOL    HW150367   2.432   9.090   8.367
16781SOL    HW250368   2.410   8.937   8.316
16782SOL     OW50369   2.864   8.244   8.686
16782SOL    HW150370   2.905   8.212   8.772
16782SOL    HW250371   2.768   8.217   8.683
16783SOL     OW50372   1.902   7.992   8.562
16783SOL    HW150373   1.987   7.959   8.521
16783SOL    HW250374   1.915   8.007   8.660
16784SOL     OW50375   2.051   7.968   9.170
16784SOL    HW150376   2.110   7.928   9.100
16784SOL    HW250377   1.993   8.039   9.129
16785SOL     OW50378   3.231   8.398   9.108
16785SOL    HW150379   3.270   8.487   9.128
16785SOL    HW250380   3.241   8.378   9.011
16786SOL     OW50381   2.677   8.020   7.773
16786SOL    HW150382   2.684   7.931   7.727
16786SOL    HW250383   2.583   8.054   7.765
16787SOL     OW50384   3.519   8.052   8.654
16787SOL    HW150385   3.481   7.983   8.716
16787SOL    HW250386   3.601   8.016   8.610
16788SOL     OW50387   2.114   9.012   9.192
16788SOL    HW150388   2.084   9.069   9.268
16788SOL    HW250389   2.107   8.915   9.218
16789SOL     OW50390   2.533   7.912   8.717
16789SOL    HW150391   2.499   7.823   8.687
16789SOL    HW250392   2.559   7.966   8.637
16790SOL     OW50393   2.792   9.126   8.913
16790SOL    HW150394   2.768   9.108   8.818
16790SOL    HW250395   2.822   9.220   8.923
16791SOL     OW50396   2.335   7.948   7.639
16791SOL    HW150397   2.396   8.028   7.643
16791SOL    HW250398   2.240   7.979   7.646
16792SOL     OW50399   2.021   8.585   8.914
16792SOL    HW150400   2.043   8.524   8.990
16792SOL    HW250401   2.031   8.536   8.828
16793SOL     OW50402   3.209   8.507   8.682
16793SOL    HW150403   3.233   8.444   8.608
16793SOL    HW250404   3.119   8.547   8.664
16794SOL     OW50405   3.164   8.303   7.757
16794SOL    HW150406   3.078   8.272   7.799
16794SOL    HW250407   3.160   8.289   7.658
16795SOL     OW50408   3.621   9.195   8.602
16795SOL    HW150409   3.682   9.225   8.529
16795SOL    HW250410   3.583   9.106   8.580
16796SOL     OW50411   3.114   9.179   8.576
16796SOL    HW150412   3.198   9.184   8.522
16796SOL    HW250413   3.091   9.083   8.594
16797SOL     OW50414   1.945   8.706   8.470
16797SOL    HW150415   1.940   8.705   8.570
16797SOL    HW250416   1.862   8.665   8.432
16798SOL     OW50417   2.550   9.110   9.164
16798SOL    HW150418   2.494   9.191   9.173
16798SOL    HW250419   2.602   9.114   9.078
16799SOL     OW50420   3.588   7.583   7.971
16799SOL    HW150421   3.661   7.566   7.904
16799SOL    HW250422   3.557   7.496   8.009
16800SOL     OW50423   3.250   9.021   7.925
16800SOL    HW150424   3.317   9.033   7.851
16800SOL    HW250425   3.210   9.110   7.948
16801SOL     OW50426   1.992   9.242   9.299
16801SOL    HW150427   1.951   9.168   9.352
16801SOL    HW250428   2.056   9.293   9.357
16802SOL     OW50429   3.142   8.375   8.120
16802SOL    HW150430   3.202   8.294   8.122
16802SOL    HW250431   3.182   8.444   8.060
16803SOL     OW50432   2.692   8.721   8.870
16803SOL    HW150433   2.687   8.754   8.965
16803SOL    HW250434   2.606   8.740   8.824
16804SOL     OW50435   2.534   9.064   7.602
16804SOL    HW150436   2.543   9.074   7.503
16804SOL    HW250437   2.494   8.975   7.623
16805SOL     OW50438   3.512   9.168   8.842
16805SOL    HW150439   3.565   9.178   8.758
16805SOL    HW250440   3.485   9.258   8.876
16806SOL     OW50441   3.703   7.623   8.411
16806SOL    HW150442   3.742   7.538   8.375
16806SOL    HW250443   3.605   7.625   8.392
16807SOL     OW50444   2.125   7.774   8.168
16807SOL    HW150445   2.046   7.825   8.134
16807SOL    HW250446   2.116   7.759   8.266
16808SOL     OW50447   3.056   9.060   7.479
16808SOL    HW150448   3.062   8.967   7.516
16808SOL    HW250449   2.997   9.060   7.399
16809SOL     OW50450   2.684   8.450   8.820
16809SOL    HW150451   2.724   8.449   8.728
16809SOL    HW250452   2.694   8.542   8.860
16810SOL     OW50453   2.778   8.358   7.739
16810SOL    HW150454   2.841   8.396   7.671
16810SOL    HW250455   2.818   8.275   7.778
16811SOL     OW50456   3.366   9.055   7.492
16811SOL    HW150457   3.274   9.092   7.499
16811SOL    HW250458   3.404   9.075   7.402
16812SOL     OW50459   2.234   8.736   8.938
16812SOL    HW150460   2.221   8.829   8.904
16812SOL    HW250461   2.150   8.684   8.925
16813SOL     OW50462   3.476   8.740   8.737
16813SOL    HW150463   3.536   8.743   8.817
16813SOL    HW250464   3.401   8.804   8.750
16814SOL     OW50465   2.901   8.546   8.144
16814SOL    HW150466   2.831   8.499   8.198
16814SOL    HW250467   2.960   8.478   8.101
16815SOL     OW50468   2.876   7.684   8.419
16815SOL    HW150469   2.868   7.648   8.326
16815SOL    HW250470   2.874   7.608   8.484
16816SOL     OW50471   2.452   8.935   7.939
16816SOL    HW150472   2.494   8.877   7.869
16816SOL    HW250473   2.408   9.014   7.895
16817SOL     OW50474   3.571   7.833   8.829
16817SOL    HW150475   3.644   7.902   8.833
16817SOL    HW250476   3.599   7.758   8.770
16818SOL     OW50477   2.117   8.796   7.738
16818SOL    HW150478   2.021   8.797   7.711
16818SOL    HW250479   2.129   8.849   7.822
16819SOL     OW50480   1.967   8.461   9.174
16819SOL    HW150481   1.890   8.428   9.228
16819SOL    HW250482   2.052   8.431   9.216
16820SOL     OW50483   2.534   7.651   8.937
16820SOL    HW150484   2.624   7.635   8.897
16820SOL    HW250485   2.542   7.656   9.036
16821SOL     OW50486   1.937   7.793   7.481
16821SOL    HW150487   1.845   7.765   7.452
16821SOL    HW250488   1.968   7.870   7.425
16822SOL     OW50489   3.302   8.304   8.846
16822SOL    HW150490   3.245   8.356   8.783
16822SOL    HW250491   3.398   8.316   8.822
16823SOL     OW50492   1.934   7.614   7.766
16823SOL    HW150493   1.917   7.697   7.712
16823SOL    HW250494   2.024   7.577   7.744
16824SOL     OW50495   3.045   8.783   7.567
16824SOL    HW150496   2.946   8.772   7.569
16824SOL    HW250497   3.079   8.798   7.660
16825SOL     OW50498   2.475   8.290   8.879
16825SOL    HW150499   2.531   8.371   8.862
16825SOL    HW250500   2.534   8.210   8.882
16826SOL     OW50501   3.355   9.215   8.407
16826SOL    HW150502   3.388   9.279   8.338
16826SOL    HW250503   3.421   9.209   8.482
16827SOL     OW50504   2.578   8.013   9.156
16827SOL    HW150505   2.597   8.078   9.230
16827SOL    HW250506   2.638   7.933   9.165
16828SOL     OW50507   3.312   8.668   9.081
16828SOL    HW150508   3.303   8.658   9.180
16828SOL    HW250509   3.408   8.661   9.055
16829SOL     OW50510   2.252   9.189   9.008
16829SOL    HW150511   2.161   9.230   9.006
16829SOL    HW250512   2.245   9.095   9.040
16830SOL     OW50513   3.536   8.331   8.702
16830SOL    HW150514   3.509   8.242   8.665
16830SOL    HW250515   3.537   8.399   8.629
16831SOL     OW50516   3.087   7.773   7.897
16831SOL    HW150517   3.152   7.699   7.886
16831SOL    HW250518   3.107   7.823   7.981
16832SOL     OW50519   2.456   8.193   8.100
16832SOL    HW150520   2.506   8.278   8.081
16832SOL    HW250521   2.368   8.195   8.052
16833SOL     OW50522   3.639   7.790   9.090
16833SOL    HW150523   3.622   7.821   8.996
16833SOL    HW250524   3.555   7.753   9.128
16834SOL     OW50525   3.592   8.382   8.965
16834SOL    HW150526   3.630   8.473   8.980
16834SOL    HW250527   3.584   8.365   8.866
16835SOL     OW50528   2.721   8.822   7.464
16835SOL    HW150529   2.675   8.837   7.552
16835SOL    HW250530   2.765   8.907   7.434
16836SOL     OW50531   2.523   9.238   8.401
16836SOL    HW150532   2.477   9.326   8.388
16836SOL    HW250533   2.622   9.250   8.394
16837SOL     OW50534   2.721   8.404   8.309
16837SOL    HW150535   2.775   8.335   8.357
16837SOL    HW250536   2.689   8.473   8.375
16838SOL     OW50537   2.945   8.432   7.535
16838SOL    HW150538   2.922   8.485   7.453
16838SOL    HW250539   3.026   8.376   7.516
16839SOL     OW50540   3.723   9.017   8.299
16839SOL    HW150541   3.652   9.005   8.229
16839SOL    HW250542   3.724   8.938   8.359
16840SOL     OW50543   2.083   8.762   9.292
16840SOL    HW150544   2.018   8.689   9.271
16840SOL    HW250545   2.087   8.776   9.390
16841SOL     OW50546   1.941   8.688   8.101
16841SOL    HW150547   1.940   8.641   8.189
16841SOL    HW250548   2.023   8.660   8.050
16842SOL     OW50549   2.534   8.839   9.072
16842SOL    HW150550   2.456   8.789   9.110
16842SOL    HW250551   2.531   8.934   9.103
16843SOL     OW50552   3.686   7.640   8.675
16843SOL    HW150553   3.682   7.550   8.719
16843SOL    HW250554   3.689   7.629   8.576
16844SOL     OW50555   2.290   7.872   7.968
16844SOL    HW150556   2.320   7.800   7.906
16844SOL    HW250557   2.251   7.832   8.051
16845SOL     OW50558   3.567   8.935   8.552
16845SOL    HW150559   3.474   8.910   8.525
16845SOL    HW250560   3.593   8.885   8.634
16846SOL     OW50561   2.179   7.995   8.728
16846SOL    HW150562   2.217   7.936   8.800
16846SOL    HW250563   2.219   7.969   8.640
16847SOL     OW50564   2.674   9.034   8.135
16847SOL    HW150565   2.706   9.044   8.041
16847SOL    HW250566   2.595   8.972   8.137
16848SOL     OW50567   3.286   7.662   8.560
16848SOL    HW150568   3.338   7.597   8.615
16848SOL    HW250569   3.237   7.725   8.621
16849SOL     OW50570   2.863   7.482   8.602
16849SOL    HW150571   2.800   7.410   8.571
16849SOL    HW250572   2.956   7.446   8.602
16850SOL     OW50573   2.632   8.778   7.749
16850SOL    HW150574   2.586   8.691   7.766
16850SOL    HW250575   2.723   8.775   7.790
16851SOL     OW50576   2.480   9.015   8.732
16851SOL    HW150577   2.475   9.097   8.789
16851SOL    HW250578   2.569   9.012   8.687
16852SOL     OW50579   3.214   7.500   7.616
16852SOL    HW150580   3.249   7.459   7.532
16852SOL    HW250581   3.124   7.462   7.636
16853SOL     OW50582   3.162   7.901   8.139
16853SOL    HW150583   3.103   7.981   8.143
16853SOL    HW250584   3.177   7.866   8.232
16854SOL     OW50585   3.455   7.669   8.330
16854SOL    HW150586   3.371   7.668   8.384
16854SOL    HW250587   3.457   7.752   8.274
16855SOL     OW50588   1.901   8.525   7.748
16855SOL    HW150589   2.000   8.514   7.739
16855SOL    HW250590   1.861   8.439   7.780
16856SOL     OW50591   2.737   9.094   7.785
16856SOL    HW150592   2.660   9.059   7.731
16856SOL    HW250593   2.705   9.165   7.847
16857SOL     OW50594   2.092   8.076   9.423
16857SOL    HW150595   1.999   8.074   9.460
16857SOL    HW250596   2.093   8.037   9.331
16858SOL     OW50597   2.087   7.723  10.306
16858SOL    HW150598   2.122   7.706  10.398
16858SOL    HW250599   1.999   7.678  10.294
16859SOL     OW50600   1.881   7.816   9.957
16859SOL    HW150601   1.799   7.859   9.996
16859SOL    HW250602   1.853   7.743   9.894
16860SOL     OW50603   2.431   8.723  10.475
16860SOL    HW150604   2.338   8.716  10.438
16860SOL    HW250605   2.442   8.812  10.519
16861SOL     OW50606   3.417   8.959  10.013
16861SOL    HW150607   3.360   8.943  10.094
16861SOL    HW250608   3.358   8.969   9.933
16862SOL     OW50609   2.997   8.151  10.027
16862SOL    HW150610   3.054   8.229  10.002
16862SOL    HW250611   2.937   8.177  10.103
16863SOL     OW50612   3.617   8.055   9.541
16863SOL    HW150613   3.605   8.042   9.442
16863SOL    HW250614   3.587   7.974   9.590
16864SOL     OW50615   2.630   8.592  10.333
16864SOL    HW150616   2.552   8.609  10.393
16864SOL    HW250617   2.664   8.679  10.297
16865SOL     OW50618   2.712   8.246  11.133
16865SOL    HW150619   2.708   8.322  11.198
16865SOL    HW250620   2.734   8.282  11.042
16866SOL     OW50621   2.547   8.460   9.975
16866SOL    HW150622   2.616   8.444  10.045
16866SOL    HW250623   2.474   8.517  10.013
16867SOL     OW50624   2.548   8.609  11.113
16867SOL    HW150625   2.608   8.688  11.127
16867SOL    HW250626   2.462   8.640  11.072
16868SOL     OW50627   2.197   8.883  10.371
16868SOL    HW150628   2.119   8.852  10.318
16868SOL    HW250629   2.255   8.941  10.314
16869SOL     OW50630   3.322   8.953  10.649
16869SOL    HW150631   3.346   9.047  10.675
16869SOL    HW250632   3.306   8.899  10.731
16870SOL     OW50633   2.300   7.840  10.809
16870SOL    HW150634   2.382   7.784  10.818
16870SOL    HW250635   2.219   7.782  10.813
16871SOL     OW50636   3.465   7.895  10.047
16871SOL    HW150637   3.391   7.941   9.997
16871SOL    HW250638   3.516   7.963  10.100
16872SOL     OW50639   2.093   9.161   9.793
16872SOL    HW150640   2.127   9.238   9.847
16872SOL    HW250641   2.137   9.161   9.703
16873SOL     OW50642   2.989   8.789  11.000
16873SOL    HW150643   3.036   8.789  11.088
16873SOL    HW250644   2.941   8.702  10.989
16874SOL     OW50645   2.092   8.882   9.848
16874SOL    HW150646   2.066   8.978   9.848
16874SOL    HW250647   2.021   8.828   9.893
16875SOL     OW50648   2.102   8.539  10.196
16875SOL    HW150649   2.116   8.455  10.248
16875SOL    HW250650   2.047   8.603  10.251
16876SOL     OW50651   2.482   9.234  10.749
16876SOL    HW150652   2.390   9.217  10.784
16876SOL    HW250653   2.510   9.326  10.775
16877SOL     OW50654   2.468   8.412   9.433
16877SOL    HW150655   2.475   8.496   9.379
16877SOL    HW250656   2.514   8.425   9.521
16878SOL     OW50657   3.456   7.562  10.790
16878SOL    HW150658   3.438   7.629  10.718
16878SOL    HW250659   3.453   7.608  10.879
16879SOL     OW50660   1.984   8.091   9.873
16879SOL    HW150661   1.939   8.003   9.890
16879SOL    HW250662   1.983   8.145   9.957
16880SOL     OW50663   3.704   9.215   9.669
16880SOL    HW150664   3.758   9.186   9.749
16880SOL    HW250665   3.734   9.305   9.640
16881SOL     OW50666   1.889   9.044   9.427
16881SOL    HW150667   1.870   8.948   9.448
16881SOL    HW250668   1.856   9.102   9.502
16882SOL     OW50669   3.551   8.370   9.922
16882SOL    HW150670   3.646   8.341   9.930
16882SOL    HW250671   3.543   8.435   9.847
16883SOL     OW50672   3.503   8.556   9.742
16883SOL    HW150673   3.589   8.558   9.690
16883SOL    HW250674   3.517   8.603   9.830
16884SOL     OW50675   1.975   8.185  10.907
16884SOL    HW150676   2.063   8.172  10.952
16884SOL    HW250677   1.962   8.282  10.885
16885SOL     OW50678   2.475   8.813  10.036
16885SOL    HW150679   2.426   8.726  10.045
16885SOL    HW250680   2.452   8.856   9.949
16886SOL     OW50681   3.155   8.676  10.733
16886SOL    HW150682   3.192   8.603  10.675
16886SOL    HW250683   3.207   8.681  10.818
16887SOL     OW50684   2.671   7.452   9.812
16887SOL    HW150685   2.711   7.543   9.803
16887SOL    HW250686   2.571   7.460   9.818
16888SOL     OW50687   2.059   8.424  10.574
16888SOL    HW150688   2.148   8.379  10.560
16888SOL    HW250689   1.986   8.359  10.555
16889SOL     OW50690   3.387   8.447   9.500
16889SOL    HW150691   3.324   8.371   9.513
16889SOL    HW250692   3.435   8.465   9.586
16890SOL     OW50693   3.049   9.240  10.926
16890SOL    HW150694   3.073   9.300  10.850
16890SOL    HW250695   3.056   9.145  10.896
16891SOL     OW50696   2.179   7.699  11.111
16891SOL    HW150697   2.250   7.770  11.117
16891SOL    HW250698   2.091   7.738  11.139
16892SOL     OW50699   3.328   8.865  10.263
16892SOL    HW150700   3.269   8.871  10.343
16892SOL    HW250701   3.313   8.777  10.217
16893SOL     OW50702   3.529   9.162   9.882
16893SOL    HW150703   3.488   9.139   9.794
16893SOL    HW250704   3.511   9.088   9.947
16894SOL     OW50705   2.460   8.177   9.580
16894SOL    HW150706   2.484   8.246   9.512
16894SOL    HW250707   2.382   8.210   9.634
16895SOL     OW50708   3.143   7.793  10.254
16895SOL    HW150709   3.057   7.743  10.241
16895SOL    HW250710   3.205   7.739  10.310
16896SOL     OW50711   3.438   9.110   9.617
16896SOL    HW150712   3.527   9.156   9.620
16896SOL    HW250713   3.417   9.086   9.522
16897SOL     OW50714   2.669   8.053  10.775
16897SOL    HW150715   2.622   8.050  10.864
16897SOL    HW250716   2.618   7.998  10.709
16898SOL     OW50717   3.256   7.917  10.984
16898SOL    HW150718   3.236   7.960  11.072
16898SOL    HW250719   3.334   7.855  10.993
16899SOL     OW50720   2.835   8.338  10.882
16899SOL    HW150721   2.881   8.254  10.853
16899SOL    HW250722   2.779   8.372  10.807
16900SOL     OW50723   2.853   7.858  10.552
16900SOL    HW150724   2.776   7.892  10.606
16900SOL    HW250725   2.819   7.807  10.473
16901SOL     OW50726   2.903   8.149   9.739
16901SOL    HW150727   2.929   8.145   9.835
16901SOL    HW250728   2.818   8.098   9.725
16902SOL     OW50729   1.938   8.259  10.099
16902SOL    HW150730   2.037   8.247  10.108
16902SOL    HW250731   1.914   8.354  10.120
16903SOL     OW50732   1.992   9.269  10.881
16903SOL    HW150733   1.982   9.254  10.980
16903SOL    HW250734   1.906   9.305  10.845
16904SOL     OW50735   2.727   7.796   9.505
16904SOL    HW150736   2.786   7.859   9.456
16904SOL    HW250737   2.746   7.702   9.476
16905SOL     OW50738   3.581   8.033  11.141
16905SOL    HW150739   3.555   8.122  11.105
16905SOL    HW250740   3.579   7.965  11.068
16906SOL     OW50741   3.224   8.592   9.855
16906SOL    HW150742   3.307   8.563   9.807
16906SOL    HW250743   3.175   8.659   9.799
16907SOL     OW50744   2.412   7.644  10.195
16907SOL    HW150745   2.407   7.639  10.295
16907SOL    HW250746   2.414   7.740  10.166
16908SOL     OW50747   2.870   8.904   9.787
16908SOL    HW150748   2.824   8.976   9.735
16908SOL    HW250749   2.866   8.924   9.885
16909SOL     OW50750   2.213   9.249  10.163
16909SOL    HW150751   2.263   9.163  10.169
16909SOL    HW250752   2.278   9.326  10.160
16910SOL     OW50753   3.657   8.514  10.183
16910SOL    HW150754   3.595   8.499  10.107
16910SOL    HW250755   3.605   8.525  10.268
16911SOL     OW50756   3.089   8.998  10.816
16911SOL    HW150757   3.095   8.921  10.880
16911SOL    HW250758   3.037   8.972  10.736
16912SOL     OW50759   2.183   8.391   9.552
16912SOL    HW150760   2.265   8.430   9.510
16912SOL    HW250761   2.156   8.309   9.503
16913SOL     OW50762   3.320   8.183  10.038
16913SOL    HW150763   3.315   8.118  10.113
16913SOL    HW250764   3.400   8.242  10.051
16914SOL     OW50765   2.323   8.714  11.037
16914SOL    HW150766   2.273   8.715  10.951
16914SOL    HW250767   2.260   8.696  11.113
16915SOL     OW50768   2.973   9.224   9.547
16915SOL    HW150769   2.913   9.162   9.597
16915SOL    HW250770   3.004   9.180   9.462
16916SOL     OW50771   2.064   7.733  10.808
16916SOL    HW150772   1.984   7.793  10.795
16916SOL    HW250773   2.054   7.684  10.894
16917SOL     OW50774   3.494   8.825   9.391
16917SOL    HW150775   3.462   8.919   9.381
16917SOL    HW250776   3.418   8.762   9.379
16918SOL     OW50777   2.326   9.191   9.633
16918SOL    HW150778   2.359   9.230   9.719
16918SOL    HW250779   2.402   9.184   9.568
16919SOL     OW50780   3.262   7.555   9.736
16919SOL    HW150781   3.238   7.518   9.646
16919SOL    HW250782   3.361   7.571   9.740
16920SOL     OW50783   2.111   9.233  10.551
16920SOL    HW150784   2.168   9.168  10.601
16920SOL    HW250785   2.095   9.200  10.458
16921SOL     OW50786   2.802   9.146  10.214
16921SOL    HW150787   2.882   9.089  10.235
16921SOL    HW250788   2.753   9.106  10.137
16922SOL     OW50789   2.244   8.148   9.790
16922SOL    HW150790   2.289   8.058   9.787
16922SOL    HW250791   2.150   8.137   9.823
16923SOL     OW50792   3.409   7.670  11.039
16923SOL    HW150793   3.404   7.707  11.131
16923SOL    HW250794   3.337   7.601  11.027
16924SOL     OW50795   2.476   7.570   9.427
16924SOL    HW150796   2.574   7.548   9.434
16924SOL    HW250797   2.445   7.553   9.334
16925SOL     OW50798   2.643   7.712  11.059
16925SOL    HW150799   2.710   7.651  11.102
16925SOL    HW250800   2.570   7.731  11.124
16926SOL     OW50801   2.750   8.962  10.505
16926SOL    HW150802   2.727   8.937  10.411
16926SOL    HW250803   2.811   8.893  10.544
16927SOL     OW50804   3.213   8.038  10.743
16927SOL    HW150805   3.241   7.995  10.828
16927SOL    HW250806   3.238   8.134  10.744
16928SOL     OW50807   2.665   8.850  10.234
16928SOL    HW150808   2.755   8.864  10.192
16928SOL    HW250809   2.594   8.852  10.163
16929SOL     OW50810   2.784   7.951  10.209
16929SOL    HW150811   2.759   7.942  10.113
16929SOL    HW250812   2.832   7.869  10.240
16930SOL     OW50813   2.401   7.512   9.822
16930SOL    HW150814   2.320   7.513   9.880
16930SOL    HW250815   2.404   7.595   9.767
16931SOL     OW50816   3.296   8.636   9.351
16931SOL    HW150817   3.328   8.560   9.408
16931SOL    HW250818   3.204   8.663   9.381
16932SOL     OW50819   2.159   7.483   9.481
16932SOL    HW150820   2.208   7.567   9.460
16932SOL    HW250821   2.221   7.418   9.526
16933SOL     OW50822   2.797   7.684   9.790
16933SOL    HW150823   2.749   7.725   9.712
16933SOL    HW250824   2.896   7.682   9.771
16934SOL     OW50825   2.938   8.131  10.774
16934SOL    HW150826   2.858   8.070  10.777
16934SOL    HW250827   3.019   8.078  10.750
16935SOL     OW50828   3.089   9.018  10.103
16935SOL    HW150829   3.110   9.092  10.038
16935SOL    HW250830   3.157   9.018  10.176
16936SOL     OW50831   2.321   8.600  10.051
16936SOL    HW150832   2.250   8.573  10.116
16936SOL    HW250833   2.295   8.572   9.958
16937SOL     OW50834   3.133   9.245   9.901
16937SOL    HW150835   3.177   9.309   9.837
16937SOL    HW250836   3.083   9.297   9.971
16938SOL     OW50837   2.894   7.997   9.326
16938SOL    HW150838   2.853   8.079   9.287
16938SOL    HW250839   2.958   8.023   9.399
16939SOL     OW50840   1.940   8.004  10.696
16939SOL    HW150841   2.032   8.003  10.655
16939SOL    HW250842   1.934   8.078  10.763
16940SOL     OW50843   2.423   7.670  10.457
16940SOL    HW150844   2.461   7.586  10.494
16940SOL    HW250845   2.335   7.689  10.501
16941SOL     OW50846   2.728   7.902   9.952
16941SOL    HW150847   2.696   7.974   9.890
16941SOL    HW250848   2.752   7.821   9.899
16942SOL     OW50849   2.879   7.487  10.063
16942SOL    HW150850   2.807   7.492   9.994
16942SOL    HW250851   2.855   7.418  10.132
16943SOL     OW50852   3.291   8.621  10.177
16943SOL    HW150853   3.236   8.537  10.170
16943SOL    HW250854   3.317   8.650  10.085
16944SOL     OW50855   3.328   8.038  10.302
16944SOL    HW150856   3.298   7.943  10.309
16944SOL    HW250857   3.401   8.054  10.368
16945SOL     OW50858   3.719   8.281   9.687
16945SOL    HW150859   3.761   8.217   9.751
16945SOL    HW250860   3.681   8.230   9.609
16946SOL     OW50861   2.350   8.833   9.484
16946SOL    HW150862   2.263   8.818   9.531
16946SOL    HW250863   2.333   8.859   9.389
16947SOL     OW50864   3.526   8.728   9.967
16947SOL    HW150865   3.625   8.736   9.981
16947SOL    HW250866   3.481   8.812   9.998
16948SOL     OW50867   3.252   8.023   9.388
16948SOL    HW150868   3.198   8.002   9.469
16948SOL    HW250869   3.343   7.982   9.397
16949SOL     OW50870   2.389   7.704   9.638
16949SOL    HW150871   2.416   7.645   9.563
16949SOL    HW250872   2.389   7.799   9.607
16950SOL     OW50873   3.616   8.671  10.898
16950SOL    HW150874   3.707   8.632  10.885
16950SOL    HW250875   3.624   8.767  10.922
16951SOL     OW50876   2.926   8.795  10.650
16951SOL    HW150877   2.846   8.772  10.705
16951SOL    HW250878   3.009   8.769  10.699
16952SOL     OW50879   3.454   9.077  10.935
16952SOL    HW150880   3.481   9.111  10.845
16952SOL    HW250881   3.533   9.039  10.981
16953SOL     OW50882   2.973   8.643  10.410
16953SOL    HW150883   2.933   8.687  10.491
16953SOL    HW250884   2.932   8.680  10.327
16954SOL     OW50885   3.500   8.547  10.389
16954SOL    HW150886   3.505   8.628  10.448
16954SOL    HW250887   3.414   8.549  10.338
16955SOL     OW50888   2.777   7.537  10.712
16955SOL    HW150889   2.802   7.517  10.617
16955SOL    HW250890   2.849   7.593  10.754
16956SOL     OW50891   2.842   8.564  11.029
16956SOL    HW150892   2.743   8.570  11.039
16956SOL    HW250893   2.865   8.484  10.973
16957SOL     OW50894   2.567   8.498   9.678
16957SOL    HW150895   2.553   8.505   9.777
16957SOL    HW250896   2.651   8.447   9.660
16958SOL     OW50897   2.272   8.261  10.561
16958SOL    HW150898   2.358   8.273  10.611
16958SOL    HW250899   2.230   8.174  10.588
16959SOL     OW50900   3.136   7.834  10.572
16959SOL    HW150901   3.157   7.908  10.636
16959SOL    HW250902   3.047   7.851  10.529
16960SOL     OW50903   1.926   9.012  10.641
16960SOL    HW150904   1.880   9.094  10.607
16960SOL    HW250905   2.024   9.031  10.650
16961SOL     OW50906   2.229   8.548   9.811
16961SOL    HW150907   2.222   8.631   9.755
16961SOL    HW250908   2.233   8.468   9.751
16962SOL     OW50909   2.428   7.985  10.175
16962SOL    HW150910   2.440   8.051  10.101
16962SOL    HW250911   2.474   8.019  10.258
16963SOL     OW50912   3.114   8.796   9.698
16963SOL    HW150913   3.164   8.873   9.738
16963SOL    HW250914   3.019   8.798   9.730
16964SOL     OW50915   3.134   8.893  10.452
16964SOL    HW150916   3.181   8.906  10.539
16964SOL    HW250917   3.068   8.819  10.461
16965SOL     OW50918   3.444   8.087   9.782
16965SOL    HW150919   3.413   8.148   9.855
16965SOL    HW250920   3.494   8.139   9.713
16966SOL     OW50921   2.216   8.958  10.639
16966SOL    HW150922   2.195   8.914  10.552
16966SOL    HW250923   2.313   8.984  10.642
16967SOL     OW50924   2.264   8.199  10.908
16967SOL    HW150925   2.332   8.254  10.861
16967SOL    HW250926   2.304   8.111  10.935
16968SOL     OW50927   3.449   8.227  10.980
16968SOL    HW150928   3.357   8.265  10.975
16968SOL    HW250929   3.509   8.274  10.915
16969SOL     OW50930   2.875   7.553  11.080
16969SOL    HW150931   2.881   7.638  11.028
16969SOL    HW250932   2.907   7.477  11.023
16970SOL     OW50933   2.366   7.498  11.050
16970SOL    HW150934   2.324   7.441  10.980
16970SOL    HW250935   2.300   7.567  11.082
16971SOL     OW50936   2.435   8.318  10.339
16971SOL    HW150937   2.479   8.407  10.330
16971SOL    HW250938   2.372   8.318  10.416
16972SOL     OW50939   3.222   8.310  10.355
16972SOL    HW150940   3.147   8.310  10.289
16972SOL    HW250941   3.259   8.218  10.364
16973SOL     OW50942   3.071   7.973   9.585
16973SOL    HW150943   3.084   7.889   9.639
16973SOL    HW250944   3.042   8.047   9.645
16974SOL     OW50945   2.169   7.661  10.541
16974SOL    HW150946   2.146   7.698  10.631
16974SOL    HW250947   2.139   7.566  10.535
16975SOL     OW50948   1.899   8.758  10.592
16975SOL    HW150949   1.952   8.709  10.660
16975SOL    HW250950   1.921   8.856  10.597
16976SOL     OW50951   2.594   8.082  10.374
16976SOL    HW150952   2.653   8.056  10.298
16976SOL    HW250953   2.566   8.178  10.363
16977SOL     OW50954   3.590   8.383  11.164
16977SOL    HW150955   3.544   8.376  11.075
16977SOL    HW250956   3.528   8.427  11.230
16978SOL     OW50957   2.169   7.511   9.928
16978SOL    HW150958   2.158   7.605   9.961
16978SOL    HW250959   2.164   7.448  10.005
16979SOL     OW50960   3.484   7.815   9.684
16979SOL    HW150961   3.486   7.739   9.748
16979SOL    HW250962   3.436   7.892   9.724
16980SOL     OW50963   2.885   8.214  10.276
16980SOL    HW150964   2.900   8.235  10.372
16980SOL    HW250965   2.855   8.119  10.267
16981SOL     OW50966   2.842   9.021  11.010
16981SOL    HW150967   2.822   9.065  10.922
16981SOL    HW250968   2.881   8.930  10.994
16982SOL     OW50969   3.721   8.966  10.915
16982SOL    HW150970   3.735   8.993  10.820
16982SOL    HW250971   3.804   8.988  10.968
16983SOL     OW50972   2.212   8.346  11.114
16983SOL    HW150973   2.288   8.390  11.162
16983SOL    HW250974   2.247   8.299  11.032
16984SOL     OW50975   3.402   7.722   9.435
16984SOL    HW150976   3.341   7.647   9.458
16984SOL    HW250977   3.424   7.774   9.518
16985SOL     OW50978   3.165   8.286   9.352
16985SOL    HW150979   3.199   8.193   9.367
16985SOL    HW250980   3.183   8.313   9.257
16986SOL     OW50981   2.930   8.781  10.159
16986SOL    HW150982   2.937   8.697  10.104
16986SOL    HW250983   2.992   8.850  10.123
16987SOL     OW50984   2.181   8.258  10.259
16987SOL    HW150985   2.274   8.294  10.264
16987SOL    HW250986   2.175   8.173  10.311
16988SOL     OW50987   2.201   7.957  10.316
16988SOL    HW150988   2.149   7.874  10.299
16988SOL    HW250989   2.278   7.962  10.252
16989SOL     OW50990   3.000   7.828  10.988
16989SOL    HW150991   2.955   7.891  11.052
16989SOL    HW250992   3.093   7.859  10.971
16990SOL     OW50993   3.022   7.655  10.787
16990SOL    HW150994   3.022   7.719  10.864
16990SOL    HW250995   3.050   7.703  10.704
16991SOL     OW50996   1.870   8.774   9.510
16991SOL    HW150997   1.777   8.795   9.479
16991SOL    HW250998   1.880   8.675   9.523
16992SOL     OW50999   1.950   9.249  10.237
16992SOL    HW151000   1.908   9.163  10.210
16992SOL    HW251001   2.044   9.252  10.203
16993SOL     OW51002   2.366   9.016  10.220
16993SOL    HW151003   2.432   9.090  10.229
16993SOL    HW251004   2.410   8.937  10.178
16994SOL     OW51005   2.864   8.244  10.548
16994SOL    HW151006   2.905   8.212  10.634
16994SOL    HW251007   2.768   8.217  10.545
16995SOL     OW51008   1.902   7.992  10.424
16995SOL    HW151009   1.987   7.959  10.383
16995SOL    HW251010   1.915   8.007  10.522
16996SOL     OW51011   2.051   7.968  11.032
16996SOL    HW151012   2.110   7.928  10.962
16996SOL    HW251013   1.993   8.039  10.991
16997SOL     OW51014   3.231   8.398  10.970
16997SOL    HW151015   3.270   8.487  10.990
16997SOL    HW251016   3.241   8.378  10.873
16998SOL     OW51017   2.677   8.020   9.635
16998SOL    HW151018   2.684   7.931   9.589
16998SOL    HW251019   2.583   8.054   9.627
16999SOL     OW51020   3.519   8.052  10.516
16999SOL    HW151021   3.481   7.983  10.578
16999SOL    HW251022   3.601   8.016  10.472
17000SOL     OW51023   2.114   9.012  11.054
17000SOL    HW151024   2.084   9.069  11.130
17000SOL    HW251025   2.107   8.915  11.080
17001SOL     OW51026   2.533   7.912  10.579
17001SOL    HW151027   2.499   7.823  10.549
17001SOL    HW251028   2.559   7.966  10.499
17002SOL     OW51029   2.792   9.126  10.775
17002SOL    HW151030   2.768   9.108  10.680
17002SOL    HW251031   2.822   9.220  10.785
17003SOL     OW51032   2.335   7.948   9.501
17003SOL    HW151033   2.396   8.028   9.505
17003SOL    HW251034   2.240   7.979   9.508
17004SOL     OW51035   2.021   8.585  10.776
17004SOL    HW151036   2.043   8.524  10.852
17004SOL    HW251037   2.031   8.536  10.690
17005SOL     OW51038   3.209   8.507  10.544
17005SOL    HW151039   3.233   8.444  10.470
17005SOL    HW251040   3.119   8.547  10.526
17006SOL     OW51041   3.164   8.303   9.619
17006SOL    HW151042   3.078   8.272   9.661
17006SOL    HW251043   3.160   8.289   9.520
17007SOL     OW51044   3.621   9.195  10.464
17007SOL    HW151045   3.682   9.225  10.391
17007SOL    HW251046   3.583   9.106  10.442
17008SOL     OW51047   3.114   9.179  10.438
17008SOL    HW151048   3.198   9.184  10.384
17008SOL    HW251049   3.091   9.083  10.456
17009SOL     OW51050   1.945   8.706  10.332
17009SOL    HW151051   1.940   8.705  10.432
17009SOL    HW251052   1.862   8.665  10.294
17010SOL     OW51053   2.550   9.110  11.026
17010SOL    HW151054   2.494   9.191  11.035
17010SOL    HW251055   2.602   9.114  10.940
17011SOL     OW51056   3.588   7.583   9.833
17011SOL    HW151057   3.661   7.566   9.766
17011SOL    HW251058   3.557   7.496   9.871
17012SOL     OW51059   3.250   9.021   9.787
17012SOL    HW151060   3.317   9.033   9.713
17012SOL    HW251061   3.210   9.110   9.810
17013SOL     OW51062   1.992   9.242  11.161
17013SOL    HW151063   1.951   9.168  11.214
17013SOL    HW251064   2.056   9.293  11.219
17014SOL     OW51065   3.142   8.375   9.982
17014SOL    HW151066   3.202   8.294   9.984
17014SOL    HW251067   3.182   8.444   9.922
17015SOL     OW51068   2.692   8.721  10.732
17015SOL    HW151069   2.687   8.754  10.827
17015SOL    HW251070   2.606   8.740  10.686
17016SOL     OW51071   2.534   9.064   9.464
17016SOL    HW151072   2.543   9.074   9.365
17016SOL    HW251073   2.494   8.975   9.485
17017SOL     OW51074   3.512   9.168  10.704
17017SOL    HW151075   3.565   9.178  10.620
17017SOL    HW251076   3.485   9.258  10.738
17018SOL     OW51077   3.703   7.623  10.273
17018SOL    HW151078   3.742   7.538  10.237
17018SOL    HW251079   3.605   7.625  10.254
17019SOL     OW51080   2.125   7.774  10.030
17019SOL    HW151081   2.046   7.825   9.996
17019SOL    HW251082   2.116   7.759  10.128
17020SOL     OW51083   3.056   9.060   9.341
17020SOL    HW151084   3.062   8.967   9.378
17020SOL    HW251085   2.997   9.060   9.261
17021SOL     OW51086   2.684   8.450  10.682
17021SOL    HW151087   2.724   8.449  10.590
17021SOL    HW251088   2.694   8.542  10.722
17022SOL     OW51089   2.778   8.358   9.601
17022SOL    HW151090   2.841   8.396   9.533
17022SOL    HW251091   2.818   8.275   9.640
17023SOL     OW51092   3.366   9.055   9.354
17023SOL    HW151093   3.274   9.092   9.361
17023SOL    HW251094   3.404   9.075   9.264
17024SOL     OW51095   2.234   8.736  10.800
17024SOL    HW151096   2.221   8.829  10.766
17024SOL    HW251097   2.150   8.684  10.787
17025SOL     OW51098   3.476   8.740  10.599
17025SOL    HW151099   3.536   8.743  10.679
17025SOL    HW251100   3.401   8.804  10.612
17026SOL     OW51101   2.901   8.546  10.006
17026SOL    HW151102   2.831   8.499  10.060
17026SOL    HW251103   2.960   8.478   9.963
17027SOL     OW51104   2.876   7.684  10.281
17027SOL    HW151105   2.868   7.648  10.188
17027SOL    HW251106   2.874   7.608  10.346
17028SOL     OW51107   2.452   8.935   9.801
17028SOL    HW151108   2.494   8.877   9.731
17028SOL    HW251109   2.408   9.014   9.757
17029SOL     OW51110   3.571   7.833  10.691
17029SOL    HW151111   3.644   7.902  10.695
17029SOL    HW251112   3.599   7.758  10.632
17030SOL     OW51113   2.117   8.796   9.600
17030SOL    HW151114   2.021   8.797   9.573
17030SOL    HW251115   2.129   8.849   9.684
17031SOL     OW51116   1.967   8.461  11.036
17031SOL    HW151117   1.890   8.428  11.090
17031SOL    HW251118   2.052   8.431  11.078
17032SOL     OW51119   2.534   7.651  10.799
17032SOL    HW151120   2.624   7.635  10.759
17032SOL    HW251121   2.542   7.656  10.898
17033SOL     OW51122   1.937   7.793   9.343
17033SOL    HW151123   1.845   7.765   9.314
17033SOL    HW251124   1.968   7.870   9.287
17034SOL     OW51125   3.302   8.304  10.708
17034SOL    HW151126   3.245   8.356  10.645
17034SOL    HW251127   3.398   8.316  10.684
17035SOL     OW51128   1.934   7.614   9.628
17035SOL    HW151129   1.917   7.697   9.574
17035SOL    HW251130   2.024   7.577   9.606
17036SOL     OW51131   3.045   8.783   9.429
17036SOL    HW151132   2.946   8.772   9.431
17036SOL    HW251133   3.079   8.798   9.522
17037SOL     OW51134   2.475   8.290  10.741
17037SOL    HW151135   2.531   8.371  10.724
17037SOL    HW251136   2.534   8.210  10.744
17038SOL     OW51137   3.355   9.215  10.269
17038SOL    HW151138   3.388   9.279  10.200
17038SOL    HW251139   3.421   9.209  10.344
17039SOL     OW51140   2.578   8.013  11.018
17039SOL    HW151141   2.597   8.078  11.092
17039SOL    HW251142   2.638   7.933  11.027
17040SOL     OW51143   3.312   8.668  10.943
17040SOL    HW151144   3.303   8.658  11.042
17040SOL    HW251145   3.408   8.661  10.917
17041SOL     OW51146   2.252   9.189  10.870
17041SOL    HW151147   2.161   9.230  10.868
17041SOL    HW251148   2.245   9.095  10.902
17042SOL     OW51149   3.536   8.331  10.564
17042SOL    HW151150   3.509   8.242  10.527
17042SOL    HW251151   3.537   8.399  10.491
17043SOL     OW51152   3.087   7.773   9.759
17043SOL    HW151153   3.152   7.699   9.748
17043SOL    HW251154   3.107   7.823   9.843
17044SOL     OW51155   2.456   8.193   9.962
17044SOL    HW151156   2.506   8.278   9.943
17044SOL    HW251157   2.368   8.195   9.914
17045SOL     OW51158   3.639   7.790  10.952
17045SOL    HW151159   3.622   7.821  10.858
17045SOL    HW251160   3.555   7.753  10.990
17046SOL     OW51161   3.592   8.382  10.827
17046SOL    HW151162   3.630   8.473  10.842
17046SOL    HW251163   3.584   8.365  10.728
17047SOL     OW51164   2.721   8.822   9.326
17047SOL    HW151165   2.675   8.837   9.414
17047SOL    HW251166   2.765   8.907   9.296
17048SOL     OW51167   2.523   9.238  10.263
17048SOL    HW151168   2.477   9.326  10.250
17048SOL    HW251169   2.622   9.250  10.256
17049SOL     OW51170   2.721   8.404  10.171
17049SOL    HW151171   2.775   8.335  10.219
17049SOL    HW251172   2.689   8.473  10.237
17050SOL     OW51173   2.945   8.432   9.397
17050SOL    HW151174   2.922   8.485   9.315
17050SOL    HW251175   3.026   8.376   9.378
17051SOL     OW51176   3.723   9.017  10.161
17051SOL    HW151177   3.652   9.005  10.091
17051SOL    HW251178   3.724   8.938  10.221
17052SOL     OW51179   2.083   8.762  11.154
17052SOL    HW151180   2.018   8.689  11.133
17052SOL    HW251181   2.087   8.776  11.252
17053SOL     OW51182   1.941   8.688   9.963
17053SOL    HW151183   1.940   8.641  10.051
17053SOL    HW251184   2.023   8.660   9.912
17054SOL     OW51185   2.534   8.839  10.934
17054SOL    HW151186   2.456   8.789  10.972
17054SOL    HW251187   2.531   8.934  10.965
17055SOL     OW51188   3.686   7.640  10.537
17055SOL    HW151189   3.682   7.550  10.581
17055SOL    HW251190   3.689   7.629  10.438
17056SOL     OW51191   2.290   7.872   9.830
17056SOL    HW151192   2.320   7.800   9.768
17056SOL    HW251193   2.251   7.832   9.913
17057SOL     OW51194   3.567   8.935  10.414
17057SOL    HW151195   3.474   8.910  10.387
17057SOL    HW251196   3.593   8.885  10.496
17058SOL     OW51197   2.179   7.995  10.590
17058SOL    HW151198   2.217   7.936  10.662
17058SOL    HW251199   2.219   7.969  10.502
17059SOL     OW51200   2.674   9.034   9.997
17059SOL    HW151201   2.706   9.044   9.903
17059SOL    HW251202   2.595   8.972   9.999
17060SOL     OW51203   3.286   7.662  10.422
17060SOL    HW151204   3.338   7.597  10.477
17060SOL    HW251205   3.237   7.725  10.483
17061SOL     OW51206   2.863   7.482  10.464
17061SOL    HW151207   2.800   7.410  10.433
17061SOL    HW251208   2.956   7.446  10.464
17062SOL     OW51209   2.632   8.778   9.611
17062SOL    HW151210   2.586   8.691   9.628
17062SOL    HW251211   2.723   8.775   9.652
17063SOL     OW51212   2.480   9.015  10.594
17063SOL    HW151213   2.475   9.097  10.651
17063SOL    HW251214   2.569   9.012  10.549
17064SOL     OW51215   3.214   7.500   9.478
17064SOL    HW151216   3.249   7.459   9.394
17064SOL    HW251217   3.124   7.462   9.498
17065SOL     OW51218   3.162   7.901  10.001
17065SOL    HW151219   3.103   7.981  10.005
17065SOL    HW251220   3.177   7.866  10.094
17066SOL     OW51221   3.455   7.669  10.192
17066SOL    HW151222   3.371   7.668  10.246
17066SOL    HW251223   3.457   7.752  10.136
17067SOL     OW51224   1.901   8.525   9.610
17067SOL    HW151225   2.000   8.514   9.601
17067SOL    HW251226   1.861   8.439   9.642
17068SOL     OW51227   2.737   9.094   9.647
17068SOL    HW151228   2.660   9.059   9.593
17068SOL    HW251229   2.705   9.165   9.709
17069SOL     OW51230   2.092   8.076  11.285
17069SOL    HW151231   1.999   8.074  11.322
17069SOL    HW251232   2.093   8.037  11.193
17070SOL     OW51233   2.087   7.723  12.168
17070SOL    HW151234   2.122   7.706  12.260
17070SOL    HW251235   1.999   7.678  12.156
17071SOL     OW51236   1.881   7.816  11.819
17071SOL    HW151237   1.799   7.859  11.858
17071SOL    HW251238   1.853   7.743  11.756
17072SOL     OW51239   2.431   8.723  12.337
17072SOL    HW151240   2.338   8.716  12.300
17072SOL    HW251241   2.442   8.812  12.381
17073SOL     OW51242   3.417   8.959  11.875
17073SOL    HW151243   3.360   8.943  11.956
17073SOL    HW251244   3.358   8.969  11.795
17074SOL     OW51245   2.997   8.151  11.889
17074SOL    HW151246   3.054   8.229  11.864
17074SOL    HW251247   2.937   8.177  11.965
17075SOL     OW51248   3.617   8.055  11.403
17075SOL    HW151249   3.605   8.042  11.304
17075SOL    HW251250   3.587   7.974  11.452
17076SOL     OW51251   2.630   8.592  12.195
17076SOL    HW151252   2.552   8.609  12.255
17076SOL    HW251253   2.664   8.679  12.159
17077SOL     OW51254   2.547   8.460  11.837
17077SOL    HW151255   2.616   8.444  11.907
17077SOL    HW251256   2.474   8.517  11.875
17078SOL     OW51257   2.197   8.883  12.233
17078SOL    HW151258   2.119   8.852  12.180
17078SOL    HW251259   2.255   8.941  12.176
17079SOL     OW51260   3.322   8.953  12.511
17079SOL    HW151261   3.346   9.047  12.537
17079SOL    HW251262   3.306   8.899  12.593
17080SOL     OW51263   2.300   7.840  12.671
17080SOL    HW151264   2.382   7.784  12.680
17080SOL    HW251265   2.219   7.782  12.675
17081SOL     OW51266   3.465   7.895  11.909
17081SOL    HW151267   3.391   7.941  11.859
17081SOL    HW251268   3.516   7.963  11.962
17082SOL     OW51269   2.093   9.161  11.655
17082SOL    HW151270   2.127   9.238  11.709
17082SOL    HW251271   2.137   9.161  11.565
17083SOL     OW51272   2.092   8.882  11.710
17083SOL    HW151273   2.066   8.978  11.710
17083SOL    HW251274   2.021   8.828  11.755
17084SOL     OW51275   2.102   8.539  12.058
17084SOL    HW151276   2.116   8.455  12.110
17084SOL    HW251277   2.047   8.603  12.113
17085SOL     OW51278   2.482   9.234  12.611
17085SOL    HW151279   2.390   9.217  12.646
17085SOL    HW251280   2.510   9.326  12.637
17086SOL     OW51281   2.468   8.412  11.295
17086SOL    HW151282   2.475   8.496  11.241
17086SOL    HW251283   2.514   8.425  11.383
17087SOL     OW51284   3.456   7.562  12.652
17087SOL    HW151285   3.438   7.629  12.580
17087SOL    HW251286   3.453   7.608  12.741
17088SOL     OW51287   1.984   8.091  11.735
17088SOL    HW151288   1.939   8.003  11.752
17088SOL    HW251289   1.983   8.145  11.819
17089SOL     OW51290   3.704   9.215  11.531
17089SOL    HW151291   3.758   9.186  11.611
17089SOL    HW251292   3.734   9.305  11.502
17090SOL     OW51293   1.889   9.044  11.289
17090SOL    HW151294   1.870   8.948  11.310
17090SOL    HW251295   1.856   9.102  11.364
17091SOL     OW51296   3.551   8.370  11.784
17091SOL    HW151297   3.646   8.341  11.792
17091SOL    HW251298   3.543   8.435  11.709
17092SOL     OW51299   3.503   8.556  11.604
17092SOL    HW151300   3.589   8.558  11.552
17092SOL    HW251301   3.517   8.603  11.692
17093SOL     OW51302   1.975   8.185  12.769
17093SOL    HW151303   2.063   8.172  12.814
17093SOL    HW251304   1.962   8.282  12.747
17094SOL     OW51305   2.475   8.813  11.898
17094SOL    HW151306   2.426   8.726  11.907
17094SOL    HW251307   2.452   8.856  11.811
17095SOL     OW51308   3.155   8.676  12.595
17095SOL    HW151309   3.192   8.603  12.537
17095SOL    HW251310   3.207   8.681  12.680
17096SOL     OW51311   2.671   7.452  11.674
17096SOL    HW151312   2.711   7.543  11.665
17096SOL    HW251313   2.571   7.460  11.680
17097SOL     OW51314   2.059   8.424  12.436
17097SOL    HW151315   2.148   8.379  12.422
17097SOL    HW251316   1.986   8.359  12.417
17098SOL     OW51317   3.387   8.447  11.362
17098SOL    HW151318   3.324   8.371  11.375
17098SOL    HW251319   3.435   8.465  11.448
17099SOL     OW51320   3.328   8.865  12.125
17099SOL    HW151321   3.269   8.871  12.205
17099SOL    HW251322   3.313   8.777  12.079
17100SOL     OW51323   3.529   9.162  11.744
17100SOL    HW151324   3.488   9.139  11.656
17100SOL    HW251325   3.511   9.088  11.809
17101SOL     OW51326   2.460   8.177  11.442
17101SOL    HW151327   2.484   8.246  11.374
17101SOL    HW251328   2.382   8.210  11.496
17102SOL     OW51329   3.143   7.793  12.116
17102SOL    HW151330   3.057   7.743  12.103
17102SOL    HW251331   3.205   7.739  12.172
17103SOL     OW51332   3.438   9.110  11.479
17103SOL    HW151333   3.527   9.156  11.482
17103SOL    HW251334   3.417   9.086  11.384
17104SOL     OW51335   2.669   8.053  12.637
17104SOL    HW151336   2.622   8.050  12.726
17104SOL    HW251337   2.618   7.998  12.571
17105SOL     OW51338   2.835   8.338  12.744
17105SOL    HW151339   2.881   8.254  12.715
17105SOL    HW251340   2.779   8.372  12.669
17106SOL     OW51341   2.853   7.858  12.414
17106SOL    HW151342   2.776   7.892  12.468
17106SOL    HW251343   2.819   7.807  12.335
17107SOL     OW51344   2.903   8.149  11.601
17107SOL    HW151345   2.929   8.145  11.697
17107SOL    HW251346   2.818   8.098  11.587
17108SOL     OW51347   1.938   8.259  11.961
17108SOL    HW151348   2.037   8.247  11.970
17108SOL    HW251349   1.914   8.354  11.982
17109SOL     OW51350   1.992   9.269  12.743
17109SOL    HW151351   1.982   9.254  12.842
17109SOL    HW251352   1.906   9.305  12.707
17110SOL     OW51353   2.727   7.796  11.367
17110SOL    HW151354   2.786   7.859  11.318
17110SOL    HW251355   2.746   7.702  11.338
17111SOL     OW51356   3.224   8.592  11.717
17111SOL    HW151357   3.307   8.563  11.669
17111SOL    HW251358   3.175   8.659  11.661
17112SOL     OW51359   2.412   7.644  12.057
17112SOL    HW151360   2.407   7.639  12.157
17112SOL    HW251361   2.414   7.740  12.028
17113SOL     OW51362   2.870   8.904  11.649
17113SOL    HW151363   2.824   8.976  11.597
17113SOL    HW251364   2.866   8.924  11.747
17114SOL     OW51365   2.213   9.249  12.025
17114SOL    HW151366   2.263   9.163  12.031
17114SOL    HW251367   2.278   9.326  12.022
17115SOL     OW51368   3.657   8.514  12.045
17115SOL    HW151369   3.595   8.499  11.969
17115SOL    HW251370   3.605   8.525  12.130
17116SOL     OW51371   3.089   8.998  12.678
17116SOL    HW151372   3.095   8.921  12.742
17116SOL    HW251373   3.037   8.972  12.598
17117SOL     OW51374   2.183   8.391  11.414
17117SOL    HW151375   2.265   8.430  11.372
17117SOL    HW251376   2.156   8.309  11.365
17118SOL     OW51377   3.320   8.183  11.900
17118SOL    HW151378   3.315   8.118  11.975
17118SOL    HW251379   3.400   8.242  11.913
17119SOL     OW51380   2.973   9.224  11.409
17119SOL    HW151381   2.913   9.162  11.459
17119SOL    HW251382   3.004   9.180  11.324
17120SOL     OW51383   2.064   7.733  12.670
17120SOL    HW151384   1.984   7.793  12.657
17120SOL    HW251385   2.054   7.684  12.756
17121SOL     OW51386   3.494   8.825  11.253
17121SOL    HW151387   3.462   8.919  11.243
17121SOL    HW251388   3.418   8.762  11.241
17122SOL     OW51389   2.326   9.191  11.495
17122SOL    HW151390   2.359   9.230  11.581
17122SOL    HW251391   2.402   9.184  11.430
17123SOL     OW51392   3.262   7.555  11.598
17123SOL    HW151393   3.238   7.518  11.508
17123SOL    HW251394   3.361   7.571  11.602
17124SOL     OW51395   2.111   9.233  12.413
17124SOL    HW151396   2.168   9.168  12.463
17124SOL    HW251397   2.095   9.200  12.320
17125SOL     OW51398   2.802   9.146  12.076
17125SOL    HW151399   2.882   9.089  12.097
17125SOL    HW251400   2.753   9.106  11.999
17126SOL     OW51401   2.244   8.148  11.652
17126SOL    HW151402   2.289   8.058  11.649
17126SOL    HW251403   2.150   8.137  11.685
17127SOL     OW51404   2.476   7.570  11.289
17127SOL    HW151405   2.574   7.548  11.296
17127SOL    HW251406   2.445   7.553  11.196
17128SOL     OW51407   2.750   8.962  12.367
17128SOL    HW151408   2.727   8.937  12.273
17128SOL    HW251409   2.811   8.893  12.406
17129SOL     OW51410   3.213   8.038  12.605
17129SOL    HW151411   3.241   7.995  12.690
17129SOL    HW251412   3.238   8.134  12.606
17130SOL     OW51413   2.665   8.850  12.096
17130SOL    HW151414   2.755   8.864  12.054
17130SOL    HW251415   2.594   8.852  12.025
17131SOL     OW51416   2.784   7.951  12.071
17131SOL    HW151417   2.759   7.942  11.975
17131SOL    HW251418   2.832   7.869  12.102
17132SOL     OW51419   2.401   7.512  11.684
17132SOL    HW151420   2.320   7.513  11.742
17132SOL    HW251421   2.404   7.595  11.629
17133SOL     OW51422   3.296   8.636  11.213
17133SOL    HW151423   3.328   8.560  11.270
17133SOL    HW251424   3.204   8.663  11.243
17134SOL     OW51425   2.159   7.483  11.343
17134SOL    HW151426   2.208   7.567  11.322
17134SOL    HW251427   2.221   7.418  11.388
17135SOL     OW51428   2.797   7.684  11.652
17135SOL    HW151429   2.749   7.725  11.574
17135SOL    HW251430   2.896   7.682  11.633
17136SOL     OW51431   2.938   8.131  12.636
17136SOL    HW151432   2.858   8.070  12.639
17136SOL    HW251433   3.019   8.078  12.612
17137SOL     OW51434   3.089   9.018  11.965
17137SOL    HW151435   3.110   9.092  11.900
17137SOL    HW251436   3.157   9.018  12.038
17138SOL     OW51437   2.321   8.600  11.913
17138SOL    HW151438   2.250   8.573  11.978
17138SOL    HW251439   2.295   8.572  11.820
17139SOL     OW51440   3.133   9.245  11.763
17139SOL    HW151441   3.177   9.309  11.699
17139SOL    HW251442   3.083   9.297  11.833
17140SOL     OW51443   2.894   7.997  11.188
17140SOL    HW151444   2.853   8.079  11.149
17140SOL    HW251445   2.958   8.023  11.261
17141SOL     OW51446   1.940   8.004  12.558
17141SOL    HW151447   2.032   8.003  12.517
17141SOL    HW251448   1.934   8.078  12.625
17142SOL     OW51449   2.423   7.670  12.319
17142SOL    HW151450   2.461   7.586  12.356
17142SOL    HW251451   2.335   7.689  12.363
17143SOL     OW51452   2.728   7.902  11.814
17143SOL    HW151453   2.696   7.974  11.752
17143SOL    HW251454   2.752   7.821  11.761
17144SOL     OW51455   2.879   7.487  11.925
17144SOL    HW151456   2.807   7.492  11.856
17144SOL    HW251457   2.855   7.418  11.994
17145SOL     OW51458   3.291   8.621  12.039
17145SOL    HW151459   3.236   8.537  12.032
17145SOL    HW251460   3.317   8.650  11.947
17146SOL     OW51461   3.328   8.038  12.164
17146SOL    HW151462   3.298   7.943  12.171
17146SOL    HW251463   3.401   8.054  12.230
17147SOL     OW51464   3.719   8.281  11.549
17147SOL    HW151465   3.761   8.217  11.613
17147SOL    HW251466   3.681   8.230  11.471
17148SOL     OW51467   2.350   8.833  11.346
17148SOL    HW151468   2.263   8.818  11.393
17148SOL    HW251469   2.333   8.859  11.251
17149SOL     OW51470   3.526   8.728  11.829
17149SOL    HW151471   3.625   8.736  11.843
17149SOL    HW251472   3.481   8.812  11.860
17150SOL     OW51473   3.252   8.023  11.250
17150SOL    HW151474   3.198   8.002  11.331
17150SOL    HW251475   3.343   7.982  11.259
17151SOL     OW51476   2.389   7.704  11.500
17151SOL    HW151477   2.416   7.645  11.425
17151SOL    HW251478   2.389   7.799  11.469
17152SOL     OW51479   3.616   8.671  12.760
17152SOL    HW151480   3.707   8.632  12.747
17152SOL    HW251481   3.624   8.767  12.784
17153SOL     OW51482   2.926   8.795  12.512
17153SOL    HW151483   2.846   8.772  12.567
17153SOL    HW251484   3.009   8.769  12.561
17154SOL     OW51485   2.973   8.643  12.272
17154SOL    HW151486   2.933   8.687  12.353
17154SOL    HW251487   2.932   8.680  12.189
17155SOL     OW51488   3.500   8.547  12.251
17155SOL    HW151489   3.505   8.628  12.310
17155SOL    HW251490   3.414   8.549  12.200
17156SOL     OW51491   2.777   7.537  12.574
17156SOL    HW151492   2.802   7.517  12.479
17156SOL    HW251493   2.849   7.593  12.616
17157SOL     OW51494   2.567   8.498  11.540
17157SOL    HW151495   2.553   8.505  11.639
17157SOL    HW251496   2.651   8.447  11.522
17158SOL     OW51497   2.272   8.261  12.423
17158SOL    HW151498   2.358   8.273  12.473
17158SOL    HW251499   2.230   8.174  12.450
17159SOL     OW51500   3.136   7.834  12.434
17159SOL    HW151501   3.157   7.908  12.498
17159SOL    HW251502   3.047   7.851  12.391
17160SOL     OW51503   1.926   9.012  12.503
17160SOL    HW151504   1.880   9.094  12.469
17160SOL    HW251505   2.024   9.031  12.512
17161SOL     OW51506   2.229   8.548  11.673
17161SOL    HW151507   2.222   8.631  11.617
17161SOL    HW251508   2.233   8.468  11.613
17162SOL     OW51509   2.428   7.985  12.037
17162SOL    HW151510   2.440   8.051  11.963
17162SOL    HW251511   2.474   8.019  12.120
17163SOL     OW51512   3.114   8.796  11.560
17163SOL    HW151513   3.164   8.873  11.600
17163SOL    HW251514   3.019   8.798  11.592
17164SOL     OW51515   3.134   8.893  12.314
17164SOL    HW151516   3.181   8.906  12.401
17164SOL    HW251517   3.068   8.819  12.323
17165SOL     OW51518   3.444   8.087  11.644
17165SOL    HW151519   3.413   8.148  11.717
17165SOL    HW251520   3.494   8.139  11.575
17166SOL     OW51521   2.216   8.958  12.501
17166SOL    HW151522   2.195   8.914  12.414
17166SOL    HW251523   2.313   8.984  12.504
17167SOL     OW51524   2.264   8.199  12.770
17167SOL    HW151525   2.332   8.254  12.723
17167SOL    HW251526   2.304   8.111  12.797
17168SOL     OW51527   3.449   8.227  12.842
17168SOL    HW151528   3.357   8.265  12.837
17168SOL    HW251529   3.509   8.274  12.777
17169SOL     OW51530   2.435   8.318  12.201
17169SOL    HW151531   2.479   8.407  12.192
17169SOL    HW251532   2.372   8.318  12.278
17170SOL     OW51533   3.222   8.310  12.217
17170SOL    HW151534   3.147   8.310  12.151
17170SOL    HW251535   3.259   8.218  12.226
17171SOL     OW51536   3.071   7.973  11.447
17171SOL    HW151537   3.084   7.889  11.501
17171SOL    HW251538   3.042   8.047  11.507
17172SOL     OW51539   2.169   7.661  12.403
17172SOL    HW151540   2.146   7.698  12.493
17172SOL    HW251541   2.139   7.566  12.397
17173SOL     OW51542   1.899   8.758  12.454
17173SOL    HW151543   1.952   8.709  12.522
17173SOL    HW251544   1.921   8.856  12.459
17174SOL     OW51545   2.594   8.082  12.236
17174SOL    HW151546   2.653   8.056  12.160
17174SOL    HW251547   2.566   8.178  12.225
17175SOL     OW51548   2.169   7.511  11.790
17175SOL    HW151549   2.158   7.605  11.823
17175SOL    HW251550   2.164   7.448  11.867
17176SOL     OW51551   3.484   7.815  11.546
17176SOL    HW151552   3.486   7.739  11.610
17176SOL    HW251553   3.436   7.892  11.586
17177SOL     OW51554   2.885   8.214  12.138
17177SOL    HW151555   2.900   8.235  12.234
17177SOL    HW251556   2.855   8.119  12.129
17178SOL     OW51557   3.402   7.722  11.297
17178SOL    HW151558   3.341   7.647  11.320
17178SOL    HW251559   3.424   7.774  11.380
17179SOL     OW51560   3.165   8.286  11.214
17179SOL    HW151561   3.199   8.193  11.229
17179SOL    HW251562   3.183   8.313  11.119
17180SOL     OW51563   2.930   8.781  12.021
17180SOL    HW151564   2.937   8.697  11.966
17180SOL    HW251565   2.992   8.850  11.985
17181SOL     OW51566   2.181   8.258  12.121
17181SOL    HW151567   2.274   8.294  12.126
17181SOL    HW251568   2.175   8.173  12.173
17182SOL     OW51569   2.201   7.957  12.178
17182SOL    HW151570   2.149   7.874  12.161
17182SOL    HW251571   2.278   7.962  12.114
17183SOL     OW51572   1.870   8.774  11.372
17183SOL    HW151573   1.777   8.795  11.341
17183SOL    HW251574   1.880   8.675  11.385
17184SOL     OW51575   1.950   9.249  12.099
17184SOL    HW151576   1.908   9.163  12.072
17184SOL    HW251577   2.044   9.252  12.065
17185SOL     OW51578   2.366   9.016  12.082
17185SOL    HW151579   2.432   9.090  12.091
17185SOL    HW251580   2.410   8.937  12.040
17186SOL     OW51581   2.864   8.244  12.410
17186SOL    HW151582   2.905   8.212  12.496
17186SOL    HW251583   2.768   8.217  12.407
17187SOL     OW51584   1.902   7.992  12.286
17187SOL    HW151585   1.987   7.959  12.245
17187SOL    HW251586   1.915   8.007  12.384
17188SOL     OW51587   2.677   8.020  11.497
17188SOL    HW151588   2.684   7.931  11.451
17188SOL    HW251589   2.583   8.054  11.489
17189SOL     OW51590   3.519   8.052  12.378
17189SOL    HW151591   3.481   7.983  12.440
17189SOL    HW251592   3.601   8.016  12.334
17190SOL     OW51593   2.114   9.012  12.916
17190SOL    HW151594   2.084   9.069  12.992
17190SOL    HW251595   2.107   8.915  12.942
17191SOL     OW51596   2.533   7.912  12.441
17191SOL    HW151597   2.499   7.823  12.411
17191SOL    HW251598   2.559   7.966  12.361
17192SOL     OW51599   2.792   9.126  12.637
17192SOL    HW151600   2.768   9.108  12.542
17192SOL    HW251601   2.822   9.220  12.647
17193SOL     OW51602   2.335   7.948  11.363
17193SOL    HW151603   2.396   8.028  11.367
17193SOL    HW251604   2.240   7.979  11.370
17194SOL     OW51605   2.021   8.585  12.638
17194SOL    HW151606   2.043   8.524  12.714
17194SOL    HW251607   2.031   8.536  12.552
17195SOL     OW51608   3.209   8.507  12.406
17195SOL    HW151609   3.233   8.444  12.332
17195SOL    HW251610   3.119   8.547  12.388
17196SOL     OW51611   3.164   8.303  11.481
17196SOL    HW151612   3.078   8.272  11.523
17196SOL    HW251613   3.160   8.289  11.382
17197SOL     OW51614   3.621   9.195  12.326
17197SOL    HW151615   3.682   9.225  12.253
17197SOL    HW251616   3.583   9.106  12.304
17198SOL     OW51617   3.114   9.179  12.300
17198SOL    HW151618   3.198   9.184  12.246
17198SOL    HW251619   3.091   9.083  12.318
17199SOL     OW51620   1.945   8.706  12.194
17199SOL    HW151621   1.940   8.705  12.294
17199SOL    HW251622   1.862   8.665  12.156
17200SOL     OW51623   3.588   7.583  11.695
17200SOL    HW151624   3.661   7.566  11.628
17200SOL    HW251625   3.557   7.496  11.733
17201SOL     OW51626   3.250   9.021  11.649
17201SOL    HW151627   3.317   9.033  11.575
17201SOL    HW251628   3.210   9.110  11.672
17202SOL     OW51629   3.142   8.375  11.844
17202SOL    HW151630   3.202   8.294  11.846
17202SOL    HW251631   3.182   8.444  11.784
17203SOL     OW51632   2.692   8.721  12.594
17203SOL    HW151633   2.687   8.754  12.689
17203SOL    HW251634   2.606   8.740  12.548
17204SOL     OW51635   2.534   9.064  11.326
17204SOL    HW151636   2.543   9.074  11.227
17204SOL    HW251637   2.494   8.975  11.347
17205SOL     OW51638   3.512   9.168  12.566
17205SOL    HW151639   3.565   9.178  12.482
17205SOL    HW251640   3.485   9.258  12.600
17206SOL     OW51641   3.703   7.623  12.135
17206SOL    HW151642   3.742   7.538  12.099
17206SOL    HW251643   3.605   7.625  12.116
17207SOL     OW51644   2.125   7.774  11.892
17207SOL    HW151645   2.046   7.825  11.858
17207SOL    HW251646   2.116   7.759  11.990
17208SOL     OW51647   3.056   9.060  11.203
17208SOL    HW151648   3.062   8.967  11.240
17208SOL    HW251649   2.997   9.060  11.123
17209SOL     OW51650   2.684   8.450  12.544
17209SOL    HW151651   2.724   8.449  12.452
17209SOL    HW251652   2.694   8.542  12.584
17210SOL     OW51653   2.778   8.358  11.463
17210SOL    HW151654   2.841   8.396  11.395
17210SOL    HW251655   2.818   8.275  11.502
17211SOL     OW51656   3.366   9.055  11.216
17211SOL    HW151657   3.274   9.092  11.223
17211SOL    HW251658   3.404   9.075  11.126
17212SOL     OW51659   2.234   8.736  12.662
17212SOL    HW151660   2.221   8.829  12.628
17212SOL    HW251661   2.150   8.684  12.649
17213SOL     OW51662   3.476   8.740  12.461
17213SOL    HW151663   3.536   8.743  12.541
17213SOL    HW251664   3.401   8.804  12.474
17214SOL     OW51665   2.901   8.546  11.868
17214SOL    HW151666   2.831   8.499  11.922
17214SOL    HW251667   2.960   8.478  11.825
17215SOL     OW51668   2.876   7.684  12.143
17215SOL    HW151669   2.868   7.648  12.050
17215SOL    HW251670   2.874   7.608  12.208
17216SOL     OW51671   2.452   8.935  11.663
17216SOL    HW151672   2.494   8.877  11.593
17216SOL    HW251673   2.408   9.014  11.619
17217SOL     OW51674   3.571   7.833  12.553
17217SOL    HW151675   3.644   7.902  12.557
17217SOL    HW251676   3.599   7.758  12.494
17218SOL     OW51677   2.117   8.796  11.462
17218SOL    HW151678   2.021   8.797  11.435
17218SOL    HW251679   2.129   8.849  11.546
17219SOL     OW51680   1.967   8.461  12.898
17219SOL    HW151681   1.890   8.428  12.952
17219SOL    HW251682   2.052   8.431  12.940
17220SOL     OW51683   2.534   7.651  12.661
17220SOL    HW151684   2.624   7.635  12.621
17220SOL    HW251685   2.542   7.656  12.760
17221SOL     OW51686   1.937   7.793  11.205
17221SOL    HW151687   1.845   7.765  11.176
17221SOL    HW251688   1.968   7.870  11.149
17222SOL     OW51689   3.302   8.304  12.570
17222SOL    HW151690   3.245   8.356  12.507
17222SOL    HW251691   3.398   8.316  12.546
17223SOL     OW51692   1.934   7.614  11.490
17223SOL    HW151693   1.917   7.697  11.436
17223SOL    HW251694   2.024   7.577  11.468
17224SOL     OW51695   3.045   8.783  11.291
17224SOL    HW151696   2.946   8.772  11.293
17224SOL    HW251697   3.079   8.798  11.384
17225SOL     OW51698   2.475   8.290  12.603
17225SOL    HW151699   2.531   8.371  12.586
17225SOL    HW251700   2.534   8.210  12.606
17226SOL     OW51701   3.355   9.215  12.131
17226SOL    HW151702   3.388   9.279  12.062
17226SOL    HW251703   3.421   9.209  12.206
17227SOL     OW51704   2.578   8.013  12.880
17227SOL    HW151705   2.597   8.078  12.954
17227SOL    HW251706   2.638   7.933  12.889
17228SOL     OW51707   2.252   9.189  12.732
17228SOL    HW151708   2.161   9.230  12.730
17228SOL    HW251709   2.245   9.095  12.764
17229SOL     OW51710   3.536   8.331  12.426
17229SOL    HW151711   3.509   8.242  12.389
17229SOL    HW251712   3.537   8.399  12.353
17230SOL     OW51713   3.087   7.773  11.621
17230SOL    HW151714   3.152   7.699  11.610
17230SOL    HW251715   3.107   7.823  11.705
17231SOL     OW51716   2.456   8.193  11.824
17231SOL    HW151717   2.506   8.278  11.805
17231SOL    HW251718   2.368   8.195  11.776
17232SOL     OW51719   3.592   8.382  12.689
17232SOL    HW151720   3.630   8.473  12.704
17232SOL    HW251721   3.584   8.365  12.590
17233SOL     OW51722   2.721   8.822  11.188
17233SOL    HW151723   2.675   8.837  11.276
17233SOL    HW251724   2.765   8.907  11.158
17234SOL     OW51725   2.523   9.238  12.125
17234SOL    HW151726   2.477   9.326  12.112
17234SOL    HW251727   2.622   9.250  12.118
17235SOL     OW51728   2.721   8.404  12.033
17235SOL    HW151729   2.775   8.335  12.081
17235SOL    HW251730   2.689   8.473  12.099
17236SOL     OW51731   2.945   8.432  11.259
17236SOL    HW151732   2.922   8.485  11.177
17236SOL    HW251733   3.026   8.376  11.240
17237SOL     OW51734   3.723   9.017  12.023
17237SOL    HW151735   3.652   9.005  11.953
17237SOL    HW251736   3.724   8.938  12.083
17238SOL     OW51737   1.941   8.688  11.825
17238SOL    HW151738   1.940   8.641  11.913
17238SOL    HW251739   2.023   8.660  11.774
17239SOL     OW51740   2.534   8.839  12.796
17239SOL    HW151741   2.456   8.789  12.834
17239SOL    HW251742   2.531   8.934  12.827
17240SOL     OW51743   3.686   7.640  12.399
17240SOL    HW151744   3.682   7.550  12.443
17240SOL    HW251745   3.689   7.629  12.300
17241SOL     OW51746   2.290   7.872  11.692
17241SOL    HW151747   2.320   7.800  11.630
17241SOL    HW251748   2.251   7.832  11.775
17242SOL     OW51749   3.567   8.935  12.276
17242SOL    HW151750   3.474   8.910  12.249
17242SOL    HW251751   3.593   8.885  12.358
17243SOL     OW51752   2.179   7.995  12.452
17243SOL    HW151753   2.217   7.936  12.524
17243SOL    HW251754   2.219   7.969  12.364
17244SOL     OW51755   2.674   9.034  11.859
17244SOL    HW151756   2.706   9.044  11.765
17244SOL    HW251757   2.595   8.972  11.861
17245SOL     OW51758   3.286   7.662  12.284
17245SOL    HW151759   3.338   7.597  12.339
17245SOL    HW251760   3.237   7.725  12.345
17246SOL     OW51761   2.863   7.482  12.326
17246SOL    HW151762   2.800   7.410  12.295
17246SOL    HW251763   2.956   7.446  12.326
17247SOL     OW51764   2.632   8.778  11.473
17247SOL    HW151765   2.586   8.691  11.490
17247SOL    HW251766   2.723   8.775  11.514
17248SOL     OW51767   2.480   9.015  12.456
17248SOL    HW151768   2.475   9.097  12.513
17248SOL    HW251769   2.569   9.012  12.411
17249SOL     OW51770   3.214   7.500  11.340
17249SOL    HW151771   3.249   7.459  11.256
17249SOL    HW251772   3.124   7.462  11.360
17250SOL     OW51773   3.162   7.901  11.863
17250SOL    HW151774   3.103   7.981  11.867
17250SOL    HW251775   3.177   7.866  11.956
17251SOL     OW51776   3.455   7.669  12.054
17251SOL    HW151777   3.371   7.668  12.108
17251SOL    HW251778   3.457   7.752  11.998
17252SOL     OW51779   1.901   8.525  11.472
17252SOL    HW151780   2.000   8.514  11.463
17252SOL    HW251781   1.861   8.439  11.504
17253SOL     OW51782   2.737   9.094  11.509
17253SOL    HW151783   2.660   9.059  11.455
17253SOL    HW251784   2.705   9.165  11.571
17254SOL     OW51785   2.092   9.938   0.113
17254SOL    HW151786   1.999   9.936   0.150
17254SOL    HW251787   2.093   9.899   0.021
17255SOL     OW51788   2.087   9.585   0.996
17255SOL    HW151789   2.122   9.568   1.088
17255SOL    HW251790   1.999   9.540   0.984
17256SOL     OW51791   1.881   9.678   0.647
17256SOL    HW151792   1.799   9.721   0.686
17256SOL    HW251793   1.853   9.605   0.584
17257SOL     OW51794   2.431  10.585   1.165
17257SOL    HW151795   2.338  10.578   1.128
17257SOL    HW251796   2.442  10.674   1.209
17258SOL     OW51797   3.417  10.821   0.703
17258SOL    HW151798   3.360  10.805   0.784
17258SOL    HW251799   3.358  10.831   0.623
17259SOL     OW51800   2.997  10.013   0.717
17259SOL    HW151801   3.054  10.091   0.692
17259SOL    HW251802   2.937  10.039   0.793
17260SOL     OW51803   3.617   9.917   0.231
17260SOL    HW151804   3.605   9.904   0.132
17260SOL    HW251805   3.587   9.836   0.280
17261SOL     OW51806   2.630  10.454   1.023
17261SOL    HW151807   2.552  10.471   1.083
17261SOL    HW251808   2.664  10.541   0.987
17262SOL     OW51809   2.712  10.108   1.823
17262SOL    HW151810   2.708  10.184   1.888
17262SOL    HW251811   2.734  10.144   1.732
17263SOL     OW51812   2.547  10.322   0.665
17263SOL    HW151813   2.616  10.306   0.735
17263SOL    HW251814   2.474  10.379   0.703
17264SOL     OW51815   2.548  10.471   1.803
17264SOL    HW151816   2.608  10.550   1.817
17264SOL    HW251817   2.462  10.502   1.762
17265SOL     OW51818   2.197  10.745   1.061
17265SOL    HW151819   2.119  10.714   1.008
17265SOL    HW251820   2.255  10.803   1.004
17266SOL     OW51821   3.322  10.815   1.339
17266SOL    HW151822   3.346  10.909   1.365
17266SOL    HW251823   3.306  10.761   1.421
17267SOL     OW51824   2.300   9.702   1.499
17267SOL    HW151825   2.382   9.646   1.508
17267SOL    HW251826   2.219   9.644   1.503
17268SOL     OW51827   3.465   9.757   0.737
17268SOL    HW151828   3.391   9.803   0.687
17268SOL    HW251829   3.516   9.825   0.790
17269SOL     OW51830   2.093  11.023   0.483
17269SOL    HW151831   2.127  11.100   0.537
17269SOL    HW251832   2.137  11.023   0.393
17270SOL     OW51833   2.989  10.651   1.690
17270SOL    HW151834   3.036  10.651   1.778
17270SOL    HW251835   2.941  10.564   1.679
17271SOL     OW51836   2.092  10.744   0.538
17271SOL    HW151837   2.066  10.840   0.538
17271SOL    HW251838   2.021  10.690   0.583
17272SOL     OW51839   2.102  10.401   0.886
17272SOL    HW151840   2.116  10.317   0.938
17272SOL    HW251841   2.047  10.465   0.941
17273SOL     OW51842   2.482  11.096   1.439
17273SOL    HW151843   2.390  11.079   1.474
17273SOL    HW251844   2.510  11.188   1.465
17274SOL     OW51845   2.468  10.274   0.123
17274SOL    HW151846   2.475  10.358   0.069
17274SOL    HW251847   2.514  10.287   0.211
17275SOL     OW51848   3.456   9.424   1.480
17275SOL    HW151849   3.438   9.491   1.408
17275SOL    HW251850   3.453   9.470   1.569
17276SOL     OW51851   1.984   9.953   0.563
17276SOL    HW151852   1.939   9.865   0.580
17276SOL    HW251853   1.983  10.007   0.647
17277SOL     OW51854   3.704  11.077   0.359
17277SOL    HW151855   3.758  11.048   0.439
17277SOL    HW251856   3.734  11.167   0.330
17278SOL     OW51857   1.889  10.906   0.117
17278SOL    HW151858   1.870  10.810   0.138
17278SOL    HW251859   1.856  10.964   0.192
17279SOL     OW51860   3.551  10.232   0.612
17279SOL    HW151861   3.646  10.203   0.620
17279SOL    HW251862   3.543  10.297   0.537
17280SOL     OW51863   3.503  10.418   0.432
17280SOL    HW151864   3.589  10.420   0.380
17280SOL    HW251865   3.517  10.465   0.520
17281SOL     OW51866   1.975  10.047   1.597
17281SOL    HW151867   2.063  10.034   1.642
17281SOL    HW251868   1.962  10.144   1.575
17282SOL     OW51869   2.475  10.675   0.726
17282SOL    HW151870   2.426  10.588   0.735
17282SOL    HW251871   2.452  10.718   0.639
17283SOL     OW51872   3.155  10.538   1.423
17283SOL    HW151873   3.192  10.465   1.365
17283SOL    HW251874   3.207  10.543   1.508
17284SOL     OW51875   2.671   9.314   0.502
17284SOL    HW151876   2.711   9.405   0.493
17284SOL    HW251877   2.571   9.322   0.508
17285SOL     OW51878   2.059  10.286   1.264
17285SOL    HW151879   2.148  10.241   1.250
17285SOL    HW251880   1.986  10.221   1.245
17286SOL     OW51881   3.387  10.309   0.190
17286SOL    HW151882   3.324  10.233   0.203
17286SOL    HW251883   3.435  10.327   0.276
17287SOL     OW51884   3.049  11.102   1.616
17287SOL    HW151885   3.073  11.162   1.540
17287SOL    HW251886   3.056  11.007   1.586
17288SOL     OW51887   2.179   9.561   1.801
17288SOL    HW151888   2.250   9.632   1.807
17288SOL    HW251889   2.091   9.600   1.829
17289SOL     OW51890   3.328  10.727   0.953
17289SOL    HW151891   3.269  10.733   1.033
17289SOL    HW251892   3.313  10.639   0.907
17290SOL     OW51893   3.529  11.024   0.572
17290SOL    HW151894   3.488  11.001   0.484
17290SOL    HW251895   3.511  10.950   0.637
17291SOL     OW51896   2.460  10.039   0.270
17291SOL    HW151897   2.484  10.108   0.202
17291SOL    HW251898   2.382  10.072   0.324
17292SOL     OW51899   3.143   9.655   0.944
17292SOL    HW151900   3.057   9.605   0.931
17292SOL    HW251901   3.205   9.601   1.000
17293SOL     OW51902   3.438  10.972   0.307
17293SOL    HW151903   3.527  11.018   0.310
17293SOL    HW251904   3.417  10.948   0.212
17294SOL     OW51905   2.669   9.915   1.465
17294SOL    HW151906   2.622   9.912   1.554
17294SOL    HW251907   2.618   9.860   1.399
17295SOL     OW51908   3.256   9.779   1.674
17295SOL    HW151909   3.236   9.822   1.762
17295SOL    HW251910   3.334   9.717   1.683
17296SOL     OW51911   2.835  10.200   1.572
17296SOL    HW151912   2.881  10.116   1.543
17296SOL    HW251913   2.779  10.234   1.497
17297SOL     OW51914   2.853   9.720   1.242
17297SOL    HW151915   2.776   9.754   1.296
17297SOL    HW251916   2.819   9.669   1.163
17298SOL     OW51917   2.903  10.011   0.429
17298SOL    HW151918   2.929  10.007   0.525
17298SOL    HW251919   2.818   9.960   0.415
17299SOL     OW51920   1.938  10.121   0.789
17299SOL    HW151921   2.037  10.109   0.798
17299SOL    HW251922   1.914  10.216   0.810
17300SOL     OW51923   1.992  11.131   1.571
17300SOL    HW151924   1.982  11.116   1.670
17300SOL    HW251925   1.906  11.167   1.535
17301SOL     OW51926   2.727   9.658   0.195
17301SOL    HW151927   2.786   9.721   0.146
17301SOL    HW251928   2.746   9.564   0.166
17302SOL     OW51929   3.581   9.895   1.831
17302SOL    HW151930   3.555   9.984   1.795
17302SOL    HW251931   3.579   9.827   1.758
17303SOL     OW51932   3.224  10.454   0.545
17303SOL    HW151933   3.307  10.425   0.497
17303SOL    HW251934   3.175  10.521   0.489
17304SOL     OW51935   2.412   9.506   0.885
17304SOL    HW151936   2.407   9.501   0.985
17304SOL    HW251937   2.414   9.602   0.856
17305SOL     OW51938   2.870  10.766   0.477
17305SOL    HW151939   2.824  10.838   0.425
17305SOL    HW251940   2.866  10.786   0.575
17306SOL     OW51941   2.213  11.111   0.853
17306SOL    HW151942   2.263  11.025   0.859
17306SOL    HW251943   2.278  11.188   0.850
17307SOL     OW51944   3.657  10.376   0.873
17307SOL    HW151945   3.595  10.361   0.797
17307SOL    HW251946   3.605  10.387   0.958
17308SOL     OW51947   3.089  10.860   1.506
17308SOL    HW151948   3.095  10.783   1.570
17308SOL    HW251949   3.037  10.834   1.426
17309SOL     OW51950   2.183  10.253   0.242
17309SOL    HW151951   2.265  10.292   0.200
17309SOL    HW251952   2.156  10.171   0.193
17310SOL     OW51953   3.320  10.045   0.728
17310SOL    HW151954   3.315   9.980   0.803
17310SOL    HW251955   3.400  10.104   0.741
17311SOL     OW51956   2.323  10.576   1.727
17311SOL    HW151957   2.273  10.577   1.641
17311SOL    HW251958   2.260  10.558   1.803
17312SOL     OW51959   2.973  11.086   0.237
17312SOL    HW151960   2.913  11.024   0.287
17312SOL    HW251961   3.004  11.042   0.152
17313SOL     OW51962   2.064   9.595   1.498
17313SOL    HW151963   1.984   9.655   1.485
17313SOL    HW251964   2.054   9.546   1.584
17314SOL     OW51965   3.494  10.687   0.081
17314SOL    HW151966   3.462  10.781   0.071
17314SOL    HW251967   3.418  10.624   0.069
17315SOL     OW51968   2.326  11.053   0.323
17315SOL    HW151969   2.359  11.092   0.409
17315SOL    HW251970   2.402  11.046   0.258
17316SOL     OW51971   3.262   9.417   0.426
17316SOL    HW151972   3.238   9.380   0.336
17316SOL    HW251973   3.361   9.433   0.430
17317SOL     OW51974   2.111  11.095   1.241
17317SOL    HW151975   2.168  11.030   1.291
17317SOL    HW251976   2.095  11.062   1.148
17318SOL     OW51977   2.802  11.008   0.904
17318SOL    HW151978   2.882  10.951   0.925
17318SOL    HW251979   2.753  10.968   0.827
17319SOL     OW51980   2.244  10.010   0.480
17319SOL    HW151981   2.289   9.920   0.477
17319SOL    HW251982   2.150   9.999   0.513
17320SOL     OW51983   3.409   9.532   1.729
17320SOL    HW151984   3.404   9.569   1.821
17320SOL    HW251985   3.337   9.463   1.717
17321SOL     OW51986   2.476   9.432   0.117
17321SOL    HW151987   2.574   9.410   0.124
17321SOL    HW251988   2.445   9.415   0.024
17322SOL     OW51989   2.643   9.574   1.749
17322SOL    HW151990   2.710   9.513   1.792
17322SOL    HW251991   2.570   9.593   1.814
17323SOL     OW51992   2.750  10.824   1.195
17323SOL    HW151993   2.727  10.799   1.101
17323SOL    HW251994   2.811  10.755   1.234
17324SOL     OW51995   3.213   9.900   1.433
17324SOL    HW151996   3.241   9.857   1.518
17324SOL    HW251997   3.238   9.996   1.434
17325SOL     OW51998   2.665  10.712   0.924
17325SOL    HW151999   2.755  10.726   0.882
17325SOL    HW252000   2.594  10.714   0.853
17326SOL     OW52001   2.784   9.813   0.899
17326SOL    HW152002   2.759   9.804   0.803
17326SOL    HW252003   2.832   9.731   0.930
17327SOL     OW52004   2.401   9.374   0.512
17327SOL    HW152005   2.320   9.375   0.570
17327SOL    HW252006   2.404   9.457   0.457
17328SOL     OW52007   3.296  10.498   0.041
17328SOL    HW152008   3.328  10.422   0.098
17328SOL    HW252009   3.204  10.525   0.071
17329SOL     OW52010   2.159   9.345   0.171
17329SOL    HW152011   2.208   9.429   0.150
17329SOL    HW252012   2.221   9.280   0.216
17330SOL     OW52013   2.797   9.546   0.480
17330SOL    HW152014   2.749   9.587   0.402
17330SOL    HW252015   2.896   9.544   0.461
17331SOL     OW52016   2.938   9.993   1.464
17331SOL    HW152017   2.858   9.932   1.467
17331SOL    HW252018   3.019   9.940   1.440
17332SOL     OW52019   3.089  10.880   0.793
17332SOL    HW152020   3.110  10.954   0.728
17332SOL    HW252021   3.157  10.880   0.866
17333SOL     OW52022   2.321  10.462   0.741
17333SOL    HW152023   2.250  10.435   0.806
17333SOL    HW252024   2.295  10.434   0.648
17334SOL     OW52025   3.133  11.107   0.591
17334SOL    HW152026   3.177  11.171   0.527
17334SOL    HW252027   3.083  11.159   0.661
17335SOL     OW52028   2.894   9.859   0.016
17335SOL    HW152029   2.853   9.941  -0.023
17335SOL    HW252030   2.958   9.885   0.089
17336SOL     OW52031   1.940   9.866   1.386
17336SOL    HW152032   2.032   9.865   1.345
17336SOL    HW252033   1.934   9.940   1.453
17337SOL     OW52034   2.423   9.532   1.147
17337SOL    HW152035   2.461   9.448   1.184
17337SOL    HW252036   2.335   9.551   1.191
17338SOL     OW52037   2.728   9.764   0.642
17338SOL    HW152038   2.696   9.836   0.580
17338SOL    HW252039   2.752   9.683   0.589
17339SOL     OW52040   2.879   9.349   0.753
17339SOL    HW152041   2.807   9.354   0.684
17339SOL    HW252042   2.855   9.280   0.822
17340SOL     OW52043   3.291  10.483   0.867
17340SOL    HW152044   3.236  10.399   0.860
17340SOL    HW252045   3.317  10.512   0.775
17341SOL     OW52046   3.328   9.900   0.992
17341SOL    HW152047   3.298   9.805   0.999
17341SOL    HW252048   3.401   9.916   1.058
17342SOL     OW52049   3.719  10.143   0.377
17342SOL    HW152050   3.761  10.079   0.441
17342SOL    HW252051   3.681  10.092   0.299
17343SOL     OW52052   2.350  10.695   0.174
17343SOL    HW152053   2.263  10.680   0.221
17343SOL    HW252054   2.333  10.721   0.079
17344SOL     OW52055   3.526  10.590   0.657
17344SOL    HW152056   3.625  10.598   0.671
17344SOL    HW252057   3.481  10.674   0.688
17345SOL     OW52058   3.252   9.885   0.078
17345SOL    HW152059   3.198   9.864   0.159
17345SOL    HW252060   3.343   9.844   0.087
17346SOL     OW52061   2.389   9.566   0.328
17346SOL    HW152062   2.416   9.507   0.253
17346SOL    HW252063   2.389   9.661   0.297
17347SOL     OW52064   3.616  10.533   1.588
17347SOL    HW152065   3.707  10.494   1.575
17347SOL    HW252066   3.624  10.629   1.612
17348SOL     OW52067   2.926  10.657   1.340
17348SOL    HW152068   2.846  10.634   1.395
17348SOL    HW252069   3.009  10.631   1.389
17349SOL     OW52070   3.454  10.939   1.625
17349SOL    HW152071   3.481  10.973   1.535
17349SOL    HW252072   3.533  10.901   1.671
17350SOL     OW52073   2.973  10.505   1.100
17350SOL    HW152074   2.933  10.549   1.181
17350SOL    HW252075   2.932  10.542   1.017
17351SOL     OW52076   3.500  10.409   1.079
17351SOL    HW152077   3.505  10.490   1.138
17351SOL    HW252078   3.414  10.411   1.028
17352SOL     OW52079   2.777   9.399   1.402
17352SOL    HW152080   2.802   9.379   1.307
17352SOL    HW252081   2.849   9.455   1.444
17353SOL     OW52082   2.842  10.426   1.719
17353SOL    HW152083   2.743  10.432   1.729
17353SOL    HW252084   2.865  10.346   1.663
17354SOL     OW52085   2.567  10.360   0.368
17354SOL    HW152086   2.553  10.367   0.467
17354SOL    HW252087   2.651  10.309   0.350
17355SOL     OW52088   2.272  10.123   1.251
17355SOL    HW152089   2.358  10.135   1.301
17355SOL    HW252090   2.230  10.036   1.278
17356SOL     OW52091   3.136   9.696   1.262
17356SOL    HW152092   3.157   9.770   1.326
17356SOL    HW252093   3.047   9.713   1.219
17357SOL     OW52094   1.926  10.874   1.331
17357SOL    HW152095   1.880  10.956   1.297
17357SOL    HW252096   2.024  10.893   1.340
17358SOL     OW52097   2.229  10.410   0.501
17358SOL    HW152098   2.222  10.493   0.445
17358SOL    HW252099   2.233  10.330   0.441
17359SOL     OW52100   2.428   9.847   0.865
17359SOL    HW152101   2.440   9.913   0.791
17359SOL    HW252102   2.474   9.881   0.948
17360SOL     OW52103   3.114  10.658   0.388
17360SOL    HW152104   3.164  10.735   0.428
17360SOL    HW252105   3.019  10.660   0.420
17361SOL     OW52106   3.134  10.755   1.142
17361SOL    HW152107   3.181  10.768   1.229
17361SOL    HW252108   3.068  10.681   1.151
17362SOL     OW52109   3.444   9.949   0.472
17362SOL    HW152110   3.413  10.010   0.545
17362SOL    HW252111   3.494  10.001   0.403
17363SOL     OW52112   2.216  10.820   1.329
17363SOL    HW152113   2.195  10.776   1.242
17363SOL    HW252114   2.313  10.846   1.332
17364SOL     OW52115   2.264  10.061   1.598
17364SOL    HW152116   2.332  10.116   1.551
17364SOL    HW252117   2.304   9.973   1.625
17365SOL     OW52118   3.449  10.089   1.670
17365SOL    HW152119   3.357  10.127   1.665
17365SOL    HW252120   3.509  10.136   1.605
17366SOL     OW52121   2.875   9.415   1.770
17366SOL    HW152122   2.881   9.500   1.718
17366SOL    HW252123   2.907   9.339   1.713
17367SOL     OW52124   2.366   9.360   1.740
17367SOL    HW152125   2.324   9.303   1.670
17367SOL    HW252126   2.300   9.429   1.772
17368SOL     OW52127   2.435  10.180   1.029
17368SOL    HW152128   2.479  10.269   1.020
17368SOL    HW252129   2.372  10.180   1.106
17369SOL     OW52130   3.222  10.172   1.045
17369SOL    HW152131   3.147  10.172   0.979
17369SOL    HW252132   3.259  10.080   1.054
17370SOL     OW52133   3.071   9.835   0.275
17370SOL    HW152134   3.084   9.751   0.329
17370SOL    HW252135   3.042   9.909   0.335
17371SOL     OW52136   2.169   9.523   1.231
17371SOL    HW152137   2.146   9.560   1.321
17371SOL    HW252138   2.139   9.428   1.225
17372SOL     OW52139   1.899  10.620   1.282
17372SOL    HW152140   1.952  10.571   1.350
17372SOL    HW252141   1.921  10.718   1.287
17373SOL     OW52142   2.594   9.944   1.064
17373SOL    HW152143   2.653   9.918   0.988
17373SOL    HW252144   2.566  10.040   1.053
17374SOL     OW52145   3.590  10.245   1.854
17374SOL    HW152146   3.544  10.238   1.765
17374SOL    HW252147   3.528  10.289   1.920
17375SOL     OW52148   2.169   9.373   0.618
17375SOL    HW152149   2.158   9.467   0.651
17375SOL    HW252150   2.164   9.310   0.695
17376SOL     OW52151   3.484   9.677   0.374
17376SOL    HW152152   3.486   9.601   0.438
17376SOL    HW252153   3.436   9.754   0.414
17377SOL     OW52154   2.885  10.076   0.966
17377SOL    HW152155   2.900  10.097   1.062
17377SOL    HW252156   2.855   9.981   0.957
17378SOL     OW52157   2.842  10.883   1.700
17378SOL    HW152158   2.822  10.927   1.612
17378SOL    HW252159   2.881  10.792   1.684
17379SOL     OW52160   3.721  10.828   1.605
17379SOL    HW152161   3.735  10.855   1.510
17379SOL    HW252162   3.804  10.850   1.658
17380SOL     OW52163   2.212  10.208   1.804
17380SOL    HW152164   2.288  10.252   1.852
17380SOL    HW252165   2.247  10.161   1.722
17381SOL     OW52166   3.402   9.584   0.125
17381SOL    HW152167   3.341   9.509   0.148
17381SOL    HW252168   3.424   9.636   0.208
17382SOL     OW52169   3.165  10.148   0.042
17382SOL    HW152170   3.199  10.055   0.057
17382SOL    HW252171   3.183  10.175  -0.053
17383SOL     OW52172   2.930  10.643   0.849
17383SOL    HW152173   2.937  10.559   0.794
17383SOL    HW252174   2.992  10.712   0.813
17384SOL     OW52175   2.181  10.120   0.949
17384SOL    HW152176   2.274  10.156   0.954
17384SOL    HW252177   2.175  10.035   1.001
17385SOL     OW52178   2.201   9.819   1.006
17385SOL    HW152179   2.149   9.736   0.989
17385SOL    HW252180   2.278   9.824   0.942
17386SOL     OW52181   3.000   9.690   1.678
17386SOL    HW152182   2.955   9.753   1.742
17386SOL    HW252183   3.093   9.721   1.661
17387SOL     OW52184   3.022   9.517   1.477
17387SOL    HW152185   3.022   9.581   1.554
17387SOL    HW252186   3.050   9.565   1.394
17388SOL     OW52187   1.870  10.636   0.200
17388SOL    HW152188   1.777  10.657   0.169
17388SOL    HW252189   1.880  10.537   0.213
17389SOL     OW52190   1.950  11.111   0.927
17389SOL    HW152191   1.908  11.025   0.900
17389SOL    HW252192   2.044  11.114   0.893
17390SOL     OW52193   2.366  10.878   0.910
17390SOL    HW152194   2.432  10.952   0.919
17390SOL    HW252195   2.410  10.799   0.868
17391SOL     OW52196   2.864  10.106   1.238
17391SOL    HW152197   2.905  10.074   1.324
17391SOL    HW252198   2.768  10.079   1.235
17392SOL     OW52199   1.902   9.854   1.114
17392SOL    HW152200   1.987   9.821   1.073
17392SOL    HW252201   1.915   9.869   1.212
17393SOL     OW52202   2.051   9.830   1.722
17393SOL    HW152203   2.110   9.790   1.652
17393SOL    HW252204   1.993   9.901   1.681
17394SOL     OW52205   3.231  10.260   1.660
17394SOL    HW152206   3.270  10.349   1.680
17394SOL    HW252207   3.241  10.240   1.563
17395SOL     OW52208   2.677   9.882   0.325
17395SOL    HW152209   2.684   9.793   0.279
17395SOL    HW252210   2.583   9.916   0.317
17396SOL     OW52211   3.519   9.914   1.206
17396SOL    HW152212   3.481   9.845   1.268
17396SOL    HW252213   3.601   9.878   1.162
17397SOL     OW52214   2.114  10.874   1.744
17397SOL    HW152215   2.084  10.931   1.820
17397SOL    HW252216   2.107  10.777   1.770
17398SOL     OW52217   2.533   9.774   1.269
17398SOL    HW152218   2.499   9.685   1.239
17398SOL    HW252219   2.559   9.828   1.189
17399SOL     OW52220   2.792  10.988   1.465
17399SOL    HW152221   2.768  10.970   1.370
17399SOL    HW252222   2.822  11.082   1.475
17400SOL     OW52223   2.335   9.810   0.191
17400SOL    HW152224   2.396   9.890   0.195
17400SOL    HW252225   2.240   9.841   0.198
17401SOL     OW52226   2.021  10.447   1.466
17401SOL    HW152227   2.043  10.386   1.542
17401SOL    HW252228   2.031  10.398   1.380
17402SOL     OW52229   3.209  10.369   1.234
17402SOL    HW152230   3.233  10.306   1.160
17402SOL    HW252231   3.119  10.409   1.216
17403SOL     OW52232   3.164  10.165   0.309
17403SOL    HW152233   3.078  10.134   0.351
17403SOL    HW252234   3.160  10.151   0.210
17404SOL     OW52235   3.621  11.057   1.154
17404SOL    HW152236   3.682  11.087   1.081
17404SOL    HW252237   3.583  10.968   1.132
17405SOL     OW52238   3.114  11.041   1.128
17405SOL    HW152239   3.198  11.046   1.074
17405SOL    HW252240   3.091  10.945   1.146
17406SOL     OW52241   1.945  10.568   1.022
17406SOL    HW152242   1.940  10.567   1.122
17406SOL    HW252243   1.862  10.527   0.984
17407SOL     OW52244   2.550  10.972   1.716
17407SOL    HW152245   2.494  11.053   1.725
17407SOL    HW252246   2.602  10.976   1.630
17408SOL     OW52247   2.765   9.396   0.133
17408SOL    HW152248   2.816   9.397   0.047
17408SOL    HW252249   2.821   9.354   0.204
17409SOL     OW52250   3.588   9.445   0.523
17409SOL    HW152251   3.661   9.428   0.456
17409SOL    HW252252   3.557   9.358   0.561
17410SOL     OW52253   3.250  10.883   0.477
17410SOL    HW152254   3.317  10.895   0.403
17410SOL    HW252255   3.210  10.972   0.500
17411SOL     OW52256   1.992  11.104   1.851
17411SOL    HW152257   1.951  11.030   1.904
17411SOL    HW252258   2.056  11.155   1.909
17412SOL     OW52259   3.142  10.237   0.672
17412SOL    HW152260   3.202  10.156   0.674
17412SOL    HW252261   3.182  10.306   0.612
17413SOL     OW52262   2.692  10.583   1.422
17413SOL    HW152263   2.687  10.616   1.517
17413SOL    HW252264   2.606  10.602   1.376
17414SOL     OW52265   2.534  10.926   0.154
17414SOL    HW152266   2.543  10.936   0.055
17414SOL    HW252267   2.494  10.837   0.175
17415SOL     OW52268   3.512  11.030   1.394
17415SOL    HW152269   3.565  11.040   1.310
17415SOL    HW252270   3.485  11.120   1.428
17416SOL     OW52271   3.703   9.485   0.963
17416SOL    HW152272   3.742   9.400   0.927
17416SOL    HW252273   3.605   9.487   0.944
17417SOL     OW52274   2.125   9.636   0.720
17417SOL    HW152275   2.046   9.687   0.686
17417SOL    HW252276   2.116   9.621   0.818
17418SOL     OW52277   3.056  10.922   0.031
17418SOL    HW152278   3.062  10.829   0.068
17418SOL    HW252279   2.997  10.922  -0.049
17419SOL     OW52280   2.684  10.312   1.372
17419SOL    HW152281   2.724  10.311   1.280
17419SOL    HW252282   2.694  10.404   1.412
17420SOL     OW52283   2.778  10.220   0.291
17420SOL    HW152284   2.841  10.258   0.223
17420SOL    HW252285   2.818  10.137   0.330
17421SOL     OW52286   3.366  10.917   0.044
17421SOL    HW152287   3.274  10.954   0.051
17421SOL    HW252288   3.404  10.937  -0.046
17422SOL     OW52289   2.234  10.598   1.490
17422SOL    HW152290   2.221  10.691   1.456
17422SOL    HW252291   2.150  10.546   1.477
17423SOL     OW52292   3.476  10.602   1.289
17423SOL    HW152293   3.536  10.605   1.369
17423SOL    HW252294   3.401  10.666   1.302
17424SOL     OW52295   2.901  10.408   0.696
17424SOL    HW152296   2.831  10.361   0.750
17424SOL    HW252297   2.960  10.340   0.653
17425SOL     OW52298   2.876   9.546   0.971
17425SOL    HW152299   2.868   9.510   0.878
17425SOL    HW252300   2.874   9.470   1.036
17426SOL     OW52301   2.452  10.797   0.491
17426SOL    HW152302   2.494  10.739   0.421
17426SOL    HW252303   2.408  10.876   0.447
17427SOL     OW52304   3.571   9.695   1.381
17427SOL    HW152305   3.644   9.764   1.385
17427SOL    HW252306   3.599   9.620   1.322
17428SOL     OW52307   2.117  10.658   0.290
17428SOL    HW152308   2.021  10.659   0.263
17428SOL    HW252309   2.129  10.711   0.374
17429SOL     OW52310   1.967  10.323   1.726
17429SOL    HW152311   1.890  10.290   1.780
17429SOL    HW252312   2.052  10.293   1.768
17430SOL     OW52313   2.534   9.513   1.489
17430SOL    HW152314   2.624   9.497   1.449
17430SOL    HW252315   2.542   9.518   1.588
17431SOL     OW52316   1.937   9.655   0.033
17431SOL    HW152317   1.845   9.627   0.004
17431SOL    HW252318   1.968   9.732  -0.023
17432SOL     OW52319   3.302  10.166   1.398
17432SOL    HW152320   3.245  10.218   1.335
17432SOL    HW252321   3.398  10.178   1.374
17433SOL     OW52322   1.934   9.476   0.318
17433SOL    HW152323   1.917   9.559   0.264
17433SOL    HW252324   2.024   9.439   0.296
17434SOL     OW52325   3.045  10.645   0.119
17434SOL    HW152326   2.946  10.634   0.121
17434SOL    HW252327   3.079  10.660   0.212
17435SOL     OW52328   2.475  10.152   1.431
17435SOL    HW152329   2.531  10.233   1.414
17435SOL    HW252330   2.534  10.072   1.434
17436SOL     OW52331   3.355  11.077   0.959
17436SOL    HW152332   3.388  11.141   0.890
17436SOL    HW252333   3.421  11.071   1.034
17437SOL     OW52334   2.578   9.875   1.708
17437SOL    HW152335   2.597   9.940   1.782
17437SOL    HW252336   2.638   9.795   1.717
17438SOL     OW52337   3.312  10.530   1.633
17438SOL    HW152338   3.303  10.520   1.732
17438SOL    HW252339   3.408  10.523   1.607
17439SOL     OW52340   2.252  11.051   1.560
17439SOL    HW152341   2.161  11.092   1.558
17439SOL    HW252342   2.245  10.957   1.592
17440SOL     OW52343   3.536  10.193   1.254
17440SOL    HW152344   3.509  10.104   1.217
17440SOL    HW252345   3.537  10.261   1.181
17441SOL     OW52346   3.087   9.635   0.449
17441SOL    HW152347   3.152   9.561   0.438
17441SOL    HW252348   3.107   9.685   0.533
17442SOL     OW52349   2.456  10.055   0.652
17442SOL    HW152350   2.506  10.140   0.633
17442SOL    HW252351   2.368  10.057   0.604
17443SOL     OW52352   3.639   9.652   1.642
17443SOL    HW152353   3.622   9.683   1.548
17443SOL    HW252354   3.555   9.615   1.680
17444SOL     OW52355   3.592  10.244   1.517
17444SOL    HW152356   3.630  10.335   1.532
17444SOL    HW252357   3.584  10.227   1.418
17445SOL     OW52358   2.721  10.684   0.016
17445SOL    HW152359   2.675  10.699   0.104
17445SOL    HW252360   2.765  10.769  -0.014
17446SOL     OW52361   2.523  11.100   0.953
17446SOL    HW152362   2.477  11.188   0.940
17446SOL    HW252363   2.622  11.112   0.946
17447SOL     OW52364   2.721  10.266   0.861
17447SOL    HW152365   2.775  10.197   0.909
17447SOL    HW252366   2.689  10.335   0.927
17448SOL     OW52367   2.945  10.294   0.087
17448SOL    HW152368   2.922  10.347   0.005
17448SOL    HW252369   3.026  10.238   0.068
17449SOL     OW52370   3.723  10.879   0.851
17449SOL    HW152371   3.652  10.867   0.781
17449SOL    HW252372   3.724  10.800   0.911
17450SOL     OW52373   2.083  10.624   1.844
17450SOL    HW152374   2.018  10.551   1.823
17450SOL    HW252375   2.087  10.638   1.942
17451SOL     OW52376   1.941  10.550   0.653
17451SOL    HW152377   1.940  10.503   0.741
17451SOL    HW252378   2.023  10.522   0.602
17452SOL     OW52379   2.534  10.701   1.624
17452SOL    HW152380   2.456  10.651   1.662
17452SOL    HW252381   2.531  10.796   1.655
17453SOL     OW52382   3.686   9.502   1.227
17453SOL    HW152383   3.682   9.412   1.271
17453SOL    HW252384   3.689   9.491   1.128
17454SOL     OW52385   2.290   9.734   0.520
17454SOL    HW152386   2.320   9.662   0.458
17454SOL    HW252387   2.251   9.694   0.603
17455SOL     OW52388   3.567  10.797   1.104
17455SOL    HW152389   3.474  10.772   1.077
17455SOL    HW252390   3.593  10.747   1.186
17456SOL     OW52391   2.179   9.857   1.280
17456SOL    HW152392   2.217   9.798   1.352
17456SOL    HW252393   2.219   9.831   1.192
17457SOL     OW52394   2.674  10.896   0.687
17457SOL    HW152395   2.706  10.906   0.593
17457SOL    HW252396   2.595  10.834   0.689
17458SOL     OW52397   3.286   9.524   1.112
17458SOL    HW152398   3.338   9.459   1.167
17458SOL    HW252399   3.237   9.587   1.173
17459SOL     OW52400   2.863   9.344   1.154
17459SOL    HW152401   2.800   9.272   1.123
17459SOL    HW252402   2.956   9.308   1.154
17460SOL     OW52403   2.632  10.640   0.301
17460SOL    HW152404   2.586  10.553   0.318
17460SOL    HW252405   2.723  10.637   0.342
17461SOL     OW52406   2.480  10.877   1.284
17461SOL    HW152407   2.475  10.959   1.341
17461SOL    HW252408   2.569  10.874   1.239
17462SOL     OW52409   3.214   9.362   0.168
17462SOL    HW152410   3.249   9.321   0.084
17462SOL    HW252411   3.124   9.324   0.188
17463SOL     OW52412   3.162   9.763   0.691
17463SOL    HW152413   3.103   9.843   0.695
17463SOL    HW252414   3.177   9.728   0.784
17464SOL     OW52415   3.455   9.531   0.882
17464SOL    HW152416   3.371   9.530   0.936
17464SOL    HW252417   3.457   9.614   0.826
17465SOL     OW52418   1.901  10.387   0.300
17465SOL    HW152419   2.000  10.376   0.291
17465SOL    HW252420   1.861  10.301   0.332
17466SOL     OW52421   2.737  10.956   0.337
17466SOL    HW152422   2.660  10.921   0.283
17466SOL    HW252423   2.705  11.027   0.399
17467SOL     OW52424   2.092   9.938   1.975
17467SOL    HW152425   1.999   9.936   2.012
17467SOL    HW252426   2.093   9.899   1.883
17468SOL     OW52427   2.087   9.585   2.858
17468SOL    HW152428   2.122   9.568   2.950
17468SOL    HW252429   1.999   9.540   2.846
17469SOL     OW52430   1.881   9.678   2.509
17469SOL    HW152431   1.799   9.721   2.548
17469SOL    HW252432   1.853   9.605   2.446
17470SOL     OW52433   2.431  10.585   3.027
17470SOL    HW152434   2.338  10.578   2.990
17470SOL    HW252435   2.442  10.674   3.071
17471SOL     OW52436   3.417  10.821   2.565
17471SOL    HW152437   3.360  10.805   2.646
17471SOL    HW252438   3.358  10.831   2.485
17472SOL     OW52439   2.997  10.013   2.579
17472SOL    HW152440   3.054  10.091   2.554
17472SOL    HW252441   2.937  10.039   2.655
17473SOL     OW52442   3.617   9.917   2.093
17473SOL    HW152443   3.605   9.904   1.994
17473SOL    HW252444   3.587   9.836   2.142
17474SOL     OW52445   2.630  10.454   2.885
17474SOL    HW152446   2.552  10.471   2.945
17474SOL    HW252447   2.664  10.541   2.849
17475SOL     OW52448   2.712  10.108   3.685
17475SOL    HW152449   2.708  10.184   3.750
17475SOL    HW252450   2.734  10.144   3.594
17476SOL     OW52451   2.547  10.322   2.527
17476SOL    HW152452   2.616  10.306   2.597
17476SOL    HW252453   2.474  10.379   2.565
17477SOL     OW52454   2.548  10.471   3.665
17477SOL    HW152455   2.608  10.550   3.679
17477SOL    HW252456   2.462  10.502   3.624
17478SOL     OW52457   2.197  10.745   2.923
17478SOL    HW152458   2.119  10.714   2.870
17478SOL    HW252459   2.255  10.803   2.866
17479SOL     OW52460   3.322  10.815   3.201
17479SOL    HW152461   3.346  10.909   3.227
17479SOL    HW252462   3.306  10.761   3.283
17480SOL     OW52463   2.300   9.702   3.361
17480SOL    HW152464   2.382   9.646   3.370
17480SOL    HW252465   2.219   9.644   3.365
17481SOL     OW52466   3.465   9.757   2.599
17481SOL    HW152467   3.391   9.803   2.549
17481SOL    HW252468   3.516   9.825   2.652
17482SOL     OW52469   2.093  11.023   2.345
17482SOL    HW152470   2.127  11.100   2.399
17482SOL    HW252471   2.137  11.023   2.255
17483SOL     OW52472   2.989  10.651   3.552
17483SOL    HW152473   3.036  10.651   3.640
17483SOL    HW252474   2.941  10.564   3.541
17484SOL     OW52475   2.092  10.744   2.400
17484SOL    HW152476   2.066  10.840   2.400
17484SOL    HW252477   2.021  10.690   2.445
17485SOL     OW52478   2.102  10.401   2.748
17485SOL    HW152479   2.116  10.317   2.800
17485SOL    HW252480   2.047  10.465   2.803
17486SOL     OW52481   2.482  11.096   3.301
17486SOL    HW152482   2.390  11.079   3.336
17486SOL    HW252483   2.510  11.188   3.327
17487SOL     OW52484   2.468  10.274   1.985
17487SOL    HW152485   2.475  10.358   1.931
17487SOL    HW252486   2.514  10.287   2.073
17488SOL     OW52487   3.456   9.424   3.342
17488SOL    HW152488   3.438   9.491   3.270
17488SOL    HW252489   3.453   9.470   3.431
17489SOL     OW52490   1.984   9.953   2.425
17489SOL    HW152491   1.939   9.865   2.442
17489SOL    HW252492   1.983  10.007   2.509
17490SOL     OW52493   3.704  11.077   2.221
17490SOL    HW152494   3.758  11.048   2.301
17490SOL    HW252495   3.734  11.167   2.192
17491SOL     OW52496   1.889  10.906   1.979
17491SOL    HW152497   1.870  10.810   2.000
17491SOL    HW252498   1.856  10.964   2.054
17492SOL     OW52499   3.551  10.232   2.474
17492SOL    HW152500   3.646  10.203   2.482
17492SOL    HW252501   3.543  10.297   2.399
17493SOL     OW52502   3.503  10.418   2.294
17493SOL    HW152503   3.589  10.420   2.242
17493SOL    HW252504   3.517  10.465   2.382
17494SOL     OW52505   1.975  10.047   3.459
17494SOL    HW152506   2.063  10.034   3.504
17494SOL    HW252507   1.962  10.144   3.437
17495SOL     OW52508   2.475  10.675   2.588
17495SOL    HW152509   2.426  10.588   2.597
17495SOL    HW252510   2.452  10.718   2.501
17496SOL     OW52511   3.155  10.538   3.285
17496SOL    HW152512   3.192  10.465   3.227
17496SOL    HW252513   3.207  10.543   3.370
17497SOL     OW52514   2.671   9.314   2.364
17497SOL    HW152515   2.711   9.405   2.355
17497SOL    HW252516   2.571   9.322   2.370
17498SOL     OW52517   2.059  10.286   3.126
17498SOL    HW152518   2.148  10.241   3.112
17498SOL    HW252519   1.986  10.221   3.107
17499SOL     OW52520   3.387  10.309   2.052
17499SOL    HW152521   3.324  10.233   2.065
17499SOL    HW252522   3.435  10.327   2.138
17500SOL     OW52523   3.049  11.102   3.478
17500SOL    HW152524   3.073  11.162   3.402
17500SOL    HW252525   3.056  11.007   3.448
17501SOL     OW52526   2.179   9.561   3.663
17501SOL    HW152527   2.250   9.632   3.669
17501SOL    HW252528   2.091   9.600   3.691
17502SOL     OW52529   3.328  10.727   2.815
17502SOL    HW152530   3.269  10.733   2.895
17502SOL    HW252531   3.313  10.639   2.769
17503SOL     OW52532   3.529  11.024   2.434
17503SOL    HW152533   3.488  11.001   2.346
17503SOL    HW252534   3.511  10.950   2.499
17504SOL     OW52535   2.460  10.039   2.132
17504SOL    HW152536   2.484  10.108   2.064
17504SOL    HW252537   2.382  10.072   2.186
17505SOL     OW52538   3.143   9.655   2.806
17505SOL    HW152539   3.057   9.605   2.793
17505SOL    HW252540   3.205   9.601   2.862
17506SOL     OW52541   3.438  10.972   2.169
17506SOL    HW152542   3.527  11.018   2.172
17506SOL    HW252543   3.417  10.948   2.074
17507SOL     OW52544   2.669   9.915   3.327
17507SOL    HW152545   2.622   9.912   3.416
17507SOL    HW252546   2.618   9.860   3.261
17508SOL     OW52547   3.256   9.779   3.536
17508SOL    HW152548   3.236   9.822   3.624
17508SOL    HW252549   3.334   9.717   3.545
17509SOL     OW52550   2.835  10.200   3.434
17509SOL    HW152551   2.881  10.116   3.405
17509SOL    HW252552   2.779  10.234   3.359
17510SOL     OW52553   2.853   9.720   3.104
17510SOL    HW152554   2.776   9.754   3.158
17510SOL    HW252555   2.819   9.669   3.025
17511SOL     OW52556   2.903  10.011   2.291
17511SOL    HW152557   2.929  10.007   2.387
17511SOL    HW252558   2.818   9.960   2.277
17512SOL     OW52559   1.938  10.121   2.651
17512SOL    HW152560   2.037  10.109   2.660
17512SOL    HW252561   1.914  10.216   2.672
17513SOL     OW52562   1.992  11.131   3.433
17513SOL    HW152563   1.982  11.116   3.532
17513SOL    HW252564   1.906  11.167   3.397
17514SOL     OW52565   2.727   9.658   2.057
17514SOL    HW152566   2.786   9.721   2.008
17514SOL    HW252567   2.746   9.564   2.028
17515SOL     OW52568   3.581   9.895   3.693
17515SOL    HW152569   3.555   9.984   3.657
17515SOL    HW252570   3.579   9.827   3.620
17516SOL     OW52571   3.224  10.454   2.407
17516SOL    HW152572   3.307  10.425   2.359
17516SOL    HW252573   3.175  10.521   2.351
17517SOL     OW52574   2.412   9.506   2.747
17517SOL    HW152575   2.407   9.501   2.847
17517SOL    HW252576   2.414   9.602   2.718
17518SOL     OW52577   2.870  10.766   2.339
17518SOL    HW152578   2.824  10.838   2.287
17518SOL    HW252579   2.866  10.786   2.437
17519SOL     OW52580   2.213  11.111   2.715
17519SOL    HW152581   2.263  11.025   2.721
17519SOL    HW252582   2.278  11.188   2.712
17520SOL     OW52583   3.657  10.376   2.735
17520SOL    HW152584   3.595  10.361   2.659
17520SOL    HW252585   3.605  10.387   2.820
17521SOL     OW52586   3.089  10.860   3.368
17521SOL    HW152587   3.095  10.783   3.432
17521SOL    HW252588   3.037  10.834   3.288
17522SOL     OW52589   2.183  10.253   2.104
17522SOL    HW152590   2.265  10.292   2.062
17522SOL    HW252591   2.156  10.171   2.055
17523SOL     OW52592   3.320  10.045   2.590
17523SOL    HW152593   3.315   9.980   2.665
17523SOL    HW252594   3.400  10.104   2.603
17524SOL     OW52595   2.323  10.576   3.589
17524SOL    HW152596   2.273  10.577   3.503
17524SOL    HW252597   2.260  10.558   3.665
17525SOL     OW52598   2.973  11.086   2.099
17525SOL    HW152599   2.913  11.024   2.149
17525SOL    HW252600   3.004  11.042   2.014
17526SOL     OW52601   2.064   9.595   3.360
17526SOL    HW152602   1.984   9.655   3.347
17526SOL    HW252603   2.054   9.546   3.446
17527SOL     OW52604   3.494  10.687   1.943
17527SOL    HW152605   3.462  10.781   1.933
17527SOL    HW252606   3.418  10.624   1.931
17528SOL     OW52607   2.326  11.053   2.185
17528SOL    HW152608   2.359  11.092   2.271
17528SOL    HW252609   2.402  11.046   2.120
17529SOL     OW52610   3.262   9.417   2.288
17529SOL    HW152611   3.238   9.380   2.198
17529SOL    HW252612   3.361   9.433   2.292
17530SOL     OW52613   2.111  11.095   3.103
17530SOL    HW152614   2.168  11.030   3.153
17530SOL    HW252615   2.095  11.062   3.010
17531SOL     OW52616   2.802  11.008   2.766
17531SOL    HW152617   2.882  10.951   2.787
17531SOL    HW252618   2.753  10.968   2.689
17532SOL     OW52619   2.244  10.010   2.342
17532SOL    HW152620   2.289   9.920   2.339
17532SOL    HW252621   2.150   9.999   2.375
17533SOL     OW52622   3.409   9.532   3.591
17533SOL    HW152623   3.404   9.569   3.683
17533SOL    HW252624   3.337   9.463   3.579
17534SOL     OW52625   2.476   9.432   1.979
17534SOL    HW152626   2.574   9.410   1.986
17534SOL    HW252627   2.445   9.415   1.886
17535SOL     OW52628   2.643   9.574   3.611
17535SOL    HW152629   2.710   9.513   3.654
17535SOL    HW252630   2.570   9.593   3.676
17536SOL     OW52631   2.750  10.824   3.057
17536SOL    HW152632   2.727  10.799   2.963
17536SOL    HW252633   2.811  10.755   3.096
17537SOL     OW52634   3.213   9.900   3.295
17537SOL    HW152635   3.241   9.857   3.380
17537SOL    HW252636   3.238   9.996   3.296
17538SOL     OW52637   2.665  10.712   2.786
17538SOL    HW152638   2.755  10.726   2.744
17538SOL    HW252639   2.594  10.714   2.715
17539SOL     OW52640   2.784   9.813   2.761
17539SOL    HW152641   2.759   9.804   2.665
17539SOL    HW252642   2.832   9.731   2.792
17540SOL     OW52643   2.401   9.374   2.374
17540SOL    HW152644   2.320   9.375   2.432
17540SOL    HW252645   2.404   9.457   2.319
17541SOL     OW52646   3.296  10.498   1.903
17541SOL    HW152647   3.328  10.422   1.960
17541SOL    HW252648   3.204  10.525   1.933
17542SOL     OW52649   2.159   9.345   2.033
17542SOL    HW152650   2.208   9.429   2.012
17542SOL    HW252651   2.221   9.280   2.078
17543SOL     OW52652   2.797   9.546   2.342
17543SOL    HW152653   2.749   9.587   2.264
17543SOL    HW252654   2.896   9.544   2.323
17544SOL     OW52655   2.938   9.993   3.326
17544SOL    HW152656   2.858   9.932   3.329
17544SOL    HW252657   3.019   9.940   3.302
17545SOL     OW52658   3.089  10.880   2.655
17545SOL    HW152659   3.110  10.954   2.590
17545SOL    HW252660   3.157  10.880   2.728
17546SOL     OW52661   2.321  10.462   2.603
17546SOL    HW152662   2.250  10.435   2.668
17546SOL    HW252663   2.295  10.434   2.510
17547SOL     OW52664   3.133  11.107   2.453
17547SOL    HW152665   3.177  11.171   2.389
17547SOL    HW252666   3.083  11.159   2.523
17548SOL     OW52667   2.894   9.859   1.878
17548SOL    HW152668   2.853   9.941   1.839
17548SOL    HW252669   2.958   9.885   1.951
17549SOL     OW52670   1.940   9.866   3.248
17549SOL    HW152671   2.032   9.865   3.207
17549SOL    HW252672   1.934   9.940   3.315
17550SOL     OW52673   2.423   9.532   3.009
17550SOL    HW152674   2.461   9.448   3.046
17550SOL    HW252675   2.335   9.551   3.053
17551SOL     OW52676   2.728   9.764   2.504
17551SOL    HW152677   2.696   9.836   2.442
17551SOL    HW252678   2.752   9.683   2.451
17552SOL     OW52679   2.879   9.349   2.615
17552SOL    HW152680   2.807   9.354   2.546
17552SOL    HW252681   2.855   9.280   2.684
17553SOL     OW52682   3.291  10.483   2.729
17553SOL    HW152683   3.236  10.399   2.722
17553SOL    HW252684   3.317  10.512   2.637
17554SOL     OW52685   3.328   9.900   2.854
17554SOL    HW152686   3.298   9.805   2.861
17554SOL    HW252687   3.401   9.916   2.920
17555SOL     OW52688   3.719  10.143   2.239
17555SOL    HW152689   3.761  10.079   2.303
17555SOL    HW252690   3.681  10.092   2.161
17556SOL     OW52691   2.350  10.695   2.036
17556SOL    HW152692   2.263  10.680   2.083
17556SOL    HW252693   2.333  10.721   1.941
17557SOL     OW52694   3.526  10.590   2.519
17557SOL    HW152695   3.625  10.598   2.533
17557SOL    HW252696   3.481  10.674   2.550
17558SOL     OW52697   3.252   9.885   1.940
17558SOL    HW152698   3.198   9.864   2.021
17558SOL    HW252699   3.343   9.844   1.949
17559SOL     OW52700   2.389   9.566   2.190
17559SOL    HW152701   2.416   9.507   2.115
17559SOL    HW252702   2.389   9.661   2.159
17560SOL     OW52703   3.616  10.533   3.450
17560SOL    HW152704   3.707  10.494   3.437
17560SOL    HW252705   3.624  10.629   3.474
17561SOL     OW52706   2.926  10.657   3.202
17561SOL    HW152707   2.846  10.634   3.257
17561SOL    HW252708   3.009  10.631   3.251
17562SOL     OW52709   3.454  10.939   3.487
17562SOL    HW152710   3.481  10.973   3.397
17562SOL    HW252711   3.533  10.901   3.533
17563SOL     OW52712   2.973  10.505   2.962
17563SOL    HW152713   2.933  10.549   3.043
17563SOL    HW252714   2.932  10.542   2.879
17564SOL     OW52715   3.500  10.409   2.941
17564SOL    HW152716   3.505  10.490   3.000
17564SOL    HW252717   3.414  10.411   2.890
17565SOL     OW52718   2.777   9.399   3.264
17565SOL    HW152719   2.802   9.379   3.169
17565SOL    HW252720   2.849   9.455   3.306
17566SOL     OW52721   2.842  10.426   3.581
17566SOL    HW152722   2.743  10.432   3.591
17566SOL    HW252723   2.865  10.346   3.525
17567SOL     OW52724   2.567  10.360   2.230
17567SOL    HW152725   2.553  10.367   2.329
17567SOL    HW252726   2.651  10.309   2.212
17568SOL     OW52727   2.272  10.123   3.113
17568SOL    HW152728   2.358  10.135   3.163
17568SOL    HW252729   2.230  10.036   3.140
17569SOL     OW52730   3.136   9.696   3.124
17569SOL    HW152731   3.157   9.770   3.188
17569SOL    HW252732   3.047   9.713   3.081
17570SOL     OW52733   1.926  10.874   3.193
17570SOL    HW152734   1.880  10.956   3.159
17570SOL    HW252735   2.024  10.893   3.202
17571SOL     OW52736   2.229  10.410   2.363
17571SOL    HW152737   2.222  10.493   2.307
17571SOL    HW252738   2.233  10.330   2.303
17572SOL     OW52739   2.428   9.847   2.727
17572SOL    HW152740   2.440   9.913   2.653
17572SOL    HW252741   2.474   9.881   2.810
17573SOL     OW52742   3.114  10.658   2.250
17573SOL    HW152743   3.164  10.735   2.290
17573SOL    HW252744   3.019  10.660   2.282
17574SOL     OW52745   3.134  10.755   3.004
17574SOL    HW152746   3.181  10.768   3.091
17574SOL    HW252747   3.068  10.681   3.013
17575SOL     OW52748   3.444   9.949   2.334
17575SOL    HW152749   3.413  10.010   2.407
17575SOL    HW252750   3.494  10.001   2.265
17576SOL     OW52751   2.216  10.820   3.191
17576SOL    HW152752   2.195  10.776   3.104
17576SOL    HW252753   2.313  10.846   3.194
17577SOL     OW52754   2.264  10.061   3.460
17577SOL    HW152755   2.332  10.116   3.413
17577SOL    HW252756   2.304   9.973   3.487
17578SOL     OW52757   3.449  10.089   3.532
17578SOL    HW152758   3.357  10.127   3.527
17578SOL    HW252759   3.509  10.136   3.467
17579SOL     OW52760   2.875   9.415   3.632
17579SOL    HW152761   2.881   9.500   3.580
17579SOL    HW252762   2.907   9.339   3.575
17580SOL     OW52763   2.366   9.360   3.602
17580SOL    HW152764   2.324   9.303   3.532
17580SOL    HW252765   2.300   9.429   3.634
17581SOL     OW52766   2.435  10.180   2.891
17581SOL    HW152767   2.479  10.269   2.882
17581SOL    HW252768   2.372  10.180   2.968
17582SOL     OW52769   3.222  10.172   2.907
17582SOL    HW152770   3.147  10.172   2.841
17582SOL    HW252771   3.259  10.080   2.916
17583SOL     OW52772   3.071   9.835   2.137
17583SOL    HW152773   3.084   9.751   2.191
17583SOL    HW252774   3.042   9.909   2.197
17584SOL     OW52775   2.169   9.523   3.093
17584SOL    HW152776   2.146   9.560   3.183
17584SOL    HW252777   2.139   9.428   3.087
17585SOL     OW52778   1.899  10.620   3.144
17585SOL    HW152779   1.952  10.571   3.212
17585SOL    HW252780   1.921  10.718   3.149
17586SOL     OW52781   2.594   9.944   2.926
17586SOL    HW152782   2.653   9.918   2.850
17586SOL    HW252783   2.566  10.040   2.915
17587SOL     OW52784   3.590  10.245   3.716
17587SOL    HW152785   3.544  10.238   3.627
17587SOL    HW252786   3.528  10.289   3.782
17588SOL     OW52787   2.169   9.373   2.480
17588SOL    HW152788   2.158   9.467   2.513
17588SOL    HW252789   2.164   9.310   2.557
17589SOL     OW52790   3.484   9.677   2.236
17589SOL    HW152791   3.486   9.601   2.300
17589SOL    HW252792   3.436   9.754   2.276
17590SOL     OW52793   2.885  10.076   2.828
17590SOL    HW152794   2.900  10.097   2.924
17590SOL    HW252795   2.855   9.981   2.819
17591SOL     OW52796   2.842  10.883   3.562
17591SOL    HW152797   2.822  10.927   3.474
17591SOL    HW252798   2.881  10.792   3.546
17592SOL     OW52799   2.212  10.208   3.666
17592SOL    HW152800   2.288  10.252   3.714
17592SOL    HW252801   2.247  10.161   3.584
17593SOL     OW52802   3.402   9.584   1.987
17593SOL    HW152803   3.341   9.509   2.010
17593SOL    HW252804   3.424   9.636   2.070
17594SOL     OW52805   3.165  10.148   1.904
17594SOL    HW152806   3.199  10.055   1.919
17594SOL    HW252807   3.183  10.175   1.809
17595SOL     OW52808   2.930  10.643   2.711
17595SOL    HW152809   2.937  10.559   2.656
17595SOL    HW252810   2.992  10.712   2.675
17596SOL     OW52811   2.181  10.120   2.811
17596SOL    HW152812   2.274  10.156   2.816
17596SOL    HW252813   2.175  10.035   2.863
17597SOL     OW52814   2.201   9.819   2.868
17597SOL    HW152815   2.149   9.736   2.851
17597SOL    HW252816   2.278   9.824   2.804
17598SOL     OW52817   3.000   9.690   3.540
17598SOL    HW152818   2.955   9.753   3.604
17598SOL    HW252819   3.093   9.721   3.523
17599SOL     OW52820   3.022   9.517   3.339
17599SOL    HW152821   3.022   9.581   3.416
17599SOL    HW252822   3.050   9.565   3.256
17600SOL     OW52823   1.870  10.636   2.062
17600SOL    HW152824   1.777  10.657   2.031
17600SOL    HW252825   1.880  10.537   2.075
17601SOL     OW52826   1.950  11.111   2.789
17601SOL    HW152827   1.908  11.025   2.762
17601SOL    HW252828   2.044  11.114   2.755
17602SOL     OW52829   2.366  10.878   2.772
17602SOL    HW152830   2.432  10.952   2.781
17602SOL    HW252831   2.410  10.799   2.730
17603SOL     OW52832   2.864  10.106   3.100
17603SOL    HW152833   2.905  10.074   3.186
17603SOL    HW252834   2.768  10.079   3.097
17604SOL     OW52835   1.902   9.854   2.976
17604SOL    HW152836   1.987   9.821   2.935
17604SOL    HW252837   1.915   9.869   3.074
17605SOL     OW52838   2.051   9.830   3.584
17605SOL    HW152839   2.110   9.790   3.514
17605SOL    HW252840   1.993   9.901   3.543
17606SOL     OW52841   3.231  10.260   3.522
17606SOL    HW152842   3.270  10.349   3.542
17606SOL    HW252843   3.241  10.240   3.425
17607SOL     OW52844   2.677   9.882   2.187
17607SOL    HW152845   2.684   9.793   2.141
17607SOL    HW252846   2.583   9.916   2.179
17608SOL     OW52847   3.519   9.914   3.068
17608SOL    HW152848   3.481   9.845   3.130
17608SOL    HW252849   3.601   9.878   3.024
17609SOL     OW52850   2.114  10.874   3.606
17609SOL    HW152851   2.084  10.931   3.682
17609SOL    HW252852   2.107  10.777   3.632
17610SOL     OW52853   2.533   9.774   3.131
17610SOL    HW152854   2.499   9.685   3.101
17610SOL    HW252855   2.559   9.828   3.051
17611SOL     OW52856   2.792  10.988   3.327
17611SOL    HW152857   2.768  10.970   3.232
17611SOL    HW252858   2.822  11.082   3.337
17612SOL     OW52859   2.335   9.810   2.053
17612SOL    HW152860   2.396   9.890   2.057
17612SOL    HW252861   2.240   9.841   2.060
17613SOL     OW52862   2.021  10.447   3.328
17613SOL    HW152863   2.043  10.386   3.404
17613SOL    HW252864   2.031  10.398   3.242
17614SOL     OW52865   3.209  10.369   3.096
17614SOL    HW152866   3.233  10.306   3.022
17614SOL    HW252867   3.119  10.409   3.078
17615SOL     OW52868   3.164  10.165   2.171
17615SOL    HW152869   3.078  10.134   2.213
17615SOL    HW252870   3.160  10.151   2.072
17616SOL     OW52871   3.621  11.057   3.016
17616SOL    HW152872   3.682  11.087   2.943
17616SOL    HW252873   3.583  10.968   2.994
17617SOL     OW52874   3.114  11.041   2.990
17617SOL    HW152875   3.198  11.046   2.936
17617SOL    HW252876   3.091  10.945   3.008
17618SOL     OW52877   1.945  10.568   2.884
17618SOL    HW152878   1.940  10.567   2.984
17618SOL    HW252879   1.862  10.527   2.846
17619SOL     OW52880   2.550  10.972   3.578
17619SOL    HW152881   2.494  11.053   3.587
17619SOL    HW252882   2.602  10.976   3.492
17620SOL     OW52883   3.588   9.445   2.385
17620SOL    HW152884   3.661   9.428   2.318
17620SOL    HW252885   3.557   9.358   2.423
17621SOL     OW52886   3.250  10.883   2.339
17621SOL    HW152887   3.317  10.895   2.265
17621SOL    HW252888   3.210  10.972   2.362
17622SOL     OW52889   1.992  11.104   3.713
17622SOL    HW152890   1.951  11.030   3.766
17622SOL    HW252891   2.056  11.155   3.771
17623SOL     OW52892   3.142  10.237   2.534
17623SOL    HW152893   3.202  10.156   2.536
17623SOL    HW252894   3.182  10.306   2.474
17624SOL     OW52895   2.692  10.583   3.284
17624SOL    HW152896   2.687  10.616   3.379
17624SOL    HW252897   2.606  10.602   3.238
17625SOL     OW52898   2.534  10.926   2.016
17625SOL    HW152899   2.543  10.936   1.917
17625SOL    HW252900   2.494  10.837   2.037
17626SOL     OW52901   3.512  11.030   3.256
17626SOL    HW152902   3.565  11.040   3.172
17626SOL    HW252903   3.485  11.120   3.290
17627SOL     OW52904   3.703   9.485   2.825
17627SOL    HW152905   3.742   9.400   2.789
17627SOL    HW252906   3.605   9.487   2.806
17628SOL     OW52907   2.125   9.636   2.582
17628SOL    HW152908   2.046   9.687   2.548
17628SOL    HW252909   2.116   9.621   2.680
17629SOL     OW52910   3.056  10.922   1.893
17629SOL    HW152911   3.062  10.829   1.930
17629SOL    HW252912   2.997  10.922   1.813
17630SOL     OW52913   2.684  10.312   3.234
17630SOL    HW152914   2.724  10.311   3.142
17630SOL    HW252915   2.694  10.404   3.274
17631SOL     OW52916   2.778  10.220   2.153
17631SOL    HW152917   2.841  10.258   2.085
17631SOL    HW252918   2.818  10.137   2.192
17632SOL     OW52919   3.366  10.917   1.906
17632SOL    HW152920   3.274  10.954   1.913
17632SOL    HW252921   3.404  10.937   1.816
17633SOL     OW52922   2.234  10.598   3.352
17633SOL    HW152923   2.221  10.691   3.318
17633SOL    HW252924   2.150  10.546   3.339
17634SOL     OW52925   3.476  10.602   3.151
17634SOL    HW152926   3.536  10.605   3.231
17634SOL    HW252927   3.401  10.666   3.164
17635SOL     OW52928   2.901  10.408   2.558
17635SOL    HW152929   2.831  10.361   2.612
17635SOL    HW252930   2.960  10.340   2.515
17636SOL     OW52931   2.876   9.546   2.833
17636SOL    HW152932   2.868   9.510   2.740
17636SOL    HW252933   2.874   9.470   2.898
17637SOL     OW52934   2.452  10.797   2.353
17637SOL    HW152935   2.494  10.739   2.283
17637SOL    HW252936   2.408  10.876   2.309
17638SOL     OW52937   3.571   9.695   3.243
17638SOL    HW152938   3.644   9.764   3.247
17638SOL    HW252939   3.599   9.620   3.184
17639SOL     OW52940   2.117  10.658   2.152
17639SOL    HW152941   2.021  10.659   2.125
17639SOL    HW252942   2.129  10.711   2.236
17640SOL     OW52943   1.967  10.323   3.588
17640SOL    HW152944   1.890  10.290   3.642
17640SOL    HW252945   2.052  10.293   3.630
17641SOL     OW52946   2.534   9.513   3.351
17641SOL    HW152947   2.624   9.497   3.311
17641SOL    HW252948   2.542   9.518   3.450
17642SOL     OW52949   1.937   9.655   1.895
17642SOL    HW152950   1.845   9.627   1.866
17642SOL    HW252951   1.968   9.732   1.839
17643SOL     OW52952   3.302  10.166   3.260
17643SOL    HW152953   3.245  10.218   3.197
17643SOL    HW252954   3.398  10.178   3.236
17644SOL     OW52955   1.934   9.476   2.180
17644SOL    HW152956   1.917   9.559   2.126
17644SOL    HW252957   2.024   9.439   2.158
17645SOL     OW52958   3.045  10.645   1.981
17645SOL    HW152959   2.946  10.634   1.983
17645SOL    HW252960   3.079  10.660   2.074
17646SOL     OW52961   2.475  10.152   3.293
17646SOL    HW152962   2.531  10.233   3.276
17646SOL    HW252963   2.534  10.072   3.296
17647SOL     OW52964   3.355  11.077   2.821
17647SOL    HW152965   3.388  11.141   2.752
17647SOL    HW252966   3.421  11.071   2.896
17648SOL     OW52967   2.578   9.875   3.570
17648SOL    HW152968   2.597   9.940   3.644
17648SOL    HW252969   2.638   9.795   3.579
17649SOL     OW52970   3.312  10.530   3.495
17649SOL    HW152971   3.303  10.520   3.594
17649SOL    HW252972   3.408  10.523   3.469
17650SOL     OW52973   2.252  11.051   3.422
17650SOL    HW152974   2.161  11.092   3.420
17650SOL    HW252975   2.245  10.957   3.454
17651SOL     OW52976   3.536  10.193   3.116
17651SOL    HW152977   3.509  10.104   3.079
17651SOL    HW252978   3.537  10.261   3.043
17652SOL     OW52979   3.087   9.635   2.311
17652SOL    HW152980   3.152   9.561   2.300
17652SOL    HW252981   3.107   9.685   2.395
17653SOL     OW52982   2.456  10.055   2.514
17653SOL    HW152983   2.506  10.140   2.495
17653SOL    HW252984   2.368  10.057   2.466
17654SOL     OW52985   3.639   9.652   3.504
17654SOL    HW152986   3.622   9.683   3.410
17654SOL    HW252987   3.555   9.615   3.542
17655SOL     OW52988   3.592  10.244   3.379
17655SOL    HW152989   3.630  10.335   3.394
17655SOL    HW252990   3.584  10.227   3.280
17656SOL     OW52991   2.721  10.684   1.878
17656SOL    HW152992   2.675  10.699   1.966
17656SOL    HW252993   2.765  10.769   1.848
17657SOL     OW52994   2.523  11.100   2.815
17657SOL    HW152995   2.477  11.188   2.802
17657SOL    HW252996   2.622  11.112   2.808
17658SOL     OW52997   2.721  10.266   2.723
17658SOL    HW152998   2.775  10.197   2.771
17658SOL    HW252999   2.689  10.335   2.789
17659SOL     OW53000   2.945  10.294   1.949
17659SOL    HW153001   2.922  10.347   1.867
17659SOL    HW253002   3.026  10.238   1.930
17660SOL     OW53003   3.723  10.879   2.713
17660SOL    HW153004   3.652  10.867   2.643
17660SOL    HW253005   3.724  10.800   2.773
17661SOL     OW53006   2.083  10.624   3.706
17661SOL    HW153007   2.018  10.551   3.685
17661SOL    HW253008   2.087  10.638   3.804
17662SOL     OW53009   1.941  10.550   2.515
17662SOL    HW153010   1.940  10.503   2.603
17662SOL    HW253011   2.023  10.522   2.464
17663SOL     OW53012   2.534  10.701   3.486
17663SOL    HW153013   2.456  10.651   3.524
17663SOL    HW253014   2.531  10.796   3.517
17664SOL     OW53015   3.686   9.502   3.089
17664SOL    HW153016   3.682   9.412   3.133
17664SOL    HW253017   3.689   9.491   2.990
17665SOL     OW53018   2.290   9.734   2.382
17665SOL    HW153019   2.320   9.662   2.320
17665SOL    HW253020   2.251   9.694   2.465
17666SOL     OW53021   3.567  10.797   2.966
17666SOL    HW153022   3.474  10.772   2.939
17666SOL    HW253023   3.593  10.747   3.048
17667SOL     OW53024   2.179   9.857   3.142
17667SOL    HW153025   2.217   9.798   3.214
17667SOL    HW253026   2.219   9.831   3.054
17668SOL     OW53027   2.674  10.896   2.549
17668SOL    HW153028   2.706  10.906   2.455
17668SOL    HW253029   2.595  10.834   2.551
17669SOL     OW53030   3.286   9.524   2.974
17669SOL    HW153031   3.338   9.459   3.029
17669SOL    HW253032   3.237   9.587   3.035
17670SOL     OW53033   2.863   9.344   3.016
17670SOL    HW153034   2.800   9.272   2.985
17670SOL    HW253035   2.956   9.308   3.016
17671SOL     OW53036   2.632  10.640   2.163
17671SOL    HW153037   2.586  10.553   2.180
17671SOL    HW253038   2.723  10.637   2.204
17672SOL     OW53039   2.480  10.877   3.146
17672SOL    HW153040   2.475  10.959   3.203
17672SOL    HW253041   2.569  10.874   3.101
17673SOL     OW53042   3.214   9.362   2.030
17673SOL    HW153043   3.249   9.321   1.946
17673SOL    HW253044   3.124   9.324   2.050
17674SOL     OW53045   3.162   9.763   2.553
17674SOL    HW153046   3.103   9.843   2.557
17674SOL    HW253047   3.177   9.728   2.646
17675SOL     OW53048   3.455   9.531   2.744
17675SOL    HW153049   3.371   9.530   2.798
17675SOL    HW253050   3.457   9.614   2.688
17676SOL     OW53051   1.901  10.387   2.162
17676SOL    HW153052   2.000  10.376   2.153
17676SOL    HW253053   1.861  10.301   2.194
17677SOL     OW53054   2.737  10.956   2.199
17677SOL    HW153055   2.660  10.921   2.145
17677SOL    HW253056   2.705  11.027   2.261
17678SOL     OW53057   2.092   9.938   3.837
17678SOL    HW153058   1.999   9.936   3.874
17678SOL    HW253059   2.093   9.899   3.745
17679SOL     OW53060   2.087   9.585   4.720
17679SOL    HW153061   2.122   9.568   4.812
17679SOL    HW253062   1.999   9.540   4.708
17680SOL     OW53063   1.881   9.678   4.371
17680SOL    HW153064   1.799   9.721   4.410
17680SOL    HW253065   1.853   9.605   4.308
17681SOL     OW53066   2.431  10.585   4.889
17681SOL    HW153067   2.338  10.578   4.852
17681SOL    HW253068   2.442  10.674   4.933
17682SOL     OW53069   3.417  10.821   4.427
17682SOL    HW153070   3.360  10.805   4.508
17682SOL    HW253071   3.358  10.831   4.347
17683SOL     OW53072   2.997  10.013   4.441
17683SOL    HW153073   3.054  10.091   4.416
17683SOL    HW253074   2.937  10.039   4.517
17684SOL     OW53075   3.617   9.917   3.955
17684SOL    HW153076   3.605   9.904   3.856
17684SOL    HW253077   3.587   9.836   4.004
17685SOL     OW53078   2.630  10.454   4.747
17685SOL    HW153079   2.552  10.471   4.807
17685SOL    HW253080   2.664  10.541   4.711
17686SOL     OW53081   2.712  10.108   5.547
17686SOL    HW153082   2.708  10.184   5.612
17686SOL    HW253083   2.734  10.144   5.456
17687SOL     OW53084   2.547  10.322   4.389
17687SOL    HW153085   2.616  10.306   4.459
17687SOL    HW253086   2.474  10.379   4.427
17688SOL     OW53087   2.548  10.471   5.527
17688SOL    HW153088   2.608  10.550   5.541
17688SOL    HW253089   2.462  10.502   5.486
17689SOL     OW53090   2.197  10.745   4.785
17689SOL    HW153091   2.119  10.714   4.732
17689SOL    HW253092   2.255  10.803   4.728
17690SOL     OW53093   3.322  10.815   5.063
17690SOL    HW153094   3.346  10.909   5.089
17690SOL    HW253095   3.306  10.761   5.145
17691SOL     OW53096   2.300   9.702   5.223
17691SOL    HW153097   2.382   9.646   5.232
17691SOL    HW253098   2.219   9.644   5.227
17692SOL     OW53099   3.465   9.757   4.461
17692SOL    HW153100   3.391   9.803   4.411
17692SOL    HW253101   3.516   9.825   4.514
17693SOL     OW53102   2.093  11.023   4.207
17693SOL    HW153103   2.127  11.100   4.261
17693SOL    HW253104   2.137  11.023   4.117
17694SOL     OW53105   2.989  10.651   5.414
17694SOL    HW153106   3.036  10.651   5.502
17694SOL    HW253107   2.941  10.564   5.403
17695SOL     OW53108   2.092  10.744   4.262
17695SOL    HW153109   2.066  10.840   4.262
17695SOL    HW253110   2.021  10.690   4.307
17696SOL     OW53111   2.102  10.401   4.610
17696SOL    HW153112   2.116  10.317   4.662
17696SOL    HW253113   2.047  10.465   4.665
17697SOL     OW53114   2.482  11.096   5.163
17697SOL    HW153115   2.390  11.079   5.198
17697SOL    HW253116   2.510  11.188   5.189
17698SOL     OW53117   2.468  10.274   3.847
17698SOL    HW153118   2.475  10.358   3.793
17698SOL    HW253119   2.514  10.287   3.935
17699SOL     OW53120   3.456   9.424   5.204
17699SOL    HW153121   3.438   9.491   5.132
17699SOL    HW253122   3.453   9.470   5.293
17700SOL     OW53123   1.984   9.953   4.287
17700SOL    HW153124   1.939   9.865   4.304
17700SOL    HW253125   1.983  10.007   4.371
17701SOL     OW53126   3.704  11.077   4.083
17701SOL    HW153127   3.758  11.048   4.163
17701SOL    HW253128   3.734  11.167   4.054
17702SOL     OW53129   1.889  10.906   3.841
17702SOL    HW153130   1.870  10.810   3.862
17702SOL    HW253131   1.856  10.964   3.916
17703SOL     OW53132   3.551  10.232   4.336
17703SOL    HW153133   3.646  10.203   4.344
17703SOL    HW253134   3.543  10.297   4.261
17704SOL     OW53135   3.503  10.418   4.156
17704SOL    HW153136   3.589  10.420   4.104
17704SOL    HW253137   3.517  10.465   4.244
17705SOL     OW53138   1.975  10.047   5.321
17705SOL    HW153139   2.063  10.034   5.366
17705SOL    HW253140   1.962  10.144   5.299
17706SOL     OW53141   2.475  10.675   4.450
17706SOL    HW153142   2.426  10.588   4.459
17706SOL    HW253143   2.452  10.718   4.363
17707SOL     OW53144   3.155  10.538   5.147
17707SOL    HW153145   3.192  10.465   5.089
17707SOL    HW253146   3.207  10.543   5.232
17708SOL     OW53147   2.671   9.314   4.226
17708SOL    HW153148   2.711   9.405   4.217
17708SOL    HW253149   2.571   9.322   4.232
17709SOL     OW53150   2.059  10.286   4.988
17709SOL    HW153151   2.148  10.241   4.974
17709SOL    HW253152   1.986  10.221   4.969
17710SOL     OW53153   3.387  10.309   3.914
17710SOL    HW153154   3.324  10.233   3.927
17710SOL    HW253155   3.435  10.327   4.000
17711SOL     OW53156   3.049  11.102   5.340
17711SOL    HW153157   3.073  11.162   5.264
17711SOL    HW253158   3.056  11.007   5.310
17712SOL     OW53159   2.179   9.561   5.525
17712SOL    HW153160   2.250   9.632   5.531
17712SOL    HW253161   2.091   9.600   5.553
17713SOL     OW53162   3.328  10.727   4.677
17713SOL    HW153163   3.269  10.733   4.757
17713SOL    HW253164   3.313  10.639   4.631
17714SOL     OW53165   3.529  11.024   4.296
17714SOL    HW153166   3.488  11.001   4.208
17714SOL    HW253167   3.511  10.950   4.361
17715SOL     OW53168   2.460  10.039   3.994
17715SOL    HW153169   2.484  10.108   3.926
17715SOL    HW253170   2.382  10.072   4.048
17716SOL     OW53171   3.143   9.655   4.668
17716SOL    HW153172   3.057   9.605   4.655
17716SOL    HW253173   3.205   9.601   4.724
17717SOL     OW53174   3.438  10.972   4.031
17717SOL    HW153175   3.527  11.018   4.034
17717SOL    HW253176   3.417  10.948   3.936
17718SOL     OW53177   2.669   9.915   5.189
17718SOL    HW153178   2.622   9.912   5.278
17718SOL    HW253179   2.618   9.860   5.123
17719SOL     OW53180   2.835  10.200   5.296
17719SOL    HW153181   2.881  10.116   5.267
17719SOL    HW253182   2.779  10.234   5.221
17720SOL     OW53183   2.853   9.720   4.966
17720SOL    HW153184   2.776   9.754   5.020
17720SOL    HW253185   2.819   9.669   4.887
17721SOL     OW53186   2.903  10.011   4.153
17721SOL    HW153187   2.929  10.007   4.249
17721SOL    HW253188   2.818   9.960   4.139
17722SOL     OW53189   1.938  10.121   4.513
17722SOL    HW153190   2.037  10.109   4.522
17722SOL    HW253191   1.914  10.216   4.534
17723SOL     OW53192   1.992  11.131   5.295
17723SOL    HW153193   1.982  11.116   5.394
17723SOL    HW253194   1.906  11.167   5.259
17724SOL     OW53195   2.727   9.658   3.919
17724SOL    HW153196   2.786   9.721   3.870
17724SOL    HW253197   2.746   9.564   3.890
17725SOL     OW53198   3.581   9.895   5.555
17725SOL    HW153199   3.555   9.984   5.519
17725SOL    HW253200   3.579   9.827   5.482
17726SOL     OW53201   3.224  10.454   4.269
17726SOL    HW153202   3.307  10.425   4.221
17726SOL    HW253203   3.175  10.521   4.213
17727SOL     OW53204   2.412   9.506   4.609
17727SOL    HW153205   2.407   9.501   4.709
17727SOL    HW253206   2.414   9.602   4.580
17728SOL     OW53207   2.870  10.766   4.201
17728SOL    HW153208   2.824  10.838   4.149
17728SOL    HW253209   2.866  10.786   4.299
17729SOL     OW53210   2.213  11.111   4.577
17729SOL    HW153211   2.263  11.025   4.583
17729SOL    HW253212   2.278  11.188   4.574
17730SOL     OW53213   3.657  10.376   4.597
17730SOL    HW153214   3.595  10.361   4.521
17730SOL    HW253215   3.605  10.387   4.682
17731SOL     OW53216   3.089  10.860   5.230
17731SOL    HW153217   3.095  10.783   5.294
17731SOL    HW253218   3.037  10.834   5.150
17732SOL     OW53219   2.183  10.253   3.966
17732SOL    HW153220   2.265  10.292   3.924
17732SOL    HW253221   2.156  10.171   3.917
17733SOL     OW53222   3.320  10.045   4.452
17733SOL    HW153223   3.315   9.980   4.527
17733SOL    HW253224   3.400  10.104   4.465
17734SOL     OW53225   2.323  10.576   5.451
17734SOL    HW153226   2.273  10.577   5.365
17734SOL    HW253227   2.260  10.558   5.527
17735SOL     OW53228   2.973  11.086   3.961
17735SOL    HW153229   2.913  11.024   4.011
17735SOL    HW253230   3.004  11.042   3.876
17736SOL     OW53231   2.064   9.595   5.222
17736SOL    HW153232   1.984   9.655   5.209
17736SOL    HW253233   2.054   9.546   5.308
17737SOL     OW53234   3.494  10.687   3.805
17737SOL    HW153235   3.462  10.781   3.795
17737SOL    HW253236   3.418  10.624   3.793
17738SOL     OW53237   2.326  11.053   4.047
17738SOL    HW153238   2.359  11.092   4.133
17738SOL    HW253239   2.402  11.046   3.982
17739SOL     OW53240   3.262   9.417   4.150
17739SOL    HW153241   3.238   9.380   4.060
17739SOL    HW253242   3.361   9.433   4.154
17740SOL     OW53243   2.111  11.095   4.965
17740SOL    HW153244   2.168  11.030   5.015
17740SOL    HW253245   2.095  11.062   4.872
17741SOL     OW53246   2.802  11.008   4.628
17741SOL    HW153247   2.882  10.951   4.649
17741SOL    HW253248   2.753  10.968   4.551
17742SOL     OW53249   2.244  10.010   4.204
17742SOL    HW153250   2.289   9.920   4.201
17742SOL    HW253251   2.150   9.999   4.237
17743SOL     OW53252   3.409   9.532   5.453
17743SOL    HW153253   3.404   9.569   5.545
17743SOL    HW253254   3.337   9.463   5.441
17744SOL     OW53255   2.476   9.432   3.841
17744SOL    HW153256   2.574   9.410   3.848
17744SOL    HW253257   2.445   9.415   3.748
17745SOL     OW53258   2.643   9.574   5.473
17745SOL    HW153259   2.710   9.513   5.516
17745SOL    HW253260   2.570   9.593   5.538
17746SOL     OW53261   2.750  10.824   4.919
17746SOL    HW153262   2.727  10.799   4.825
17746SOL    HW253263   2.811  10.755   4.958
17747SOL     OW53264   3.213   9.900   5.157
17747SOL    HW153265   3.241   9.857   5.242
17747SOL    HW253266   3.238   9.996   5.158
17748SOL     OW53267   2.665  10.712   4.648
17748SOL    HW153268   2.755  10.726   4.606
17748SOL    HW253269   2.594  10.714   4.577
17749SOL     OW53270   2.784   9.813   4.623
17749SOL    HW153271   2.759   9.804   4.527
17749SOL    HW253272   2.832   9.731   4.654
17750SOL     OW53273   2.401   9.374   4.236
17750SOL    HW153274   2.320   9.375   4.294
17750SOL    HW253275   2.404   9.457   4.181
17751SOL     OW53276   3.296  10.498   3.765
17751SOL    HW153277   3.328  10.422   3.822
17751SOL    HW253278   3.204  10.525   3.795
17752SOL     OW53279   2.159   9.345   3.895
17752SOL    HW153280   2.208   9.429   3.874
17752SOL    HW253281   2.221   9.280   3.940
17753SOL     OW53282   2.797   9.546   4.204
17753SOL    HW153283   2.749   9.587   4.126
17753SOL    HW253284   2.896   9.544   4.185
17754SOL     OW53285   2.938   9.993   5.188
17754SOL    HW153286   2.858   9.932   5.191
17754SOL    HW253287   3.019   9.940   5.164
17755SOL     OW53288   3.089  10.880   4.517
17755SOL    HW153289   3.110  10.954   4.452
17755SOL    HW253290   3.157  10.880   4.590
17756SOL     OW53291   2.321  10.462   4.465
17756SOL    HW153292   2.250  10.435   4.530
17756SOL    HW253293   2.295  10.434   4.372
17757SOL     OW53294   3.133  11.107   4.315
17757SOL    HW153295   3.177  11.171   4.251
17757SOL    HW253296   3.083  11.159   4.385
17758SOL     OW53297   2.894   9.859   3.740
17758SOL    HW153298   2.853   9.941   3.701
17758SOL    HW253299   2.958   9.885   3.813
17759SOL     OW53300   1.940   9.866   5.110
17759SOL    HW153301   2.032   9.865   5.069
17759SOL    HW253302   1.934   9.940   5.177
17760SOL     OW53303   2.423   9.532   4.871
17760SOL    HW153304   2.461   9.448   4.908
17760SOL    HW253305   2.335   9.551   4.915
17761SOL     OW53306   2.728   9.764   4.366
17761SOL    HW153307   2.696   9.836   4.304
17761SOL    HW253308   2.752   9.683   4.313
17762SOL     OW53309   2.879   9.349   4.477
17762SOL    HW153310   2.807   9.354   4.408
17762SOL    HW253311   2.855   9.280   4.546
17763SOL     OW53312   3.291  10.483   4.591
17763SOL    HW153313   3.236  10.399   4.584
17763SOL    HW253314   3.317  10.512   4.499
17764SOL     OW53315   3.328   9.900   4.716
17764SOL    HW153316   3.298   9.805   4.723
17764SOL    HW253317   3.401   9.916   4.782
17765SOL     OW53318   3.719  10.143   4.101
17765SOL    HW153319   3.761  10.079   4.165
17765SOL    HW253320   3.681  10.092   4.023
17766SOL     OW53321   2.350  10.695   3.898
17766SOL    HW153322   2.263  10.680   3.945
17766SOL    HW253323   2.333  10.721   3.803
17767SOL     OW53324   3.526  10.590   4.381
17767SOL    HW153325   3.625  10.598   4.395
17767SOL    HW253326   3.481  10.674   4.412
17768SOL     OW53327   3.252   9.885   3.802
17768SOL    HW153328   3.198   9.864   3.883
17768SOL    HW253329   3.343   9.844   3.811
17769SOL     OW53330   3.616  10.533   5.312
17769SOL    HW153331   3.707  10.494   5.299
17769SOL    HW253332   3.624  10.629   5.336
17770SOL     OW53333   2.926  10.657   5.064
17770SOL    HW153334   2.846  10.634   5.119
17770SOL    HW253335   3.009  10.631   5.113
17771SOL     OW53336   3.454  10.939   5.349
17771SOL    HW153337   3.481  10.973   5.259
17771SOL    HW253338   3.533  10.901   5.395
17772SOL     OW53339   2.973  10.505   4.824
17772SOL    HW153340   2.933  10.549   4.905
17772SOL    HW253341   2.932  10.542   4.741
17773SOL     OW53342   3.500  10.409   4.803
17773SOL    HW153343   3.505  10.490   4.862
17773SOL    HW253344   3.414  10.411   4.752
17774SOL     OW53345   2.777   9.399   5.126
17774SOL    HW153346   2.802   9.379   5.031
17774SOL    HW253347   2.849   9.455   5.168
17775SOL     OW53348   2.842  10.426   5.443
17775SOL    HW153349   2.743  10.432   5.453
17775SOL    HW253350   2.865  10.346   5.387
17776SOL     OW53351   2.567  10.360   4.092
17776SOL    HW153352   2.553  10.367   4.191
17776SOL    HW253353   2.651  10.309   4.074
17777SOL     OW53354   2.272  10.123   4.975
17777SOL    HW153355   2.358  10.135   5.025
17777SOL    HW253356   2.230  10.036   5.002
17778SOL     OW53357   3.136   9.696   4.986
17778SOL    HW153358   3.157   9.770   5.050
17778SOL    HW253359   3.047   9.713   4.943
17779SOL     OW53360   1.926  10.874   5.055
17779SOL    HW153361   1.880  10.956   5.021
17779SOL    HW253362   2.024  10.893   5.064
17780SOL     OW53363   2.229  10.410   4.225
17780SOL    HW153364   2.222  10.493   4.169
17780SOL    HW253365   2.233  10.330   4.165
17781SOL     OW53366   2.428   9.847   4.589
17781SOL    HW153367   2.440   9.913   4.515
17781SOL    HW253368   2.474   9.881   4.672
17782SOL     OW53369   3.114  10.658   4.112
17782SOL    HW153370   3.164  10.735   4.152
17782SOL    HW253371   3.019  10.660   4.144
17783SOL     OW53372   3.134  10.755   4.866
17783SOL    HW153373   3.181  10.768   4.953
17783SOL    HW253374   3.068  10.681   4.875
17784SOL     OW53375   3.444   9.949   4.196
17784SOL    HW153376   3.413  10.010   4.269
17784SOL    HW253377   3.494  10.001   4.127
17785SOL     OW53378   2.216  10.820   5.053
17785SOL    HW153379   2.195  10.776   4.966
17785SOL    HW253380   2.313  10.846   5.056
17786SOL     OW53381   2.264  10.061   5.322
17786SOL    HW153382   2.332  10.116   5.275
17786SOL    HW253383   2.304   9.973   5.349
17787SOL     OW53384   3.449  10.089   5.394
17787SOL    HW153385   3.357  10.127   5.389
17787SOL    HW253386   3.509  10.136   5.329
17788SOL     OW53387   2.875   9.415   5.494
17788SOL    HW153388   2.881   9.500   5.442
17788SOL    HW253389   2.907   9.339   5.437
17789SOL     OW53390   2.366   9.360   5.464
17789SOL    HW153391   2.324   9.303   5.394
17789SOL    HW253392   2.300   9.429   5.496
17790SOL     OW53393   2.435  10.180   4.753
17790SOL    HW153394   2.479  10.269   4.744
17790SOL    HW253395   2.372  10.180   4.830
17791SOL     OW53396   3.222  10.172   4.769
17791SOL    HW153397   3.147  10.172   4.703
17791SOL    HW253398   3.259  10.080   4.778
17792SOL     OW53399   3.071   9.835   3.999
17792SOL    HW153400   3.084   9.751   4.053
17792SOL    HW253401   3.042   9.909   4.059
17793SOL     OW53402   2.169   9.523   4.955
17793SOL    HW153403   2.146   9.560   5.045
17793SOL    HW253404   2.139   9.428   4.949
17794SOL     OW53405   1.899  10.620   5.006
17794SOL    HW153406   1.952  10.571   5.074
17794SOL    HW253407   1.921  10.718   5.011
17795SOL     OW53408   2.594   9.944   4.788
17795SOL    HW153409   2.653   9.918   4.712
17795SOL    HW253410   2.566  10.040   4.777
17796SOL     OW53411   3.590  10.245   5.578
17796SOL    HW153412   3.544  10.238   5.489
17796SOL    HW253413   3.528  10.289   5.644
17797SOL     OW53414   2.169   9.373   4.342
17797SOL    HW153415   2.158   9.467   4.375
17797SOL    HW253416   2.164   9.310   4.419
17798SOL     OW53417   3.484   9.677   4.098
17798SOL    HW153418   3.486   9.601   4.162
17798SOL    HW253419   3.436   9.754   4.138
17799SOL     OW53420   2.885  10.076   4.690
17799SOL    HW153421   2.900  10.097   4.786
17799SOL    HW253422   2.855   9.981   4.681
17800SOL     OW53423   2.842  10.883   5.424
17800SOL    HW153424   2.822  10.927   5.336
17800SOL    HW253425   2.881  10.792   5.408
17801SOL     OW53426   3.721  10.828   5.329
17801SOL    HW153427   3.735  10.855   5.234
17801SOL    HW253428   3.804  10.850   5.382
17802SOL     OW53429   2.212  10.208   5.528
17802SOL    HW153430   2.288  10.252   5.576
17802SOL    HW253431   2.247  10.161   5.446
17803SOL     OW53432   3.402   9.584   3.849
17803SOL    HW153433   3.341   9.509   3.872
17803SOL    HW253434   3.424   9.636   3.932
17804SOL     OW53435   3.165  10.148   3.766
17804SOL    HW153436   3.199  10.055   3.781
17804SOL    HW253437   3.183  10.175   3.671
17805SOL     OW53438   2.930  10.643   4.573
17805SOL    HW153439   2.937  10.559   4.518
17805SOL    HW253440   2.992  10.712   4.537
17806SOL     OW53441   2.181  10.120   4.673
17806SOL    HW153442   2.274  10.156   4.678
17806SOL    HW253443   2.175  10.035   4.725
17807SOL     OW53444   2.201   9.819   4.730
17807SOL    HW153445   2.149   9.736   4.713
17807SOL    HW253446   2.278   9.824   4.666
17808SOL     OW53447   3.000   9.690   5.402
17808SOL    HW153448   2.955   9.753   5.466
17808SOL    HW253449   3.093   9.721   5.385
17809SOL     OW53450   3.022   9.517   5.201
17809SOL    HW153451   3.022   9.581   5.278
17809SOL    HW253452   3.050   9.565   5.118
17810SOL     OW53453   1.870  10.636   3.924
17810SOL    HW153454   1.777  10.657   3.893
17810SOL    HW253455   1.880  10.537   3.937
17811SOL     OW53456   1.950  11.111   4.651
17811SOL    HW153457   1.908  11.025   4.624
17811SOL    HW253458   2.044  11.114   4.617
17812SOL     OW53459   2.366  10.878   4.634
17812SOL    HW153460   2.432  10.952   4.643
17812SOL    HW253461   2.410  10.799   4.592
17813SOL     OW53462   2.864  10.106   4.962
17813SOL    HW153463   2.905  10.074   5.048
17813SOL    HW253464   2.768  10.079   4.959
17814SOL     OW53465   1.902   9.854   4.838
17814SOL    HW153466   1.987   9.821   4.797
17814SOL    HW253467   1.915   9.869   4.936
17815SOL     OW53468   2.051   9.830   5.446
17815SOL    HW153469   2.110   9.790   5.376
17815SOL    HW253470   1.993   9.901   5.405
17816SOL     OW53471   3.231  10.260   5.384
17816SOL    HW153472   3.270  10.349   5.404
17816SOL    HW253473   3.241  10.240   5.287
17817SOL     OW53474   2.677   9.882   4.049
17817SOL    HW153475   2.684   9.793   4.003
17817SOL    HW253476   2.583   9.916   4.041
17818SOL     OW53477   3.519   9.914   4.930
17818SOL    HW153478   3.481   9.845   4.992
17818SOL    HW253479   3.601   9.878   4.886
17819SOL     OW53480   2.114  10.874   5.468
17819SOL    HW153481   2.084  10.931   5.544
17819SOL    HW253482   2.107  10.777   5.494
17820SOL     OW53483   2.533   9.774   4.993
17820SOL    HW153484   2.499   9.685   4.963
17820SOL    HW253485   2.559   9.828   4.913
17821SOL     OW53486   2.792  10.988   5.189
17821SOL    HW153487   2.768  10.970   5.094
17821SOL    HW253488   2.822  11.082   5.199
17822SOL     OW53489   2.335   9.810   3.915
17822SOL    HW153490   2.396   9.890   3.919
17822SOL    HW253491   2.240   9.841   3.922
17823SOL     OW53492   2.021  10.447   5.190
17823SOL    HW153493   2.043  10.386   5.266
17823SOL    HW253494   2.031  10.398   5.104
17824SOL     OW53495   3.209  10.369   4.958
17824SOL    HW153496   3.233  10.306   4.884
17824SOL    HW253497   3.119  10.409   4.940
17825SOL     OW53498   3.164  10.165   4.033
17825SOL    HW153499   3.078  10.134   4.075
17825SOL    HW253500   3.160  10.151   3.934
17826SOL     OW53501   3.621  11.057   4.878
17826SOL    HW153502   3.682  11.087   4.805
17826SOL    HW253503   3.583  10.968   4.856
17827SOL     OW53504   3.114  11.041   4.852
17827SOL    HW153505   3.198  11.046   4.798
17827SOL    HW253506   3.091  10.945   4.870
17828SOL     OW53507   1.945  10.568   4.746
17828SOL    HW153508   1.940  10.567   4.846
17828SOL    HW253509   1.862  10.527   4.708
17829SOL     OW53510   2.550  10.972   5.440
17829SOL    HW153511   2.494  11.053   5.449
17829SOL    HW253512   2.602  10.976   5.354
17830SOL     OW53513   3.588   9.445   4.247
17830SOL    HW153514   3.661   9.428   4.180
17830SOL    HW253515   3.557   9.358   4.285
17831SOL     OW53516   3.250  10.883   4.201
17831SOL    HW153517   3.317  10.895   4.127
17831SOL    HW253518   3.210  10.972   4.224
17832SOL     OW53519   1.992  11.104   5.575
17832SOL    HW153520   1.951  11.030   5.628
17832SOL    HW253521   2.056  11.155   5.633
17833SOL     OW53522   3.142  10.237   4.396
17833SOL    HW153523   3.202  10.156   4.398
17833SOL    HW253524   3.182  10.306   4.336
17834SOL     OW53525   2.692  10.583   5.146
17834SOL    HW153526   2.687  10.616   5.241
17834SOL    HW253527   2.606  10.602   5.100
17835SOL     OW53528   2.534  10.926   3.878
17835SOL    HW153529   2.543  10.936   3.779
17835SOL    HW253530   2.494  10.837   3.899
17836SOL     OW53531   3.512  11.030   5.118
17836SOL    HW153532   3.565  11.040   5.034
17836SOL    HW253533   3.485  11.120   5.152
17837SOL     OW53534   3.703   9.485   4.687
17837SOL    HW153535   3.742   9.400   4.651
17837SOL    HW253536   3.605   9.487   4.668
17838SOL     OW53537   2.125   9.636   4.444
17838SOL    HW153538   2.046   9.687   4.410
17838SOL    HW253539   2.116   9.621   4.542
17839SOL     OW53540   3.056  10.922   3.755
17839SOL    HW153541   3.062  10.829   3.792
17839SOL    HW253542   2.997  10.922   3.675
17840SOL     OW53543   2.684  10.312   5.096
17840SOL    HW153544   2.724  10.311   5.004
17840SOL    HW253545   2.694  10.404   5.136
17841SOL     OW53546   2.778  10.220   4.015
17841SOL    HW153547   2.841  10.258   3.947
17841SOL    HW253548   2.818  10.137   4.054
17842SOL     OW53549   3.366  10.917   3.768
17842SOL    HW153550   3.274  10.954   3.775
17842SOL    HW253551   3.404  10.937   3.678
17843SOL     OW53552   2.234  10.598   5.214
17843SOL    HW153553   2.221  10.691   5.180
17843SOL    HW253554   2.150  10.546   5.201
17844SOL     OW53555   3.476  10.602   5.013
17844SOL    HW153556   3.536  10.605   5.093
17844SOL    HW253557   3.401  10.666   5.026
17845SOL     OW53558   2.901  10.408   4.420
17845SOL    HW153559   2.831  10.361   4.474
17845SOL    HW253560   2.960  10.340   4.377
17846SOL     OW53561   2.876   9.546   4.695
17846SOL    HW153562   2.868   9.510   4.602
17846SOL    HW253563   2.874   9.470   4.760
17847SOL     OW53564   2.452  10.797   4.215
17847SOL    HW153565   2.494  10.739   4.145
17847SOL    HW253566   2.408  10.876   4.171
17848SOL     OW53567   3.571   9.695   5.105
17848SOL    HW153568   3.644   9.764   5.109
17848SOL    HW253569   3.599   9.620   5.046
17849SOL     OW53570   2.117  10.658   4.014
17849SOL    HW153571   2.021  10.659   3.987
17849SOL    HW253572   2.129  10.711   4.098
17850SOL     OW53573   1.967  10.323   5.450
17850SOL    HW153574   1.890  10.290   5.504
17850SOL    HW253575   2.052  10.293   5.492
17851SOL     OW53576   2.534   9.513   5.213
17851SOL    HW153577   2.624   9.497   5.173
17851SOL    HW253578   2.542   9.518   5.312
17852SOL     OW53579   1.937   9.655   3.757
17852SOL    HW153580   1.845   9.627   3.728
17852SOL    HW253581   1.968   9.732   3.701
17853SOL     OW53582   3.302  10.166   5.122
17853SOL    HW153583   3.245  10.218   5.059
17853SOL    HW253584   3.398  10.178   5.098
17854SOL     OW53585   1.934   9.476   4.042
17854SOL    HW153586   1.917   9.559   3.988
17854SOL    HW253587   2.024   9.439   4.020
17855SOL     OW53588   3.045  10.645   3.843
17855SOL    HW153589   2.946  10.634   3.845
17855SOL    HW253590   3.079  10.660   3.936
17856SOL     OW53591   2.475  10.152   5.155
17856SOL    HW153592   2.531  10.233   5.138
17856SOL    HW253593   2.534  10.072   5.158
17857SOL     OW53594   3.355  11.077   4.683
17857SOL    HW153595   3.388  11.141   4.614
17857SOL    HW253596   3.421  11.071   4.758
17858SOL     OW53597   2.578   9.875   5.432
17858SOL    HW153598   2.597   9.940   5.506
17858SOL    HW253599   2.638   9.795   5.441
17859SOL     OW53600   3.312  10.530   5.357
17859SOL    HW153601   3.303  10.520   5.456
17859SOL    HW253602   3.408  10.523   5.331
17860SOL     OW53603   2.252  11.051   5.284
17860SOL    HW153604   2.161  11.092   5.282
17860SOL    HW253605   2.245  10.957   5.316
17861SOL     OW53606   3.536  10.193   4.978
17861SOL    HW153607   3.509  10.104   4.941
17861SOL    HW253608   3.537  10.261   4.905
17862SOL     OW53609   3.087   9.635   4.173
17862SOL    HW153610   3.152   9.561   4.162
17862SOL    HW253611   3.107   9.685   4.257
17863SOL     OW53612   2.456  10.055   4.376
17863SOL    HW153613   2.506  10.140   4.357
17863SOL    HW253614   2.368  10.057   4.328
17864SOL     OW53615   3.639   9.652   5.366
17864SOL    HW153616   3.622   9.683   5.272
17864SOL    HW253617   3.555   9.615   5.404
17865SOL     OW53618   3.592  10.244   5.241
17865SOL    HW153619   3.630  10.335   5.256
17865SOL    HW253620   3.584  10.227   5.142
17866SOL     OW53621   2.721  10.684   3.740
17866SOL    HW153622   2.675  10.699   3.828
17866SOL    HW253623   2.765  10.769   3.710
17867SOL     OW53624   2.523  11.100   4.677
17867SOL    HW153625   2.477  11.188   4.664
17867SOL    HW253626   2.622  11.112   4.670
17868SOL     OW53627   2.721  10.266   4.585
17868SOL    HW153628   2.775  10.197   4.633
17868SOL    HW253629   2.689  10.335   4.651
17869SOL     OW53630   2.945  10.294   3.811
17869SOL    HW153631   2.922  10.347   3.729
17869SOL    HW253632   3.026  10.238   3.792
17870SOL     OW53633   3.723  10.879   4.575
17870SOL    HW153634   3.652  10.867   4.505
17870SOL    HW253635   3.724  10.800   4.635
17871SOL     OW53636   2.083  10.624   5.568
17871SOL    HW153637   2.018  10.551   5.547
17871SOL    HW253638   2.087  10.638   5.666
17872SOL     OW53639   1.941  10.550   4.377
17872SOL    HW153640   1.940  10.503   4.465
17872SOL    HW253641   2.023  10.522   4.326
17873SOL     OW53642   2.534  10.701   5.348
17873SOL    HW153643   2.456  10.651   5.386
17873SOL    HW253644   2.531  10.796   5.379
17874SOL     OW53645   3.686   9.502   4.951
17874SOL    HW153646   3.682   9.412   4.995
17874SOL    HW253647   3.689   9.491   4.852
17875SOL     OW53648   2.290   9.734   4.244
17875SOL    HW153649   2.320   9.662   4.182
17875SOL    HW253650   2.251   9.694   4.327
17876SOL     OW53651   3.567  10.797   4.828
17876SOL    HW153652   3.474  10.772   4.801
17876SOL    HW253653   3.593  10.747   4.910
17877SOL     OW53654   2.179   9.857   5.004
17877SOL    HW153655   2.217   9.798   5.076
17877SOL    HW253656   2.219   9.831   4.916
17878SOL     OW53657   2.674  10.896   4.411
17878SOL    HW153658   2.706  10.906   4.317
17878SOL    HW253659   2.595  10.834   4.413
17879SOL     OW53660   3.286   9.524   4.836
17879SOL    HW153661   3.338   9.459   4.891
17879SOL    HW253662   3.237   9.587   4.897
17880SOL     OW53663   2.863   9.344   4.878
17880SOL    HW153664   2.800   9.272   4.847
17880SOL    HW253665   2.956   9.308   4.878
17881SOL     OW53666   2.632  10.640   4.025
17881SOL    HW153667   2.586  10.553   4.042
17881SOL    HW253668   2.723  10.637   4.066
17882SOL     OW53669   2.480  10.877   5.008
17882SOL    HW153670   2.475  10.959   5.065
17882SOL    HW253671   2.569  10.874   4.963
17883SOL     OW53672   3.214   9.362   3.892
17883SOL    HW153673   3.249   9.321   3.808
17883SOL    HW253674   3.124   9.324   3.912
17884SOL     OW53675   3.162   9.763   4.415
17884SOL    HW153676   3.103   9.843   4.419
17884SOL    HW253677   3.177   9.728   4.508
17885SOL     OW53678   3.455   9.531   4.606
17885SOL    HW153679   3.371   9.530   4.660
17885SOL    HW253680   3.457   9.614   4.550
17886SOL     OW53681   1.901  10.387   4.024
17886SOL    HW153682   2.000  10.376   4.015
17886SOL    HW253683   1.861  10.301   4.056
17887SOL     OW53684   2.737  10.956   4.061
17887SOL    HW153685   2.660  10.921   4.007
17887SOL    HW253686   2.705  11.027   4.123
17888SOL     OW53687   2.092   9.938   5.699
17888SOL    HW153688   1.999   9.936   5.736
17888SOL    HW253689   2.093   9.899   5.607
17889SOL     OW53690   2.087   9.585   6.582
17889SOL    HW153691   2.122   9.568   6.674
17889SOL    HW253692   1.999   9.540   6.570
17890SOL     OW53693   1.881   9.678   6.233
17890SOL    HW153694   1.799   9.721   6.272
17890SOL    HW253695   1.853   9.605   6.170
17891SOL     OW53696   2.431  10.585   6.751
17891SOL    HW153697   2.338  10.578   6.714
17891SOL    HW253698   2.442  10.674   6.795
17892SOL     OW53699   3.417  10.821   6.289
17892SOL    HW153700   3.360  10.805   6.370
17892SOL    HW253701   3.358  10.831   6.209
17893SOL     OW53702   2.997  10.013   6.303
17893SOL    HW153703   3.054  10.091   6.278
17893SOL    HW253704   2.937  10.039   6.379
17894SOL     OW53705   3.617   9.917   5.817
17894SOL    HW153706   3.605   9.904   5.718
17894SOL    HW253707   3.587   9.836   5.866
17895SOL     OW53708   2.630  10.454   6.609
17895SOL    HW153709   2.552  10.471   6.669
17895SOL    HW253710   2.664  10.541   6.573
17896SOL     OW53711   2.712  10.108   7.409
17896SOL    HW153712   2.708  10.184   7.474
17896SOL    HW253713   2.734  10.144   7.318
17897SOL     OW53714   2.547  10.322   6.251
17897SOL    HW153715   2.616  10.306   6.321
17897SOL    HW253716   2.474  10.379   6.289
17898SOL     OW53717   2.548  10.471   7.389
17898SOL    HW153718   2.608  10.550   7.403
17898SOL    HW253719   2.462  10.502   7.348
17899SOL     OW53720   2.197  10.745   6.647
17899SOL    HW153721   2.119  10.714   6.594
17899SOL    HW253722   2.255  10.803   6.590
17900SOL     OW53723   3.322  10.815   6.925
17900SOL    HW153724   3.346  10.909   6.951
17900SOL    HW253725   3.306  10.761   7.007
17901SOL     OW53726   2.300   9.702   7.085
17901SOL    HW153727   2.382   9.646   7.094
17901SOL    HW253728   2.219   9.644   7.089
17902SOL     OW53729   3.465   9.757   6.323
17902SOL    HW153730   3.391   9.803   6.273
17902SOL    HW253731   3.516   9.825   6.376
17903SOL     OW53732   2.093  11.023   6.069
17903SOL    HW153733   2.127  11.100   6.123
17903SOL    HW253734   2.137  11.023   5.979
17904SOL     OW53735   2.989  10.651   7.276
17904SOL    HW153736   3.036  10.651   7.364
17904SOL    HW253737   2.941  10.564   7.265
17905SOL     OW53738   2.092  10.744   6.124
17905SOL    HW153739   2.066  10.840   6.124
17905SOL    HW253740   2.021  10.690   6.169
17906SOL     OW53741   2.102  10.401   6.472
17906SOL    HW153742   2.116  10.317   6.524
17906SOL    HW253743   2.047  10.465   6.527
17907SOL     OW53744   2.482  11.096   7.025
17907SOL    HW153745   2.390  11.079   7.060
17907SOL    HW253746   2.510  11.188   7.051
17908SOL     OW53747   2.468  10.274   5.709
17908SOL    HW153748   2.475  10.358   5.655
17908SOL    HW253749   2.514  10.287   5.797
17909SOL     OW53750   3.456   9.424   7.066
17909SOL    HW153751   3.438   9.491   6.994
17909SOL    HW253752   3.453   9.470   7.155
17910SOL     OW53753   1.984   9.953   6.149
17910SOL    HW153754   1.939   9.865   6.166
17910SOL    HW253755   1.983  10.007   6.233
17911SOL     OW53756   3.704  11.077   5.945
17911SOL    HW153757   3.758  11.048   6.025
17911SOL    HW253758   3.734  11.167   5.916
17912SOL     OW53759   1.889  10.906   5.703
17912SOL    HW153760   1.870  10.810   5.724
17912SOL    HW253761   1.856  10.964   5.778
17913SOL     OW53762   3.551  10.232   6.198
17913SOL    HW153763   3.646  10.203   6.206
17913SOL    HW253764   3.543  10.297   6.123
17914SOL     OW53765   3.503  10.418   6.018
17914SOL    HW153766   3.589  10.420   5.966
17914SOL    HW253767   3.517  10.465   6.106
17915SOL     OW53768   1.975  10.047   7.183
17915SOL    HW153769   2.063  10.034   7.228
17915SOL    HW253770   1.962  10.144   7.161
17916SOL     OW53771   2.475  10.675   6.312
17916SOL    HW153772   2.426  10.588   6.321
17916SOL    HW253773   2.452  10.718   6.225
17917SOL     OW53774   3.155  10.538   7.009
17917SOL    HW153775   3.192  10.465   6.951
17917SOL    HW253776   3.207  10.543   7.094
17918SOL     OW53777   2.671   9.314   6.088
17918SOL    HW153778   2.711   9.405   6.079
17918SOL    HW253779   2.571   9.322   6.094
17919SOL     OW53780   2.059  10.286   6.850
17919SOL    HW153781   2.148  10.241   6.836
17919SOL    HW253782   1.986  10.221   6.831
17920SOL     OW53783   3.387  10.309   5.776
17920SOL    HW153784   3.324  10.233   5.789
17920SOL    HW253785   3.435  10.327   5.862
17921SOL     OW53786   3.049  11.102   7.202
17921SOL    HW153787   3.073  11.162   7.126
17921SOL    HW253788   3.056  11.007   7.172
17922SOL     OW53789   2.179   9.561   7.387
17922SOL    HW153790   2.250   9.632   7.393
17922SOL    HW253791   2.091   9.600   7.415
17923SOL     OW53792   3.328  10.727   6.539
17923SOL    HW153793   3.269  10.733   6.619
17923SOL    HW253794   3.313  10.639   6.493
17924SOL     OW53795   3.529  11.024   6.158
17924SOL    HW153796   3.488  11.001   6.070
17924SOL    HW253797   3.511  10.950   6.223
17925SOL     OW53798   2.460  10.039   5.856
17925SOL    HW153799   2.484  10.108   5.788
17925SOL    HW253800   2.382  10.072   5.910
17926SOL     OW53801   3.143   9.655   6.530
17926SOL    HW153802   3.057   9.605   6.517
17926SOL    HW253803   3.205   9.601   6.586
17927SOL     OW53804   3.438  10.972   5.893
17927SOL    HW153805   3.527  11.018   5.896
17927SOL    HW253806   3.417  10.948   5.798
17928SOL     OW53807   2.669   9.915   7.051
17928SOL    HW153808   2.622   9.912   7.140
17928SOL    HW253809   2.618   9.860   6.985
17929SOL     OW53810   3.256   9.779   7.260
17929SOL    HW153811   3.236   9.822   7.348
17929SOL    HW253812   3.334   9.717   7.269
17930SOL     OW53813   2.835  10.200   7.158
17930SOL    HW153814   2.881  10.116   7.129
17930SOL    HW253815   2.779  10.234   7.083
17931SOL     OW53816   2.853   9.720   6.828
17931SOL    HW153817   2.776   9.754   6.882
17931SOL    HW253818   2.819   9.669   6.749
17932SOL     OW53819   2.903  10.011   6.015
17932SOL    HW153820   2.929  10.007   6.111
17932SOL    HW253821   2.818   9.960   6.001
17933SOL     OW53822   1.938  10.121   6.375
17933SOL    HW153823   2.037  10.109   6.384
17933SOL    HW253824   1.914  10.216   6.396
17934SOL     OW53825   1.992  11.131   7.157
17934SOL    HW153826   1.982  11.116   7.256
17934SOL    HW253827   1.906  11.167   7.121
17935SOL     OW53828   2.727   9.658   5.781
17935SOL    HW153829   2.786   9.721   5.732
17935SOL    HW253830   2.746   9.564   5.752
17936SOL     OW53831   3.581   9.895   7.417
17936SOL    HW153832   3.555   9.984   7.381
17936SOL    HW253833   3.579   9.827   7.344
17937SOL     OW53834   3.224  10.454   6.131
17937SOL    HW153835   3.307  10.425   6.083
17937SOL    HW253836   3.175  10.521   6.075
17938SOL     OW53837   2.412   9.506   6.471
17938SOL    HW153838   2.407   9.501   6.571
17938SOL    HW253839   2.414   9.602   6.442
17939SOL     OW53840   2.870  10.766   6.063
17939SOL    HW153841   2.824  10.838   6.011
17939SOL    HW253842   2.866  10.786   6.161
17940SOL     OW53843   2.213  11.111   6.439
17940SOL    HW153844   2.263  11.025   6.445
17940SOL    HW253845   2.278  11.188   6.436
17941SOL     OW53846   3.657  10.376   6.459
17941SOL    HW153847   3.595  10.361   6.383
17941SOL    HW253848   3.605  10.387   6.544
17942SOL     OW53849   3.089  10.860   7.092
17942SOL    HW153850   3.095  10.783   7.156
17942SOL    HW253851   3.037  10.834   7.012
17943SOL     OW53852   2.183  10.253   5.828
17943SOL    HW153853   2.265  10.292   5.786
17943SOL    HW253854   2.156  10.171   5.779
17944SOL     OW53855   3.320  10.045   6.314
17944SOL    HW153856   3.315   9.980   6.389
17944SOL    HW253857   3.400  10.104   6.327
17945SOL     OW53858   2.323  10.576   7.313
17945SOL    HW153859   2.273  10.577   7.227
17945SOL    HW253860   2.260  10.558   7.389
17946SOL     OW53861   2.973  11.086   5.823
17946SOL    HW153862   2.913  11.024   5.873
17946SOL    HW253863   3.004  11.042   5.738
17947SOL     OW53864   2.064   9.595   7.084
17947SOL    HW153865   1.984   9.655   7.071
17947SOL    HW253866   2.054   9.546   7.170
17948SOL     OW53867   3.494  10.687   5.667
17948SOL    HW153868   3.462  10.781   5.657
17948SOL    HW253869   3.418  10.624   5.655
17949SOL     OW53870   2.326  11.053   5.909
17949SOL    HW153871   2.359  11.092   5.995
17949SOL    HW253872   2.402  11.046   5.844
17950SOL     OW53873   3.262   9.417   6.012
17950SOL    HW153874   3.238   9.380   5.922
17950SOL    HW253875   3.361   9.433   6.016
17951SOL     OW53876   2.111  11.095   6.827
17951SOL    HW153877   2.168  11.030   6.877
17951SOL    HW253878   2.095  11.062   6.734
17952SOL     OW53879   2.802  11.008   6.490
17952SOL    HW153880   2.882  10.951   6.511
17952SOL    HW253881   2.753  10.968   6.413
17953SOL     OW53882   2.244  10.010   6.066
17953SOL    HW153883   2.289   9.920   6.063
17953SOL    HW253884   2.150   9.999   6.099
17954SOL     OW53885   3.409   9.532   7.315
17954SOL    HW153886   3.404   9.569   7.407
17954SOL    HW253887   3.337   9.463   7.303
17955SOL     OW53888   2.476   9.432   5.703
17955SOL    HW153889   2.574   9.410   5.710
17955SOL    HW253890   2.445   9.415   5.610
17956SOL     OW53891   2.643   9.574   7.335
17956SOL    HW153892   2.710   9.513   7.378
17956SOL    HW253893   2.570   9.593   7.400
17957SOL     OW53894   2.750  10.824   6.781
17957SOL    HW153895   2.727  10.799   6.687
17957SOL    HW253896   2.811  10.755   6.820
17958SOL     OW53897   3.213   9.900   7.019
17958SOL    HW153898   3.241   9.857   7.104
17958SOL    HW253899   3.238   9.996   7.020
17959SOL     OW53900   2.665  10.712   6.510
17959SOL    HW153901   2.755  10.726   6.468
17959SOL    HW253902   2.594  10.714   6.439
17960SOL     OW53903   2.784   9.813   6.485
17960SOL    HW153904   2.759   9.804   6.389
17960SOL    HW253905   2.832   9.731   6.516
17961SOL     OW53906   2.401   9.374   6.098
17961SOL    HW153907   2.320   9.375   6.156
17961SOL    HW253908   2.404   9.457   6.043
17962SOL     OW53909   3.296  10.498   5.627
17962SOL    HW153910   3.328  10.422   5.684
17962SOL    HW253911   3.204  10.525   5.657
17963SOL     OW53912   2.159   9.345   5.757
17963SOL    HW153913   2.208   9.429   5.736
17963SOL    HW253914   2.221   9.280   5.802
17964SOL     OW53915   2.797   9.546   6.066
17964SOL    HW153916   2.749   9.587   5.988
17964SOL    HW253917   2.896   9.544   6.047
17965SOL     OW53918   2.938   9.993   7.050
17965SOL    HW153919   2.858   9.932   7.053
17965SOL    HW253920   3.019   9.940   7.026
17966SOL     OW53921   3.089  10.880   6.379
17966SOL    HW153922   3.110  10.954   6.314
17966SOL    HW253923   3.157  10.880   6.452
17967SOL     OW53924   2.321  10.462   6.327
17967SOL    HW153925   2.250  10.435   6.392
17967SOL    HW253926   2.295  10.434   6.234
17968SOL     OW53927   3.133  11.107   6.177
17968SOL    HW153928   3.177  11.171   6.113
17968SOL    HW253929   3.083  11.159   6.247
17969SOL     OW53930   2.894   9.859   5.602
17969SOL    HW153931   2.853   9.941   5.563
17969SOL    HW253932   2.958   9.885   5.675
17970SOL     OW53933   1.940   9.866   6.972
17970SOL    HW153934   2.032   9.865   6.931
17970SOL    HW253935   1.934   9.940   7.039
17971SOL     OW53936   2.423   9.532   6.733
17971SOL    HW153937   2.461   9.448   6.770
17971SOL    HW253938   2.335   9.551   6.777
17972SOL     OW53939   2.728   9.764   6.228
17972SOL    HW153940   2.696   9.836   6.166
17972SOL    HW253941   2.752   9.683   6.175
17973SOL     OW53942   2.879   9.349   6.339
17973SOL    HW153943   2.807   9.354   6.270
17973SOL    HW253944   2.855   9.280   6.408
17974SOL     OW53945   3.291  10.483   6.453
17974SOL    HW153946   3.236  10.399   6.446
17974SOL    HW253947   3.317  10.512   6.361
17975SOL     OW53948   3.328   9.900   6.578
17975SOL    HW153949   3.298   9.805   6.585
17975SOL    HW253950   3.401   9.916   6.644
17976SOL     OW53951   3.719  10.143   5.963
17976SOL    HW153952   3.761  10.079   6.027
17976SOL    HW253953   3.681  10.092   5.885
17977SOL     OW53954   2.350  10.695   5.760
17977SOL    HW153955   2.263  10.680   5.807
17977SOL    HW253956   2.333  10.721   5.665
17978SOL     OW53957   3.526  10.590   6.243
17978SOL    HW153958   3.625  10.598   6.257
17978SOL    HW253959   3.481  10.674   6.274
17979SOL     OW53960   3.252   9.885   5.664
17979SOL    HW153961   3.198   9.864   5.745
17979SOL    HW253962   3.343   9.844   5.673
17980SOL     OW53963   2.389   9.566   5.914
17980SOL    HW153964   2.416   9.507   5.839
17980SOL    HW253965   2.389   9.661   5.883
17981SOL     OW53966   3.616  10.533   7.174
17981SOL    HW153967   3.707  10.494   7.161
17981SOL    HW253968   3.624  10.629   7.198
17982SOL     OW53969   2.926  10.657   6.926
17982SOL    HW153970   2.846  10.634   6.981
17982SOL    HW253971   3.009  10.631   6.975
17983SOL     OW53972   3.454  10.939   7.211
17983SOL    HW153973   3.481  10.973   7.121
17983SOL    HW253974   3.533  10.901   7.257
17984SOL     OW53975   2.973  10.505   6.686
17984SOL    HW153976   2.933  10.549   6.767
17984SOL    HW253977   2.932  10.542   6.603
17985SOL     OW53978   3.500  10.409   6.665
17985SOL    HW153979   3.505  10.490   6.724
17985SOL    HW253980   3.414  10.411   6.614
17986SOL     OW53981   2.777   9.399   6.988
17986SOL    HW153982   2.802   9.379   6.893
17986SOL    HW253983   2.849   9.455   7.030
17987SOL     OW53984   2.842  10.426   7.305
17987SOL    HW153985   2.743  10.432   7.315
17987SOL    HW253986   2.865  10.346   7.249
17988SOL     OW53987   2.567  10.360   5.954
17988SOL    HW153988   2.553  10.367   6.053
17988SOL    HW253989   2.651  10.309   5.936
17989SOL     OW53990   2.272  10.123   6.837
17989SOL    HW153991   2.358  10.135   6.887
17989SOL    HW253992   2.230  10.036   6.864
17990SOL     OW53993   3.136   9.696   6.848
17990SOL    HW153994   3.157   9.770   6.912
17990SOL    HW253995   3.047   9.713   6.805
17991SOL     OW53996   1.926  10.874   6.917
17991SOL    HW153997   1.880  10.956   6.883
17991SOL    HW253998   2.024  10.893   6.926
17992SOL     OW53999   2.229  10.410   6.087
17992SOL    HW154000   2.222  10.493   6.031
17992SOL    HW254001   2.233  10.330   6.027
17993SOL     OW54002   2.428   9.847   6.451
17993SOL    HW154003   2.440   9.913   6.377
17993SOL    HW254004   2.474   9.881   6.534
17994SOL     OW54005   3.114  10.658   5.974
17994SOL    HW154006   3.164  10.735   6.014
17994SOL    HW254007   3.019  10.660   6.006
17995SOL     OW54008   3.134  10.755   6.728
17995SOL    HW154009   3.181  10.768   6.815
17995SOL    HW254010   3.068  10.681   6.737
17996SOL     OW54011   3.444   9.949   6.058
17996SOL    HW154012   3.413  10.010   6.131
17996SOL    HW254013   3.494  10.001   5.989
17997SOL     OW54014   2.216  10.820   6.915
17997SOL    HW154015   2.195  10.776   6.828
17997SOL    HW254016   2.313  10.846   6.918
17998SOL     OW54017   2.264  10.061   7.184
17998SOL    HW154018   2.332  10.116   7.137
17998SOL    HW254019   2.304   9.973   7.211
17999SOL     OW54020   3.449  10.089   7.256
17999SOL    HW154021   3.357  10.127   7.251
17999SOL    HW254022   3.509  10.136   7.191
18000SOL     OW54023   2.875   9.415   7.356
18000SOL    HW154024   2.881   9.500   7.304
18000SOL    HW254025   2.907   9.339   7.299
18001SOL     OW54026   2.366   9.360   7.326
18001SOL    HW154027   2.324   9.303   7.256
18001SOL    HW254028   2.300   9.429   7.358
18002SOL     OW54029   2.435  10.180   6.615
18002SOL    HW154030   2.479  10.269   6.606
18002SOL    HW254031   2.372  10.180   6.692
18003SOL     OW54032   3.222  10.172   6.631
18003SOL    HW154033   3.147  10.172   6.565
18003SOL    HW254034   3.259  10.080   6.640
18004SOL     OW54035   3.071   9.835   5.861
18004SOL    HW154036   3.084   9.751   5.915
18004SOL    HW254037   3.042   9.909   5.921
18005SOL     OW54038   2.169   9.523   6.817
18005SOL    HW154039   2.146   9.560   6.907
18005SOL    HW254040   2.139   9.428   6.811
18006SOL     OW54041   1.899  10.620   6.868
18006SOL    HW154042   1.952  10.571   6.936
18006SOL    HW254043   1.921  10.718   6.873
18007SOL     OW54044   2.594   9.944   6.650
18007SOL    HW154045   2.653   9.918   6.574
18007SOL    HW254046   2.566  10.040   6.639
18008SOL     OW54047   3.590  10.245   7.440
18008SOL    HW154048   3.544  10.238   7.351
18008SOL    HW254049   3.528  10.289   7.506
18009SOL     OW54050   2.169   9.373   6.204
18009SOL    HW154051   2.158   9.467   6.237
18009SOL    HW254052   2.164   9.310   6.281
18010SOL     OW54053   3.484   9.677   5.960
18010SOL    HW154054   3.486   9.601   6.024
18010SOL    HW254055   3.436   9.754   6.000
18011SOL     OW54056   2.885  10.076   6.552
18011SOL    HW154057   2.900  10.097   6.648
18011SOL    HW254058   2.855   9.981   6.543
18012SOL     OW54059   2.842  10.883   7.286
18012SOL    HW154060   2.822  10.927   7.198
18012SOL    HW254061   2.881  10.792   7.270
18013SOL     OW54062   3.721  10.828   7.191
18013SOL    HW154063   3.735  10.855   7.096
18013SOL    HW254064   3.804  10.850   7.244
18014SOL     OW54065   2.212  10.208   7.390
18014SOL    HW154066   2.288  10.252   7.438
18014SOL    HW254067   2.247  10.161   7.308
18015SOL     OW54068   3.402   9.584   5.711
18015SOL    HW154069   3.341   9.509   5.734
18015SOL    HW254070   3.424   9.636   5.794
18016SOL     OW54071   3.165  10.148   5.628
18016SOL    HW154072   3.199  10.055   5.643
18016SOL    HW254073   3.183  10.175   5.533
18017SOL     OW54074   2.930  10.643   6.435
18017SOL    HW154075   2.937  10.559   6.380
18017SOL    HW254076   2.992  10.712   6.399
18018SOL     OW54077   2.181  10.120   6.535
18018SOL    HW154078   2.274  10.156   6.540
18018SOL    HW254079   2.175  10.035   6.587
18019SOL     OW54080   2.201   9.819   6.592
18019SOL    HW154081   2.149   9.736   6.575
18019SOL    HW254082   2.278   9.824   6.528
18020SOL     OW54083   3.000   9.690   7.264
18020SOL    HW154084   2.955   9.753   7.328
18020SOL    HW254085   3.093   9.721   7.247
18021SOL     OW54086   3.022   9.517   7.063
18021SOL    HW154087   3.022   9.581   7.140
18021SOL    HW254088   3.050   9.565   6.980
18022SOL     OW54089   1.870  10.636   5.786
18022SOL    HW154090   1.777  10.657   5.755
18022SOL    HW254091   1.880  10.537   5.799
18023SOL     OW54092   1.950  11.111   6.513
18023SOL    HW154093   1.908  11.025   6.486
18023SOL    HW254094   2.044  11.114   6.479
18024SOL     OW54095   2.366  10.878   6.496
18024SOL    HW154096   2.432  10.952   6.505
18024SOL    HW254097   2.410  10.799   6.454
18025SOL     OW54098   2.864  10.106   6.824
18025SOL    HW154099   2.905  10.074   6.910
18025SOL    HW254100   2.768  10.079   6.821
18026SOL     OW54101   1.902   9.854   6.700
18026SOL    HW154102   1.987   9.821   6.659
18026SOL    HW254103   1.915   9.869   6.798
18027SOL     OW54104   2.051   9.830   7.308
18027SOL    HW154105   2.110   9.790   7.238
18027SOL    HW254106   1.993   9.901   7.267
18028SOL     OW54107   3.231  10.260   7.246
18028SOL    HW154108   3.270  10.349   7.266
18028SOL    HW254109   3.241  10.240   7.149
18029SOL     OW54110   2.677   9.882   5.911
18029SOL    HW154111   2.684   9.793   5.865
18029SOL    HW254112   2.583   9.916   5.903
18030SOL     OW54113   3.519   9.914   6.792
18030SOL    HW154114   3.481   9.845   6.854
18030SOL    HW254115   3.601   9.878   6.748
18031SOL     OW54116   2.114  10.874   7.330
18031SOL    HW154117   2.084  10.931   7.406
18031SOL    HW254118   2.107  10.777   7.356
18032SOL     OW54119   2.533   9.774   6.855
18032SOL    HW154120   2.499   9.685   6.825
18032SOL    HW254121   2.559   9.828   6.775
18033SOL     OW54122   2.792  10.988   7.051
18033SOL    HW154123   2.768  10.970   6.956
18033SOL    HW254124   2.822  11.082   7.061
18034SOL     OW54125   2.335   9.810   5.777
18034SOL    HW154126   2.396   9.890   5.781
18034SOL    HW254127   2.240   9.841   5.784
18035SOL     OW54128   2.021  10.447   7.052
18035SOL    HW154129   2.043  10.386   7.128
18035SOL    HW254130   2.031  10.398   6.966
18036SOL     OW54131   3.209  10.369   6.820
18036SOL    HW154132   3.233  10.306   6.746
18036SOL    HW254133   3.119  10.409   6.802
18037SOL     OW54134   3.164  10.165   5.895
18037SOL    HW154135   3.078  10.134   5.937
18037SOL    HW254136   3.160  10.151   5.796
18038SOL     OW54137   3.621  11.057   6.740
18038SOL    HW154138   3.682  11.087   6.667
18038SOL    HW254139   3.583  10.968   6.718
18039SOL     OW54140   3.114  11.041   6.714
18039SOL    HW154141   3.198  11.046   6.660
18039SOL    HW254142   3.091  10.945   6.732
18040SOL     OW54143   1.945  10.568   6.608
18040SOL    HW154144   1.940  10.567   6.708
18040SOL    HW254145   1.862  10.527   6.570
18041SOL     OW54146   2.550  10.972   7.302
18041SOL    HW154147   2.494  11.053   7.311
18041SOL    HW254148   2.602  10.976   7.216
18042SOL     OW54149   3.588   9.445   6.109
18042SOL    HW154150   3.661   9.428   6.042
18042SOL    HW254151   3.557   9.358   6.147
18043SOL     OW54152   3.250  10.883   6.063
18043SOL    HW154153   3.317  10.895   5.989
18043SOL    HW254154   3.210  10.972   6.086
18044SOL     OW54155   1.992  11.104   7.437
18044SOL    HW154156   1.951  11.030   7.490
18044SOL    HW254157   2.056  11.155   7.495
18045SOL     OW54158   3.142  10.237   6.258
18045SOL    HW154159   3.202  10.156   6.260
18045SOL    HW254160   3.182  10.306   6.198
18046SOL     OW54161   2.692  10.583   7.008
18046SOL    HW154162   2.687  10.616   7.103
18046SOL    HW254163   2.606  10.602   6.962
18047SOL     OW54164   2.534  10.926   5.740
18047SOL    HW154165   2.543  10.936   5.641
18047SOL    HW254166   2.494  10.837   5.761
18048SOL     OW54167   3.512  11.030   6.980
18048SOL    HW154168   3.565  11.040   6.896
18048SOL    HW254169   3.485  11.120   7.014
18049SOL     OW54170   3.703   9.485   6.549
18049SOL    HW154171   3.742   9.400   6.513
18049SOL    HW254172   3.605   9.487   6.530
18050SOL     OW54173   2.125   9.636   6.306
18050SOL    HW154174   2.046   9.687   6.272
18050SOL    HW254175   2.116   9.621   6.404
18051SOL     OW54176   3.056  10.922   5.617
18051SOL    HW154177   3.062  10.829   5.654
18051SOL    HW254178   2.997  10.922   5.537
18052SOL     OW54179   2.684  10.312   6.958
18052SOL    HW154180   2.724  10.311   6.866
18052SOL    HW254181   2.694  10.404   6.998
18053SOL     OW54182   2.778  10.220   5.877
18053SOL    HW154183   2.841  10.258   5.809
18053SOL    HW254184   2.818  10.137   5.916
18054SOL     OW54185   3.366  10.917   5.630
18054SOL    HW154186   3.274  10.954   5.637
18054SOL    HW254187   3.404  10.937   5.540
18055SOL     OW54188   2.234  10.598   7.076
18055SOL    HW154189   2.221  10.691   7.042
18055SOL    HW254190   2.150  10.546   7.063
18056SOL     OW54191   3.476  10.602   6.875
18056SOL    HW154192   3.536  10.605   6.955
18056SOL    HW254193   3.401  10.666   6.888
18057SOL     OW54194   2.901  10.408   6.282
18057SOL    HW154195   2.831  10.361   6.336
18057SOL    HW254196   2.960  10.340   6.239
18058SOL     OW54197   2.876   9.546   6.557
18058SOL    HW154198   2.868   9.510   6.464
18058SOL    HW254199   2.874   9.470   6.622
18059SOL     OW54200   2.452  10.797   6.077
18059SOL    HW154201   2.494  10.739   6.007
18059SOL    HW254202   2.408  10.876   6.033
18060SOL     OW54203   3.571   9.695   6.967
18060SOL    HW154204   3.644   9.764   6.971
18060SOL    HW254205   3.599   9.620   6.908
18061SOL     OW54206   2.117  10.658   5.876
18061SOL    HW154207   2.021  10.659   5.849
18061SOL    HW254208   2.129  10.711   5.960
18062SOL     OW54209   1.967  10.323   7.312
18062SOL    HW154210   1.890  10.290   7.366
18062SOL    HW254211   2.052  10.293   7.354
18063SOL     OW54212   2.534   9.513   7.075
18063SOL    HW154213   2.624   9.497   7.035
18063SOL    HW254214   2.542   9.518   7.174
18064SOL     OW54215   1.937   9.655   5.619
18064SOL    HW154216   1.845   9.627   5.590
18064SOL    HW254217   1.968   9.732   5.563
18065SOL     OW54218   3.302  10.166   6.984
18065SOL    HW154219   3.245  10.218   6.921
18065SOL    HW254220   3.398  10.178   6.960
18066SOL     OW54221   1.934   9.476   5.904
18066SOL    HW154222   1.917   9.559   5.850
18066SOL    HW254223   2.024   9.439   5.882
18067SOL     OW54224   3.045  10.645   5.705
18067SOL    HW154225   2.946  10.634   5.707
18067SOL    HW254226   3.079  10.660   5.798
18068SOL     OW54227   2.475  10.152   7.017
18068SOL    HW154228   2.531  10.233   7.000
18068SOL    HW254229   2.534  10.072   7.020
18069SOL     OW54230   3.355  11.077   6.545
18069SOL    HW154231   3.388  11.141   6.476
18069SOL    HW254232   3.421  11.071   6.620
18070SOL     OW54233   2.578   9.875   7.294
18070SOL    HW154234   2.597   9.940   7.368
18070SOL    HW254235   2.638   9.795   7.303
18071SOL     OW54236   3.312  10.530   7.219
18071SOL    HW154237   3.303  10.520   7.318
18071SOL    HW254238   3.408  10.523   7.193
18072SOL     OW54239   2.252  11.051   7.146
18072SOL    HW154240   2.161  11.092   7.144
18072SOL    HW254241   2.245  10.957   7.178
18073SOL     OW54242   3.536  10.193   6.840
18073SOL    HW154243   3.509  10.104   6.803
18073SOL    HW254244   3.537  10.261   6.767
18074SOL     OW54245   3.087   9.635   6.035
18074SOL    HW154246   3.152   9.561   6.024
18074SOL    HW254247   3.107   9.685   6.119
18075SOL     OW54248   2.456  10.055   6.238
18075SOL    HW154249   2.506  10.140   6.219
18075SOL    HW254250   2.368  10.057   6.190
18076SOL     OW54251   3.639   9.652   7.228
18076SOL    HW154252   3.622   9.683   7.134
18076SOL    HW254253   3.555   9.615   7.266
18077SOL     OW54254   3.592  10.244   7.103
18077SOL    HW154255   3.630  10.335   7.118
18077SOL    HW254256   3.584  10.227   7.004
18078SOL     OW54257   2.721  10.684   5.602
18078SOL    HW154258   2.675  10.699   5.690
18078SOL    HW254259   2.765  10.769   5.572
18079SOL     OW54260   2.523  11.100   6.539
18079SOL    HW154261   2.477  11.188   6.526
18079SOL    HW254262   2.622  11.112   6.532
18080SOL     OW54263   2.721  10.266   6.447
18080SOL    HW154264   2.775  10.197   6.495
18080SOL    HW254265   2.689  10.335   6.513
18081SOL     OW54266   2.945  10.294   5.673
18081SOL    HW154267   2.922  10.347   5.591
18081SOL    HW254268   3.026  10.238   5.654
18082SOL     OW54269   3.723  10.879   6.437
18082SOL    HW154270   3.652  10.867   6.367
18082SOL    HW254271   3.724  10.800   6.497
18083SOL     OW54272   2.083  10.624   7.430
18083SOL    HW154273   2.018  10.551   7.409
18083SOL    HW254274   2.087  10.638   7.528
18084SOL     OW54275   1.941  10.550   6.239
18084SOL    HW154276   1.940  10.503   6.327
18084SOL    HW254277   2.023  10.522   6.188
18085SOL     OW54278   2.534  10.701   7.210
18085SOL    HW154279   2.456  10.651   7.248
18085SOL    HW254280   2.531  10.796   7.241
18086SOL     OW54281   3.686   9.502   6.813
18086SOL    HW154282   3.682   9.412   6.857
18086SOL    HW254283   3.689   9.491   6.714
18087SOL     OW54284   2.290   9.734   6.106
18087SOL    HW154285   2.320   9.662   6.044
18087SOL    HW254286   2.251   9.694   6.189
18088SOL     OW54287   3.567  10.797   6.690
18088SOL    HW154288   3.474  10.772   6.663
18088SOL    HW254289   3.593  10.747   6.772
18089SOL     OW54290   2.179   9.857   6.866
18089SOL    HW154291   2.217   9.798   6.938
18089SOL    HW254292   2.219   9.831   6.778
18090SOL     OW54293   2.674  10.896   6.273
18090SOL    HW154294   2.706  10.906   6.179
18090SOL    HW254295   2.595  10.834   6.275
18091SOL     OW54296   3.286   9.524   6.698
18091SOL    HW154297   3.338   9.459   6.753
18091SOL    HW254298   3.237   9.587   6.759
18092SOL     OW54299   2.863   9.344   6.740
18092SOL    HW154300   2.800   9.272   6.709
18092SOL    HW254301   2.956   9.308   6.740
18093SOL     OW54302   2.632  10.640   5.887
18093SOL    HW154303   2.586  10.553   5.904
18093SOL    HW254304   2.723  10.637   5.928
18094SOL     OW54305   2.480  10.877   6.870
18094SOL    HW154306   2.475  10.959   6.927
18094SOL    HW254307   2.569  10.874   6.825
18095SOL     OW54308   3.214   9.362   5.754
18095SOL    HW154309   3.249   9.321   5.670
18095SOL    HW254310   3.124   9.324   5.774
18096SOL     OW54311   3.162   9.763   6.277
18096SOL    HW154312   3.103   9.843   6.281
18096SOL    HW254313   3.177   9.728   6.370
18097SOL     OW54314   3.455   9.531   6.468
18097SOL    HW154315   3.371   9.530   6.522
18097SOL    HW254316   3.457   9.614   6.412
18098SOL     OW54317   1.901  10.387   5.886
18098SOL    HW154318   2.000  10.376   5.877
18098SOL    HW254319   1.861  10.301   5.918
18099SOL     OW54320   2.737  10.956   5.923
18099SOL    HW154321   2.660  10.921   5.869
18099SOL    HW254322   2.705  11.027   5.985
18100SOL     OW54323   2.092   9.938   7.561
18100SOL    HW154324   1.999   9.936   7.598
18100SOL    HW254325   2.093   9.899   7.469
18101SOL     OW54326   2.087   9.585   8.444
18101SOL    HW154327   2.122   9.568   8.536
18101SOL    HW254328   1.999   9.540   8.432
18102SOL     OW54329   1.881   9.678   8.095
18102SOL    HW154330   1.799   9.721   8.134
18102SOL    HW254331   1.853   9.605   8.032
18103SOL     OW54332   2.431  10.585   8.613
18103SOL    HW154333   2.338  10.578   8.576
18103SOL    HW254334   2.442  10.674   8.657
18104SOL     OW54335   3.417  10.821   8.151
18104SOL    HW154336   3.360  10.805   8.232
18104SOL    HW254337   3.358  10.831   8.071
18105SOL     OW54338   2.997  10.013   8.165
18105SOL    HW154339   3.054  10.091   8.140
18105SOL    HW254340   2.937  10.039   8.241
18106SOL     OW54341   3.617   9.917   7.679
18106SOL    HW154342   3.605   9.904   7.580
18106SOL    HW254343   3.587   9.836   7.728
18107SOL     OW54344   2.630  10.454   8.471
18107SOL    HW154345   2.552  10.471   8.531
18107SOL    HW254346   2.664  10.541   8.435
18108SOL     OW54347   2.712  10.108   9.271
18108SOL    HW154348   2.708  10.184   9.336
18108SOL    HW254349   2.734  10.144   9.180
18109SOL     OW54350   2.547  10.322   8.113
18109SOL    HW154351   2.616  10.306   8.183
18109SOL    HW254352   2.474  10.379   8.151
18110SOL     OW54353   2.548  10.471   9.251
18110SOL    HW154354   2.608  10.550   9.265
18110SOL    HW254355   2.462  10.502   9.210
18111SOL     OW54356   2.197  10.745   8.509
18111SOL    HW154357   2.119  10.714   8.456
18111SOL    HW254358   2.255  10.803   8.452
18112SOL     OW54359   3.322  10.815   8.787
18112SOL    HW154360   3.346  10.909   8.813
18112SOL    HW254361   3.306  10.761   8.869
18113SOL     OW54362   2.300   9.702   8.947
18113SOL    HW154363   2.382   9.646   8.956
18113SOL    HW254364   2.219   9.644   8.951
18114SOL     OW54365   3.465   9.757   8.185
18114SOL    HW154366   3.391   9.803   8.135
18114SOL    HW254367   3.516   9.825   8.238
18115SOL     OW54368   2.093  11.023   7.931
18115SOL    HW154369   2.127  11.100   7.985
18115SOL    HW254370   2.137  11.023   7.841
18116SOL     OW54371   2.092  10.744   7.986
18116SOL    HW154372   2.066  10.840   7.986
18116SOL    HW254373   2.021  10.690   8.031
18117SOL     OW54374   2.102  10.401   8.334
18117SOL    HW154375   2.116  10.317   8.386
18117SOL    HW254376   2.047  10.465   8.389
18118SOL     OW54377   2.482  11.096   8.887
18118SOL    HW154378   2.390  11.079   8.922
18118SOL    HW254379   2.510  11.188   8.913
18119SOL     OW54380   2.468  10.274   7.571
18119SOL    HW154381   2.475  10.358   7.517
18119SOL    HW254382   2.514  10.287   7.659
18120SOL     OW54383   3.456   9.424   8.928
18120SOL    HW154384   3.438   9.491   8.856
18120SOL    HW254385   3.453   9.470   9.017
18121SOL     OW54386   1.984   9.953   8.011
18121SOL    HW154387   1.939   9.865   8.028
18121SOL    HW254388   1.983  10.007   8.095
18122SOL     OW54389   3.704  11.077   7.807
18122SOL    HW154390   3.758  11.048   7.887
18122SOL    HW254391   3.734  11.167   7.778
18123SOL     OW54392   1.889  10.906   7.565
18123SOL    HW154393   1.870  10.810   7.586
18123SOL    HW254394   1.856  10.964   7.640
18124SOL     OW54395   3.551  10.232   8.060
18124SOL    HW154396   3.646  10.203   8.068
18124SOL    HW254397   3.543  10.297   7.985
18125SOL     OW54398   3.503  10.418   7.880
18125SOL    HW154399   3.589  10.420   7.828
18125SOL    HW254400   3.517  10.465   7.968
18126SOL     OW54401   1.975  10.047   9.045
18126SOL    HW154402   2.063  10.034   9.090
18126SOL    HW254403   1.962  10.144   9.023
18127SOL     OW54404   2.475  10.675   8.174
18127SOL    HW154405   2.426  10.588   8.183
18127SOL    HW254406   2.452  10.718   8.087
18128SOL     OW54407   3.155  10.538   8.871
18128SOL    HW154408   3.192  10.465   8.813
18128SOL    HW254409   3.207  10.543   8.956
18129SOL     OW54410   2.671   9.314   7.950
18129SOL    HW154411   2.711   9.405   7.941
18129SOL    HW254412   2.571   9.322   7.956
18130SOL     OW54413   2.059  10.286   8.712
18130SOL    HW154414   2.148  10.241   8.698
18130SOL    HW254415   1.986  10.221   8.693
18131SOL     OW54416   3.387  10.309   7.638
18131SOL    HW154417   3.324  10.233   7.651
18131SOL    HW254418   3.435  10.327   7.724
18132SOL     OW54419   3.049  11.102   9.064
18132SOL    HW154420   3.073  11.162   8.988
18132SOL    HW254421   3.056  11.007   9.034
18133SOL     OW54422   2.179   9.561   9.249
18133SOL    HW154423   2.250   9.632   9.255
18133SOL    HW254424   2.091   9.600   9.277
18134SOL     OW54425   3.328  10.727   8.401
18134SOL    HW154426   3.269  10.733   8.481
18134SOL    HW254427   3.313  10.639   8.355
18135SOL     OW54428   3.529  11.024   8.020
18135SOL    HW154429   3.488  11.001   7.932
18135SOL    HW254430   3.511  10.950   8.085
18136SOL     OW54431   2.460  10.039   7.718
18136SOL    HW154432   2.484  10.108   7.650
18136SOL    HW254433   2.382  10.072   7.772
18137SOL     OW54434   3.143   9.655   8.392
18137SOL    HW154435   3.057   9.605   8.379
18137SOL    HW254436   3.205   9.601   8.448
18138SOL     OW54437   3.438  10.972   7.755
18138SOL    HW154438   3.527  11.018   7.758
18138SOL    HW254439   3.417  10.948   7.660
18139SOL     OW54440   2.669   9.915   8.913
18139SOL    HW154441   2.622   9.912   9.002
18139SOL    HW254442   2.618   9.860   8.847
18140SOL     OW54443   3.256   9.779   9.122
18140SOL    HW154444   3.236   9.822   9.210
18140SOL    HW254445   3.334   9.717   9.131
18141SOL     OW54446   2.835  10.200   9.020
18141SOL    HW154447   2.881  10.116   8.991
18141SOL    HW254448   2.779  10.234   8.945
18142SOL     OW54449   2.853   9.720   8.690
18142SOL    HW154450   2.776   9.754   8.744
18142SOL    HW254451   2.819   9.669   8.611
18143SOL     OW54452   2.903  10.011   7.877
18143SOL    HW154453   2.929  10.007   7.973
18143SOL    HW254454   2.818   9.960   7.863
18144SOL     OW54455   1.938  10.121   8.237
18144SOL    HW154456   2.037  10.109   8.246
18144SOL    HW254457   1.914  10.216   8.258
18145SOL     OW54458   1.992  11.131   9.019
18145SOL    HW154459   1.982  11.116   9.118
18145SOL    HW254460   1.906  11.167   8.983
18146SOL     OW54461   2.727   9.658   7.643
18146SOL    HW154462   2.786   9.721   7.594
18146SOL    HW254463   2.746   9.564   7.614
18147SOL     OW54464   3.581   9.895   9.279
18147SOL    HW154465   3.555   9.984   9.243
18147SOL    HW254466   3.579   9.827   9.206
18148SOL     OW54467   3.224  10.454   7.993
18148SOL    HW154468   3.307  10.425   7.945
18148SOL    HW254469   3.175  10.521   7.937
18149SOL     OW54470   2.412   9.506   8.333
18149SOL    HW154471   2.407   9.501   8.433
18149SOL    HW254472   2.414   9.602   8.304
18150SOL     OW54473   2.870  10.766   7.925
18150SOL    HW154474   2.824  10.838   7.873
18150SOL    HW254475   2.866  10.786   8.023
18151SOL     OW54476   2.213  11.111   8.301
18151SOL    HW154477   2.263  11.025   8.307
18151SOL    HW254478   2.278  11.188   8.298
18152SOL     OW54479   3.657  10.376   8.321
18152SOL    HW154480   3.595  10.361   8.245
18152SOL    HW254481   3.605  10.387   8.406
18153SOL     OW54482   3.089  10.860   8.954
18153SOL    HW154483   3.095  10.783   9.018
18153SOL    HW254484   3.037  10.834   8.874
18154SOL     OW54485   2.183  10.253   7.690
18154SOL    HW154486   2.265  10.292   7.648
18154SOL    HW254487   2.156  10.171   7.641
18155SOL     OW54488   3.320  10.045   8.176
18155SOL    HW154489   3.315   9.980   8.251
18155SOL    HW254490   3.400  10.104   8.189
18156SOL     OW54491   2.323  10.576   9.175
18156SOL    HW154492   2.273  10.577   9.089
18156SOL    HW254493   2.260  10.558   9.251
18157SOL     OW54494   2.973  11.086   7.685
18157SOL    HW154495   2.913  11.024   7.735
18157SOL    HW254496   3.004  11.042   7.600
18158SOL     OW54497   2.064   9.595   8.946
18158SOL    HW154498   1.984   9.655   8.933
18158SOL    HW254499   2.054   9.546   9.032
18159SOL     OW54500   3.494  10.687   7.529
18159SOL    HW154501   3.462  10.781   7.519
18159SOL    HW254502   3.418  10.624   7.517
18160SOL     OW54503   2.326  11.053   7.771
18160SOL    HW154504   2.359  11.092   7.857
18160SOL    HW254505   2.402  11.046   7.706
18161SOL     OW54506   3.262   9.417   7.874
18161SOL    HW154507   3.238   9.380   7.784
18161SOL    HW254508   3.361   9.433   7.878
18162SOL     OW54509   2.802  11.008   8.352
18162SOL    HW154510   2.882  10.951   8.373
18162SOL    HW254511   2.753  10.968   8.275
18163SOL     OW54512   2.244  10.010   7.928
18163SOL    HW154513   2.289   9.920   7.925
18163SOL    HW254514   2.150   9.999   7.961
18164SOL     OW54515   3.409   9.532   9.177
18164SOL    HW154516   3.404   9.569   9.269
18164SOL    HW254517   3.337   9.463   9.165
18165SOL     OW54518   2.476   9.432   7.565
18165SOL    HW154519   2.574   9.410   7.572
18165SOL    HW254520   2.445   9.415   7.472
18166SOL     OW54521   2.643   9.574   9.197
18166SOL    HW154522   2.710   9.513   9.240
18166SOL    HW254523   2.570   9.593   9.262
18167SOL     OW54524   2.750  10.824   8.643
18167SOL    HW154525   2.727  10.799   8.549
18167SOL    HW254526   2.811  10.755   8.682
18168SOL     OW54527   3.213   9.900   8.881
18168SOL    HW154528   3.241   9.857   8.966
18168SOL    HW254529   3.238   9.996   8.882
18169SOL     OW54530   2.665  10.712   8.372
18169SOL    HW154531   2.755  10.726   8.330
18169SOL    HW254532   2.594  10.714   8.301
18170SOL     OW54533   2.784   9.813   8.347
18170SOL    HW154534   2.759   9.804   8.251
18170SOL    HW254535   2.832   9.731   8.378
18171SOL     OW54536   2.401   9.374   7.960
18171SOL    HW154537   2.320   9.375   8.018
18171SOL    HW254538   2.404   9.457   7.905
18172SOL     OW54539   3.296  10.498   7.489
18172SOL    HW154540   3.328  10.422   7.546
18172SOL    HW254541   3.204  10.525   7.519
18173SOL     OW54542   2.159   9.345   7.619
18173SOL    HW154543   2.208   9.429   7.598
18173SOL    HW254544   2.221   9.280   7.664
18174SOL     OW54545   2.797   9.546   7.928
18174SOL    HW154546   2.749   9.587   7.850
18174SOL    HW254547   2.896   9.544   7.909
18175SOL     OW54548   2.938   9.993   8.912
18175SOL    HW154549   2.858   9.932   8.915
18175SOL    HW254550   3.019   9.940   8.888
18176SOL     OW54551   3.089  10.880   8.241
18176SOL    HW154552   3.110  10.954   8.176
18176SOL    HW254553   3.157  10.880   8.314
18177SOL     OW54554   2.321  10.462   8.189
18177SOL    HW154555   2.250  10.435   8.254
18177SOL    HW254556   2.295  10.434   8.096
18178SOL     OW54557   3.133  11.107   8.039
18178SOL    HW154558   3.177  11.171   7.975
18178SOL    HW254559   3.083  11.159   8.109
18179SOL     OW54560   2.894   9.859   7.464
18179SOL    HW154561   2.853   9.941   7.425
18179SOL    HW254562   2.958   9.885   7.537
18180SOL     OW54563   1.940   9.866   8.834
18180SOL    HW154564   2.032   9.865   8.793
18180SOL    HW254565   1.934   9.940   8.901
18181SOL     OW54566   2.423   9.532   8.595
18181SOL    HW154567   2.461   9.448   8.632
18181SOL    HW254568   2.335   9.551   8.639
18182SOL     OW54569   2.728   9.764   8.090
18182SOL    HW154570   2.696   9.836   8.028
18182SOL    HW254571   2.752   9.683   8.037
18183SOL     OW54572   2.879   9.349   8.201
18183SOL    HW154573   2.807   9.354   8.132
18183SOL    HW254574   2.855   9.280   8.270
18184SOL     OW54575   3.291  10.483   8.315
18184SOL    HW154576   3.236  10.399   8.308
18184SOL    HW254577   3.317  10.512   8.223
18185SOL     OW54578   3.328   9.900   8.440
18185SOL    HW154579   3.298   9.805   8.447
18185SOL    HW254580   3.401   9.916   8.506
18186SOL     OW54581   3.719  10.143   7.825
18186SOL    HW154582   3.761  10.079   7.889
18186SOL    HW254583   3.681  10.092   7.747
18187SOL     OW54584   2.350  10.695   7.622
18187SOL    HW154585   2.263  10.680   7.669
18187SOL    HW254586   2.333  10.721   7.527
18188SOL     OW54587   3.526  10.590   8.105
18188SOL    HW154588   3.625  10.598   8.119
18188SOL    HW254589   3.481  10.674   8.136
18189SOL     OW54590   3.252   9.885   7.526
18189SOL    HW154591   3.198   9.864   7.607
18189SOL    HW254592   3.343   9.844   7.535
18190SOL     OW54593   2.389   9.566   7.776
18190SOL    HW154594   2.416   9.507   7.701
18190SOL    HW254595   2.389   9.661   7.745
18191SOL     OW54596   3.616  10.533   9.036
18191SOL    HW154597   3.707  10.494   9.023
18191SOL    HW254598   3.624  10.629   9.060
18192SOL     OW54599   2.926  10.657   8.788
18192SOL    HW154600   2.846  10.634   8.843
18192SOL    HW254601   3.009  10.631   8.837
18193SOL     OW54602   3.454  10.939   9.073
18193SOL    HW154603   3.481  10.973   8.983
18193SOL    HW254604   3.533  10.901   9.119
18194SOL     OW54605   2.973  10.505   8.548
18194SOL    HW154606   2.933  10.549   8.629
18194SOL    HW254607   2.932  10.542   8.465
18195SOL     OW54608   3.500  10.409   8.527
18195SOL    HW154609   3.505  10.490   8.586
18195SOL    HW254610   3.414  10.411   8.476
18196SOL     OW54611   2.777   9.399   8.850
18196SOL    HW154612   2.802   9.379   8.755
18196SOL    HW254613   2.849   9.455   8.892
18197SOL     OW54614   2.842  10.426   9.167
18197SOL    HW154615   2.743  10.432   9.177
18197SOL    HW254616   2.865  10.346   9.111
18198SOL     OW54617   2.567  10.360   7.816
18198SOL    HW154618   2.553  10.367   7.915
18198SOL    HW254619   2.651  10.309   7.798
18199SOL     OW54620   2.272  10.123   8.699
18199SOL    HW154621   2.358  10.135   8.749
18199SOL    HW254622   2.230  10.036   8.726
18200SOL     OW54623   3.136   9.696   8.710
18200SOL    HW154624   3.157   9.770   8.774
18200SOL    HW254625   3.047   9.713   8.667
18201SOL     OW54626   1.926  10.874   8.779
18201SOL    HW154627   1.880  10.956   8.745
18201SOL    HW254628   2.024  10.893   8.788
18202SOL     OW54629   2.229  10.410   7.949
18202SOL    HW154630   2.222  10.493   7.893
18202SOL    HW254631   2.233  10.330   7.889
18203SOL     OW54632   2.428   9.847   8.313
18203SOL    HW154633   2.440   9.913   8.239
18203SOL    HW254634   2.474   9.881   8.396
18204SOL     OW54635   3.114  10.658   7.836
18204SOL    HW154636   3.164  10.735   7.876
18204SOL    HW254637   3.019  10.660   7.868
18205SOL     OW54638   3.134  10.755   8.590
18205SOL    HW154639   3.181  10.768   8.677
18205SOL    HW254640   3.068  10.681   8.599
18206SOL     OW54641   3.444   9.949   7.920
18206SOL    HW154642   3.413  10.010   7.993
18206SOL    HW254643   3.494  10.001   7.851
18207SOL     OW54644   2.216  10.820   8.777
18207SOL    HW154645   2.195  10.776   8.690
18207SOL    HW254646   2.313  10.846   8.780
18208SOL     OW54647   2.264  10.061   9.046
18208SOL    HW154648   2.332  10.116   8.999
18208SOL    HW254649   2.304   9.973   9.073
18209SOL     OW54650   3.449  10.089   9.118
18209SOL    HW154651   3.357  10.127   9.113
18209SOL    HW254652   3.509  10.136   9.053
18210SOL     OW54653   2.875   9.415   9.218
18210SOL    HW154654   2.881   9.500   9.166
18210SOL    HW254655   2.907   9.339   9.161
18211SOL     OW54656   2.366   9.360   9.188
18211SOL    HW154657   2.324   9.303   9.118
18211SOL    HW254658   2.300   9.429   9.220
18212SOL     OW54659   2.435  10.180   8.477
18212SOL    HW154660   2.479  10.269   8.468
18212SOL    HW254661   2.372  10.180   8.554
18213SOL     OW54662   3.222  10.172   8.493
18213SOL    HW154663   3.147  10.172   8.427
18213SOL    HW254664   3.259  10.080   8.502
18214SOL     OW54665   3.071   9.835   7.723
18214SOL    HW154666   3.084   9.751   7.777
18214SOL    HW254667   3.042   9.909   7.783
18215SOL     OW54668   2.169   9.523   8.679
18215SOL    HW154669   2.146   9.560   8.769
18215SOL    HW254670   2.139   9.428   8.673
18216SOL     OW54671   1.899  10.620   8.730
18216SOL    HW154672   1.952  10.571   8.798
18216SOL    HW254673   1.921  10.718   8.735
18217SOL     OW54674   2.594   9.944   8.512
18217SOL    HW154675   2.653   9.918   8.436
18217SOL    HW254676   2.566  10.040   8.501
18218SOL     OW54677   3.590  10.245   9.302
18218SOL    HW154678   3.544  10.238   9.213
18218SOL    HW254679   3.528  10.289   9.368
18219SOL     OW54680   2.169   9.373   8.066
18219SOL    HW154681   2.158   9.467   8.099
18219SOL    HW254682   2.164   9.310   8.143
18220SOL     OW54683   3.484   9.677   7.822
18220SOL    HW154684   3.486   9.601   7.886
18220SOL    HW254685   3.436   9.754   7.862
18221SOL     OW54686   2.885  10.076   8.414
18221SOL    HW154687   2.900  10.097   8.510
18221SOL    HW254688   2.855   9.981   8.405
18222SOL     OW54689   2.842  10.883   9.148
18222SOL    HW154690   2.822  10.927   9.060
18222SOL    HW254691   2.881  10.792   9.132
18223SOL     OW54692   3.721  10.828   9.053
18223SOL    HW154693   3.735  10.855   8.958
18223SOL    HW254694   3.804  10.850   9.106
18224SOL     OW54695   2.212  10.208   9.252
18224SOL    HW154696   2.288  10.252   9.300
18224SOL    HW254697   2.247  10.161   9.170
18225SOL     OW54698   3.402   9.584   7.573
18225SOL    HW154699   3.341   9.509   7.596
18225SOL    HW254700   3.424   9.636   7.656
18226SOL     OW54701   3.165  10.148   7.490
18226SOL    HW154702   3.199  10.055   7.505
18226SOL    HW254703   3.183  10.175   7.395
18227SOL     OW54704   2.930  10.643   8.297
18227SOL    HW154705   2.937  10.559   8.242
18227SOL    HW254706   2.992  10.712   8.261
18228SOL     OW54707   2.181  10.120   8.397
18228SOL    HW154708   2.274  10.156   8.402
18228SOL    HW254709   2.175  10.035   8.449
18229SOL     OW54710   2.201   9.819   8.454
18229SOL    HW154711   2.149   9.736   8.437
18229SOL    HW254712   2.278   9.824   8.390
18230SOL     OW54713   3.000   9.690   9.126
18230SOL    HW154714   2.955   9.753   9.190
18230SOL    HW254715   3.093   9.721   9.109
18231SOL     OW54716   3.022   9.517   8.925
18231SOL    HW154717   3.022   9.581   9.002
18231SOL    HW254718   3.050   9.565   8.842
18232SOL     OW54719   1.870  10.636   7.648
18232SOL    HW154720   1.777  10.657   7.617
18232SOL    HW254721   1.880  10.537   7.661
18233SOL     OW54722   1.950  11.111   8.375
18233SOL    HW154723   1.908  11.025   8.348
18233SOL    HW254724   2.044  11.114   8.341
18234SOL     OW54725   2.366  10.878   8.358
18234SOL    HW154726   2.432  10.952   8.367
18234SOL    HW254727   2.410  10.799   8.316
18235SOL     OW54728   2.864  10.106   8.686
18235SOL    HW154729   2.905  10.074   8.772
18235SOL    HW254730   2.768  10.079   8.683
18236SOL     OW54731   1.902   9.854   8.562
18236SOL    HW154732   1.987   9.821   8.521
18236SOL    HW254733   1.915   9.869   8.660
18237SOL     OW54734   2.051   9.830   9.170
18237SOL    HW154735   2.110   9.790   9.100
18237SOL    HW254736   1.993   9.901   9.129
18238SOL     OW54737   3.231  10.260   9.108
18238SOL    HW154738   3.270  10.349   9.128
18238SOL    HW254739   3.241  10.240   9.011
18239SOL     OW54740   2.677   9.882   7.773
18239SOL    HW154741   2.684   9.793   7.727
18239SOL    HW254742   2.583   9.916   7.765
18240SOL     OW54743   3.519   9.914   8.654
18240SOL    HW154744   3.481   9.845   8.716
18240SOL    HW254745   3.601   9.878   8.610
18241SOL     OW54746   2.114  10.874   9.192
18241SOL    HW154747   2.084  10.931   9.268
18241SOL    HW254748   2.107  10.777   9.218
18242SOL     OW54749   2.533   9.774   8.717
18242SOL    HW154750   2.499   9.685   8.687
18242SOL    HW254751   2.559   9.828   8.637
18243SOL     OW54752   2.792  10.988   8.913
18243SOL    HW154753   2.768  10.970   8.818
18243SOL    HW254754   2.822  11.082   8.923
18244SOL     OW54755   2.021  10.447   8.914
18244SOL    HW154756   2.043  10.386   8.990
18244SOL    HW254757   2.031  10.398   8.828
18245SOL     OW54758   3.209  10.369   8.682
18245SOL    HW154759   3.233  10.306   8.608
18245SOL    HW254760   3.119  10.409   8.664
18246SOL     OW54761   3.164  10.165   7.757
18246SOL    HW154762   3.078  10.134   7.799
18246SOL    HW254763   3.160  10.151   7.658
18247SOL     OW54764   3.621  11.057   8.602
18247SOL    HW154765   3.682  11.087   8.529
18247SOL    HW254766   3.583  10.968   8.580
18248SOL     OW54767   3.114  11.041   8.576
18248SOL    HW154768   3.198  11.046   8.522
18248SOL    HW254769   3.091  10.945   8.594
18249SOL     OW54770   1.945  10.568   8.470
18249SOL    HW154771   1.940  10.567   8.570
18249SOL    HW254772   1.862  10.527   8.432
18250SOL     OW54773   2.550  10.972   9.164
18250SOL    HW154774   2.494  11.053   9.173
18250SOL    HW254775   2.602  10.976   9.078
18251SOL     OW54776   3.588   9.445   7.971
18251SOL    HW154777   3.661   9.428   7.904
18251SOL    HW254778   3.557   9.358   8.009
18252SOL     OW54779   3.250  10.883   7.925
18252SOL    HW154780   3.317  10.895   7.851
18252SOL    HW254781   3.210  10.972   7.948
18253SOL     OW54782   1.992  11.104   9.299
18253SOL    HW154783   1.951  11.030   9.352
18253SOL    HW254784   2.056  11.155   9.357
18254SOL     OW54785   3.142  10.237   8.120
18254SOL    HW154786   3.202  10.156   8.122
18254SOL    HW254787   3.182  10.306   8.060
18255SOL     OW54788   2.692  10.583   8.870
18255SOL    HW154789   2.687  10.616   8.965
18255SOL    HW254790   2.606  10.602   8.824
18256SOL     OW54791   2.534  10.926   7.602
18256SOL    HW154792   2.543  10.936   7.503
18256SOL    HW254793   2.494  10.837   7.623
18257SOL     OW54794   3.512  11.030   8.842
18257SOL    HW154795   3.565  11.040   8.758
18257SOL    HW254796   3.485  11.120   8.876
18258SOL     OW54797   3.703   9.485   8.411
18258SOL    HW154798   3.742   9.400   8.375
18258SOL    HW254799   3.605   9.487   8.392
18259SOL     OW54800   2.125   9.636   8.168
18259SOL    HW154801   2.046   9.687   8.134
18259SOL    HW254802   2.116   9.621   8.266
18260SOL     OW54803   3.056  10.922   7.479
18260SOL    HW154804   3.062  10.829   7.516
18260SOL    HW254805   2.997  10.922   7.399
18261SOL     OW54806   2.684  10.312   8.820
18261SOL    HW154807   2.724  10.311   8.728
18261SOL    HW254808   2.694  10.404   8.860
18262SOL     OW54809   2.778  10.220   7.739
18262SOL    HW154810   2.841  10.258   7.671
18262SOL    HW254811   2.818  10.137   7.778
18263SOL     OW54812   3.366  10.917   7.492
18263SOL    HW154813   3.274  10.954   7.499
18263SOL    HW254814   3.404  10.937   7.402
18264SOL     OW54815   2.234  10.598   8.938
18264SOL    HW154816   2.221  10.691   8.904
18264SOL    HW254817   2.150  10.546   8.925
18265SOL     OW54818   3.476  10.602   8.737
18265SOL    HW154819   3.536  10.605   8.817
18265SOL    HW254820   3.401  10.666   8.750
18266SOL     OW54821   2.901  10.408   8.144
18266SOL    HW154822   2.831  10.361   8.198
18266SOL    HW254823   2.960  10.340   8.101
18267SOL     OW54824   2.876   9.546   8.419
18267SOL    HW154825   2.868   9.510   8.326
18267SOL    HW254826   2.874   9.470   8.484
18268SOL     OW54827   2.452  10.797   7.939
18268SOL    HW154828   2.494  10.739   7.869
18268SOL    HW254829   2.408  10.876   7.895
18269SOL     OW54830   3.571   9.695   8.829
18269SOL    HW154831   3.644   9.764   8.833
18269SOL    HW254832   3.599   9.620   8.770
18270SOL     OW54833   2.117  10.658   7.738
18270SOL    HW154834   2.021  10.659   7.711
18270SOL    HW254835   2.129  10.711   7.822
18271SOL     OW54836   1.967  10.323   9.174
18271SOL    HW154837   1.890  10.290   9.228
18271SOL    HW254838   2.052  10.293   9.216
18272SOL     OW54839   2.534   9.513   8.937
18272SOL    HW154840   2.624   9.497   8.897
18272SOL    HW254841   2.542   9.518   9.036
18273SOL     OW54842   1.937   9.655   7.481
18273SOL    HW154843   1.845   9.627   7.452
18273SOL    HW254844   1.968   9.732   7.425
18274SOL     OW54845   3.302  10.166   8.846
18274SOL    HW154846   3.245  10.218   8.783
18274SOL    HW254847   3.398  10.178   8.822
18275SOL     OW54848   1.934   9.476   7.766
18275SOL    HW154849   1.917   9.559   7.712
18275SOL    HW254850   2.024   9.439   7.744
18276SOL     OW54851   3.045  10.645   7.567
18276SOL    HW154852   2.946  10.634   7.569
18276SOL    HW254853   3.079  10.660   7.660
18277SOL     OW54854   2.475  10.152   8.879
18277SOL    HW154855   2.531  10.233   8.862
18277SOL    HW254856   2.534  10.072   8.882
18278SOL     OW54857   3.355  11.077   8.407
18278SOL    HW154858   3.388  11.141   8.338
18278SOL    HW254859   3.421  11.071   8.482
18279SOL     OW54860   2.578   9.875   9.156
18279SOL    HW154861   2.597   9.940   9.230
18279SOL    HW254862   2.638   9.795   9.165
18280SOL     OW54863   3.312  10.530   9.081
18280SOL    HW154864   3.303  10.520   9.180
18280SOL    HW254865   3.408  10.523   9.055
18281SOL     OW54866   2.252  11.051   9.008
18281SOL    HW154867   2.161  11.092   9.006
18281SOL    HW254868   2.245  10.957   9.040
18282SOL     OW54869   3.536  10.193   8.702
18282SOL    HW154870   3.509  10.104   8.665
18282SOL    HW254871   3.537  10.261   8.629
18283SOL     OW54872   3.087   9.635   7.897
18283SOL    HW154873   3.152   9.561   7.886
18283SOL    HW254874   3.107   9.685   7.981
18284SOL     OW54875   2.456  10.055   8.100
18284SOL    HW154876   2.506  10.140   8.081
18284SOL    HW254877   2.368  10.057   8.052
18285SOL     OW54878   3.639   9.652   9.090
18285SOL    HW154879   3.622   9.683   8.996
18285SOL    HW254880   3.555   9.615   9.128
18286SOL     OW54881   3.592  10.244   8.965
18286SOL    HW154882   3.630  10.335   8.980
18286SOL    HW254883   3.584  10.227   8.866
18287SOL     OW54884   2.721  10.684   7.464
18287SOL    HW154885   2.675  10.699   7.552
18287SOL    HW254886   2.765  10.769   7.434
18288SOL     OW54887   2.523  11.100   8.401
18288SOL    HW154888   2.477  11.188   8.388
18288SOL    HW254889   2.622  11.112   8.394
18289SOL     OW54890   2.721  10.266   8.309
18289SOL    HW154891   2.775  10.197   8.357
18289SOL    HW254892   2.689  10.335   8.375
18290SOL     OW54893   2.945  10.294   7.535
18290SOL    HW154894   2.922  10.347   7.453
18290SOL    HW254895   3.026  10.238   7.516
18291SOL     OW54896   3.723  10.879   8.299
18291SOL    HW154897   3.652  10.867   8.229
18291SOL    HW254898   3.724  10.800   8.359
18292SOL     OW54899   2.083  10.624   9.292
18292SOL    HW154900   2.018  10.551   9.271
18292SOL    HW254901   2.087  10.638   9.390
18293SOL     OW54902   1.941  10.550   8.101
18293SOL    HW154903   1.940  10.503   8.189
18293SOL    HW254904   2.023  10.522   8.050
18294SOL     OW54905   2.534  10.701   9.072
18294SOL    HW154906   2.456  10.651   9.110
18294SOL    HW254907   2.531  10.796   9.103
18295SOL     OW54908   3.686   9.502   8.675
18295SOL    HW154909   3.682   9.412   8.719
18295SOL    HW254910   3.689   9.491   8.576
18296SOL     OW54911   2.290   9.734   7.968
18296SOL    HW154912   2.320   9.662   7.906
18296SOL    HW254913   2.251   9.694   8.051
18297SOL     OW54914   3.567  10.797   8.552
18297SOL    HW154915   3.474  10.772   8.525
18297SOL    HW254916   3.593  10.747   8.634
18298SOL     OW54917   2.179   9.857   8.728
18298SOL    HW154918   2.217   9.798   8.800
18298SOL    HW254919   2.219   9.831   8.640
18299SOL     OW54920   2.674  10.896   8.135
18299SOL    HW154921   2.706  10.906   8.041
18299SOL    HW254922   2.595  10.834   8.137
18300SOL     OW54923   3.286   9.524   8.560
18300SOL    HW154924   3.338   9.459   8.615
18300SOL    HW254925   3.237   9.587   8.621
18301SOL     OW54926   2.863   9.344   8.602
18301SOL    HW154927   2.800   9.272   8.571
18301SOL    HW254928   2.956   9.308   8.602
18302SOL     OW54929   2.632  10.640   7.749
18302SOL    HW154930   2.586  10.553   7.766
18302SOL    HW254931   2.723  10.637   7.790
18303SOL     OW54932   2.480  10.877   8.732
18303SOL    HW154933   2.475  10.959   8.789
18303SOL    HW254934   2.569  10.874   8.687
18304SOL     OW54935   3.214   9.362   7.616
18304SOL    HW154936   3.249   9.321   7.532
18304SOL    HW254937   3.124   9.324   7.636
18305SOL     OW54938   3.162   9.763   8.139
18305SOL    HW154939   3.103   9.843   8.143
18305SOL    HW254940   3.177   9.728   8.232
18306SOL     OW54941   3.455   9.531   8.330
18306SOL    HW154942   3.371   9.530   8.384
18306SOL    HW254943   3.457   9.614   8.274
18307SOL     OW54944   1.901  10.387   7.748
18307SOL    HW154945   2.000  10.376   7.739
18307SOL    HW254946   1.861  10.301   7.780
18308SOL     OW54947   2.737  10.956   7.785
18308SOL    HW154948   2.660  10.921   7.731
18308SOL    HW254949   2.705  11.027   7.847
18309SOL     OW54950   2.092   9.938   9.423
18309SOL    HW154951   1.999   9.936   9.460
18309SOL    HW254952   2.093   9.899   9.331
18310SOL     OW54953   2.087   9.585  10.306
18310SOL    HW154954   2.122   9.568  10.398
18310SOL    HW254955   1.999   9.540  10.294
18311SOL     OW54956   1.881   9.678   9.957
18311SOL    HW154957   1.799   9.721   9.996
18311SOL    HW254958   1.853   9.605   9.894
18312SOL     OW54959   2.431  10.585  10.475
18312SOL    HW154960   2.338  10.578  10.438
18312SOL    HW254961   2.442  10.674  10.519
18313SOL     OW54962   3.417  10.821  10.013
18313SOL    HW154963   3.360  10.805  10.094
18313SOL    HW254964   3.358  10.831   9.933
18314SOL     OW54965   2.997  10.013  10.027
18314SOL    HW154966   3.054  10.091  10.002
18314SOL    HW254967   2.937  10.039  10.103
18315SOL     OW54968   3.617   9.917   9.541
18315SOL    HW154969   3.605   9.904   9.442
18315SOL    HW254970   3.587   9.836   9.590
18316SOL     OW54971   2.630  10.454  10.333
18316SOL    HW154972   2.552  10.471  10.393
18316SOL    HW254973   2.664  10.541  10.297
18317SOL     OW54974   2.712  10.108  11.133
18317SOL    HW154975   2.708  10.184  11.198
18317SOL    HW254976   2.734  10.144  11.042
18318SOL     OW54977   2.547  10.322   9.975
18318SOL    HW154978   2.616  10.306  10.045
18318SOL    HW254979   2.474  10.379  10.013
18319SOL     OW54980   2.548  10.471  11.113
18319SOL    HW154981   2.608  10.550  11.127
18319SOL    HW254982   2.462  10.502  11.072
18320SOL     OW54983   2.197  10.745  10.371
18320SOL    HW154984   2.119  10.714  10.318
18320SOL    HW254985   2.255  10.803  10.314
18321SOL     OW54986   3.322  10.815  10.649
18321SOL    HW154987   3.346  10.909  10.675
18321SOL    HW254988   3.306  10.761  10.731
18322SOL     OW54989   2.300   9.702  10.809
18322SOL    HW154990   2.382   9.646  10.818
18322SOL    HW254991   2.219   9.644  10.813
18323SOL     OW54992   3.465   9.757  10.047
18323SOL    HW154993   3.391   9.803   9.997
18323SOL    HW254994   3.516   9.825  10.100
18324SOL     OW54995   2.093  11.023   9.793
18324SOL    HW154996   2.127  11.100   9.847
18324SOL    HW254997   2.137  11.023   9.703
18325SOL     OW54998   2.989  10.651  11.000
18325SOL    HW154999   3.036  10.651  11.088
18325SOL    HW255000   2.941  10.564  10.989
18326SOL     OW55001   2.092  10.744   9.848
18326SOL    HW155002   2.066  10.840   9.848
18326SOL    HW255003   2.021  10.690   9.893
18327SOL     OW55004   2.102  10.401  10.196
18327SOL    HW155005   2.116  10.317  10.248
18327SOL    HW255006   2.047  10.465  10.251
18328SOL     OW55007   2.482  11.096  10.749
18328SOL    HW155008   2.390  11.079  10.784
18328SOL    HW255009   2.510  11.188  10.775
18329SOL     OW55010   2.468  10.274   9.433
18329SOL    HW155011   2.475  10.358   9.379
18329SOL    HW255012   2.514  10.287   9.521
18330SOL     OW55013   3.456   9.424  10.790
18330SOL    HW155014   3.438   9.491  10.718
18330SOL    HW255015   3.453   9.470  10.879
18331SOL     OW55016   1.984   9.953   9.873
18331SOL    HW155017   1.939   9.865   9.890
18331SOL    HW255018   1.983  10.007   9.957
18332SOL     OW55019   3.704  11.077   9.669
18332SOL    HW155020   3.758  11.048   9.749
18332SOL    HW255021   3.734  11.167   9.640
18333SOL     OW55022   1.889  10.906   9.427
18333SOL    HW155023   1.870  10.810   9.448
18333SOL    HW255024   1.856  10.964   9.502
18334SOL     OW55025   3.551  10.232   9.922
18334SOL    HW155026   3.646  10.203   9.930
18334SOL    HW255027   3.543  10.297   9.847
18335SOL     OW55028   3.503  10.418   9.742
18335SOL    HW155029   3.589  10.420   9.690
18335SOL    HW255030   3.517  10.465   9.830
18336SOL     OW55031   1.975  10.047  10.907
18336SOL    HW155032   2.063  10.034  10.952
18336SOL    HW255033   1.962  10.144  10.885
18337SOL     OW55034   2.475  10.675  10.036
18337SOL    HW155035   2.426  10.588  10.045
18337SOL    HW255036   2.452  10.718   9.949
18338SOL     OW55037   3.155  10.538  10.733
18338SOL    HW155038   3.192  10.465  10.675
18338SOL    HW255039   3.207  10.543  10.818
18339SOL     OW55040   2.671   9.314   9.812
18339SOL    HW155041   2.711   9.405   9.803
18339SOL    HW255042   2.571   9.322   9.818
18340SOL     OW55043   2.059  10.286  10.574
18340SOL    HW155044   2.148  10.241  10.560
18340SOL    HW255045   1.986  10.221  10.555
18341SOL     OW55046   3.387  10.309   9.500
18341SOL    HW155047   3.324  10.233   9.513
18341SOL    HW255048   3.435  10.327   9.586
18342SOL     OW55049   3.049  11.102  10.926
18342SOL    HW155050   3.073  11.162  10.850
18342SOL    HW255051   3.056  11.007  10.896
18343SOL     OW55052   2.179   9.561  11.111
18343SOL    HW155053   2.250   9.632  11.117
18343SOL    HW255054   2.091   9.600  11.139
18344SOL     OW55055   3.328  10.727  10.263
18344SOL    HW155056   3.269  10.733  10.343
18344SOL    HW255057   3.313  10.639  10.217
18345SOL     OW55058   3.529  11.024   9.882
18345SOL    HW155059   3.488  11.001   9.794
18345SOL    HW255060   3.511  10.950   9.947
18346SOL     OW55061   2.460  10.039   9.580
18346SOL    HW155062   2.484  10.108   9.512
18346SOL    HW255063   2.382  10.072   9.634
18347SOL     OW55064   3.143   9.655  10.254
18347SOL    HW155065   3.057   9.605  10.241
18347SOL    HW255066   3.205   9.601  10.310
18348SOL     OW55067   3.438  10.972   9.617
18348SOL    HW155068   3.527  11.018   9.620
18348SOL    HW255069   3.417  10.948   9.522
18349SOL     OW55070   2.669   9.915  10.775
18349SOL    HW155071   2.622   9.912  10.864
18349SOL    HW255072   2.618   9.860  10.709
18350SOL     OW55073   3.256   9.779  10.984
18350SOL    HW155074   3.236   9.822  11.072
18350SOL    HW255075   3.334   9.717  10.993
18351SOL     OW55076   2.835  10.200  10.882
18351SOL    HW155077   2.881  10.116  10.853
18351SOL    HW255078   2.779  10.234  10.807
18352SOL     OW55079   2.853   9.720  10.552
18352SOL    HW155080   2.776   9.754  10.606
18352SOL    HW255081   2.819   9.669  10.473
18353SOL     OW55082   2.903  10.011   9.739
18353SOL    HW155083   2.929  10.007   9.835
18353SOL    HW255084   2.818   9.960   9.725
18354SOL     OW55085   1.938  10.121  10.099
18354SOL    HW155086   2.037  10.109  10.108
18354SOL    HW255087   1.914  10.216  10.120
18355SOL     OW55088   1.992  11.131  10.881
18355SOL    HW155089   1.982  11.116  10.980
18355SOL    HW255090   1.906  11.167  10.845
18356SOL     OW55091   2.727   9.658   9.505
18356SOL    HW155092   2.786   9.721   9.456
18356SOL    HW255093   2.746   9.564   9.476
18357SOL     OW55094   3.581   9.895  11.141
18357SOL    HW155095   3.555   9.984  11.105
18357SOL    HW255096   3.579   9.827  11.068
18358SOL     OW55097   3.224  10.454   9.855
18358SOL    HW155098   3.307  10.425   9.807
18358SOL    HW255099   3.175  10.521   9.799
18359SOL     OW55100   2.412   9.506  10.195
18359SOL    HW155101   2.407   9.501  10.295
18359SOL    HW255102   2.414   9.602  10.166
18360SOL     OW55103   2.870  10.766   9.787
18360SOL    HW155104   2.824  10.838   9.735
18360SOL    HW255105   2.866  10.786   9.885
18361SOL     OW55106   2.213  11.111  10.163
18361SOL    HW155107   2.263  11.025  10.169
18361SOL    HW255108   2.278  11.188  10.160
18362SOL     OW55109   3.657  10.376  10.183
18362SOL    HW155110   3.595  10.361  10.107
18362SOL    HW255111   3.605  10.387  10.268
18363SOL     OW55112   3.089  10.860  10.816
18363SOL    HW155113   3.095  10.783  10.880
18363SOL    HW255114   3.037  10.834  10.736
18364SOL     OW55115   2.183  10.253   9.552
18364SOL    HW155116   2.265  10.292   9.510
18364SOL    HW255117   2.156  10.171   9.503
18365SOL     OW55118   3.320  10.045  10.038
18365SOL    HW155119   3.315   9.980  10.113
18365SOL    HW255120   3.400  10.104  10.051
18366SOL     OW55121   2.323  10.576  11.037
18366SOL    HW155122   2.273  10.577  10.951
18366SOL    HW255123   2.260  10.558  11.113
18367SOL     OW55124   2.973  11.086   9.547
18367SOL    HW155125   2.913  11.024   9.597
18367SOL    HW255126   3.004  11.042   9.462
18368SOL     OW55127   2.064   9.595  10.808
18368SOL    HW155128   1.984   9.655  10.795
18368SOL    HW255129   2.054   9.546  10.894
18369SOL     OW55130   3.494  10.687   9.391
18369SOL    HW155131   3.462  10.781   9.381
18369SOL    HW255132   3.418  10.624   9.379
18370SOL     OW55133   2.326  11.053   9.633
18370SOL    HW155134   2.359  11.092   9.719
18370SOL    HW255135   2.402  11.046   9.568
18371SOL     OW55136   3.262   9.417   9.736
18371SOL    HW155137   3.238   9.380   9.646
18371SOL    HW255138   3.361   9.433   9.740
18372SOL     OW55139   2.111  11.095  10.551
18372SOL    HW155140   2.168  11.030  10.601
18372SOL    HW255141   2.095  11.062  10.458
18373SOL     OW55142   2.802  11.008  10.214
18373SOL    HW155143   2.882  10.951  10.235
18373SOL    HW255144   2.753  10.968  10.137
18374SOL     OW55145   2.244  10.010   9.790
18374SOL    HW155146   2.289   9.920   9.787
18374SOL    HW255147   2.150   9.999   9.823
18375SOL     OW55148   3.409   9.532  11.039
18375SOL    HW155149   3.404   9.569  11.131
18375SOL    HW255150   3.337   9.463  11.027
18376SOL     OW55151   2.476   9.432   9.427
18376SOL    HW155152   2.574   9.410   9.434
18376SOL    HW255153   2.445   9.415   9.334
18377SOL     OW55154   2.643   9.574  11.059
18377SOL    HW155155   2.710   9.513  11.102
18377SOL    HW255156   2.570   9.593  11.124
18378SOL     OW55157   2.750  10.824  10.505
18378SOL    HW155158   2.727  10.799  10.411
18378SOL    HW255159   2.811  10.755  10.544
18379SOL     OW55160   3.213   9.900  10.743
18379SOL    HW155161   3.241   9.857  10.828
18379SOL    HW255162   3.238   9.996  10.744
18380SOL     OW55163   2.665  10.712  10.234
18380SOL    HW155164   2.755  10.726  10.192
18380SOL    HW255165   2.594  10.714  10.163
18381SOL     OW55166   2.784   9.813  10.209
18381SOL    HW155167   2.759   9.804  10.113
18381SOL    HW255168   2.832   9.731  10.240
18382SOL     OW55169   2.401   9.374   9.822
18382SOL    HW155170   2.320   9.375   9.880
18382SOL    HW255171   2.404   9.457   9.767
18383SOL     OW55172   3.296  10.498   9.351
18383SOL    HW155173   3.328  10.422   9.408
18383SOL    HW255174   3.204  10.525   9.381
18384SOL     OW55175   2.159   9.345   9.481
18384SOL    HW155176   2.208   9.429   9.460
18384SOL    HW255177   2.221   9.280   9.526
18385SOL     OW55178   2.797   9.546   9.790
18385SOL    HW155179   2.749   9.587   9.712
18385SOL    HW255180   2.896   9.544   9.771
18386SOL     OW55181   2.938   9.993  10.774
18386SOL    HW155182   2.858   9.932  10.777
18386SOL    HW255183   3.019   9.940  10.750
18387SOL     OW55184   3.089  10.880  10.103
18387SOL    HW155185   3.110  10.954  10.038
18387SOL    HW255186   3.157  10.880  10.176
18388SOL     OW55187   2.321  10.462  10.051
18388SOL    HW155188   2.250  10.435  10.116
18388SOL    HW255189   2.295  10.434   9.958
18389SOL     OW55190   3.133  11.107   9.901
18389SOL    HW155191   3.177  11.171   9.837
18389SOL    HW255192   3.083  11.159   9.971
18390SOL     OW55193   2.894   9.859   9.326
18390SOL    HW155194   2.853   9.941   9.287
18390SOL    HW255195   2.958   9.885   9.399
18391SOL     OW55196   1.940   9.866  10.696
18391SOL    HW155197   2.032   9.865  10.655
18391SOL    HW255198   1.934   9.940  10.763
18392SOL     OW55199   2.423   9.532  10.457
18392SOL    HW155200   2.461   9.448  10.494
18392SOL    HW255201   2.335   9.551  10.501
18393SOL     OW55202   2.728   9.764   9.952
18393SOL    HW155203   2.696   9.836   9.890
18393SOL    HW255204   2.752   9.683   9.899
18394SOL     OW55205   2.879   9.349  10.063
18394SOL    HW155206   2.807   9.354   9.994
18394SOL    HW255207   2.855   9.280  10.132
18395SOL     OW55208   3.291  10.483  10.177
18395SOL    HW155209   3.236  10.399  10.170
18395SOL    HW255210   3.317  10.512  10.085
18396SOL     OW55211   3.328   9.900  10.302
18396SOL    HW155212   3.298   9.805  10.309
18396SOL    HW255213   3.401   9.916  10.368
18397SOL     OW55214   3.719  10.143   9.687
18397SOL    HW155215   3.761  10.079   9.751
18397SOL    HW255216   3.681  10.092   9.609
18398SOL     OW55217   2.350  10.695   9.484
18398SOL    HW155218   2.263  10.680   9.531
18398SOL    HW255219   2.333  10.721   9.389
18399SOL     OW55220   3.526  10.590   9.967
18399SOL    HW155221   3.625  10.598   9.981
18399SOL    HW255222   3.481  10.674   9.998
18400SOL     OW55223   3.252   9.885   9.388
18400SOL    HW155224   3.198   9.864   9.469
18400SOL    HW255225   3.343   9.844   9.397
18401SOL     OW55226   2.389   9.566   9.638
18401SOL    HW155227   2.416   9.507   9.563
18401SOL    HW255228   2.389   9.661   9.607
18402SOL     OW55229   3.616  10.533  10.898
18402SOL    HW155230   3.707  10.494  10.885
18402SOL    HW255231   3.624  10.629  10.922
18403SOL     OW55232   2.926  10.657  10.650
18403SOL    HW155233   2.846  10.634  10.705
18403SOL    HW255234   3.009  10.631  10.699
18404SOL     OW55235   3.454  10.939  10.935
18404SOL    HW155236   3.481  10.973  10.845
18404SOL    HW255237   3.533  10.901  10.981
18405SOL     OW55238   2.973  10.505  10.410
18405SOL    HW155239   2.933  10.549  10.491
18405SOL    HW255240   2.932  10.542  10.327
18406SOL     OW55241   3.500  10.409  10.389
18406SOL    HW155242   3.505  10.490  10.448
18406SOL    HW255243   3.414  10.411  10.338
18407SOL     OW55244   2.777   9.399  10.712
18407SOL    HW155245   2.802   9.379  10.617
18407SOL    HW255246   2.849   9.455  10.754
18408SOL     OW55247   2.842  10.426  11.029
18408SOL    HW155248   2.743  10.432  11.039
18408SOL    HW255249   2.865  10.346  10.973
18409SOL     OW55250   2.567  10.360   9.678
18409SOL    HW155251   2.553  10.367   9.777
18409SOL    HW255252   2.651  10.309   9.660
18410SOL     OW55253   2.272  10.123  10.561
18410SOL    HW155254   2.358  10.135  10.611
18410SOL    HW255255   2.230  10.036  10.588
18411SOL     OW55256   3.136   9.696  10.572
18411SOL    HW155257   3.157   9.770  10.636
18411SOL    HW255258   3.047   9.713  10.529
18412SOL     OW55259   1.926  10.874  10.641
18412SOL    HW155260   1.880  10.956  10.607
18412SOL    HW255261   2.024  10.893  10.650
18413SOL     OW55262   2.229  10.410   9.811
18413SOL    HW155263   2.222  10.493   9.755
18413SOL    HW255264   2.233  10.330   9.751
18414SOL     OW55265   2.428   9.847  10.175
18414SOL    HW155266   2.440   9.913  10.101
18414SOL    HW255267   2.474   9.881  10.258
18415SOL     OW55268   3.114  10.658   9.698
18415SOL    HW155269   3.164  10.735   9.738
18415SOL    HW255270   3.019  10.660   9.730
18416SOL     OW55271   3.134  10.755  10.452
18416SOL    HW155272   3.181  10.768  10.539
18416SOL    HW255273   3.068  10.681  10.461
18417SOL     OW55274   3.444   9.949   9.782
18417SOL    HW155275   3.413  10.010   9.855
18417SOL    HW255276   3.494  10.001   9.713
18418SOL     OW55277   2.216  10.820  10.639
18418SOL    HW155278   2.195  10.776  10.552
18418SOL    HW255279   2.313  10.846  10.642
18419SOL     OW55280   2.264  10.061  10.908
18419SOL    HW155281   2.332  10.116  10.861
18419SOL    HW255282   2.304   9.973  10.935
18420SOL     OW55283   3.449  10.089  10.980
18420SOL    HW155284   3.357  10.127  10.975
18420SOL    HW255285   3.509  10.136  10.915
18421SOL     OW55286   2.875   9.415  11.080
18421SOL    HW155287   2.881   9.500  11.028
18421SOL    HW255288   2.907   9.339  11.023
18422SOL     OW55289   2.366   9.360  11.050
18422SOL    HW155290   2.324   9.303  10.980
18422SOL    HW255291   2.300   9.429  11.082
18423SOL     OW55292   2.435  10.180  10.339
18423SOL    HW155293   2.479  10.269  10.330
18423SOL    HW255294   2.372  10.180  10.416
18424SOL     OW55295   3.222  10.172  10.355
18424SOL    HW155296   3.147  10.172  10.289
18424SOL    HW255297   3.259  10.080  10.364
18425SOL     OW55298   3.071   9.835   9.585
18425SOL    HW155299   3.084   9.751   9.639
18425SOL    HW255300   3.042   9.909   9.645
18426SOL     OW55301   2.169   9.523  10.541
18426SOL    HW155302   2.146   9.560  10.631
18426SOL    HW255303   2.139   9.428  10.535
18427SOL     OW55304   1.899  10.620  10.592
18427SOL    HW155305   1.952  10.571  10.660
18427SOL    HW255306   1.921  10.718  10.597
18428SOL     OW55307   2.594   9.944  10.374
18428SOL    HW155308   2.653   9.918  10.298
18428SOL    HW255309   2.566  10.040  10.363
18429SOL     OW55310   3.590  10.245  11.164
18429SOL    HW155311   3.544  10.238  11.075
18429SOL    HW255312   3.528  10.289  11.230
18430SOL     OW55313   2.169   9.373   9.928
18430SOL    HW155314   2.158   9.467   9.961
18430SOL    HW255315   2.164   9.310  10.005
18431SOL     OW55316   3.484   9.677   9.684
18431SOL    HW155317   3.486   9.601   9.748
18431SOL    HW255318   3.436   9.754   9.724
18432SOL     OW55319   2.885  10.076  10.276
18432SOL    HW155320   2.900  10.097  10.372
18432SOL    HW255321   2.855   9.981  10.267
18433SOL     OW55322   2.842  10.883  11.010
18433SOL    HW155323   2.822  10.927  10.922
18433SOL    HW255324   2.881  10.792  10.994
18434SOL     OW55325   3.721  10.828  10.915
18434SOL    HW155326   3.735  10.855  10.820
18434SOL    HW255327   3.804  10.850  10.968
18435SOL     OW55328   2.212  10.208  11.114
18435SOL    HW155329   2.288  10.252  11.162
18435SOL    HW255330   2.247  10.161  11.032
18436SOL     OW55331   3.402   9.584   9.435
18436SOL    HW155332   3.341   9.509   9.458
18436SOL    HW255333   3.424   9.636   9.518
18437SOL     OW55334   3.165  10.148   9.352
18437SOL    HW155335   3.199  10.055   9.367
18437SOL    HW255336   3.183  10.175   9.257
18438SOL     OW55337   2.930  10.643  10.159
18438SOL    HW155338   2.937  10.559  10.104
18438SOL    HW255339   2.992  10.712  10.123
18439SOL     OW55340   2.181  10.120  10.259
18439SOL    HW155341   2.274  10.156  10.264
18439SOL    HW255342   2.175  10.035  10.311
18440SOL     OW55343   2.201   9.819  10.316
18440SOL    HW155344   2.149   9.736  10.299
18440SOL    HW255345   2.278   9.824  10.252
18441SOL     OW55346   3.000   9.690  10.988
18441SOL    HW155347   2.955   9.753  11.052
18441SOL    HW255348   3.093   9.721  10.971
18442SOL     OW55349   3.022   9.517  10.787
18442SOL    HW155350   3.022   9.581  10.864
18442SOL    HW255351   3.050   9.565  10.704
18443SOL     OW55352   1.870  10.636   9.510
18443SOL    HW155353   1.777  10.657   9.479
18443SOL    HW255354   1.880  10.537   9.523
18444SOL     OW55355   1.950  11.111  10.237
18444SOL    HW155356   1.908  11.025  10.210
18444SOL    HW255357   2.044  11.114  10.203
18445SOL     OW55358   2.366  10.878  10.220
18445SOL    HW155359   2.432  10.952  10.229
18445SOL    HW255360   2.410  10.799  10.178
18446SOL     OW55361   2.864  10.106  10.548
18446SOL    HW155362   2.905  10.074  10.634
18446SOL    HW255363   2.768  10.079  10.545
18447SOL     OW55364   1.902   9.854  10.424
18447SOL    HW155365   1.987   9.821  10.383
18447SOL    HW255366   1.915   9.869  10.522
18448SOL     OW55367   2.051   9.830  11.032
18448SOL    HW155368   2.110   9.790  10.962
18448SOL    HW255369   1.993   9.901  10.991
18449SOL     OW55370   3.231  10.260  10.970
18449SOL    HW155371   3.270  10.349  10.990
18449SOL    HW255372   3.241  10.240  10.873
18450SOL     OW55373   2.677   9.882   9.635
18450SOL    HW155374   2.684   9.793   9.589
18450SOL    HW255375   2.583   9.916   9.627
18451SOL     OW55376   3.519   9.914  10.516
18451SOL    HW155377   3.481   9.845  10.578
18451SOL    HW255378   3.601   9.878  10.472
18452SOL     OW55379   2.114  10.874  11.054
18452SOL    HW155380   2.084  10.931  11.130
18452SOL    HW255381   2.107  10.777  11.080
18453SOL     OW55382   2.533   9.774  10.579
18453SOL    HW155383   2.499   9.685  10.549
18453SOL    HW255384   2.559   9.828  10.499
18454SOL     OW55385   2.792  10.988  10.775
18454SOL    HW155386   2.768  10.970  10.680
18454SOL    HW255387   2.822  11.082  10.785
18455SOL     OW55388   2.335   9.810   9.501
18455SOL    HW155389   2.396   9.890   9.505
18455SOL    HW255390   2.240   9.841   9.508
18456SOL     OW55391   2.021  10.447  10.776
18456SOL    HW155392   2.043  10.386  10.852
18456SOL    HW255393   2.031  10.398  10.690
18457SOL     OW55394   3.209  10.369  10.544
18457SOL    HW155395   3.233  10.306  10.470
18457SOL    HW255396   3.119  10.409  10.526
18458SOL     OW55397   3.164  10.165   9.619
18458SOL    HW155398   3.078  10.134   9.661
18458SOL    HW255399   3.160  10.151   9.520
18459SOL     OW55400   3.621  11.057  10.464
18459SOL    HW155401   3.682  11.087  10.391
18459SOL    HW255402   3.583  10.968  10.442
18460SOL     OW55403   3.114  11.041  10.438
18460SOL    HW155404   3.198  11.046  10.384
18460SOL    HW255405   3.091  10.945  10.456
18461SOL     OW55406   1.945  10.568  10.332
18461SOL    HW155407   1.940  10.567  10.432
18461SOL    HW255408   1.862  10.527  10.294
18462SOL     OW55409   2.550  10.972  11.026
18462SOL    HW155410   2.494  11.053  11.035
18462SOL    HW255411   2.602  10.976  10.940
18463SOL     OW55412   3.588   9.445   9.833
18463SOL    HW155413   3.661   9.428   9.766
18463SOL    HW255414   3.557   9.358   9.871
18464SOL     OW55415   3.250  10.883   9.787
18464SOL    HW155416   3.317  10.895   9.713
18464SOL    HW255417   3.210  10.972   9.810
18465SOL     OW55418   1.992  11.104  11.161
18465SOL    HW155419   1.951  11.030  11.214
18465SOL    HW255420   2.056  11.155  11.219
18466SOL     OW55421   3.142  10.237   9.982
18466SOL    HW155422   3.202  10.156   9.984
18466SOL    HW255423   3.182  10.306   9.922
18467SOL     OW55424   2.692  10.583  10.732
18467SOL    HW155425   2.687  10.616  10.827
18467SOL    HW255426   2.606  10.602  10.686
18468SOL     OW55427   2.534  10.926   9.464
18468SOL    HW155428   2.543  10.936   9.365
18468SOL    HW255429   2.494  10.837   9.485
18469SOL     OW55430   3.512  11.030  10.704
18469SOL    HW155431   3.565  11.040  10.620
18469SOL    HW255432   3.485  11.120  10.738
18470SOL     OW55433   3.703   9.485  10.273
18470SOL    HW155434   3.742   9.400  10.237
18470SOL    HW255435   3.605   9.487  10.254
18471SOL     OW55436   2.125   9.636  10.030
18471SOL    HW155437   2.046   9.687   9.996
18471SOL    HW255438   2.116   9.621  10.128
18472SOL     OW55439   3.056  10.922   9.341
18472SOL    HW155440   3.062  10.829   9.378
18472SOL    HW255441   2.997  10.922   9.261
18473SOL     OW55442   2.684  10.312  10.682
18473SOL    HW155443   2.724  10.311  10.590
18473SOL    HW255444   2.694  10.404  10.722
18474SOL     OW55445   2.778  10.220   9.601
18474SOL    HW155446   2.841  10.258   9.533
18474SOL    HW255447   2.818  10.137   9.640
18475SOL     OW55448   3.366  10.917   9.354
18475SOL    HW155449   3.274  10.954   9.361
18475SOL    HW255450   3.404  10.937   9.264
18476SOL     OW55451   2.234  10.598  10.800
18476SOL    HW155452   2.221  10.691  10.766
18476SOL    HW255453   2.150  10.546  10.787
18477SOL     OW55454   3.476  10.602  10.599
18477SOL    HW155455   3.536  10.605  10.679
18477SOL    HW255456   3.401  10.666  10.612
18478SOL     OW55457   2.901  10.408  10.006
18478SOL    HW155458   2.831  10.361  10.060
18478SOL    HW255459   2.960  10.340   9.963
18479SOL     OW55460   2.876   9.546  10.281
18479SOL    HW155461   2.868   9.510  10.188
18479SOL    HW255462   2.874   9.470  10.346
18480SOL     OW55463   2.452  10.797   9.801
18480SOL    HW155464   2.494  10.739   9.731
18480SOL    HW255465   2.408  10.876   9.757
18481SOL     OW55466   3.571   9.695  10.691
18481SOL    HW155467   3.644   9.764  10.695
18481SOL    HW255468   3.599   9.620  10.632
18482SOL     OW55469   2.117  10.658   9.600
18482SOL    HW155470   2.021  10.659   9.573
18482SOL    HW255471   2.129  10.711   9.684
18483SOL     OW55472   1.967  10.323  11.036
18483SOL    HW155473   1.890  10.290  11.090
18483SOL    HW255474   2.052  10.293  11.078
18484SOL     OW55475   2.534   9.513  10.799
18484SOL    HW155476   2.624   9.497  10.759
18484SOL    HW255477   2.542   9.518  10.898
18485SOL     OW55478   1.937   9.655   9.343
18485SOL    HW155479   1.845   9.627   9.314
18485SOL    HW255480   1.968   9.732   9.287
18486SOL     OW55481   3.302  10.166  10.708
18486SOL    HW155482   3.245  10.218  10.645
18486SOL    HW255483   3.398  10.178  10.684
18487SOL     OW55484   1.934   9.476   9.628
18487SOL    HW155485   1.917   9.559   9.574
18487SOL    HW255486   2.024   9.439   9.606
18488SOL     OW55487   3.045  10.645   9.429
18488SOL    HW155488   2.946  10.634   9.431
18488SOL    HW255489   3.079  10.660   9.522
18489SOL     OW55490   2.475  10.152  10.741
18489SOL    HW155491   2.531  10.233  10.724
18489SOL    HW255492   2.534  10.072  10.744
18490SOL     OW55493   3.355  11.077  10.269
18490SOL    HW155494   3.388  11.141  10.200
18490SOL    HW255495   3.421  11.071  10.344
18491SOL     OW55496   2.578   9.875  11.018
18491SOL    HW155497   2.597   9.940  11.092
18491SOL    HW255498   2.638   9.795  11.027
18492SOL     OW55499   3.312  10.530  10.943
18492SOL    HW155500   3.303  10.520  11.042
18492SOL    HW255501   3.408  10.523  10.917
18493SOL     OW55502   2.252  11.051  10.870
18493SOL    HW155503   2.161  11.092  10.868
18493SOL    HW255504   2.245  10.957  10.902
18494SOL     OW55505   3.536  10.193  10.564
18494SOL    HW155506   3.509  10.104  10.527
18494SOL    HW255507   3.537  10.261  10.491
18495SOL     OW55508   3.087   9.635   9.759
18495SOL    HW155509   3.152   9.561   9.748
18495SOL    HW255510   3.107   9.685   9.843
18496SOL     OW55511   2.456  10.055   9.962
18496SOL    HW155512   2.506  10.140   9.943
18496SOL    HW255513   2.368  10.057   9.914
18497SOL     OW55514   3.639   9.652  10.952
18497SOL    HW155515   3.622   9.683  10.858
18497SOL    HW255516   3.555   9.615  10.990
18498SOL     OW55517   3.592  10.244  10.827
18498SOL    HW155518   3.630  10.335  10.842
18498SOL    HW255519   3.584  10.227  10.728
18499SOL     OW55520   2.721  10.684   9.326
18499SOL    HW155521   2.675  10.699   9.414
18499SOL    HW255522   2.765  10.769   9.296
18500SOL     OW55523   2.523  11.100  10.263
18500SOL    HW155524   2.477  11.188  10.250
18500SOL    HW255525   2.622  11.112  10.256
18501SOL     OW55526   2.721  10.266  10.171
18501SOL    HW155527   2.775  10.197  10.219
18501SOL    HW255528   2.689  10.335  10.237
18502SOL     OW55529   2.945  10.294   9.397
18502SOL    HW155530   2.922  10.347   9.315
18502SOL    HW255531   3.026  10.238   9.378
18503SOL     OW55532   3.723  10.879  10.161
18503SOL    HW155533   3.652  10.867  10.091
18503SOL    HW255534   3.724  10.800  10.221
18504SOL     OW55535   1.941  10.550   9.963
18504SOL    HW155536   1.940  10.503  10.051
18504SOL    HW255537   2.023  10.522   9.912
18505SOL     OW55538   2.534  10.701  10.934
18505SOL    HW155539   2.456  10.651  10.972
18505SOL    HW255540   2.531  10.796  10.965
18506SOL     OW55541   3.686   9.502  10.537
18506SOL    HW155542   3.682   9.412  10.581
18506SOL    HW255543   3.689   9.491  10.438
18507SOL     OW55544   2.290   9.734   9.830
18507SOL    HW155545   2.320   9.662   9.768
18507SOL    HW255546   2.251   9.694   9.913
18508SOL     OW55547   3.567  10.797  10.414
18508SOL    HW155548   3.474  10.772  10.387
18508SOL    HW255549   3.593  10.747  10.496
18509SOL     OW55550   2.179   9.857  10.590
18509SOL    HW155551   2.217   9.798  10.662
18509SOL    HW255552   2.219   9.831  10.502
18510SOL     OW55553   2.674  10.896   9.997
18510SOL    HW155554   2.706  10.906   9.903
18510SOL    HW255555   2.595  10.834   9.999
18511SOL     OW55556   3.286   9.524  10.422
18511SOL    HW155557   3.338   9.459  10.477
18511SOL    HW255558   3.237   9.587  10.483
18512SOL     OW55559   2.863   9.344  10.464
18512SOL    HW155560   2.800   9.272  10.433
18512SOL    HW255561   2.956   9.308  10.464
18513SOL     OW55562   2.632  10.640   9.611
18513SOL    HW155563   2.586  10.553   9.628
18513SOL    HW255564   2.723  10.637   9.652
18514SOL     OW55565   2.480  10.877  10.594
18514SOL    HW155566   2.475  10.959  10.651
18514SOL    HW255567   2.569  10.874  10.549
18515SOL     OW55568   3.214   9.362   9.478
18515SOL    HW155569   3.249   9.321   9.394
18515SOL    HW255570   3.124   9.324   9.498
18516SOL     OW55571   3.162   9.763  10.001
18516SOL    HW155572   3.103   9.843  10.005
18516SOL    HW255573   3.177   9.728  10.094
18517SOL     OW55574   3.455   9.531  10.192
18517SOL    HW155575   3.371   9.530  10.246
18517SOL    HW255576   3.457   9.614  10.136
18518SOL     OW55577   1.901  10.387   9.610
18518SOL    HW155578   2.000  10.376   9.601
18518SOL    HW255579   1.861  10.301   9.642
18519SOL     OW55580   2.737  10.956   9.647
18519SOL    HW155581   2.660  10.921   9.593
18519SOL    HW255582   2.705  11.027   9.709
18520SOL     OW55583   2.092   9.938  11.285
18520SOL    HW155584   1.999   9.936  11.322
18520SOL    HW255585   2.093   9.899  11.193
18521SOL     OW55586   2.087   9.585  12.168
18521SOL    HW155587   2.122   9.568  12.260
18521SOL    HW255588   1.999   9.540  12.156
18522SOL     OW55589   2.431  10.585  12.337
18522SOL    HW155590   2.338  10.578  12.300
18522SOL    HW255591   2.442  10.674  12.381
18523SOL     OW55592   3.417  10.821  11.875
18523SOL    HW155593   3.360  10.805  11.956
18523SOL    HW255594   3.358  10.831  11.795
18524SOL     OW55595   2.997  10.013  11.889
18524SOL    HW155596   3.054  10.091  11.864
18524SOL    HW255597   2.937  10.039  11.965
18525SOL     OW55598   3.617   9.917  11.403
18525SOL    HW155599   3.605   9.904  11.304
18525SOL    HW255600   3.587   9.836  11.452
18526SOL     OW55601   2.630  10.454  12.195
18526SOL    HW155602   2.552  10.471  12.255
18526SOL    HW255603   2.664  10.541  12.159
18527SOL     OW55604   2.547  10.322  11.837
18527SOL    HW155605   2.616  10.306  11.907
18527SOL    HW255606   2.474  10.379  11.875
18528SOL     OW55607   2.197  10.745  12.233
18528SOL    HW155608   2.119  10.714  12.180
18528SOL    HW255609   2.255  10.803  12.176
18529SOL     OW55610   3.322  10.815  12.511
18529SOL    HW155611   3.346  10.909  12.537
18529SOL    HW255612   3.306  10.761  12.593
18530SOL     OW55613   2.300   9.702  12.671
18530SOL    HW155614   2.382   9.646  12.680
18530SOL    HW255615   2.219   9.644  12.675
18531SOL     OW55616   3.465   9.757  11.909
18531SOL    HW155617   3.391   9.803  11.859
18531SOL    HW255618   3.516   9.825  11.962
18532SOL     OW55619   2.093  11.023  11.655
18532SOL    HW155620   2.127  11.100  11.709
18532SOL    HW255621   2.137  11.023  11.565
18533SOL     OW55622   2.092  10.744  11.710
18533SOL    HW155623   2.066  10.840  11.710
18533SOL    HW255624   2.021  10.690  11.755
18534SOL     OW55625   2.102  10.401  12.058
18534SOL    HW155626   2.116  10.317  12.110
18534SOL    HW255627   2.047  10.465  12.113
18535SOL     OW55628   2.482  11.096  12.611
18535SOL    HW155629   2.390  11.079  12.646
18535SOL    HW255630   2.510  11.188  12.637
18536SOL     OW55631   2.468  10.274  11.295
18536SOL    HW155632   2.475  10.358  11.241
18536SOL    HW255633   2.514  10.287  11.383
18537SOL     OW55634   3.456   9.424  12.652
18537SOL    HW155635   3.438   9.491  12.580
18537SOL    HW255636   3.453   9.470  12.741
18538SOL     OW55637   1.984   9.953  11.735
18538SOL    HW155638   1.939   9.865  11.752
18538SOL    HW255639   1.983  10.007  11.819
18539SOL     OW55640   3.704  11.077  11.531
18539SOL    HW155641   3.758  11.048  11.611
18539SOL    HW255642   3.734  11.167  11.502
18540SOL     OW55643   1.889  10.906  11.289
18540SOL    HW155644   1.870  10.810  11.310
18540SOL    HW255645   1.856  10.964  11.364
18541SOL     OW55646   3.551  10.232  11.784
18541SOL    HW155647   3.646  10.203  11.792
18541SOL    HW255648   3.543  10.297  11.709
18542SOL     OW55649   3.503  10.418  11.604
18542SOL    HW155650   3.589  10.420  11.552
18542SOL    HW255651   3.517  10.465  11.692
18543SOL     OW55652   1.975  10.047  12.769
18543SOL    HW155653   2.063  10.034  12.814
18543SOL    HW255654   1.962  10.144  12.747
18544SOL     OW55655   3.155  10.538  12.595
18544SOL    HW155656   3.192  10.465  12.537
18544SOL    HW255657   3.207  10.543  12.680
18545SOL     OW55658   2.671   9.314  11.674
18545SOL    HW155659   2.711   9.405  11.665
18545SOL    HW255660   2.571   9.322  11.680
18546SOL     OW55661   2.059  10.286  12.436
18546SOL    HW155662   2.148  10.241  12.422
18546SOL    HW255663   1.986  10.221  12.417
18547SOL     OW55664   3.387  10.309  11.362
18547SOL    HW155665   3.324  10.233  11.375
18547SOL    HW255666   3.435  10.327  11.448
18548SOL     OW55667   3.328  10.727  12.125
18548SOL    HW155668   3.269  10.733  12.205
18548SOL    HW255669   3.313  10.639  12.079
18549SOL     OW55670   3.529  11.024  11.744
18549SOL    HW155671   3.488  11.001  11.656
18549SOL    HW255672   3.511  10.950  11.809
18550SOL     OW55673   2.460  10.039  11.442
18550SOL    HW155674   2.484  10.108  11.374
18550SOL    HW255675   2.382  10.072  11.496
18551SOL     OW55676   3.143   9.655  12.116
18551SOL    HW155677   3.057   9.605  12.103
18551SOL    HW255678   3.205   9.601  12.172
18552SOL     OW55679   3.438  10.972  11.479
18552SOL    HW155680   3.527  11.018  11.482
18552SOL    HW255681   3.417  10.948  11.384
18553SOL     OW55682   2.669   9.915  12.637
18553SOL    HW155683   2.622   9.912  12.726
18553SOL    HW255684   2.618   9.860  12.571
18554SOL     OW55685   2.835  10.200  12.744
18554SOL    HW155686   2.881  10.116  12.715
18554SOL    HW255687   2.779  10.234  12.669
18555SOL     OW55688   2.853   9.720  12.414
18555SOL    HW155689   2.776   9.754  12.468
18555SOL    HW255690   2.819   9.669  12.335
18556SOL     OW55691   2.903  10.011  11.601
18556SOL    HW155692   2.929  10.007  11.697
18556SOL    HW255693   2.818   9.960  11.587
18557SOL     OW55694   1.938  10.121  11.961
18557SOL    HW155695   2.037  10.109  11.970
18557SOL    HW255696   1.914  10.216  11.982
18558SOL     OW55697   1.992  11.131  12.743
18558SOL    HW155698   1.982  11.116  12.842
18558SOL    HW255699   1.906  11.167  12.707
18559SOL     OW55700   2.727   9.658  11.367
18559SOL    HW155701   2.786   9.721  11.318
18559SOL    HW255702   2.746   9.564  11.338
18560SOL     OW55703   3.224  10.454  11.717
18560SOL    HW155704   3.307  10.425  11.669
18560SOL    HW255705   3.175  10.521  11.661
18561SOL     OW55706   2.412   9.506  12.057
18561SOL    HW155707   2.407   9.501  12.157
18561SOL    HW255708   2.414   9.602  12.028
18562SOL     OW55709   2.870  10.766  11.649
18562SOL    HW155710   2.824  10.838  11.597
18562SOL    HW255711   2.866  10.786  11.747
18563SOL     OW55712   2.213  11.111  12.025
18563SOL    HW155713   2.263  11.025  12.031
18563SOL    HW255714   2.278  11.188  12.022
18564SOL     OW55715   3.657  10.376  12.045
18564SOL    HW155716   3.595  10.361  11.969
18564SOL    HW255717   3.605  10.387  12.130
18565SOL     OW55718   3.089  10.860  12.678
18565SOL    HW155719   3.095  10.783  12.742
18565SOL    HW255720   3.037  10.834  12.598
18566SOL     OW55721   2.183  10.253  11.414
18566SOL    HW155722   2.265  10.292  11.372
18566SOL    HW255723   2.156  10.171  11.365
18567SOL     OW55724   3.320  10.045  11.900
18567SOL    HW155725   3.315   9.980  11.975
18567SOL    HW255726   3.400  10.104  11.913
18568SOL     OW55727   2.973  11.086  11.409
18568SOL    HW155728   2.913  11.024  11.459
18568SOL    HW255729   3.004  11.042  11.324
18569SOL     OW55730   2.064   9.595  12.670
18569SOL    HW155731   1.984   9.655  12.657
18569SOL    HW255732   2.054   9.546  12.756
18570SOL     OW55733   3.494  10.687  11.253
18570SOL    HW155734   3.462  10.781  11.243
18570SOL    HW255735   3.418  10.624  11.241
18571SOL     OW55736   2.326  11.053  11.495
18571SOL    HW155737   2.359  11.092  11.581
18571SOL    HW255738   2.402  11.046  11.430
18572SOL     OW55739   3.262   9.417  11.598
18572SOL    HW155740   3.238   9.380  11.508
18572SOL    HW255741   3.361   9.433  11.602
18573SOL     OW55742   2.111  11.095  12.413
18573SOL    HW155743   2.168  11.030  12.463
18573SOL    HW255744   2.095  11.062  12.320
18574SOL     OW55745   2.802  11.008  12.076
18574SOL    HW155746   2.882  10.951  12.097
18574SOL    HW255747   2.753  10.968  11.999
18575SOL     OW55748   2.244  10.010  11.652
18575SOL    HW155749   2.289   9.920  11.649
18575SOL    HW255750   2.150   9.999  11.685
18576SOL     OW55751   2.476   9.432  11.289
18576SOL    HW155752   2.574   9.410  11.296
18576SOL    HW255753   2.445   9.415  11.196
18577SOL     OW55754   2.750  10.824  12.367
18577SOL    HW155755   2.727  10.799  12.273
18577SOL    HW255756   2.811  10.755  12.406
18578SOL     OW55757   3.213   9.900  12.605
18578SOL    HW155758   3.241   9.857  12.690
18578SOL    HW255759   3.238   9.996  12.606
18579SOL     OW55760   2.665  10.712  12.096
18579SOL    HW155761   2.755  10.726  12.054
18579SOL    HW255762   2.594  10.714  12.025
18580SOL     OW55763   2.784   9.813  12.071
18580SOL    HW155764   2.759   9.804  11.975
18580SOL    HW255765   2.832   9.731  12.102
18581SOL     OW55766   2.401   9.374  11.684
18581SOL    HW155767   2.320   9.375  11.742
18581SOL    HW255768   2.404   9.457  11.629
18582SOL     OW55769   3.296  10.498  11.213
18582SOL    HW155770   3.328  10.422  11.270
18582SOL    HW255771   3.204  10.525  11.243
18583SOL     OW55772   2.159   9.345  11.343
18583SOL    HW155773   2.208   9.429  11.322
18583SOL    HW255774   2.221   9.280  11.388
18584SOL     OW55775   2.797   9.546  11.652
18584SOL    HW155776   2.749   9.587  11.574
18584SOL    HW255777   2.896   9.544  11.633
18585SOL     OW55778   2.938   9.993  12.636
18585SOL    HW155779   2.858   9.932  12.639
18585SOL    HW255780   3.019   9.940  12.612
18586SOL     OW55781   3.089  10.880  11.965
18586SOL    HW155782   3.110  10.954  11.900
18586SOL    HW255783   3.157  10.880  12.038
18587SOL     OW55784   2.321  10.462  11.913
18587SOL    HW155785   2.250  10.435  11.978
18587SOL    HW255786   2.295  10.434  11.820
18588SOL     OW55787   3.133  11.107  11.763
18588SOL    HW155788   3.177  11.171  11.699
18588SOL    HW255789   3.083  11.159  11.833
18589SOL     OW55790   2.894   9.859  11.188
18589SOL    HW155791   2.853   9.941  11.149
18589SOL    HW255792   2.958   9.885  11.261
18590SOL     OW55793   1.940   9.866  12.558
18590SOL    HW155794   2.032   9.865  12.517
18590SOL    HW255795   1.934   9.940  12.625
18591SOL     OW55796   2.423   9.532  12.319
18591SOL    HW155797   2.461   9.448  12.356
18591SOL    HW255798   2.335   9.551  12.363
18592SOL     OW55799   2.728   9.764  11.814
18592SOL    HW155800   2.696   9.836  11.752
18592SOL    HW255801   2.752   9.683  11.761
18593SOL     OW55802   2.879   9.349  11.925
18593SOL    HW155803   2.807   9.354  11.856
18593SOL    HW255804   2.855   9.280  11.994
18594SOL     OW55805   3.291  10.483  12.039
18594SOL    HW155806   3.236  10.399  12.032
18594SOL    HW255807   3.317  10.512  11.947
18595SOL     OW55808   3.328   9.900  12.164
18595SOL    HW155809   3.298   9.805  12.171
18595SOL    HW255810   3.401   9.916  12.230
18596SOL     OW55811   3.719  10.143  11.549
18596SOL    HW155812   3.761  10.079  11.613
18596SOL    HW255813   3.681  10.092  11.471
18597SOL     OW55814   2.350  10.695  11.346
18597SOL    HW155815   2.263  10.680  11.393
18597SOL    HW255816   2.333  10.721  11.251
18598SOL     OW55817   3.526  10.590  11.829
18598SOL    HW155818   3.625  10.598  11.843
18598SOL    HW255819   3.481  10.674  11.860
18599SOL     OW55820   3.252   9.885  11.250
18599SOL    HW155821   3.198   9.864  11.331
18599SOL    HW255822   3.343   9.844  11.259
18600SOL     OW55823   2.389   9.566  11.500
18600SOL    HW155824   2.416   9.507  11.425
18600SOL    HW255825   2.389   9.661  11.469
18601SOL     OW55826   3.616  10.533  12.760
18601SOL    HW155827   3.707  10.494  12.747
18601SOL    HW255828   3.624  10.629  12.784
18602SOL     OW55829   2.926  10.657  12.512
18602SOL    HW155830   2.846  10.634  12.567
18602SOL    HW255831   3.009  10.631  12.561
18603SOL     OW55832   2.973  10.505  12.272
18603SOL    HW155833   2.933  10.549  12.353
18603SOL    HW255834   2.932  10.542  12.189
18604SOL     OW55835   3.500  10.409  12.251
18604SOL    HW155836   3.505  10.490  12.310
18604SOL    HW255837   3.414  10.411  12.200
18605SOL     OW55838   2.777   9.399  12.574
18605SOL    HW155839   2.802   9.379  12.479
18605SOL    HW255840   2.849   9.455  12.616
18606SOL     OW55841   2.567  10.360  11.540
18606SOL    HW155842   2.553  10.367  11.639
18606SOL    HW255843   2.651  10.309  11.522
18607SOL     OW55844   2.272  10.123  12.423
18607SOL    HW155845   2.358  10.135  12.473
18607SOL    HW255846   2.230  10.036  12.450
18608SOL     OW55847   3.136   9.696  12.434
18608SOL    HW155848   3.157   9.770  12.498
18608SOL    HW255849   3.047   9.713  12.391
18609SOL     OW55850   1.926  10.874  12.503
18609SOL    HW155851   1.880  10.956  12.469
18609SOL    HW255852   2.024  10.893  12.512
18610SOL     OW55853   2.229  10.410  11.673
18610SOL    HW155854   2.222  10.493  11.617
18610SOL    HW255855   2.233  10.330  11.613
18611SOL     OW55856   2.428   9.847  12.037
18611SOL    HW155857   2.440   9.913  11.963
18611SOL    HW255858   2.474   9.881  12.120
18612SOL     OW55859   3.114  10.658  11.560
18612SOL    HW155860   3.164  10.735  11.600
18612SOL    HW255861   3.019  10.660  11.592
18613SOL     OW55862   3.134  10.755  12.314
18613SOL    HW155863   3.181  10.768  12.401
18613SOL    HW255864   3.068  10.681  12.323
18614SOL     OW55865   3.444   9.949  11.644
18614SOL    HW155866   3.413  10.010  11.717
18614SOL    HW255867   3.494  10.001  11.575
18615SOL     OW55868   2.216  10.820  12.501
18615SOL    HW155869   2.195  10.776  12.414
18615SOL    HW255870   2.313  10.846  12.504
18616SOL     OW55871   2.264  10.061  12.770
18616SOL    HW155872   2.332  10.116  12.723
18616SOL    HW255873   2.304   9.973  12.797
18617SOL     OW55874   3.449  10.089  12.842
18617SOL    HW155875   3.357  10.127  12.837
18617SOL    HW255876   3.509  10.136  12.777
18618SOL     OW55877   2.435  10.180  12.201
18618SOL    HW155878   2.479  10.269  12.192
18618SOL    HW255879   2.372  10.180  12.278
18619SOL     OW55880   3.222  10.172  12.217
18619SOL    HW155881   3.147  10.172  12.151
18619SOL    HW255882   3.259  10.080  12.226
18620SOL     OW55883   3.071   9.835  11.447
18620SOL    HW155884   3.084   9.751  11.501
18620SOL    HW255885   3.042   9.909  11.507
18621SOL     OW55886   2.169   9.523  12.403
18621SOL    HW155887   2.146   9.560  12.493
18621SOL    HW255888   2.139   9.428  12.397
18622SOL     OW55889   1.899  10.620  12.454
18622SOL    HW155890   1.952  10.571  12.522
18622SOL    HW255891   1.921  10.718  12.459
18623SOL     OW55892   2.594   9.944  12.236
18623SOL    HW155893   2.653   9.918  12.160
18623SOL    HW255894   2.566  10.040  12.225
18624SOL     OW55895   2.169   9.373  11.790
18624SOL    HW155896   2.158   9.467  11.823
18624SOL    HW255897   2.164   9.310  11.867
18625SOL     OW55898   3.484   9.677  11.546
18625SOL    HW155899   3.486   9.601  11.610
18625SOL    HW255900   3.436   9.754  11.586
18626SOL     OW55901   2.885  10.076  12.138
18626SOL    HW155902   2.900  10.097  12.234
18626SOL    HW255903   2.855   9.981  12.129
18627SOL     OW55904   3.402   9.584  11.297
18627SOL    HW155905   3.341   9.509  11.320
18627SOL    HW255906   3.424   9.636  11.380
18628SOL     OW55907   3.165  10.148  11.214
18628SOL    HW155908   3.199  10.055  11.229
18628SOL    HW255909   3.183  10.175  11.119
18629SOL     OW55910   2.930  10.643  12.021
18629SOL    HW155911   2.937  10.559  11.966
18629SOL    HW255912   2.992  10.712  11.985
18630SOL     OW55913   2.181  10.120  12.121
18630SOL    HW155914   2.274  10.156  12.126
18630SOL    HW255915   2.175  10.035  12.173
18631SOL     OW55916   2.201   9.819  12.178
18631SOL    HW155917   2.149   9.736  12.161
18631SOL    HW255918   2.278   9.824  12.114
18632SOL     OW55919   3.022   9.517  12.649
18632SOL    HW155920   3.022   9.581  12.726
18632SOL    HW255921   3.050   9.565  12.566
18633SOL     OW55922   1.870  10.636  11.372
18633SOL    HW155923   1.777  10.657  11.341
18633SOL    HW255924   1.880  10.537  11.385
18634SOL     OW55925   1.950  11.111  12.099
18634SOL    HW155926   1.908  11.025  12.072
18634SOL    HW255927   2.044  11.114  12.065
18635SOL     OW55928   2.366  10.878  12.082
18635SOL    HW155929   2.432  10.952  12.091
18635SOL    HW255930   2.410  10.799  12.040
18636SOL     OW55931   2.864  10.106  12.410
18636SOL    HW155932   2.905  10.074  12.496
18636SOL    HW255933   2.768  10.079  12.407
18637SOL     OW55934   1.902   9.854  12.286
18637SOL    HW155935   1.987   9.821  12.245
18637SOL    HW255936   1.915   9.869  12.384
18638SOL     OW55937   2.677   9.882  11.497
18638SOL    HW155938   2.684   9.793  11.451
18638SOL    HW255939   2.583   9.916  11.489
18639SOL     OW55940   3.519   9.914  12.378
18639SOL    HW155941   3.481   9.845  12.440
18639SOL    HW255942   3.601   9.878  12.334
18640SOL     OW55943   2.114  10.874  12.916
18640SOL    HW155944   2.084  10.931  12.992
18640SOL    HW255945   2.107  10.777  12.942
18641SOL     OW55946   2.533   9.774  12.441
18641SOL    HW155947   2.499   9.685  12.411
18641SOL    HW255948   2.559   9.828  12.361
18642SOL     OW55949   2.792  10.988  12.637
18642SOL    HW155950   2.768  10.970  12.542
18642SOL    HW255951   2.822  11.082  12.647
18643SOL     OW55952   2.335   9.810  11.363
18643SOL    HW155953   2.396   9.890  11.367
18643SOL    HW255954   2.240   9.841  11.370
18644SOL     OW55955   2.021  10.447  12.638
18644SOL    HW155956   2.043  10.386  12.714
18644SOL    HW255957   2.031  10.398  12.552
18645SOL     OW55958   3.209  10.369  12.406
18645SOL    HW155959   3.233  10.306  12.332
18645SOL    HW255960   3.119  10.409  12.388
18646SOL     OW55961   3.164  10.165  11.481
18646SOL    HW155962   3.078  10.134  11.523
18646SOL    HW255963   3.160  10.151  11.382
18647SOL     OW55964   3.621  11.057  12.326
18647SOL    HW155965   3.682  11.087  12.253
18647SOL    HW255966   3.583  10.968  12.304
18648SOL     OW55967   3.114  11.041  12.300
18648SOL    HW155968   3.198  11.046  12.246
18648SOL    HW255969   3.091  10.945  12.318
18649SOL     OW55970   1.945  10.568  12.194
18649SOL    HW155971   1.940  10.567  12.294
18649SOL    HW255972   1.862  10.527  12.156
18650SOL     OW55973   3.588   9.445  11.695
18650SOL    HW155974   3.661   9.428  11.628
18650SOL    HW255975   3.557   9.358  11.733
18651SOL     OW55976   3.250  10.883  11.649
18651SOL    HW155977   3.317  10.895  11.575
18651SOL    HW255978   3.210  10.972  11.672
18652SOL     OW55979   3.142  10.237  11.844
18652SOL    HW155980   3.202  10.156  11.846
18652SOL    HW255981   3.182  10.306  11.784
18653SOL     OW55982   2.692  10.583  12.594
18653SOL    HW155983   2.687  10.616  12.689
18653SOL    HW255984   2.606  10.602  12.548
18654SOL     OW55985   2.534  10.926  11.326
18654SOL    HW155986   2.543  10.936  11.227
18654SOL    HW255987   2.494  10.837  11.347
18655SOL     OW55988   3.512  11.030  12.566
18655SOL    HW155989   3.565  11.040  12.482
18655SOL    HW255990   3.485  11.120  12.600
18656SOL     OW55991   3.703   9.485  12.135
18656SOL    HW155992   3.742   9.400  12.099
18656SOL    HW255993   3.605   9.487  12.116
18657SOL     OW55994   2.125   9.636  11.892
18657SOL    HW155995   2.046   9.687  11.858
18657SOL    HW255996   2.116   9.621  11.990
18658SOL     OW55997   3.056  10.922  11.203
18658SOL    HW155998   3.062  10.829  11.240
18658SOL    HW255999   2.997  10.922  11.123
18659SOL     OW56000   2.684  10.312  12.544
18659SOL    HW156001   2.724  10.311  12.452
18659SOL    HW256002   2.694  10.404  12.584
18660SOL     OW56003   2.778  10.220  11.463
18660SOL    HW156004   2.841  10.258  11.395
18660SOL    HW256005   2.818  10.137  11.502
18661SOL     OW56006   3.366  10.917  11.216
18661SOL    HW156007   3.274  10.954  11.223
18661SOL    HW256008   3.404  10.937  11.126
18662SOL     OW56009   2.234  10.598  12.662
18662SOL    HW156010   2.221  10.691  12.628
18662SOL    HW256011   2.150  10.546  12.649
18663SOL     OW56012   3.476  10.602  12.461
18663SOL    HW156013   3.536  10.605  12.541
18663SOL    HW256014   3.401  10.666  12.474
18664SOL     OW56015   2.901  10.408  11.868
18664SOL    HW156016   2.831  10.361  11.922
18664SOL    HW256017   2.960  10.340  11.825
18665SOL     OW56018   2.876   9.546  12.143
18665SOL    HW156019   2.868   9.510  12.050
18665SOL    HW256020   2.874   9.470  12.208
18666SOL     OW56021   2.452  10.797  11.663
18666SOL    HW156022   2.494  10.739  11.593
18666SOL    HW256023   2.408  10.876  11.619
18667SOL     OW56024   3.571   9.695  12.553
18667SOL    HW156025   3.644   9.764  12.557
18667SOL    HW256026   3.599   9.620  12.494
18668SOL     OW56027   2.117  10.658  11.462
18668SOL    HW156028   2.021  10.659  11.435
18668SOL    HW256029   2.129  10.711  11.546
18669SOL     OW56030   1.967  10.323  12.898
18669SOL    HW156031   1.890  10.290  12.952
18669SOL    HW256032   2.052  10.293  12.940
18670SOL     OW56033   2.534   9.513  12.661
18670SOL    HW156034   2.624   9.497  12.621
18670SOL    HW256035   2.542   9.518  12.760
18671SOL     OW56036   1.937   9.655  11.205
18671SOL    HW156037   1.845   9.627  11.176
18671SOL    HW256038   1.968   9.732  11.149
18672SOL     OW56039   3.302  10.166  12.570
18672SOL    HW156040   3.245  10.218  12.507
18672SOL    HW256041   3.398  10.178  12.546
18673SOL     OW56042   1.934   9.476  11.490
18673SOL    HW156043   1.917   9.559  11.436
18673SOL    HW256044   2.024   9.439  11.468
18674SOL     OW56045   3.045  10.645  11.291
18674SOL    HW156046   2.946  10.634  11.293
18674SOL    HW256047   3.079  10.660  11.384
18675SOL     OW56048   2.475  10.152  12.603
18675SOL    HW156049   2.531  10.233  12.586
18675SOL    HW256050   2.534  10.072  12.606
18676SOL     OW56051   3.355  11.077  12.131
18676SOL    HW156052   3.388  11.141  12.062
18676SOL    HW256053   3.421  11.071  12.206
18677SOL     OW56054   2.578   9.875  12.880
18677SOL    HW156055   2.597   9.940  12.954
18677SOL    HW256056   2.638   9.795  12.889
18678SOL     OW56057   2.252  11.051  12.732
18678SOL    HW156058   2.161  11.092  12.730
18678SOL    HW256059   2.245  10.957  12.764
18679SOL     OW56060   3.536  10.193  12.426
18679SOL    HW156061   3.509  10.104  12.389
18679SOL    HW256062   3.537  10.261  12.353
18680SOL     OW56063   3.087   9.635  11.621
18680SOL    HW156064   3.152   9.561  11.610
18680SOL    HW256065   3.107   9.685  11.705
18681SOL     OW56066   2.456  10.055  11.824
18681SOL    HW156067   2.506  10.140  11.805
18681SOL    HW256068   2.368  10.057  11.776
18682SOL     OW56069   3.592  10.244  12.689
18682SOL    HW156070   3.630  10.335  12.704
18682SOL    HW256071   3.584  10.227  12.590
18683SOL     OW56072   2.721  10.684  11.188
18683SOL    HW156073   2.675  10.699  11.276
18683SOL    HW256074   2.765  10.769  11.158
18684SOL     OW56075   2.523  11.100  12.125
18684SOL    HW156076   2.477  11.188  12.112
18684SOL    HW256077   2.622  11.112  12.118
18685SOL     OW56078   2.721  10.266  12.033
18685SOL    HW156079   2.775  10.197  12.081
18685SOL    HW256080   2.689  10.335  12.099
18686SOL     OW56081   2.945  10.294  11.259
18686SOL    HW156082   2.922  10.347  11.177
18686SOL    HW256083   3.026  10.238  11.240
18687SOL     OW56084   3.723  10.879  12.023
18687SOL    HW156085   3.652  10.867  11.953
18687SOL    HW256086   3.724  10.800  12.083
18688SOL     OW56087   1.941  10.550  11.825
18688SOL    HW156088   1.940  10.503  11.913
18688SOL    HW256089   2.023  10.522  11.774
18689SOL     OW56090   2.534  10.701  12.796
18689SOL    HW156091   2.456  10.651  12.834
18689SOL    HW256092   2.531  10.796  12.827
18690SOL     OW56093   3.686   9.502  12.399
18690SOL    HW156094   3.682   9.412  12.443
18690SOL    HW256095   3.689   9.491  12.300
18691SOL     OW56096   2.290   9.734  11.692
18691SOL    HW156097   2.320   9.662  11.630
18691SOL    HW256098   2.251   9.694  11.775
18692SOL     OW56099   3.567  10.797  12.276
18692SOL    HW156100   3.474  10.772  12.249
18692SOL    HW256101   3.593  10.747  12.358
18693SOL     OW56102   2.179   9.857  12.452
18693SOL    HW156103   2.217   9.798  12.524
18693SOL    HW256104   2.219   9.831  12.364
18694SOL     OW56105   2.674  10.896  11.859
18694SOL    HW156106   2.706  10.906  11.765
18694SOL    HW256107   2.595  10.834  11.861
18695SOL     OW56108   3.286   9.524  12.284
18695SOL    HW156109   3.338   9.459  12.339
18695SOL    HW256110   3.237   9.587  12.345
18696SOL     OW56111   2.863   9.344  12.326
18696SOL    HW156112   2.800   9.272  12.295
18696SOL    HW256113   2.956   9.308  12.326
18697SOL     OW56114   2.632  10.640  11.473
18697SOL    HW156115   2.586  10.553  11.490
18697SOL    HW256116   2.723  10.637  11.514
18698SOL     OW56117   2.480  10.877  12.456
18698SOL    HW156118   2.475  10.959  12.513
18698SOL    HW256119   2.569  10.874  12.411
18699SOL     OW56120   3.214   9.362  11.340
18699SOL    HW156121   3.249   9.321  11.256
18699SOL    HW256122   3.124   9.324  11.360
18700SOL     OW56123   3.162   9.763  11.863
18700SOL    HW156124   3.103   9.843  11.867
18700SOL    HW256125   3.177   9.728  11.956
18701SOL     OW56126   3.455   9.531  12.054
18701SOL    HW156127   3.371   9.530  12.108
18701SOL    HW256128   3.457   9.614  11.998
18702SOL     OW56129   1.901  10.387  11.472
18702SOL    HW156130   2.000  10.376  11.463
18702SOL    HW256131   1.861  10.301  11.504
18703SOL     OW56132   2.737  10.956  11.509
18703SOL    HW156133   2.660  10.921  11.455
18703SOL    HW256134   2.705  11.027  11.571
18704SOL     OW56135   2.092  11.800   0.113
18704SOL    HW156136   1.999  11.798   0.150
18704SOL    HW256137   2.093  11.761   0.021
18705SOL     OW56138   2.087  11.447   0.996
18705SOL    HW156139   2.122  11.430   1.088
18705SOL    HW256140   1.999  11.402   0.984
18706SOL     OW56141   1.881  11.540   0.647
18706SOL    HW156142   1.799  11.583   0.686
18706SOL    HW256143   1.853  11.467   0.584
18707SOL     OW56144   2.431  12.447   1.165
18707SOL    HW156145   2.338  12.440   1.128
18707SOL    HW256146   2.442  12.536   1.209
18708SOL     OW56147   3.417  12.683   0.703
18708SOL    HW156148   3.360  12.667   0.784
18708SOL    HW256149   3.358  12.693   0.623
18709SOL     OW56150   2.997  11.875   0.717
18709SOL    HW156151   3.054  11.953   0.692
18709SOL    HW256152   2.937  11.901   0.793
18710SOL     OW56153   3.617  11.779   0.231
18710SOL    HW156154   3.605  11.766   0.132
18710SOL    HW256155   3.587  11.698   0.280
18711SOL     OW56156   2.630  12.316   1.023
18711SOL    HW156157   2.552  12.333   1.083
18711SOL    HW256158   2.664  12.403   0.987
18712SOL     OW56159   2.712  11.970   1.823
18712SOL    HW156160   2.708  12.046   1.888
18712SOL    HW256161   2.734  12.006   1.732
18713SOL     OW56162   2.547  12.184   0.665
18713SOL    HW156163   2.616  12.168   0.735
18713SOL    HW256164   2.474  12.241   0.703
18714SOL     OW56165   2.548  12.333   1.803
18714SOL    HW156166   2.608  12.412   1.817
18714SOL    HW256167   2.462  12.364   1.762
18715SOL     OW56168   2.197  12.607   1.061
18715SOL    HW156169   2.119  12.576   1.008
18715SOL    HW256170   2.255  12.665   1.004
18716SOL     OW56171   3.322  12.677   1.339
18716SOL    HW156172   3.346  12.771   1.365
18716SOL    HW256173   3.306  12.623   1.421
18717SOL     OW56174   2.300  11.564   1.499
18717SOL    HW156175   2.382  11.508   1.508
18717SOL    HW256176   2.219  11.506   1.503
18718SOL     OW56177   3.465  11.619   0.737
18718SOL    HW156178   3.391  11.665   0.687
18718SOL    HW256179   3.516  11.687   0.790
18719SOL     OW56180   2.989  12.513   1.690
18719SOL    HW156181   3.036  12.513   1.778
18719SOL    HW256182   2.941  12.426   1.679
18720SOL     OW56183   2.092  12.606   0.538
18720SOL    HW156184   2.066  12.702   0.538
18720SOL    HW256185   2.021  12.552   0.583
18721SOL     OW56186   2.102  12.263   0.886
18721SOL    HW156187   2.116  12.179   0.938
18721SOL    HW256188   2.047  12.327   0.941
18722SOL     OW56189   2.468  12.136   0.123
18722SOL    HW156190   2.475  12.220   0.069
18722SOL    HW256191   2.514  12.149   0.211
18723SOL     OW56192   3.456  11.286   1.480
18723SOL    HW156193   3.438  11.353   1.408
18723SOL    HW256194   3.453  11.332   1.569
18724SOL     OW56195   1.984  11.815   0.563
18724SOL    HW156196   1.939  11.727   0.580
18724SOL    HW256197   1.983  11.869   0.647
18725SOL     OW56198   1.889  12.768   0.117
18725SOL    HW156199   1.870  12.672   0.138
18725SOL    HW256200   1.856  12.826   0.192
18726SOL     OW56201   3.551  12.094   0.612
18726SOL    HW156202   3.646  12.065   0.620
18726SOL    HW256203   3.543  12.159   0.537
18727SOL     OW56204   3.503  12.280   0.432
18727SOL    HW156205   3.589  12.282   0.380
18727SOL    HW256206   3.517  12.327   0.520
18728SOL     OW56207   1.975  11.909   1.597
18728SOL    HW156208   2.063  11.896   1.642
18728SOL    HW256209   1.962  12.006   1.575
18729SOL     OW56210   2.475  12.537   0.726
18729SOL    HW156211   2.426  12.450   0.735
18729SOL    HW256212   2.452  12.580   0.639
18730SOL     OW56213   3.155  12.400   1.423
18730SOL    HW156214   3.192  12.327   1.365
18730SOL    HW256215   3.207  12.405   1.508
18731SOL     OW56216   2.671  11.176   0.502
18731SOL    HW156217   2.711  11.267   0.493
18731SOL    HW256218   2.571  11.184   0.508
18732SOL     OW56219   2.059  12.148   1.264
18732SOL    HW156220   2.148  12.103   1.250
18732SOL    HW256221   1.986  12.083   1.245
18733SOL     OW56222   3.387  12.171   0.190
18733SOL    HW156223   3.324  12.095   0.203
18733SOL    HW256224   3.435  12.189   0.276
18734SOL     OW56225   2.179  11.423   1.801
18734SOL    HW156226   2.250  11.494   1.807
18734SOL    HW256227   2.091  11.462   1.829
18735SOL     OW56228   3.328  12.589   0.953
18735SOL    HW156229   3.269  12.595   1.033
18735SOL    HW256230   3.313  12.501   0.907
18736SOL     OW56231   2.460  11.901   0.270
18736SOL    HW156232   2.484  11.970   0.202
18736SOL    HW256233   2.382  11.934   0.324
18737SOL     OW56234   3.143  11.517   0.944
18737SOL    HW156235   3.057  11.467   0.931
18737SOL    HW256236   3.205  11.463   1.000
18738SOL     OW56237   3.438  12.834   0.307
18738SOL    HW156238   3.527  12.880   0.310
18738SOL    HW256239   3.417  12.810   0.212
18739SOL     OW56240   2.669  11.777   1.465
18739SOL    HW156241   2.622  11.774   1.554
18739SOL    HW256242   2.618  11.722   1.399
18740SOL     OW56243   3.256  11.641   1.674
18740SOL    HW156244   3.236  11.684   1.762
18740SOL    HW256245   3.334  11.579   1.683
18741SOL     OW56246   2.835  12.062   1.572
18741SOL    HW156247   2.881  11.978   1.543
18741SOL    HW256248   2.779  12.096   1.497
18742SOL     OW56249   2.853  11.582   1.242
18742SOL    HW156250   2.776  11.616   1.296
18742SOL    HW256251   2.819  11.531   1.163
18743SOL     OW56252   2.903  11.873   0.429
18743SOL    HW156253   2.929  11.869   0.525
18743SOL    HW256254   2.818  11.822   0.415
18744SOL     OW56255   1.938  11.983   0.789
18744SOL    HW156256   2.037  11.971   0.798
18744SOL    HW256257   1.914  12.078   0.810
18745SOL     OW56258   2.727  11.520   0.195
18745SOL    HW156259   2.786  11.583   0.146
18745SOL    HW256260   2.746  11.426   0.166
18746SOL     OW56261   3.581  11.757   1.831
18746SOL    HW156262   3.555  11.846   1.795
18746SOL    HW256263   3.579  11.689   1.758
18747SOL     OW56264   3.224  12.316   0.545
18747SOL    HW156265   3.307  12.287   0.497
18747SOL    HW256266   3.175  12.383   0.489
18748SOL     OW56267   2.412  11.368   0.885
18748SOL    HW156268   2.407  11.363   0.985
18748SOL    HW256269   2.414  11.464   0.856
18749SOL     OW56270   2.870  12.628   0.477
18749SOL    HW156271   2.824  12.700   0.425
18749SOL    HW256272   2.866  12.648   0.575
18750SOL     OW56273   3.657  12.238   0.873
18750SOL    HW156274   3.595  12.223   0.797
18750SOL    HW256275   3.605  12.249   0.958
18751SOL     OW56276   3.089  12.722   1.506
18751SOL    HW156277   3.095  12.645   1.570
18751SOL    HW256278   3.037  12.696   1.426
18752SOL     OW56279   2.183  12.115   0.242
18752SOL    HW156280   2.265  12.154   0.200
18752SOL    HW256281   2.156  12.033   0.193
18753SOL     OW56282   3.320  11.907   0.728
18753SOL    HW156283   3.315  11.842   0.803
18753SOL    HW256284   3.400  11.966   0.741
18754SOL     OW56285   2.323  12.438   1.727
18754SOL    HW156286   2.273  12.439   1.641
18754SOL    HW256287   2.260  12.420   1.803
18755SOL     OW56288   2.064  11.457   1.498
18755SOL    HW156289   1.984  11.517   1.485
18755SOL    HW256290   2.054  11.408   1.584
18756SOL     OW56291   3.494  12.549   0.081
18756SOL    HW156292   3.462  12.643   0.071
18756SOL    HW256293   3.418  12.486   0.069
18757SOL     OW56294   3.262  11.279   0.426
18757SOL    HW156295   3.238  11.242   0.336
18757SOL    HW256296   3.361  11.295   0.430
18758SOL     OW56297   2.244  11.872   0.480
18758SOL    HW156298   2.289  11.782   0.477
18758SOL    HW256299   2.150  11.861   0.513
18759SOL     OW56300   3.409  11.394   1.729
18759SOL    HW156301   3.404  11.431   1.821
18759SOL    HW256302   3.337  11.325   1.717
18760SOL     OW56303   2.476  11.294   0.117
18760SOL    HW156304   2.574  11.272   0.124
18760SOL    HW256305   2.445  11.277   0.024
18761SOL     OW56306   2.643  11.436   1.749
18761SOL    HW156307   2.710  11.375   1.792
18761SOL    HW256308   2.570  11.455   1.814
18762SOL     OW56309   3.213  11.762   1.433
18762SOL    HW156310   3.241  11.719   1.518
18762SOL    HW256311   3.238  11.858   1.434
18763SOL     OW56312   2.665  12.574   0.924
18763SOL    HW156313   2.755  12.588   0.882
18763SOL    HW256314   2.594  12.576   0.853
18764SOL     OW56315   2.784  11.675   0.899
18764SOL    HW156316   2.759  11.666   0.803
18764SOL    HW256317   2.832  11.593   0.930
18765SOL     OW56318   2.401  11.236   0.512
18765SOL    HW156319   2.320  11.237   0.570
18765SOL    HW256320   2.404  11.319   0.457
18766SOL     OW56321   3.296  12.360   0.041
18766SOL    HW156322   3.328  12.284   0.098
18766SOL    HW256323   3.204  12.387   0.071
18767SOL     OW56324   2.159  11.207   0.171
18767SOL    HW156325   2.208  11.291   0.150
18767SOL    HW256326   2.221  11.142   0.216
18768SOL     OW56327   2.797  11.408   0.480
18768SOL    HW156328   2.749  11.449   0.402
18768SOL    HW256329   2.896  11.406   0.461
18769SOL     OW56330   2.938  11.855   1.464
18769SOL    HW156331   2.858  11.794   1.467
18769SOL    HW256332   3.019  11.802   1.440
18770SOL     OW56333   3.089  12.742   0.793
18770SOL    HW156334   3.110  12.816   0.728
18770SOL    HW256335   3.157  12.742   0.866
18771SOL     OW56336   2.321  12.324   0.741
18771SOL    HW156337   2.250  12.297   0.806
18771SOL    HW256338   2.295  12.296   0.648
18772SOL     OW56339   2.894  11.721   0.016
18772SOL    HW156340   2.853  11.803  -0.023
18772SOL    HW256341   2.958  11.747   0.089
18773SOL     OW56342   1.940  11.728   1.386
18773SOL    HW156343   2.032  11.727   1.345
18773SOL    HW256344   1.934  11.802   1.453
18774SOL     OW56345   2.423  11.394   1.147
18774SOL    HW156346   2.461  11.310   1.184
18774SOL    HW256347   2.335  11.413   1.191
18775SOL     OW56348   2.728  11.626   0.642
18775SOL    HW156349   2.696  11.698   0.580
18775SOL    HW256350   2.752  11.545   0.589
18776SOL     OW56351   2.879  11.211   0.753
18776SOL    HW156352   2.807  11.216   0.684
18776SOL    HW256353   2.855  11.142   0.822
18777SOL     OW56354   3.291  12.345   0.867
18777SOL    HW156355   3.236  12.261   0.860
18777SOL    HW256356   3.317  12.374   0.775
18778SOL     OW56357   3.328  11.762   0.992
18778SOL    HW156358   3.298  11.667   0.999
18778SOL    HW256359   3.401  11.778   1.058
18779SOL     OW56360   3.719  12.005   0.377
18779SOL    HW156361   3.761  11.941   0.441
18779SOL    HW256362   3.681  11.954   0.299
18780SOL     OW56363   2.350  12.557   0.174
18780SOL    HW156364   2.263  12.542   0.221
18780SOL    HW256365   2.333  12.583   0.079
18781SOL     OW56366   3.526  12.452   0.657
18781SOL    HW156367   3.625  12.460   0.671
18781SOL    HW256368   3.481  12.536   0.688
18782SOL     OW56369   3.252  11.747   0.078
18782SOL    HW156370   3.198  11.726   0.159
18782SOL    HW256371   3.343  11.706   0.087
18783SOL     OW56372   2.389  11.428   0.328
18783SOL    HW156373   2.416  11.369   0.253
18783SOL    HW256374   2.389  11.523   0.297
18784SOL     OW56375   3.616  12.395   1.588
18784SOL    HW156376   3.707  12.356   1.575
18784SOL    HW256377   3.624  12.491   1.612
18785SOL     OW56378   2.926  12.519   1.340
18785SOL    HW156379   2.846  12.496   1.395
18785SOL    HW256380   3.009  12.493   1.389
18786SOL     OW56381   2.973  12.367   1.100
18786SOL    HW156382   2.933  12.411   1.181
18786SOL    HW256383   2.932  12.404   1.017
18787SOL     OW56384   3.500  12.271   1.079
18787SOL    HW156385   3.505  12.352   1.138
18787SOL    HW256386   3.414  12.273   1.028
18788SOL     OW56387   2.777  11.261   1.402
18788SOL    HW156388   2.802  11.241   1.307
18788SOL    HW256389   2.849  11.317   1.444
18789SOL     OW56390   2.842  12.288   1.719
18789SOL    HW156391   2.743  12.294   1.729
18789SOL    HW256392   2.865  12.208   1.663
18790SOL     OW56393   2.567  12.222   0.368
18790SOL    HW156394   2.553  12.229   0.467
18790SOL    HW256395   2.651  12.171   0.350
18791SOL     OW56396   2.272  11.985   1.251
18791SOL    HW156397   2.358  11.997   1.301
18791SOL    HW256398   2.230  11.898   1.278
18792SOL     OW56399   3.136  11.558   1.262
18792SOL    HW156400   3.157  11.632   1.326
18792SOL    HW256401   3.047  11.575   1.219
18793SOL     OW56402   1.926  12.736   1.331
18793SOL    HW156403   1.880  12.818   1.297
18793SOL    HW256404   2.024  12.755   1.340
18794SOL     OW56405   2.229  12.272   0.501
18794SOL    HW156406   2.222  12.355   0.445
18794SOL    HW256407   2.233  12.192   0.441
18795SOL     OW56408   2.428  11.709   0.865
18795SOL    HW156409   2.440  11.775   0.791
18795SOL    HW256410   2.474  11.743   0.948
18796SOL     OW56411   3.114  12.520   0.388
18796SOL    HW156412   3.164  12.597   0.428
18796SOL    HW256413   3.019  12.522   0.420
18797SOL     OW56414   3.134  12.617   1.142
18797SOL    HW156415   3.181  12.630   1.229
18797SOL    HW256416   3.068  12.543   1.151
18798SOL     OW56417   3.444  11.811   0.472
18798SOL    HW156418   3.413  11.872   0.545
18798SOL    HW256419   3.494  11.863   0.403
18799SOL     OW56420   2.216  12.682   1.329
18799SOL    HW156421   2.195  12.638   1.242
18799SOL    HW256422   2.313  12.708   1.332
18800SOL     OW56423   2.264  11.923   1.598
18800SOL    HW156424   2.332  11.978   1.551
18800SOL    HW256425   2.304  11.835   1.625
18801SOL     OW56426   3.449  11.951   1.670
18801SOL    HW156427   3.357  11.989   1.665
18801SOL    HW256428   3.509  11.998   1.605
18802SOL     OW56429   2.875  11.277   1.770
18802SOL    HW156430   2.881  11.362   1.718
18802SOL    HW256431   2.907  11.201   1.713
18803SOL     OW56432   2.366  11.222   1.740
18803SOL    HW156433   2.324  11.165   1.670
18803SOL    HW256434   2.300  11.291   1.772
18804SOL     OW56435   2.435  12.042   1.029
18804SOL    HW156436   2.479  12.131   1.020
18804SOL    HW256437   2.372  12.042   1.106
18805SOL     OW56438   3.222  12.034   1.045
18805SOL    HW156439   3.147  12.034   0.979
18805SOL    HW256440   3.259  11.942   1.054
18806SOL     OW56441   3.071  11.697   0.275
18806SOL    HW156442   3.084  11.613   0.329
18806SOL    HW256443   3.042  11.771   0.335
18807SOL     OW56444   2.169  11.385   1.231
18807SOL    HW156445   2.146  11.422   1.321
18807SOL    HW256446   2.139  11.290   1.225
18808SOL     OW56447   1.899  12.482   1.282
18808SOL    HW156448   1.952  12.433   1.350
18808SOL    HW256449   1.921  12.580   1.287
18809SOL     OW56450   2.594  11.806   1.064
18809SOL    HW156451   2.653  11.780   0.988
18809SOL    HW256452   2.566  11.902   1.053
18810SOL     OW56453   3.590  12.107   1.854
18810SOL    HW156454   3.544  12.100   1.765
18810SOL    HW256455   3.528  12.151   1.920
18811SOL     OW56456   2.169  11.235   0.618
18811SOL    HW156457   2.158  11.329   0.651
18811SOL    HW256458   2.164  11.172   0.695
18812SOL     OW56459   3.484  11.539   0.374
18812SOL    HW156460   3.486  11.463   0.438
18812SOL    HW256461   3.436  11.616   0.414
18813SOL     OW56462   2.885  11.938   0.966
18813SOL    HW156463   2.900  11.959   1.062
18813SOL    HW256464   2.855  11.843   0.957
18814SOL     OW56465   3.721  12.690   1.605
18814SOL    HW156466   3.735  12.717   1.510
18814SOL    HW256467   3.804  12.712   1.658
18815SOL     OW56468   2.212  12.070   1.804
18815SOL    HW156469   2.288  12.114   1.852
18815SOL    HW256470   2.247  12.023   1.722
18816SOL     OW56471   3.402  11.446   0.125
18816SOL    HW156472   3.341  11.371   0.148
18816SOL    HW256473   3.424  11.498   0.208
18817SOL     OW56474   3.165  12.010   0.042
18817SOL    HW156475   3.199  11.917   0.057
18817SOL    HW256476   3.183  12.037  -0.053
18818SOL     OW56477   2.930  12.505   0.849
18818SOL    HW156478   2.937  12.421   0.794
18818SOL    HW256479   2.992  12.574   0.813
18819SOL     OW56480   2.181  11.982   0.949
18819SOL    HW156481   2.274  12.018   0.954
18819SOL    HW256482   2.175  11.897   1.001
18820SOL     OW56483   2.201  11.681   1.006
18820SOL    HW156484   2.149  11.598   0.989
18820SOL    HW256485   2.278  11.686   0.942
18821SOL     OW56486   3.000  11.552   1.678
18821SOL    HW156487   2.955  11.615   1.742
18821SOL    HW256488   3.093  11.583   1.661
18822SOL     OW56489   3.022  11.379   1.477
18822SOL    HW156490   3.022  11.443   1.554
18822SOL    HW256491   3.050  11.427   1.394
18823SOL     OW56492   1.870  12.498   0.200
18823SOL    HW156493   1.777  12.519   0.169
18823SOL    HW256494   1.880  12.399   0.213
18824SOL     OW56495   2.366  12.740   0.910
18824SOL    HW156496   2.432  12.814   0.919
18824SOL    HW256497   2.410  12.661   0.868
18825SOL     OW56498   2.864  11.968   1.238
18825SOL    HW156499   2.905  11.936   1.324
18825SOL    HW256500   2.768  11.941   1.235
18826SOL     OW56501   1.902  11.716   1.114
18826SOL    HW156502   1.987  11.683   1.073
18826SOL    HW256503   1.915  11.731   1.212
18827SOL     OW56504   2.051  11.692   1.722
18827SOL    HW156505   2.110  11.652   1.652
18827SOL    HW256506   1.993  11.763   1.681
18828SOL     OW56507   3.231  12.122   1.660
18828SOL    HW156508   3.270  12.211   1.680
18828SOL    HW256509   3.241  12.102   1.563
18829SOL     OW56510   2.677  11.744   0.325
18829SOL    HW156511   2.684  11.655   0.279
18829SOL    HW256512   2.583  11.778   0.317
18830SOL     OW56513   3.519  11.776   1.206
18830SOL    HW156514   3.481  11.707   1.268
18830SOL    HW256515   3.601  11.740   1.162
18831SOL     OW56516   2.114  12.736   1.744
18831SOL    HW156517   2.084  12.793   1.820
18831SOL    HW256518   2.107  12.639   1.770
18832SOL     OW56519   2.533  11.636   1.269
18832SOL    HW156520   2.499  11.547   1.239
18832SOL    HW256521   2.559  11.690   1.189
18833SOL     OW56522   2.335  11.672   0.191
18833SOL    HW156523   2.396  11.752   0.195
18833SOL    HW256524   2.240  11.703   0.198
18834SOL     OW56525   2.021  12.309   1.466
18834SOL    HW156526   2.043  12.248   1.542
18834SOL    HW256527   2.031  12.260   1.380
18835SOL     OW56528   3.209  12.231   1.234
18835SOL    HW156529   3.233  12.168   1.160
18835SOL    HW256530   3.119  12.271   1.216
18836SOL     OW56531   3.164  12.027   0.309
18836SOL    HW156532   3.078  11.996   0.351
18836SOL    HW256533   3.160  12.013   0.210
18837SOL     OW56534   3.114  12.903   1.128
18837SOL    HW156535   3.198  12.908   1.074
18837SOL    HW256536   3.091  12.807   1.146
18838SOL     OW56537   1.945  12.430   1.022
18838SOL    HW156538   1.940  12.429   1.122
18838SOL    HW256539   1.862  12.389   0.984
18839SOL     OW56540   2.765  11.258   0.133
18839SOL    HW156541   2.816  11.259   0.047
18839SOL    HW256542   2.821  11.216   0.204
18840SOL     OW56543   3.588  11.307   0.523
18840SOL    HW156544   3.661  11.290   0.456
18840SOL    HW256545   3.557  11.220   0.561
18841SOL     OW56546   1.992  12.966   1.851
18841SOL    HW156547   1.951  12.892   1.904
18841SOL    HW256548   2.056  13.017   1.909
18842SOL     OW56549   3.142  12.099   0.672
18842SOL    HW156550   3.202  12.018   0.674
18842SOL    HW256551   3.182  12.168   0.612
18843SOL     OW56552   2.692  12.445   1.422
18843SOL    HW156553   2.687  12.478   1.517
18843SOL    HW256554   2.606  12.464   1.376
18844SOL     OW56555   2.534  12.788   0.154
18844SOL    HW156556   2.543  12.798   0.055
18844SOL    HW256557   2.494  12.699   0.175
18845SOL     OW56558   3.703  11.347   0.963
18845SOL    HW156559   3.742  11.262   0.927
18845SOL    HW256560   3.605  11.349   0.944
18846SOL     OW56561   2.125  11.498   0.720
18846SOL    HW156562   2.046  11.549   0.686
18846SOL    HW256563   2.116  11.483   0.818
18847SOL     OW56564   3.056  12.784   0.031
18847SOL    HW156565   3.062  12.691   0.068
18847SOL    HW256566   2.997  12.784  -0.049
18848SOL     OW56567   2.684  12.174   1.372
18848SOL    HW156568   2.724  12.173   1.280
18848SOL    HW256569   2.694  12.266   1.412
18849SOL     OW56570   2.778  12.082   0.291
18849SOL    HW156571   2.841  12.120   0.223
18849SOL    HW256572   2.818  11.999   0.330
18850SOL     OW56573   2.234  12.460   1.490
18850SOL    HW156574   2.221  12.553   1.456
18850SOL    HW256575   2.150  12.408   1.477
18851SOL     OW56576   3.476  12.464   1.289
18851SOL    HW156577   3.536  12.467   1.369
18851SOL    HW256578   3.401  12.528   1.302
18852SOL     OW56579   2.901  12.270   0.696
18852SOL    HW156580   2.831  12.223   0.750
18852SOL    HW256581   2.960  12.202   0.653
18853SOL     OW56582   2.876  11.408   0.971
18853SOL    HW156583   2.868  11.372   0.878
18853SOL    HW256584   2.874  11.332   1.036
18854SOL     OW56585   2.452  12.659   0.491
18854SOL    HW156586   2.494  12.601   0.421
18854SOL    HW256587   2.408  12.738   0.447
18855SOL     OW56588   3.571  11.557   1.381
18855SOL    HW156589   3.644  11.626   1.385
18855SOL    HW256590   3.599  11.482   1.322
18856SOL     OW56591   2.117  12.520   0.290
18856SOL    HW156592   2.021  12.521   0.263
18856SOL    HW256593   2.129  12.573   0.374
18857SOL     OW56594   1.967  12.185   1.726
18857SOL    HW156595   1.890  12.152   1.780
18857SOL    HW256596   2.052  12.155   1.768
18858SOL     OW56597   2.534  11.375   1.489
18858SOL    HW156598   2.624  11.359   1.449
18858SOL    HW256599   2.542  11.380   1.588
18859SOL     OW56600   3.302  12.028   1.398
18859SOL    HW156601   3.245  12.080   1.335
18859SOL    HW256602   3.398  12.040   1.374
18860SOL     OW56603   1.934  11.338   0.318
18860SOL    HW156604   1.917  11.421   0.264
18860SOL    HW256605   2.024  11.301   0.296
18861SOL     OW56606   3.045  12.507   0.119
18861SOL    HW156607   2.946  12.496   0.121
18861SOL    HW256608   3.079  12.522   0.212
18862SOL     OW56609   2.475  12.014   1.431
18862SOL    HW156610   2.531  12.095   1.414
18862SOL    HW256611   2.534  11.934   1.434
18863SOL     OW56612   2.578  11.737   1.708
18863SOL    HW156613   2.597  11.802   1.782
18863SOL    HW256614   2.638  11.657   1.717
18864SOL     OW56615   3.312  12.392   1.633
18864SOL    HW156616   3.303  12.382   1.732
18864SOL    HW256617   3.408  12.385   1.607
18865SOL     OW56618   3.536  12.055   1.254
18865SOL    HW156619   3.509  11.966   1.217
18865SOL    HW256620   3.537  12.123   1.181
18866SOL     OW56621   3.087  11.497   0.449
18866SOL    HW156622   3.152  11.423   0.438
18866SOL    HW256623   3.107  11.547   0.533
18867SOL     OW56624   2.456  11.917   0.652
18867SOL    HW156625   2.506  12.002   0.633
18867SOL    HW256626   2.368  11.919   0.604
18868SOL     OW56627   3.639  11.514   1.642
18868SOL    HW156628   3.622  11.545   1.548
18868SOL    HW256629   3.555  11.477   1.680
18869SOL     OW56630   3.592  12.106   1.517
18869SOL    HW156631   3.630  12.197   1.532
18869SOL    HW256632   3.584  12.089   1.418
18870SOL     OW56633   2.721  12.546   0.016
18870SOL    HW156634   2.675  12.561   0.104
18870SOL    HW256635   2.765  12.631  -0.014
18871SOL     OW56636   2.721  12.128   0.861
18871SOL    HW156637   2.775  12.059   0.909
18871SOL    HW256638   2.689  12.197   0.927
18872SOL     OW56639   2.945  12.156   0.087
18872SOL    HW156640   2.922  12.209   0.005
18872SOL    HW256641   3.026  12.100   0.068
18873SOL     OW56642   3.723  12.741   0.851
18873SOL    HW156643   3.652  12.729   0.781
18873SOL    HW256644   3.724  12.662   0.911
18874SOL     OW56645   2.083  12.486   1.844
18874SOL    HW156646   2.018  12.413   1.823
18874SOL    HW256647   2.087  12.500   1.942
18875SOL     OW56648   1.941  12.412   0.653
18875SOL    HW156649   1.940  12.365   0.741
18875SOL    HW256650   2.023  12.384   0.602
18876SOL     OW56651   2.534  12.563   1.624
18876SOL    HW156652   2.456  12.513   1.662
18876SOL    HW256653   2.531  12.658   1.655
18877SOL     OW56654   3.686  11.364   1.227
18877SOL    HW156655   3.682  11.274   1.271
18877SOL    HW256656   3.689  11.353   1.128
18878SOL     OW56657   2.290  11.596   0.520
18878SOL    HW156658   2.320  11.524   0.458
18878SOL    HW256659   2.251  11.556   0.603
18879SOL     OW56660   3.567  12.659   1.104
18879SOL    HW156661   3.474  12.634   1.077
18879SOL    HW256662   3.593  12.609   1.186
18880SOL     OW56663   2.179  11.719   1.280
18880SOL    HW156664   2.217  11.660   1.352
18880SOL    HW256665   2.219  11.693   1.192
18881SOL     OW56666   3.286  11.386   1.112
18881SOL    HW156667   3.338  11.321   1.167
18881SOL    HW256668   3.237  11.449   1.173
18882SOL     OW56669   2.863  11.206   1.154
18882SOL    HW156670   2.800  11.134   1.123
18882SOL    HW256671   2.956  11.170   1.154
18883SOL     OW56672   2.632  12.502   0.301
18883SOL    HW156673   2.586  12.415   0.318
18883SOL    HW256674   2.723  12.499   0.342
18884SOL     OW56675   2.480  12.739   1.284
18884SOL    HW156676   2.475  12.821   1.341
18884SOL    HW256677   2.569  12.736   1.239
18885SOL     OW56678   3.214  11.224   0.168
18885SOL    HW156679   3.249  11.183   0.084
18885SOL    HW256680   3.124  11.186   0.188
18886SOL     OW56681   3.162  11.625   0.691
18886SOL    HW156682   3.103  11.705   0.695
18886SOL    HW256683   3.177  11.590   0.784
18887SOL     OW56684   3.455  11.393   0.882
18887SOL    HW156685   3.371  11.392   0.936
18887SOL    HW256686   3.457  11.476   0.826
18888SOL     OW56687   1.901  12.249   0.300
18888SOL    HW156688   2.000  12.238   0.291
18888SOL    HW256689   1.861  12.163   0.332
18889SOL     OW56690   2.092  11.800   1.975
18889SOL    HW156691   1.999  11.798   2.012
18889SOL    HW256692   2.093  11.761   1.883
18890SOL     OW56693   2.087  11.447   2.858
18890SOL    HW156694   2.122  11.430   2.950
18890SOL    HW256695   1.999  11.402   2.846
18891SOL     OW56696   1.881  11.540   2.509
18891SOL    HW156697   1.799  11.583   2.548
18891SOL    HW256698   1.853  11.467   2.446
18892SOL     OW56699   2.431  12.447   3.027
18892SOL    HW156700   2.338  12.440   2.990
18892SOL    HW256701   2.442  12.536   3.071
18893SOL     OW56702   3.417  12.683   2.565
18893SOL    HW156703   3.360  12.667   2.646
18893SOL    HW256704   3.358  12.693   2.485
18894SOL     OW56705   2.997  11.875   2.579
18894SOL    HW156706   3.054  11.953   2.554
18894SOL    HW256707   2.937  11.901   2.655
18895SOL     OW56708   3.617  11.779   2.093
18895SOL    HW156709   3.605  11.766   1.994
18895SOL    HW256710   3.587  11.698   2.142
18896SOL     OW56711   2.630  12.316   2.885
18896SOL    HW156712   2.552  12.333   2.945
18896SOL    HW256713   2.664  12.403   2.849
18897SOL     OW56714   2.712  11.970   3.685
18897SOL    HW156715   2.708  12.046   3.750
18897SOL    HW256716   2.734  12.006   3.594
18898SOL     OW56717   2.547  12.184   2.527
18898SOL    HW156718   2.616  12.168   2.597
18898SOL    HW256719   2.474  12.241   2.565
18899SOL     OW56720   2.548  12.333   3.665
18899SOL    HW156721   2.608  12.412   3.679
18899SOL    HW256722   2.462  12.364   3.624
18900SOL     OW56723   2.197  12.607   2.923
18900SOL    HW156724   2.119  12.576   2.870
18900SOL    HW256725   2.255  12.665   2.866
18901SOL     OW56726   3.322  12.677   3.201
18901SOL    HW156727   3.346  12.771   3.227
18901SOL    HW256728   3.306  12.623   3.283
18902SOL     OW56729   2.300  11.564   3.361
18902SOL    HW156730   2.382  11.508   3.370
18902SOL    HW256731   2.219  11.506   3.365
18903SOL     OW56732   3.465  11.619   2.599
18903SOL    HW156733   3.391  11.665   2.549
18903SOL    HW256734   3.516  11.687   2.652
18904SOL     OW56735   2.989  12.513   3.552
18904SOL    HW156736   3.036  12.513   3.640
18904SOL    HW256737   2.941  12.426   3.541
18905SOL     OW56738   2.092  12.606   2.400
18905SOL    HW156739   2.066  12.702   2.400
18905SOL    HW256740   2.021  12.552   2.445
18906SOL     OW56741   2.102  12.263   2.748
18906SOL    HW156742   2.116  12.179   2.800
18906SOL    HW256743   2.047  12.327   2.803
18907SOL     OW56744   2.468  12.136   1.985
18907SOL    HW156745   2.475  12.220   1.931
18907SOL    HW256746   2.514  12.149   2.073
18908SOL     OW56747   3.456  11.286   3.342
18908SOL    HW156748   3.438  11.353   3.270
18908SOL    HW256749   3.453  11.332   3.431
18909SOL     OW56750   1.984  11.815   2.425
18909SOL    HW156751   1.939  11.727   2.442
18909SOL    HW256752   1.983  11.869   2.509
18910SOL     OW56753   1.889  12.768   1.979
18910SOL    HW156754   1.870  12.672   2.000
18910SOL    HW256755   1.856  12.826   2.054
18911SOL     OW56756   3.551  12.094   2.474
18911SOL    HW156757   3.646  12.065   2.482
18911SOL    HW256758   3.543  12.159   2.399
18912SOL     OW56759   3.503  12.280   2.294
18912SOL    HW156760   3.589  12.282   2.242
18912SOL    HW256761   3.517  12.327   2.382
18913SOL     OW56762   1.975  11.909   3.459
18913SOL    HW156763   2.063  11.896   3.504
18913SOL    HW256764   1.962  12.006   3.437
18914SOL     OW56765   2.475  12.537   2.588
18914SOL    HW156766   2.426  12.450   2.597
18914SOL    HW256767   2.452  12.580   2.501
18915SOL     OW56768   3.155  12.400   3.285
18915SOL    HW156769   3.192  12.327   3.227
18915SOL    HW256770   3.207  12.405   3.370
18916SOL     OW56771   2.671  11.176   2.364
18916SOL    HW156772   2.711  11.267   2.355
18916SOL    HW256773   2.571  11.184   2.370
18917SOL     OW56774   2.059  12.148   3.126
18917SOL    HW156775   2.148  12.103   3.112
18917SOL    HW256776   1.986  12.083   3.107
18918SOL     OW56777   3.387  12.171   2.052
18918SOL    HW156778   3.324  12.095   2.065
18918SOL    HW256779   3.435  12.189   2.138
18919SOL     OW56780   2.179  11.423   3.663
18919SOL    HW156781   2.250  11.494   3.669
18919SOL    HW256782   2.091  11.462   3.691
18920SOL     OW56783   3.328  12.589   2.815
18920SOL    HW156784   3.269  12.595   2.895
18920SOL    HW256785   3.313  12.501   2.769
18921SOL     OW56786   2.460  11.901   2.132
18921SOL    HW156787   2.484  11.970   2.064
18921SOL    HW256788   2.382  11.934   2.186
18922SOL     OW56789   3.143  11.517   2.806
18922SOL    HW156790   3.057  11.467   2.793
18922SOL    HW256791   3.205  11.463   2.862
18923SOL     OW56792   3.438  12.834   2.169
18923SOL    HW156793   3.527  12.880   2.172
18923SOL    HW256794   3.417  12.810   2.074
18924SOL     OW56795   2.669  11.777   3.327
18924SOL    HW156796   2.622  11.774   3.416
18924SOL    HW256797   2.618  11.722   3.261
18925SOL     OW56798   3.256  11.641   3.536
18925SOL    HW156799   3.236  11.684   3.624
18925SOL    HW256800   3.334  11.579   3.545
18926SOL     OW56801   2.835  12.062   3.434
18926SOL    HW156802   2.881  11.978   3.405
18926SOL    HW256803   2.779  12.096   3.359
18927SOL     OW56804   2.853  11.582   3.104
18927SOL    HW156805   2.776  11.616   3.158
18927SOL    HW256806   2.819  11.531   3.025
18928SOL     OW56807   2.903  11.873   2.291
18928SOL    HW156808   2.929  11.869   2.387
18928SOL    HW256809   2.818  11.822   2.277
18929SOL     OW56810   1.938  11.983   2.651
18929SOL    HW156811   2.037  11.971   2.660
18929SOL    HW256812   1.914  12.078   2.672
18930SOL     OW56813   2.727  11.520   2.057
18930SOL    HW156814   2.786  11.583   2.008
18930SOL    HW256815   2.746  11.426   2.028
18931SOL     OW56816   3.581  11.757   3.693
18931SOL    HW156817   3.555  11.846   3.657
18931SOL    HW256818   3.579  11.689   3.620
18932SOL     OW56819   3.224  12.316   2.407
18932SOL    HW156820   3.307  12.287   2.359
18932SOL    HW256821   3.175  12.383   2.351
18933SOL     OW56822   2.412  11.368   2.747
18933SOL    HW156823   2.407  11.363   2.847
18933SOL    HW256824   2.414  11.464   2.718
18934SOL     OW56825   2.870  12.628   2.339
18934SOL    HW156826   2.824  12.700   2.287
18934SOL    HW256827   2.866  12.648   2.437
18935SOL     OW56828   3.657  12.238   2.735
18935SOL    HW156829   3.595  12.223   2.659
18935SOL    HW256830   3.605  12.249   2.820
18936SOL     OW56831   3.089  12.722   3.368
18936SOL    HW156832   3.095  12.645   3.432
18936SOL    HW256833   3.037  12.696   3.288
18937SOL     OW56834   2.183  12.115   2.104
18937SOL    HW156835   2.265  12.154   2.062
18937SOL    HW256836   2.156  12.033   2.055
18938SOL     OW56837   3.320  11.907   2.590
18938SOL    HW156838   3.315  11.842   2.665
18938SOL    HW256839   3.400  11.966   2.603
18939SOL     OW56840   2.323  12.438   3.589
18939SOL    HW156841   2.273  12.439   3.503
18939SOL    HW256842   2.260  12.420   3.665
18940SOL     OW56843   2.064  11.457   3.360
18940SOL    HW156844   1.984  11.517   3.347
18940SOL    HW256845   2.054  11.408   3.446
18941SOL     OW56846   3.494  12.549   1.943
18941SOL    HW156847   3.462  12.643   1.933
18941SOL    HW256848   3.418  12.486   1.931
18942SOL     OW56849   3.262  11.279   2.288
18942SOL    HW156850   3.238  11.242   2.198
18942SOL    HW256851   3.361  11.295   2.292
18943SOL     OW56852   2.244  11.872   2.342
18943SOL    HW156853   2.289  11.782   2.339
18943SOL    HW256854   2.150  11.861   2.375
18944SOL     OW56855   3.409  11.394   3.591
18944SOL    HW156856   3.404  11.431   3.683
18944SOL    HW256857   3.337  11.325   3.579
18945SOL     OW56858   2.476  11.294   1.979
18945SOL    HW156859   2.574  11.272   1.986
18945SOL    HW256860   2.445  11.277   1.886
18946SOL     OW56861   2.643  11.436   3.611
18946SOL    HW156862   2.710  11.375   3.654
18946SOL    HW256863   2.570  11.455   3.676
18947SOL     OW56864   3.213  11.762   3.295
18947SOL    HW156865   3.241  11.719   3.380
18947SOL    HW256866   3.238  11.858   3.296
18948SOL     OW56867   2.665  12.574   2.786
18948SOL    HW156868   2.755  12.588   2.744
18948SOL    HW256869   2.594  12.576   2.715
18949SOL     OW56870   2.784  11.675   2.761
18949SOL    HW156871   2.759  11.666   2.665
18949SOL    HW256872   2.832  11.593   2.792
18950SOL     OW56873   2.401  11.236   2.374
18950SOL    HW156874   2.320  11.237   2.432
18950SOL    HW256875   2.404  11.319   2.319
18951SOL     OW56876   3.296  12.360   1.903
18951SOL    HW156877   3.328  12.284   1.960
18951SOL    HW256878   3.204  12.387   1.933
18952SOL     OW56879   2.159  11.207   2.033
18952SOL    HW156880   2.208  11.291   2.012
18952SOL    HW256881   2.221  11.142   2.078
18953SOL     OW56882   2.797  11.408   2.342
18953SOL    HW156883   2.749  11.449   2.264
18953SOL    HW256884   2.896  11.406   2.323
18954SOL     OW56885   2.938  11.855   3.326
18954SOL    HW156886   2.858  11.794   3.329
18954SOL    HW256887   3.019  11.802   3.302
18955SOL     OW56888   3.089  12.742   2.655
18955SOL    HW156889   3.110  12.816   2.590
18955SOL    HW256890   3.157  12.742   2.728
18956SOL     OW56891   2.321  12.324   2.603
18956SOL    HW156892   2.250  12.297   2.668
18956SOL    HW256893   2.295  12.296   2.510
18957SOL     OW56894   2.894  11.721   1.878
18957SOL    HW156895   2.853  11.803   1.839
18957SOL    HW256896   2.958  11.747   1.951
18958SOL     OW56897   1.940  11.728   3.248
18958SOL    HW156898   2.032  11.727   3.207
18958SOL    HW256899   1.934  11.802   3.315
18959SOL     OW56900   2.423  11.394   3.009
18959SOL    HW156901   2.461  11.310   3.046
18959SOL    HW256902   2.335  11.413   3.053
18960SOL     OW56903   2.728  11.626   2.504
18960SOL    HW156904   2.696  11.698   2.442
18960SOL    HW256905   2.752  11.545   2.451
18961SOL     OW56906   2.879  11.211   2.615
18961SOL    HW156907   2.807  11.216   2.546
18961SOL    HW256908   2.855  11.142   2.684
18962SOL     OW56909   3.291  12.345   2.729
18962SOL    HW156910   3.236  12.261   2.722
18962SOL    HW256911   3.317  12.374   2.637
18963SOL     OW56912   3.328  11.762   2.854
18963SOL    HW156913   3.298  11.667   2.861
18963SOL    HW256914   3.401  11.778   2.920
18964SOL     OW56915   3.719  12.005   2.239
18964SOL    HW156916   3.761  11.941   2.303
18964SOL    HW256917   3.681  11.954   2.161
18965SOL     OW56918   2.350  12.557   2.036
18965SOL    HW156919   2.263  12.542   2.083
18965SOL    HW256920   2.333  12.583   1.941
18966SOL     OW56921   3.526  12.452   2.519
18966SOL    HW156922   3.625  12.460   2.533
18966SOL    HW256923   3.481  12.536   2.550
18967SOL     OW56924   3.252  11.747   1.940
18967SOL    HW156925   3.198  11.726   2.021
18967SOL    HW256926   3.343  11.706   1.949
18968SOL     OW56927   2.389  11.428   2.190
18968SOL    HW156928   2.416  11.369   2.115
18968SOL    HW256929   2.389  11.523   2.159
18969SOL     OW56930   3.616  12.395   3.450
18969SOL    HW156931   3.707  12.356   3.437
18969SOL    HW256932   3.624  12.491   3.474
18970SOL     OW56933   2.926  12.519   3.202
18970SOL    HW156934   2.846  12.496   3.257
18970SOL    HW256935   3.009  12.493   3.251
18971SOL     OW56936   2.973  12.367   2.962
18971SOL    HW156937   2.933  12.411   3.043
18971SOL    HW256938   2.932  12.404   2.879
18972SOL     OW56939   3.500  12.271   2.941
18972SOL    HW156940   3.505  12.352   3.000
18972SOL    HW256941   3.414  12.273   2.890
18973SOL     OW56942   2.777  11.261   3.264
18973SOL    HW156943   2.802  11.241   3.169
18973SOL    HW256944   2.849  11.317   3.306
18974SOL     OW56945   2.842  12.288   3.581
18974SOL    HW156946   2.743  12.294   3.591
18974SOL    HW256947   2.865  12.208   3.525
18975SOL     OW56948   2.567  12.222   2.230
18975SOL    HW156949   2.553  12.229   2.329
18975SOL    HW256950   2.651  12.171   2.212
18976SOL     OW56951   2.272  11.985   3.113
18976SOL    HW156952   2.358  11.997   3.163
18976SOL    HW256953   2.230  11.898   3.140
18977SOL     OW56954   3.136  11.558   3.124
18977SOL    HW156955   3.157  11.632   3.188
18977SOL    HW256956   3.047  11.575   3.081
18978SOL     OW56957   1.926  12.736   3.193
18978SOL    HW156958   1.880  12.818   3.159
18978SOL    HW256959   2.024  12.755   3.202
18979SOL     OW56960   2.229  12.272   2.363
18979SOL    HW156961   2.222  12.355   2.307
18979SOL    HW256962   2.233  12.192   2.303
18980SOL     OW56963   2.428  11.709   2.727
18980SOL    HW156964   2.440  11.775   2.653
18980SOL    HW256965   2.474  11.743   2.810
18981SOL     OW56966   3.114  12.520   2.250
18981SOL    HW156967   3.164  12.597   2.290
18981SOL    HW256968   3.019  12.522   2.282
18982SOL     OW56969   3.134  12.617   3.004
18982SOL    HW156970   3.181  12.630   3.091
18982SOL    HW256971   3.068  12.543   3.013
18983SOL     OW56972   3.444  11.811   2.334
18983SOL    HW156973   3.413  11.872   2.407
18983SOL    HW256974   3.494  11.863   2.265
18984SOL     OW56975   2.216  12.682   3.191
18984SOL    HW156976   2.195  12.638   3.104
18984SOL    HW256977   2.313  12.708   3.194
18985SOL     OW56978   2.264  11.923   3.460
18985SOL    HW156979   2.332  11.978   3.413
18985SOL    HW256980   2.304  11.835   3.487
18986SOL     OW56981   3.449  11.951   3.532
18986SOL    HW156982   3.357  11.989   3.527
18986SOL    HW256983   3.509  11.998   3.467
18987SOL     OW56984   2.875  11.277   3.632
18987SOL    HW156985   2.881  11.362   3.580
18987SOL    HW256986   2.907  11.201   3.575
18988SOL     OW56987   2.366  11.222   3.602
18988SOL    HW156988   2.324  11.165   3.532
18988SOL    HW256989   2.300  11.291   3.634
18989SOL     OW56990   2.435  12.042   2.891
18989SOL    HW156991   2.479  12.131   2.882
18989SOL    HW256992   2.372  12.042   2.968
18990SOL     OW56993   3.222  12.034   2.907
18990SOL    HW156994   3.147  12.034   2.841
18990SOL    HW256995   3.259  11.942   2.916
18991SOL     OW56996   3.071  11.697   2.137
18991SOL    HW156997   3.084  11.613   2.191
18991SOL    HW256998   3.042  11.771   2.197
18992SOL     OW56999   2.169  11.385   3.093
18992SOL    HW157000   2.146  11.422   3.183
18992SOL    HW257001   2.139  11.290   3.087
18993SOL     OW57002   1.899  12.482   3.144
18993SOL    HW157003   1.952  12.433   3.212
18993SOL    HW257004   1.921  12.580   3.149
18994SOL     OW57005   2.594  11.806   2.926
18994SOL    HW157006   2.653  11.780   2.850
18994SOL    HW257007   2.566  11.902   2.915
18995SOL     OW57008   3.590  12.107   3.716
18995SOL    HW157009   3.544  12.100   3.627
18995SOL    HW257010   3.528  12.151   3.782
18996SOL     OW57011   2.169  11.235   2.480
18996SOL    HW157012   2.158  11.329   2.513
18996SOL    HW257013   2.164  11.172   2.557
18997SOL     OW57014   3.484  11.539   2.236
18997SOL    HW157015   3.486  11.463   2.300
18997SOL    HW257016   3.436  11.616   2.276
18998SOL     OW57017   2.885  11.938   2.828
18998SOL    HW157018   2.900  11.959   2.924
18998SOL    HW257019   2.855  11.843   2.819
18999SOL     OW57020   3.721  12.690   3.467
18999SOL    HW157021   3.735  12.717   3.372
18999SOL    HW257022   3.804  12.712   3.520
19000SOL     OW57023   2.212  12.070   3.666
19000SOL    HW157024   2.288  12.114   3.714
19000SOL    HW257025   2.247  12.023   3.584
19001SOL     OW57026   3.402  11.446   1.987
19001SOL    HW157027   3.341  11.371   2.010
19001SOL    HW257028   3.424  11.498   2.070
19002SOL     OW57029   3.165  12.010   1.904
19002SOL    HW157030   3.199  11.917   1.919
19002SOL    HW257031   3.183  12.037   1.809
19003SOL     OW57032   2.930  12.505   2.711
19003SOL    HW157033   2.937  12.421   2.656
19003SOL    HW257034   2.992  12.574   2.675
19004SOL     OW57035   2.181  11.982   2.811
19004SOL    HW157036   2.274  12.018   2.816
19004SOL    HW257037   2.175  11.897   2.863
19005SOL     OW57038   2.201  11.681   2.868
19005SOL    HW157039   2.149  11.598   2.851
19005SOL    HW257040   2.278  11.686   2.804
19006SOL     OW57041   3.000  11.552   3.540
19006SOL    HW157042   2.955  11.615   3.604
19006SOL    HW257043   3.093  11.583   3.523
19007SOL     OW57044   3.022  11.379   3.339
19007SOL    HW157045   3.022  11.443   3.416
19007SOL    HW257046   3.050  11.427   3.256
19008SOL     OW57047   1.870  12.498   2.062
19008SOL    HW157048   1.777  12.519   2.031
19008SOL    HW257049   1.880  12.399   2.075
19009SOL     OW57050   2.366  12.740   2.772
19009SOL    HW157051   2.432  12.814   2.781
19009SOL    HW257052   2.410  12.661   2.730
19010SOL     OW57053   2.864  11.968   3.100
19010SOL    HW157054   2.905  11.936   3.186
19010SOL    HW257055   2.768  11.941   3.097
19011SOL     OW57056   1.902  11.716   2.976
19011SOL    HW157057   1.987  11.683   2.935
19011SOL    HW257058   1.915  11.731   3.074
19012SOL     OW57059   2.051  11.692   3.584
19012SOL    HW157060   2.110  11.652   3.514
19012SOL    HW257061   1.993  11.763   3.543
19013SOL     OW57062   3.231  12.122   3.522
19013SOL    HW157063   3.270  12.211   3.542
19013SOL    HW257064   3.241  12.102   3.425
19014SOL     OW57065   2.677  11.744   2.187
19014SOL    HW157066   2.684  11.655   2.141
19014SOL    HW257067   2.583  11.778   2.179
19015SOL     OW57068   3.519  11.776   3.068
19015SOL    HW157069   3.481  11.707   3.130
19015SOL    HW257070   3.601  11.740   3.024
19016SOL     OW57071   2.114  12.736   3.606
19016SOL    HW157072   2.084  12.793   3.682
19016SOL    HW257073   2.107  12.639   3.632
19017SOL     OW57074   2.533  11.636   3.131
19017SOL    HW157075   2.499  11.547   3.101
19017SOL    HW257076   2.559  11.690   3.051
19018SOL     OW57077   2.335  11.672   2.053
19018SOL    HW157078   2.396  11.752   2.057
19018SOL    HW257079   2.240  11.703   2.060
19019SOL     OW57080   2.021  12.309   3.328
19019SOL    HW157081   2.043  12.248   3.404
19019SOL    HW257082   2.031  12.260   3.242
19020SOL     OW57083   3.209  12.231   3.096
19020SOL    HW157084   3.233  12.168   3.022
19020SOL    HW257085   3.119  12.271   3.078
19021SOL     OW57086   3.164  12.027   2.171
19021SOL    HW157087   3.078  11.996   2.213
19021SOL    HW257088   3.160  12.013   2.072
19022SOL     OW57089   3.114  12.903   2.990
19022SOL    HW157090   3.198  12.908   2.936
19022SOL    HW257091   3.091  12.807   3.008
19023SOL     OW57092   1.945  12.430   2.884
19023SOL    HW157093   1.940  12.429   2.984
19023SOL    HW257094   1.862  12.389   2.846
19024SOL     OW57095   3.588  11.307   2.385
19024SOL    HW157096   3.661  11.290   2.318
19024SOL    HW257097   3.557  11.220   2.423
19025SOL     OW57098   1.992  12.966   3.713
19025SOL    HW157099   1.951  12.892   3.766
19025SOL    HW257100   2.056  13.017   3.771
19026SOL     OW57101   3.142  12.099   2.534
19026SOL    HW157102   3.202  12.018   2.536
19026SOL    HW257103   3.182  12.168   2.474
19027SOL     OW57104   2.692  12.445   3.284
19027SOL    HW157105   2.687  12.478   3.379
19027SOL    HW257106   2.606  12.464   3.238
19028SOL     OW57107   2.534  12.788   2.016
19028SOL    HW157108   2.543  12.798   1.917
19028SOL    HW257109   2.494  12.699   2.037
19029SOL     OW57110   3.703  11.347   2.825
19029SOL    HW157111   3.742  11.262   2.789
19029SOL    HW257112   3.605  11.349   2.806
19030SOL     OW57113   2.125  11.498   2.582
19030SOL    HW157114   2.046  11.549   2.548
19030SOL    HW257115   2.116  11.483   2.680
19031SOL     OW57116   3.056  12.784   1.893
19031SOL    HW157117   3.062  12.691   1.930
19031SOL    HW257118   2.997  12.784   1.813
19032SOL     OW57119   2.684  12.174   3.234
19032SOL    HW157120   2.724  12.173   3.142
19032SOL    HW257121   2.694  12.266   3.274
19033SOL     OW57122   2.778  12.082   2.153
19033SOL    HW157123   2.841  12.120   2.085
19033SOL    HW257124   2.818  11.999   2.192
19034SOL     OW57125   2.234  12.460   3.352
19034SOL    HW157126   2.221  12.553   3.318
19034SOL    HW257127   2.150  12.408   3.339
19035SOL     OW57128   3.476  12.464   3.151
19035SOL    HW157129   3.536  12.467   3.231
19035SOL    HW257130   3.401  12.528   3.164
19036SOL     OW57131   2.901  12.270   2.558
19036SOL    HW157132   2.831  12.223   2.612
19036SOL    HW257133   2.960  12.202   2.515
19037SOL     OW57134   2.876  11.408   2.833
19037SOL    HW157135   2.868  11.372   2.740
19037SOL    HW257136   2.874  11.332   2.898
19038SOL     OW57137   2.452  12.659   2.353
19038SOL    HW157138   2.494  12.601   2.283
19038SOL    HW257139   2.408  12.738   2.309
19039SOL     OW57140   3.571  11.557   3.243
19039SOL    HW157141   3.644  11.626   3.247
19039SOL    HW257142   3.599  11.482   3.184
19040SOL     OW57143   2.117  12.520   2.152
19040SOL    HW157144   2.021  12.521   2.125
19040SOL    HW257145   2.129  12.573   2.236
19041SOL     OW57146   1.967  12.185   3.588
19041SOL    HW157147   1.890  12.152   3.642
19041SOL    HW257148   2.052  12.155   3.630
19042SOL     OW57149   2.534  11.375   3.351
19042SOL    HW157150   2.624  11.359   3.311
19042SOL    HW257151   2.542  11.380   3.450
19043SOL     OW57152   1.937  11.517   1.895
19043SOL    HW157153   1.845  11.489   1.866
19043SOL    HW257154   1.968  11.594   1.839
19044SOL     OW57155   3.302  12.028   3.260
19044SOL    HW157156   3.245  12.080   3.197
19044SOL    HW257157   3.398  12.040   3.236
19045SOL     OW57158   1.934  11.338   2.180
19045SOL    HW157159   1.917  11.421   2.126
19045SOL    HW257160   2.024  11.301   2.158
19046SOL     OW57161   3.045  12.507   1.981
19046SOL    HW157162   2.946  12.496   1.983
19046SOL    HW257163   3.079  12.522   2.074
19047SOL     OW57164   2.475  12.014   3.293
19047SOL    HW157165   2.531  12.095   3.276
19047SOL    HW257166   2.534  11.934   3.296
19048SOL     OW57167   2.578  11.737   3.570
19048SOL    HW157168   2.597  11.802   3.644
19048SOL    HW257169   2.638  11.657   3.579
19049SOL     OW57170   3.312  12.392   3.495
19049SOL    HW157171   3.303  12.382   3.594
19049SOL    HW257172   3.408  12.385   3.469
19050SOL     OW57173   3.536  12.055   3.116
19050SOL    HW157174   3.509  11.966   3.079
19050SOL    HW257175   3.537  12.123   3.043
19051SOL     OW57176   3.087  11.497   2.311
19051SOL    HW157177   3.152  11.423   2.300
19051SOL    HW257178   3.107  11.547   2.395
19052SOL     OW57179   2.456  11.917   2.514
19052SOL    HW157180   2.506  12.002   2.495
19052SOL    HW257181   2.368  11.919   2.466
19053SOL     OW57182   3.639  11.514   3.504
19053SOL    HW157183   3.622  11.545   3.410
19053SOL    HW257184   3.555  11.477   3.542
19054SOL     OW57185   3.592  12.106   3.379
19054SOL    HW157186   3.630  12.197   3.394
19054SOL    HW257187   3.584  12.089   3.280
19055SOL     OW57188   2.721  12.546   1.878
19055SOL    HW157189   2.675  12.561   1.966
19055SOL    HW257190   2.765  12.631   1.848
19056SOL     OW57191   2.721  12.128   2.723
19056SOL    HW157192   2.775  12.059   2.771
19056SOL    HW257193   2.689  12.197   2.789
19057SOL     OW57194   2.945  12.156   1.949
19057SOL    HW157195   2.922  12.209   1.867
19057SOL    HW257196   3.026  12.100   1.930
19058SOL     OW57197   3.723  12.741   2.713
19058SOL    HW157198   3.652  12.729   2.643
19058SOL    HW257199   3.724  12.662   2.773
19059SOL     OW57200   2.083  12.486   3.706
19059SOL    HW157201   2.018  12.413   3.685
19059SOL    HW257202   2.087  12.500   3.804
19060SOL     OW57203   1.941  12.412   2.515
19060SOL    HW157204   1.940  12.365   2.603
19060SOL    HW257205   2.023  12.384   2.464
19061SOL     OW57206   2.534  12.563   3.486
19061SOL    HW157207   2.456  12.513   3.524
19061SOL    HW257208   2.531  12.658   3.517
19062SOL     OW57209   3.686  11.364   3.089
19062SOL    HW157210   3.682  11.274   3.133
19062SOL    HW257211   3.689  11.353   2.990
19063SOL     OW57212   2.290  11.596   2.382
19063SOL    HW157213   2.320  11.524   2.320
19063SOL    HW257214   2.251  11.556   2.465
19064SOL     OW57215   3.567  12.659   2.966
19064SOL    HW157216   3.474  12.634   2.939
19064SOL    HW257217   3.593  12.609   3.048
19065SOL     OW57218   2.179  11.719   3.142
19065SOL    HW157219   2.217  11.660   3.214
19065SOL    HW257220   2.219  11.693   3.054
19066SOL     OW57221   3.286  11.386   2.974
19066SOL    HW157222   3.338  11.321   3.029
19066SOL    HW257223   3.237  11.449   3.035
19067SOL     OW57224   2.863  11.206   3.016
19067SOL    HW157225   2.800  11.134   2.985
19067SOL    HW257226   2.956  11.170   3.016
19068SOL     OW57227   2.632  12.502   2.163
19068SOL    HW157228   2.586  12.415   2.180
19068SOL    HW257229   2.723  12.499   2.204
19069SOL     OW57230   2.480  12.739   3.146
19069SOL    HW157231   2.475  12.821   3.203
19069SOL    HW257232   2.569  12.736   3.101
19070SOL     OW57233   3.214  11.224   2.030
19070SOL    HW157234   3.249  11.183   1.946
19070SOL    HW257235   3.124  11.186   2.050
19071SOL     OW57236   3.162  11.625   2.553
19071SOL    HW157237   3.103  11.705   2.557
19071SOL    HW257238   3.177  11.590   2.646
19072SOL     OW57239   3.455  11.393   2.744
19072SOL    HW157240   3.371  11.392   2.798
19072SOL    HW257241   3.457  11.476   2.688
19073SOL     OW57242   1.901  12.249   2.162
19073SOL    HW157243   2.000  12.238   2.153
19073SOL    HW257244   1.861  12.163   2.194
19074SOL     OW57245   2.092  11.800   3.837
19074SOL    HW157246   1.999  11.798   3.874
19074SOL    HW257247   2.093  11.761   3.745
19075SOL     OW57248   2.087  11.447   4.720
19075SOL    HW157249   2.122  11.430   4.812
19075SOL    HW257250   1.999  11.402   4.708
19076SOL     OW57251   1.881  11.540   4.371
19076SOL    HW157252   1.799  11.583   4.410
19076SOL    HW257253   1.853  11.467   4.308
19077SOL     OW57254   2.431  12.447   4.889
19077SOL    HW157255   2.338  12.440   4.852
19077SOL    HW257256   2.442  12.536   4.933
19078SOL     OW57257   3.417  12.683   4.427
19078SOL    HW157258   3.360  12.667   4.508
19078SOL    HW257259   3.358  12.693   4.347
19079SOL     OW57260   2.997  11.875   4.441
19079SOL    HW157261   3.054  11.953   4.416
19079SOL    HW257262   2.937  11.901   4.517
19080SOL     OW57263   3.617  11.779   3.955
19080SOL    HW157264   3.605  11.766   3.856
19080SOL    HW257265   3.587  11.698   4.004
19081SOL     OW57266   2.630  12.316   4.747
19081SOL    HW157267   2.552  12.333   4.807
19081SOL    HW257268   2.664  12.403   4.711
19082SOL     OW57269   2.712  11.970   5.547
19082SOL    HW157270   2.708  12.046   5.612
19082SOL    HW257271   2.734  12.006   5.456
19083SOL     OW57272   2.547  12.184   4.389
19083SOL    HW157273   2.616  12.168   4.459
19083SOL    HW257274   2.474  12.241   4.427
19084SOL     OW57275   2.548  12.333   5.527
19084SOL    HW157276   2.608  12.412   5.541
19084SOL    HW257277   2.462  12.364   5.486
19085SOL     OW57278   2.197  12.607   4.785
19085SOL    HW157279   2.119  12.576   4.732
19085SOL    HW257280   2.255  12.665   4.728
19086SOL     OW57281   3.322  12.677   5.063
19086SOL    HW157282   3.346  12.771   5.089
19086SOL    HW257283   3.306  12.623   5.145
19087SOL     OW57284   2.300  11.564   5.223
19087SOL    HW157285   2.382  11.508   5.232
19087SOL    HW257286   2.219  11.506   5.227
19088SOL     OW57287   3.465  11.619   4.461
19088SOL    HW157288   3.391  11.665   4.411
19088SOL    HW257289   3.516  11.687   4.514
19089SOL     OW57290   2.989  12.513   5.414
19089SOL    HW157291   3.036  12.513   5.502
19089SOL    HW257292   2.941  12.426   5.403
19090SOL     OW57293   2.092  12.606   4.262
19090SOL    HW157294   2.066  12.702   4.262
19090SOL    HW257295   2.021  12.552   4.307
19091SOL     OW57296   2.102  12.263   4.610
19091SOL    HW157297   2.116  12.179   4.662
19091SOL    HW257298   2.047  12.327   4.665
19092SOL     OW57299   2.468  12.136   3.847
19092SOL    HW157300   2.475  12.220   3.793
19092SOL    HW257301   2.514  12.149   3.935
19093SOL     OW57302   3.456  11.286   5.204
19093SOL    HW157303   3.438  11.353   5.132
19093SOL    HW257304   3.453  11.332   5.293
19094SOL     OW57305   1.984  11.815   4.287
19094SOL    HW157306   1.939  11.727   4.304
19094SOL    HW257307   1.983  11.869   4.371
19095SOL     OW57308   1.889  12.768   3.841
19095SOL    HW157309   1.870  12.672   3.862
19095SOL    HW257310   1.856  12.826   3.916
19096SOL     OW57311   3.551  12.094   4.336
19096SOL    HW157312   3.646  12.065   4.344
19096SOL    HW257313   3.543  12.159   4.261
19097SOL     OW57314   3.503  12.280   4.156
19097SOL    HW157315   3.589  12.282   4.104
19097SOL    HW257316   3.517  12.327   4.244
19098SOL     OW57317   1.975  11.909   5.321
19098SOL    HW157318   2.063  11.896   5.366
19098SOL    HW257319   1.962  12.006   5.299
19099SOL     OW57320   2.475  12.537   4.450
19099SOL    HW157321   2.426  12.450   4.459
19099SOL    HW257322   2.452  12.580   4.363
19100SOL     OW57323   3.155  12.400   5.147
19100SOL    HW157324   3.192  12.327   5.089
19100SOL    HW257325   3.207  12.405   5.232
19101SOL     OW57326   2.671  11.176   4.226
19101SOL    HW157327   2.711  11.267   4.217
19101SOL    HW257328   2.571  11.184   4.232
19102SOL     OW57329   2.059  12.148   4.988
19102SOL    HW157330   2.148  12.103   4.974
19102SOL    HW257331   1.986  12.083   4.969
19103SOL     OW57332   3.387  12.171   3.914
19103SOL    HW157333   3.324  12.095   3.927
19103SOL    HW257334   3.435  12.189   4.000
19104SOL     OW57335   2.179  11.423   5.525
19104SOL    HW157336   2.250  11.494   5.531
19104SOL    HW257337   2.091  11.462   5.553
19105SOL     OW57338   3.328  12.589   4.677
19105SOL    HW157339   3.269  12.595   4.757
19105SOL    HW257340   3.313  12.501   4.631
19106SOL     OW57341   2.460  11.901   3.994
19106SOL    HW157342   2.484  11.970   3.926
19106SOL    HW257343   2.382  11.934   4.048
19107SOL     OW57344   3.143  11.517   4.668
19107SOL    HW157345   3.057  11.467   4.655
19107SOL    HW257346   3.205  11.463   4.724
19108SOL     OW57347   3.438  12.834   4.031
19108SOL    HW157348   3.527  12.880   4.034
19108SOL    HW257349   3.417  12.810   3.936
19109SOL     OW57350   2.669  11.777   5.189
19109SOL    HW157351   2.622  11.774   5.278
19109SOL    HW257352   2.618  11.722   5.123
19110SOL     OW57353   3.256  11.641   5.398
19110SOL    HW157354   3.236  11.684   5.486
19110SOL    HW257355   3.334  11.579   5.407
19111SOL     OW57356   2.835  12.062   5.296
19111SOL    HW157357   2.881  11.978   5.267
19111SOL    HW257358   2.779  12.096   5.221
19112SOL     OW57359   2.853  11.582   4.966
19112SOL    HW157360   2.776  11.616   5.020
19112SOL    HW257361   2.819  11.531   4.887
19113SOL     OW57362   2.903  11.873   4.153
19113SOL    HW157363   2.929  11.869   4.249
19113SOL    HW257364   2.818  11.822   4.139
19114SOL     OW57365   1.938  11.983   4.513
19114SOL    HW157366   2.037  11.971   4.522
19114SOL    HW257367   1.914  12.078   4.534
19115SOL     OW57368   2.727  11.520   3.919
19115SOL    HW157369   2.786  11.583   3.870
19115SOL    HW257370   2.746  11.426   3.890
19116SOL     OW57371   3.581  11.757   5.555
19116SOL    HW157372   3.555  11.846   5.519
19116SOL    HW257373   3.579  11.689   5.482
19117SOL     OW57374   3.224  12.316   4.269
19117SOL    HW157375   3.307  12.287   4.221
19117SOL    HW257376   3.175  12.383   4.213
19118SOL     OW57377   2.412  11.368   4.609
19118SOL    HW157378   2.407  11.363   4.709
19118SOL    HW257379   2.414  11.464   4.580
19119SOL     OW57380   2.870  12.628   4.201
19119SOL    HW157381   2.824  12.700   4.149
19119SOL    HW257382   2.866  12.648   4.299
19120SOL     OW57383   3.657  12.238   4.597
19120SOL    HW157384   3.595  12.223   4.521
19120SOL    HW257385   3.605  12.249   4.682
19121SOL     OW57386   3.089  12.722   5.230
19121SOL    HW157387   3.095  12.645   5.294
19121SOL    HW257388   3.037  12.696   5.150
19122SOL     OW57389   2.183  12.115   3.966
19122SOL    HW157390   2.265  12.154   3.924
19122SOL    HW257391   2.156  12.033   3.917
19123SOL     OW57392   3.320  11.907   4.452
19123SOL    HW157393   3.315  11.842   4.527
19123SOL    HW257394   3.400  11.966   4.465
19124SOL     OW57395   2.323  12.438   5.451
19124SOL    HW157396   2.273  12.439   5.365
19124SOL    HW257397   2.260  12.420   5.527
19125SOL     OW57398   2.064  11.457   5.222
19125SOL    HW157399   1.984  11.517   5.209
19125SOL    HW257400   2.054  11.408   5.308
19126SOL     OW57401   3.494  12.549   3.805
19126SOL    HW157402   3.462  12.643   3.795
19126SOL    HW257403   3.418  12.486   3.793
19127SOL     OW57404   3.262  11.279   4.150
19127SOL    HW157405   3.238  11.242   4.060
19127SOL    HW257406   3.361  11.295   4.154
19128SOL     OW57407   2.244  11.872   4.204
19128SOL    HW157408   2.289  11.782   4.201
19128SOL    HW257409   2.150  11.861   4.237
19129SOL     OW57410   3.409  11.394   5.453
19129SOL    HW157411   3.404  11.431   5.545
19129SOL    HW257412   3.337  11.325   5.441
19130SOL     OW57413   2.476  11.294   3.841
19130SOL    HW157414   2.574  11.272   3.848
19130SOL    HW257415   2.445  11.277   3.748
19131SOL     OW57416   3.213  11.762   5.157
19131SOL    HW157417   3.241  11.719   5.242
19131SOL    HW257418   3.238  11.858   5.158
19132SOL     OW57419   2.665  12.574   4.648
19132SOL    HW157420   2.755  12.588   4.606
19132SOL    HW257421   2.594  12.576   4.577
19133SOL     OW57422   2.784  11.675   4.623
19133SOL    HW157423   2.759  11.666   4.527
19133SOL    HW257424   2.832  11.593   4.654
19134SOL     OW57425   2.401  11.236   4.236
19134SOL    HW157426   2.320  11.237   4.294
19134SOL    HW257427   2.404  11.319   4.181
19135SOL     OW57428   3.296  12.360   3.765
19135SOL    HW157429   3.328  12.284   3.822
19135SOL    HW257430   3.204  12.387   3.795
19136SOL     OW57431   2.797  11.408   4.204
19136SOL    HW157432   2.749  11.449   4.126
19136SOL    HW257433   2.896  11.406   4.185
19137SOL     OW57434   2.938  11.855   5.188
19137SOL    HW157435   2.858  11.794   5.191
19137SOL    HW257436   3.019  11.802   5.164
19138SOL     OW57437   3.089  12.742   4.517
19138SOL    HW157438   3.110  12.816   4.452
19138SOL    HW257439   3.157  12.742   4.590
19139SOL     OW57440   2.321  12.324   4.465
19139SOL    HW157441   2.250  12.297   4.530
19139SOL    HW257442   2.295  12.296   4.372
19140SOL     OW57443   2.894  11.721   3.740
19140SOL    HW157444   2.853  11.803   3.701
19140SOL    HW257445   2.958  11.747   3.813
19141SOL     OW57446   1.940  11.728   5.110
19141SOL    HW157447   2.032  11.727   5.069
19141SOL    HW257448   1.934  11.802   5.177
19142SOL     OW57449   2.423  11.394   4.871
19142SOL    HW157450   2.461  11.310   4.908
19142SOL    HW257451   2.335  11.413   4.915
19143SOL     OW57452   2.728  11.626   4.366
19143SOL    HW157453   2.696  11.698   4.304
19143SOL    HW257454   2.752  11.545   4.313
19144SOL     OW57455   2.879  11.211   4.477
19144SOL    HW157456   2.807  11.216   4.408
19144SOL    HW257457   2.855  11.142   4.546
19145SOL     OW57458   3.291  12.345   4.591
19145SOL    HW157459   3.236  12.261   4.584
19145SOL    HW257460   3.317  12.374   4.499
19146SOL     OW57461   3.328  11.762   4.716
19146SOL    HW157462   3.298  11.667   4.723
19146SOL    HW257463   3.401  11.778   4.782
19147SOL     OW57464   3.719  12.005   4.101
19147SOL    HW157465   3.761  11.941   4.165
19147SOL    HW257466   3.681  11.954   4.023
19148SOL     OW57467   2.350  12.557   3.898
19148SOL    HW157468   2.263  12.542   3.945
19148SOL    HW257469   2.333  12.583   3.803
19149SOL     OW57470   3.526  12.452   4.381
19149SOL    HW157471   3.625  12.460   4.395
19149SOL    HW257472   3.481  12.536   4.412
19150SOL     OW57473   3.252  11.747   3.802
19150SOL    HW157474   3.198  11.726   3.883
19150SOL    HW257475   3.343  11.706   3.811
19151SOL     OW57476   2.389  11.428   4.052
19151SOL    HW157477   2.416  11.369   3.977
19151SOL    HW257478   2.389  11.523   4.021
19152SOL     OW57479   3.616  12.395   5.312
19152SOL    HW157480   3.707  12.356   5.299
19152SOL    HW257481   3.624  12.491   5.336
19153SOL     OW57482   2.926  12.519   5.064
19153SOL    HW157483   2.846  12.496   5.119
19153SOL    HW257484   3.009  12.493   5.113
19154SOL     OW57485   2.973  12.367   4.824
19154SOL    HW157486   2.933  12.411   4.905
19154SOL    HW257487   2.932  12.404   4.741
19155SOL     OW57488   3.500  12.271   4.803
19155SOL    HW157489   3.505  12.352   4.862
19155SOL    HW257490   3.414  12.273   4.752
19156SOL     OW57491   2.777  11.261   5.126
19156SOL    HW157492   2.802  11.241   5.031
19156SOL    HW257493   2.849  11.317   5.168
19157SOL     OW57494   2.842  12.288   5.443
19157SOL    HW157495   2.743  12.294   5.453
19157SOL    HW257496   2.865  12.208   5.387
19158SOL     OW57497   2.567  12.222   4.092
19158SOL    HW157498   2.553  12.229   4.191
19158SOL    HW257499   2.651  12.171   4.074
19159SOL     OW57500   2.272  11.985   4.975
19159SOL    HW157501   2.358  11.997   5.025
19159SOL    HW257502   2.230  11.898   5.002
19160SOL     OW57503   3.136  11.558   4.986
19160SOL    HW157504   3.157  11.632   5.050
19160SOL    HW257505   3.047  11.575   4.943
19161SOL     OW57506   1.926  12.736   5.055
19161SOL    HW157507   1.880  12.818   5.021
19161SOL    HW257508   2.024  12.755   5.064
19162SOL     OW57509   2.229  12.272   4.225
19162SOL    HW157510   2.222  12.355   4.169
19162SOL    HW257511   2.233  12.192   4.165
19163SOL     OW57512   2.428  11.709   4.589
19163SOL    HW157513   2.440  11.775   4.515
19163SOL    HW257514   2.474  11.743   4.672
19164SOL     OW57515   3.114  12.520   4.112
19164SOL    HW157516   3.164  12.597   4.152
19164SOL    HW257517   3.019  12.522   4.144
19165SOL     OW57518   3.134  12.617   4.866
19165SOL    HW157519   3.181  12.630   4.953
19165SOL    HW257520   3.068  12.543   4.875
19166SOL     OW57521   3.444  11.811   4.196
19166SOL    HW157522   3.413  11.872   4.269
19166SOL    HW257523   3.494  11.863   4.127
19167SOL     OW57524   2.216  12.682   5.053
19167SOL    HW157525   2.195  12.638   4.966
19167SOL    HW257526   2.313  12.708   5.056
19168SOL     OW57527   2.264  11.923   5.322
19168SOL    HW157528   2.332  11.978   5.275
19168SOL    HW257529   2.304  11.835   5.349
19169SOL     OW57530   3.449  11.951   5.394
19169SOL    HW157531   3.357  11.989   5.389
19169SOL    HW257532   3.509  11.998   5.329
19170SOL     OW57533   2.875  11.277   5.494
19170SOL    HW157534   2.881  11.362   5.442
19170SOL    HW257535   2.907  11.201   5.437
19171SOL     OW57536   2.366  11.222   5.464
19171SOL    HW157537   2.324  11.165   5.394
19171SOL    HW257538   2.300  11.291   5.496
19172SOL     OW57539   2.435  12.042   4.753
19172SOL    HW157540   2.479  12.131   4.744
19172SOL    HW257541   2.372  12.042   4.830
19173SOL     OW57542   3.222  12.034   4.769
19173SOL    HW157543   3.147  12.034   4.703
19173SOL    HW257544   3.259  11.942   4.778
19174SOL     OW57545   3.071  11.697   3.999
19174SOL    HW157546   3.084  11.613   4.053
19174SOL    HW257547   3.042  11.771   4.059
19175SOL     OW57548   2.169  11.385   4.955
19175SOL    HW157549   2.146  11.422   5.045
19175SOL    HW257550   2.139  11.290   4.949
19176SOL     OW57551   1.899  12.482   5.006
19176SOL    HW157552   1.952  12.433   5.074
19176SOL    HW257553   1.921  12.580   5.011
19177SOL     OW57554   2.594  11.806   4.788
19177SOL    HW157555   2.653  11.780   4.712
19177SOL    HW257556   2.566  11.902   4.777
19178SOL     OW57557   2.169  11.235   4.342
19178SOL    HW157558   2.158  11.329   4.375
19178SOL    HW257559   2.164  11.172   4.419
19179SOL     OW57560   3.484  11.539   4.098
19179SOL    HW157561   3.486  11.463   4.162
19179SOL    HW257562   3.436  11.616   4.138
19180SOL     OW57563   2.885  11.938   4.690
19180SOL    HW157564   2.900  11.959   4.786
19180SOL    HW257565   2.855  11.843   4.681
19181SOL     OW57566   3.721  12.690   5.329
19181SOL    HW157567   3.735  12.717   5.234
19181SOL    HW257568   3.804  12.712   5.382
19182SOL     OW57569   2.212  12.070   5.528
19182SOL    HW157570   2.288  12.114   5.576
19182SOL    HW257571   2.247  12.023   5.446
19183SOL     OW57572   3.402  11.446   3.849
19183SOL    HW157573   3.341  11.371   3.872
19183SOL    HW257574   3.424  11.498   3.932
19184SOL     OW57575   3.165  12.010   3.766
19184SOL    HW157576   3.199  11.917   3.781
19184SOL    HW257577   3.183  12.037   3.671
19185SOL     OW57578   2.930  12.505   4.573
19185SOL    HW157579   2.937  12.421   4.518
19185SOL    HW257580   2.992  12.574   4.537
19186SOL     OW57581   2.201  11.681   4.730
19186SOL    HW157582   2.149  11.598   4.713
19186SOL    HW257583   2.278  11.686   4.666
19187SOL     OW57584   3.000  11.552   5.402
19187SOL    HW157585   2.955  11.615   5.466
19187SOL    HW257586   3.093  11.583   5.385
19188SOL     OW57587   3.022  11.379   5.201
19188SOL    HW157588   3.022  11.443   5.278
19188SOL    HW257589   3.050  11.427   5.118
19189SOL     OW57590   1.870  12.498   3.924
19189SOL    HW157591   1.777  12.519   3.893
19189SOL    HW257592   1.880  12.399   3.937
19190SOL     OW57593   2.864  11.968   4.962
19190SOL    HW157594   2.905  11.936   5.048
19190SOL    HW257595   2.768  11.941   4.959
19191SOL     OW57596   1.902  11.716   4.838
19191SOL    HW157597   1.987  11.683   4.797
19191SOL    HW257598   1.915  11.731   4.936
19192SOL     OW57599   2.051  11.692   5.446
19192SOL    HW157600   2.110  11.652   5.376
19192SOL    HW257601   1.993  11.763   5.405
19193SOL     OW57602   3.231  12.122   5.384
19193SOL    HW157603   3.270  12.211   5.404
19193SOL    HW257604   3.241  12.102   5.287
19194SOL     OW57605   2.677  11.744   4.049
19194SOL    HW157606   2.684  11.655   4.003
19194SOL    HW257607   2.583  11.778   4.041
19195SOL     OW57608   3.519  11.776   4.930
19195SOL    HW157609   3.481  11.707   4.992
19195SOL    HW257610   3.601  11.740   4.886
19196SOL     OW57611   2.114  12.736   5.468
19196SOL    HW157612   2.084  12.793   5.544
19196SOL    HW257613   2.107  12.639   5.494
19197SOL     OW57614   2.533  11.636   4.993
19197SOL    HW157615   2.499  11.547   4.963
19197SOL    HW257616   2.559  11.690   4.913
19198SOL     OW57617   2.335  11.672   3.915
19198SOL    HW157618   2.396  11.752   3.919
19198SOL    HW257619   2.240  11.703   3.922
19199SOL     OW57620   2.021  12.309   5.190
19199SOL    HW157621   2.043  12.248   5.266
19199SOL    HW257622   2.031  12.260   5.104
19200SOL     OW57623   3.209  12.231   4.958
19200SOL    HW157624   3.233  12.168   4.884
19200SOL    HW257625   3.119  12.271   4.940
19201SOL     OW57626   3.164  12.027   4.033
19201SOL    HW157627   3.078  11.996   4.075
19201SOL    HW257628   3.160  12.013   3.934
19202SOL     OW57629   3.114  12.903   4.852
19202SOL    HW157630   3.198  12.908   4.798
19202SOL    HW257631   3.091  12.807   4.870
19203SOL     OW57632   1.945  12.430   4.746
19203SOL    HW157633   1.940  12.429   4.846
19203SOL    HW257634   1.862  12.389   4.708
19204SOL     OW57635   3.588  11.307   4.247
19204SOL    HW157636   3.661  11.290   4.180
19204SOL    HW257637   3.557  11.220   4.285
19205SOL     OW57638   1.992  12.966   5.575
19205SOL    HW157639   1.951  12.892   5.628
19205SOL    HW257640   2.056  13.017   5.633
19206SOL     OW57641   3.142  12.099   4.396
19206SOL    HW157642   3.202  12.018   4.398
19206SOL    HW257643   3.182  12.168   4.336
19207SOL     OW57644   2.692  12.445   5.146
19207SOL    HW157645   2.687  12.478   5.241
19207SOL    HW257646   2.606  12.464   5.100
19208SOL     OW57647   2.534  12.788   3.878
19208SOL    HW157648   2.543  12.798   3.779
19208SOL    HW257649   2.494  12.699   3.899
19209SOL     OW57650   3.703  11.347   4.687
19209SOL    HW157651   3.742  11.262   4.651
19209SOL    HW257652   3.605  11.349   4.668
19210SOL     OW57653   2.125  11.498   4.444
19210SOL    HW157654   2.046  11.549   4.410
19210SOL    HW257655   2.116  11.483   4.542
19211SOL     OW57656   3.056  12.784   3.755
19211SOL    HW157657   3.062  12.691   3.792
19211SOL    HW257658   2.997  12.784   3.675
19212SOL     OW57659   2.684  12.174   5.096
19212SOL    HW157660   2.724  12.173   5.004
19212SOL    HW257661   2.694  12.266   5.136
19213SOL     OW57662   2.778  12.082   4.015
19213SOL    HW157663   2.841  12.120   3.947
19213SOL    HW257664   2.818  11.999   4.054
19214SOL     OW57665   2.234  12.460   5.214
19214SOL    HW157666   2.221  12.553   5.180
19214SOL    HW257667   2.150  12.408   5.201
19215SOL     OW57668   3.476  12.464   5.013
19215SOL    HW157669   3.536  12.467   5.093
19215SOL    HW257670   3.401  12.528   5.026
19216SOL     OW57671   2.901  12.270   4.420
19216SOL    HW157672   2.831  12.223   4.474
19216SOL    HW257673   2.960  12.202   4.377
19217SOL     OW57674   2.876  11.408   4.695
19217SOL    HW157675   2.868  11.372   4.602
19217SOL    HW257676   2.874  11.332   4.760
19218SOL     OW57677   2.452  12.659   4.215
19218SOL    HW157678   2.494  12.601   4.145
19218SOL    HW257679   2.408  12.738   4.171
19219SOL     OW57680   3.571  11.557   5.105
19219SOL    HW157681   3.644  11.626   5.109
19219SOL    HW257682   3.599  11.482   5.046
19220SOL     OW57683   2.117  12.520   4.014
19220SOL    HW157684   2.021  12.521   3.987
19220SOL    HW257685   2.129  12.573   4.098
19221SOL     OW57686   1.967  12.185   5.450
19221SOL    HW157687   1.890  12.152   5.504
19221SOL    HW257688   2.052  12.155   5.492
19222SOL     OW57689   2.534  11.375   5.213
19222SOL    HW157690   2.624  11.359   5.173
19222SOL    HW257691   2.542  11.380   5.312
19223SOL     OW57692   1.937  11.517   3.757
19223SOL    HW157693   1.845  11.489   3.728
19223SOL    HW257694   1.968  11.594   3.701
19224SOL     OW57695   3.302  12.028   5.122
19224SOL    HW157696   3.245  12.080   5.059
19224SOL    HW257697   3.398  12.040   5.098
19225SOL     OW57698   1.934  11.338   4.042
19225SOL    HW157699   1.917  11.421   3.988
19225SOL    HW257700   2.024  11.301   4.020
19226SOL     OW57701   3.045  12.507   3.843
19226SOL    HW157702   2.946  12.496   3.845
19226SOL    HW257703   3.079  12.522   3.936
19227SOL     OW57704   2.475  12.014   5.155
19227SOL    HW157705   2.531  12.095   5.138
19227SOL    HW257706   2.534  11.934   5.158
19228SOL     OW57707   2.578  11.737   5.432
19228SOL    HW157708   2.597  11.802   5.506
19228SOL    HW257709   2.638  11.657   5.441
19229SOL     OW57710   3.312  12.392   5.357
19229SOL    HW157711   3.303  12.382   5.456
19229SOL    HW257712   3.408  12.385   5.331
19230SOL     OW57713   3.536  12.055   4.978
19230SOL    HW157714   3.509  11.966   4.941
19230SOL    HW257715   3.537  12.123   4.905
19231SOL     OW57716   3.087  11.497   4.173
19231SOL    HW157717   3.152  11.423   4.162
19231SOL    HW257718   3.107  11.547   4.257
19232SOL     OW57719   2.456  11.917   4.376
19232SOL    HW157720   2.506  12.002   4.357
19232SOL    HW257721   2.368  11.919   4.328
19233SOL     OW57722   3.639  11.514   5.366
19233SOL    HW157723   3.622  11.545   5.272
19233SOL    HW257724   3.555  11.477   5.404
19234SOL     OW57725   3.592  12.106   5.241
19234SOL    HW157726   3.630  12.197   5.256
19234SOL    HW257727   3.584  12.089   5.142
19235SOL     OW57728   2.721  12.546   3.740
19235SOL    HW157729   2.675  12.561   3.828
19235SOL    HW257730   2.765  12.631   3.710
19236SOL     OW57731   2.721  12.128   4.585
19236SOL    HW157732   2.775  12.059   4.633
19236SOL    HW257733   2.689  12.197   4.651
19237SOL     OW57734   2.945  12.156   3.811
19237SOL    HW157735   2.922  12.209   3.729
19237SOL    HW257736   3.026  12.100   3.792
19238SOL     OW57737   3.723  12.741   4.575
19238SOL    HW157738   3.652  12.729   4.505
19238SOL    HW257739   3.724  12.662   4.635
19239SOL     OW57740   2.083  12.486   5.568
19239SOL    HW157741   2.018  12.413   5.547
19239SOL    HW257742   2.087  12.500   5.666
19240SOL     OW57743   1.941  12.412   4.377
19240SOL    HW157744   1.940  12.365   4.465
19240SOL    HW257745   2.023  12.384   4.326
19241SOL     OW57746   2.534  12.563   5.348
19241SOL    HW157747   2.456  12.513   5.386
19241SOL    HW257748   2.531  12.658   5.379
19242SOL     OW57749   3.686  11.364   4.951
19242SOL    HW157750   3.682  11.274   4.995
19242SOL    HW257751   3.689  11.353   4.852
19243SOL     OW57752   2.290  11.596   4.244
19243SOL    HW157753   2.320  11.524   4.182
19243SOL    HW257754   2.251  11.556   4.327
19244SOL     OW57755   3.567  12.659   4.828
19244SOL    HW157756   3.474  12.634   4.801
19244SOL    HW257757   3.593  12.609   4.910
19245SOL     OW57758   2.179  11.719   5.004
19245SOL    HW157759   2.217  11.660   5.076
19245SOL    HW257760   2.219  11.693   4.916
19246SOL     OW57761   3.286  11.386   4.836
19246SOL    HW157762   3.338  11.321   4.891
19246SOL    HW257763   3.237  11.449   4.897
19247SOL     OW57764   2.863  11.206   4.878
19247SOL    HW157765   2.800  11.134   4.847
19247SOL    HW257766   2.956  11.170   4.878
19248SOL     OW57767   2.632  12.502   4.025
19248SOL    HW157768   2.586  12.415   4.042
19248SOL    HW257769   2.723  12.499   4.066
19249SOL     OW57770   2.480  12.739   5.008
19249SOL    HW157771   2.475  12.821   5.065
19249SOL    HW257772   2.569  12.736   4.963
19250SOL     OW57773   3.214  11.224   3.892
19250SOL    HW157774   3.249  11.183   3.808
19250SOL    HW257775   3.124  11.186   3.912
19251SOL     OW57776   3.162  11.625   4.415
19251SOL    HW157777   3.103  11.705   4.419
19251SOL    HW257778   3.177  11.590   4.508
19252SOL     OW57779   3.455  11.393   4.606
19252SOL    HW157780   3.371  11.392   4.660
19252SOL    HW257781   3.457  11.476   4.550
19253SOL     OW57782   1.901  12.249   4.024
19253SOL    HW157783   2.000  12.238   4.015
19253SOL    HW257784   1.861  12.163   4.056
19254SOL     OW57785   2.092  11.800   5.699
19254SOL    HW157786   1.999  11.798   5.736
19254SOL    HW257787   2.093  11.761   5.607
19255SOL     OW57788   2.087  11.447   6.582
19255SOL    HW157789   2.122  11.430   6.674
19255SOL    HW257790   1.999  11.402   6.570
19256SOL     OW57791   1.881  11.540   6.233
19256SOL    HW157792   1.799  11.583   6.272
19256SOL    HW257793   1.853  11.467   6.170
19257SOL     OW57794   2.431  12.447   6.751
19257SOL    HW157795   2.338  12.440   6.714
19257SOL    HW257796   2.442  12.536   6.795
19258SOL     OW57797   3.417  12.683   6.289
19258SOL    HW157798   3.360  12.667   6.370
19258SOL    HW257799   3.358  12.693   6.209
19259SOL     OW57800   2.997  11.875   6.303
19259SOL    HW157801   3.054  11.953   6.278
19259SOL    HW257802   2.937  11.901   6.379
19260SOL     OW57803   3.617  11.779   5.817
19260SOL    HW157804   3.605  11.766   5.718
19260SOL    HW257805   3.587  11.698   5.866
19261SOL     OW57806   2.630  12.316   6.609
19261SOL    HW157807   2.552  12.333   6.669
19261SOL    HW257808   2.664  12.403   6.573
19262SOL     OW57809   2.712  11.970   7.409
19262SOL    HW157810   2.708  12.046   7.474
19262SOL    HW257811   2.734  12.006   7.318
19263SOL     OW57812   2.547  12.184   6.251
19263SOL    HW157813   2.616  12.168   6.321
19263SOL    HW257814   2.474  12.241   6.289
19264SOL     OW57815   2.548  12.333   7.389
19264SOL    HW157816   2.608  12.412   7.403
19264SOL    HW257817   2.462  12.364   7.348
19265SOL     OW57818   2.197  12.607   6.647
19265SOL    HW157819   2.119  12.576   6.594
19265SOL    HW257820   2.255  12.665   6.590
19266SOL     OW57821   3.322  12.677   6.925
19266SOL    HW157822   3.346  12.771   6.951
19266SOL    HW257823   3.306  12.623   7.007
19267SOL     OW57824   2.300  11.564   7.085
19267SOL    HW157825   2.382  11.508   7.094
19267SOL    HW257826   2.219  11.506   7.089
19268SOL     OW57827   3.465  11.619   6.323
19268SOL    HW157828   3.391  11.665   6.273
19268SOL    HW257829   3.516  11.687   6.376
19269SOL     OW57830   2.989  12.513   7.276
19269SOL    HW157831   3.036  12.513   7.364
19269SOL    HW257832   2.941  12.426   7.265
19270SOL     OW57833   2.092  12.606   6.124
19270SOL    HW157834   2.066  12.702   6.124
19270SOL    HW257835   2.021  12.552   6.169
19271SOL     OW57836   2.102  12.263   6.472
19271SOL    HW157837   2.116  12.179   6.524
19271SOL    HW257838   2.047  12.327   6.527
19272SOL     OW57839   2.468  12.136   5.709
19272SOL    HW157840   2.475  12.220   5.655
19272SOL    HW257841   2.514  12.149   5.797
19273SOL     OW57842   3.456  11.286   7.066
19273SOL    HW157843   3.438  11.353   6.994
19273SOL    HW257844   3.453  11.332   7.155
19274SOL     OW57845   1.984  11.815   6.149
19274SOL    HW157846   1.939  11.727   6.166
19274SOL    HW257847   1.983  11.869   6.233
19275SOL     OW57848   1.889  12.768   5.703
19275SOL    HW157849   1.870  12.672   5.724
19275SOL    HW257850   1.856  12.826   5.778
19276SOL     OW57851   3.551  12.094   6.198
19276SOL    HW157852   3.646  12.065   6.206
19276SOL    HW257853   3.543  12.159   6.123
19277SOL     OW57854   3.503  12.280   6.018
19277SOL    HW157855   3.589  12.282   5.966
19277SOL    HW257856   3.517  12.327   6.106
19278SOL     OW57857   1.975  11.909   7.183
19278SOL    HW157858   2.063  11.896   7.228
19278SOL    HW257859   1.962  12.006   7.161
19279SOL     OW57860   2.475  12.537   6.312
19279SOL    HW157861   2.426  12.450   6.321
19279SOL    HW257862   2.452  12.580   6.225
19280SOL     OW57863   3.155  12.400   7.009
19280SOL    HW157864   3.192  12.327   6.951
19280SOL    HW257865   3.207  12.405   7.094
19281SOL     OW57866   2.671  11.176   6.088
19281SOL    HW157867   2.711  11.267   6.079
19281SOL    HW257868   2.571  11.184   6.094
19282SOL     OW57869   2.059  12.148   6.850
19282SOL    HW157870   2.148  12.103   6.836
19282SOL    HW257871   1.986  12.083   6.831
19283SOL     OW57872   3.387  12.171   5.776
19283SOL    HW157873   3.324  12.095   5.789
19283SOL    HW257874   3.435  12.189   5.862
19284SOL     OW57875   2.179  11.423   7.387
19284SOL    HW157876   2.250  11.494   7.393
19284SOL    HW257877   2.091  11.462   7.415
19285SOL     OW57878   3.328  12.589   6.539
19285SOL    HW157879   3.269  12.595   6.619
19285SOL    HW257880   3.313  12.501   6.493
19286SOL     OW57881   2.460  11.901   5.856
19286SOL    HW157882   2.484  11.970   5.788
19286SOL    HW257883   2.382  11.934   5.910
19287SOL     OW57884   3.143  11.517   6.530
19287SOL    HW157885   3.057  11.467   6.517
19287SOL    HW257886   3.205  11.463   6.586
19288SOL     OW57887   3.438  12.834   5.893
19288SOL    HW157888   3.527  12.880   5.896
19288SOL    HW257889   3.417  12.810   5.798
19289SOL     OW57890   2.669  11.777   7.051
19289SOL    HW157891   2.622  11.774   7.140
19289SOL    HW257892   2.618  11.722   6.985
19290SOL     OW57893   3.256  11.641   7.260
19290SOL    HW157894   3.236  11.684   7.348
19290SOL    HW257895   3.334  11.579   7.269
19291SOL     OW57896   2.835  12.062   7.158
19291SOL    HW157897   2.881  11.978   7.129
19291SOL    HW257898   2.779  12.096   7.083
19292SOL     OW57899   2.853  11.582   6.828
19292SOL    HW157900   2.776  11.616   6.882
19292SOL    HW257901   2.819  11.531   6.749
19293SOL     OW57902   2.903  11.873   6.015
19293SOL    HW157903   2.929  11.869   6.111
19293SOL    HW257904   2.818  11.822   6.001
19294SOL     OW57905   1.938  11.983   6.375
19294SOL    HW157906   2.037  11.971   6.384
19294SOL    HW257907   1.914  12.078   6.396
19295SOL     OW57908   2.727  11.520   5.781
19295SOL    HW157909   2.786  11.583   5.732
19295SOL    HW257910   2.746  11.426   5.752
19296SOL     OW57911   3.581  11.757   7.417
19296SOL    HW157912   3.555  11.846   7.381
19296SOL    HW257913   3.579  11.689   7.344
19297SOL     OW57914   3.224  12.316   6.131
19297SOL    HW157915   3.307  12.287   6.083
19297SOL    HW257916   3.175  12.383   6.075
19298SOL     OW57917   2.412  11.368   6.471
19298SOL    HW157918   2.407  11.363   6.571
19298SOL    HW257919   2.414  11.464   6.442
19299SOL     OW57920   2.870  12.628   6.063
19299SOL    HW157921   2.824  12.700   6.011
19299SOL    HW257922   2.866  12.648   6.161
19300SOL     OW57923   3.657  12.238   6.459
19300SOL    HW157924   3.595  12.223   6.383
19300SOL    HW257925   3.605  12.249   6.544
19301SOL     OW57926   3.089  12.722   7.092
19301SOL    HW157927   3.095  12.645   7.156
19301SOL    HW257928   3.037  12.696   7.012
19302SOL     OW57929   2.183  12.115   5.828
19302SOL    HW157930   2.265  12.154   5.786
19302SOL    HW257931   2.156  12.033   5.779
19303SOL     OW57932   3.320  11.907   6.314
19303SOL    HW157933   3.315  11.842   6.389
19303SOL    HW257934   3.400  11.966   6.327
19304SOL     OW57935   2.323  12.438   7.313
19304SOL    HW157936   2.273  12.439   7.227
19304SOL    HW257937   2.260  12.420   7.389
19305SOL     OW57938   2.064  11.457   7.084
19305SOL    HW157939   1.984  11.517   7.071
19305SOL    HW257940   2.054  11.408   7.170
19306SOL     OW57941   3.494  12.549   5.667
19306SOL    HW157942   3.462  12.643   5.657
19306SOL    HW257943   3.418  12.486   5.655
19307SOL     OW57944   3.262  11.279   6.012
19307SOL    HW157945   3.238  11.242   5.922
19307SOL    HW257946   3.361  11.295   6.016
19308SOL     OW57947   2.244  11.872   6.066
19308SOL    HW157948   2.289  11.782   6.063
19308SOL    HW257949   2.150  11.861   6.099
19309SOL     OW57950   3.409  11.394   7.315
19309SOL    HW157951   3.404  11.431   7.407
19309SOL    HW257952   3.337  11.325   7.303
19310SOL     OW57953   2.476  11.294   5.703
19310SOL    HW157954   2.574  11.272   5.710
19310SOL    HW257955   2.445  11.277   5.610
19311SOL     OW57956   2.643  11.436   7.335
19311SOL    HW157957   2.710  11.375   7.378
19311SOL    HW257958   2.570  11.455   7.400
19312SOL     OW57959   3.213  11.762   7.019
19312SOL    HW157960   3.241  11.719   7.104
19312SOL    HW257961   3.238  11.858   7.020
19313SOL     OW57962   2.665  12.574   6.510
19313SOL    HW157963   2.755  12.588   6.468
19313SOL    HW257964   2.594  12.576   6.439
19314SOL     OW57965   2.784  11.675   6.485
19314SOL    HW157966   2.759  11.666   6.389
19314SOL    HW257967   2.832  11.593   6.516
19315SOL     OW57968   2.401  11.236   6.098
19315SOL    HW157969   2.320  11.237   6.156
19315SOL    HW257970   2.404  11.319   6.043
19316SOL     OW57971   3.296  12.360   5.627
19316SOL    HW157972   3.328  12.284   5.684
19316SOL    HW257973   3.204  12.387   5.657
19317SOL     OW57974   2.159  11.207   5.757
19317SOL    HW157975   2.208  11.291   5.736
19317SOL    HW257976   2.221  11.142   5.802
19318SOL     OW57977   2.797  11.408   6.066
19318SOL    HW157978   2.749  11.449   5.988
19318SOL    HW257979   2.896  11.406   6.047
19319SOL     OW57980   2.938  11.855   7.050
19319SOL    HW157981   2.858  11.794   7.053
19319SOL    HW257982   3.019  11.802   7.026
19320SOL     OW57983   3.089  12.742   6.379
19320SOL    HW157984   3.110  12.816   6.314
19320SOL    HW257985   3.157  12.742   6.452
19321SOL     OW57986   2.321  12.324   6.327
19321SOL    HW157987   2.250  12.297   6.392
19321SOL    HW257988   2.295  12.296   6.234
19322SOL     OW57989   2.894  11.721   5.602
19322SOL    HW157990   2.853  11.803   5.563
19322SOL    HW257991   2.958  11.747   5.675
19323SOL     OW57992   1.940  11.728   6.972
19323SOL    HW157993   2.032  11.727   6.931
19323SOL    HW257994   1.934  11.802   7.039
19324SOL     OW57995   2.423  11.394   6.733
19324SOL    HW157996   2.461  11.310   6.770
19324SOL    HW257997   2.335  11.413   6.777
19325SOL     OW57998   2.728  11.626   6.228
19325SOL    HW157999   2.696  11.698   6.166
19325SOL    HW258000   2.752  11.545   6.175
19326SOL     OW58001   2.879  11.211   6.339
19326SOL    HW158002   2.807  11.216   6.270
19326SOL    HW258003   2.855  11.142   6.408
19327SOL     OW58004   3.291  12.345   6.453
19327SOL    HW158005   3.236  12.261   6.446
19327SOL    HW258006   3.317  12.374   6.361
19328SOL     OW58007   3.328  11.762   6.578
19328SOL    HW158008   3.298  11.667   6.585
19328SOL    HW258009   3.401  11.778   6.644
19329SOL     OW58010   3.719  12.005   5.963
19329SOL    HW158011   3.761  11.941   6.027
19329SOL    HW258012   3.681  11.954   5.885
19330SOL     OW58013   2.350  12.557   5.760
19330SOL    HW158014   2.263  12.542   5.807
19330SOL    HW258015   2.333  12.583   5.665
19331SOL     OW58016   3.526  12.452   6.243
19331SOL    HW158017   3.625  12.460   6.257
19331SOL    HW258018   3.481  12.536   6.274
19332SOL     OW58019   3.252  11.747   5.664
19332SOL    HW158020   3.198  11.726   5.745
19332SOL    HW258021   3.343  11.706   5.673
19333SOL     OW58022   2.389  11.428   5.914
19333SOL    HW158023   2.416  11.369   5.839
19333SOL    HW258024   2.389  11.523   5.883
19334SOL     OW58025   3.616  12.395   7.174
19334SOL    HW158026   3.707  12.356   7.161
19334SOL    HW258027   3.624  12.491   7.198
19335SOL     OW58028   2.926  12.519   6.926
19335SOL    HW158029   2.846  12.496   6.981
19335SOL    HW258030   3.009  12.493   6.975
19336SOL     OW58031   2.973  12.367   6.686
19336SOL    HW158032   2.933  12.411   6.767
19336SOL    HW258033   2.932  12.404   6.603
19337SOL     OW58034   3.500  12.271   6.665
19337SOL    HW158035   3.505  12.352   6.724
19337SOL    HW258036   3.414  12.273   6.614
19338SOL     OW58037   2.777  11.261   6.988
19338SOL    HW158038   2.802  11.241   6.893
19338SOL    HW258039   2.849  11.317   7.030
19339SOL     OW58040   2.842  12.288   7.305
19339SOL    HW158041   2.743  12.294   7.315
19339SOL    HW258042   2.865  12.208   7.249
19340SOL     OW58043   2.567  12.222   5.954
19340SOL    HW158044   2.553  12.229   6.053
19340SOL    HW258045   2.651  12.171   5.936
19341SOL     OW58046   2.272  11.985   6.837
19341SOL    HW158047   2.358  11.997   6.887
19341SOL    HW258048   2.230  11.898   6.864
19342SOL     OW58049   3.136  11.558   6.848
19342SOL    HW158050   3.157  11.632   6.912
19342SOL    HW258051   3.047  11.575   6.805
19343SOL     OW58052   1.926  12.736   6.917
19343SOL    HW158053   1.880  12.818   6.883
19343SOL    HW258054   2.024  12.755   6.926
19344SOL     OW58055   2.229  12.272   6.087
19344SOL    HW158056   2.222  12.355   6.031
19344SOL    HW258057   2.233  12.192   6.027
19345SOL     OW58058   2.428  11.709   6.451
19345SOL    HW158059   2.440  11.775   6.377
19345SOL    HW258060   2.474  11.743   6.534
19346SOL     OW58061   3.114  12.520   5.974
19346SOL    HW158062   3.164  12.597   6.014
19346SOL    HW258063   3.019  12.522   6.006
19347SOL     OW58064   3.134  12.617   6.728
19347SOL    HW158065   3.181  12.630   6.815
19347SOL    HW258066   3.068  12.543   6.737
19348SOL     OW58067   3.444  11.811   6.058
19348SOL    HW158068   3.413  11.872   6.131
19348SOL    HW258069   3.494  11.863   5.989
19349SOL     OW58070   2.216  12.682   6.915
19349SOL    HW158071   2.195  12.638   6.828
19349SOL    HW258072   2.313  12.708   6.918
19350SOL     OW58073   2.264  11.923   7.184
19350SOL    HW158074   2.332  11.978   7.137
19350SOL    HW258075   2.304  11.835   7.211
19351SOL     OW58076   3.449  11.951   7.256
19351SOL    HW158077   3.357  11.989   7.251
19351SOL    HW258078   3.509  11.998   7.191
19352SOL     OW58079   2.875  11.277   7.356
19352SOL    HW158080   2.881  11.362   7.304
19352SOL    HW258081   2.907  11.201   7.299
19353SOL     OW58082   2.366  11.222   7.326
19353SOL    HW158083   2.324  11.165   7.256
19353SOL    HW258084   2.300  11.291   7.358
19354SOL     OW58085   2.435  12.042   6.615
19354SOL    HW158086   2.479  12.131   6.606
19354SOL    HW258087   2.372  12.042   6.692
19355SOL     OW58088   3.222  12.034   6.631
19355SOL    HW158089   3.147  12.034   6.565
19355SOL    HW258090   3.259  11.942   6.640
19356SOL     OW58091   3.071  11.697   5.861
19356SOL    HW158092   3.084  11.613   5.915
19356SOL    HW258093   3.042  11.771   5.921
19357SOL     OW58094   2.169  11.385   6.817
19357SOL    HW158095   2.146  11.422   6.907
19357SOL    HW258096   2.139  11.290   6.811
19358SOL     OW58097   1.899  12.482   6.868
19358SOL    HW158098   1.952  12.433   6.936
19358SOL    HW258099   1.921  12.580   6.873
19359SOL     OW58100   2.594  11.806   6.650
19359SOL    HW158101   2.653  11.780   6.574
19359SOL    HW258102   2.566  11.902   6.639
19360SOL     OW58103   3.590  12.107   7.440
19360SOL    HW158104   3.544  12.100   7.351
19360SOL    HW258105   3.528  12.151   7.506
19361SOL     OW58106   2.169  11.235   6.204
19361SOL    HW158107   2.158  11.329   6.237
19361SOL    HW258108   2.164  11.172   6.281
19362SOL     OW58109   3.484  11.539   5.960
19362SOL    HW158110   3.486  11.463   6.024
19362SOL    HW258111   3.436  11.616   6.000
19363SOL     OW58112   2.885  11.938   6.552
19363SOL    HW158113   2.900  11.959   6.648
19363SOL    HW258114   2.855  11.843   6.543
19364SOL     OW58115   3.721  12.690   7.191
19364SOL    HW158116   3.735  12.717   7.096
19364SOL    HW258117   3.804  12.712   7.244
19365SOL     OW58118   2.212  12.070   7.390
19365SOL    HW158119   2.288  12.114   7.438
19365SOL    HW258120   2.247  12.023   7.308
19366SOL     OW58121   3.402  11.446   5.711
19366SOL    HW158122   3.341  11.371   5.734
19366SOL    HW258123   3.424  11.498   5.794
19367SOL     OW58124   3.165  12.010   5.628
19367SOL    HW158125   3.199  11.917   5.643
19367SOL    HW258126   3.183  12.037   5.533
19368SOL     OW58127   2.930  12.505   6.435
19368SOL    HW158128   2.937  12.421   6.380
19368SOL    HW258129   2.992  12.574   6.399
19369SOL     OW58130   2.181  11.982   6.535
19369SOL    HW158131   2.274  12.018   6.540
19369SOL    HW258132   2.175  11.897   6.587
19370SOL     OW58133   2.201  11.681   6.592
19370SOL    HW158134   2.149  11.598   6.575
19370SOL    HW258135   2.278  11.686   6.528
19371SOL     OW58136   3.000  11.552   7.264
19371SOL    HW158137   2.955  11.615   7.328
19371SOL    HW258138   3.093  11.583   7.247
19372SOL     OW58139   3.022  11.379   7.063
19372SOL    HW158140   3.022  11.443   7.140
19372SOL    HW258141   3.050  11.427   6.980
19373SOL     OW58142   1.870  12.498   5.786
19373SOL    HW158143   1.777  12.519   5.755
19373SOL    HW258144   1.880  12.399   5.799
19374SOL     OW58145   2.366  12.740   6.496
19374SOL    HW158146   2.432  12.814   6.505
19374SOL    HW258147   2.410  12.661   6.454
19375SOL     OW58148   2.864  11.968   6.824
19375SOL    HW158149   2.905  11.936   6.910
19375SOL    HW258150   2.768  11.941   6.821
19376SOL     OW58151   1.902  11.716   6.700
19376SOL    HW158152   1.987  11.683   6.659
19376SOL    HW258153   1.915  11.731   6.798
19377SOL     OW58154   2.051  11.692   7.308
19377SOL    HW158155   2.110  11.652   7.238
19377SOL    HW258156   1.993  11.763   7.267
19378SOL     OW58157   3.231  12.122   7.246
19378SOL    HW158158   3.270  12.211   7.266
19378SOL    HW258159   3.241  12.102   7.149
19379SOL     OW58160   2.677  11.744   5.911
19379SOL    HW158161   2.684  11.655   5.865
19379SOL    HW258162   2.583  11.778   5.903
19380SOL     OW58163   3.519  11.776   6.792
19380SOL    HW158164   3.481  11.707   6.854
19380SOL    HW258165   3.601  11.740   6.748
19381SOL     OW58166   2.114  12.736   7.330
19381SOL    HW158167   2.084  12.793   7.406
19381SOL    HW258168   2.107  12.639   7.356
19382SOL     OW58169   2.533  11.636   6.855
19382SOL    HW158170   2.499  11.547   6.825
19382SOL    HW258171   2.559  11.690   6.775
19383SOL     OW58172   2.335  11.672   5.777
19383SOL    HW158173   2.396  11.752   5.781
19383SOL    HW258174   2.240  11.703   5.784
19384SOL     OW58175   2.021  12.309   7.052
19384SOL    HW158176   2.043  12.248   7.128
19384SOL    HW258177   2.031  12.260   6.966
19385SOL     OW58178   3.209  12.231   6.820
19385SOL    HW158179   3.233  12.168   6.746
19385SOL    HW258180   3.119  12.271   6.802
19386SOL     OW58181   3.164  12.027   5.895
19386SOL    HW158182   3.078  11.996   5.937
19386SOL    HW258183   3.160  12.013   5.796
19387SOL     OW58184   3.114  12.903   6.714
19387SOL    HW158185   3.198  12.908   6.660
19387SOL    HW258186   3.091  12.807   6.732
19388SOL     OW58187   1.945  12.430   6.608
19388SOL    HW158188   1.940  12.429   6.708
19388SOL    HW258189   1.862  12.389   6.570
19389SOL     OW58190   3.588  11.307   6.109
19389SOL    HW158191   3.661  11.290   6.042
19389SOL    HW258192   3.557  11.220   6.147
19390SOL     OW58193   1.992  12.966   7.437
19390SOL    HW158194   1.951  12.892   7.490
19390SOL    HW258195   2.056  13.017   7.495
19391SOL     OW58196   3.142  12.099   6.258
19391SOL    HW158197   3.202  12.018   6.260
19391SOL    HW258198   3.182  12.168   6.198
19392SOL     OW58199   2.692  12.445   7.008
19392SOL    HW158200   2.687  12.478   7.103
19392SOL    HW258201   2.606  12.464   6.962
19393SOL     OW58202   2.534  12.788   5.740
19393SOL    HW158203   2.543  12.798   5.641
19393SOL    HW258204   2.494  12.699   5.761
19394SOL     OW58205   3.703  11.347   6.549
19394SOL    HW158206   3.742  11.262   6.513
19394SOL    HW258207   3.605  11.349   6.530
19395SOL     OW58208   2.125  11.498   6.306
19395SOL    HW158209   2.046  11.549   6.272
19395SOL    HW258210   2.116  11.483   6.404
19396SOL     OW58211   3.056  12.784   5.617
19396SOL    HW158212   3.062  12.691   5.654
19396SOL    HW258213   2.997  12.784   5.537
19397SOL     OW58214   2.684  12.174   6.958
19397SOL    HW158215   2.724  12.173   6.866
19397SOL    HW258216   2.694  12.266   6.998
19398SOL     OW58217   2.778  12.082   5.877
19398SOL    HW158218   2.841  12.120   5.809
19398SOL    HW258219   2.818  11.999   5.916
19399SOL     OW58220   2.234  12.460   7.076
19399SOL    HW158221   2.221  12.553   7.042
19399SOL    HW258222   2.150  12.408   7.063
19400SOL     OW58223   3.476  12.464   6.875
19400SOL    HW158224   3.536  12.467   6.955
19400SOL    HW258225   3.401  12.528   6.888
19401SOL     OW58226   2.901  12.270   6.282
19401SOL    HW158227   2.831  12.223   6.336
19401SOL    HW258228   2.960  12.202   6.239
19402SOL     OW58229   2.876  11.408   6.557
19402SOL    HW158230   2.868  11.372   6.464
19402SOL    HW258231   2.874  11.332   6.622
19403SOL     OW58232   2.452  12.659   6.077
19403SOL    HW158233   2.494  12.601   6.007
19403SOL    HW258234   2.408  12.738   6.033
19404SOL     OW58235   3.571  11.557   6.967
19404SOL    HW158236   3.644  11.626   6.971
19404SOL    HW258237   3.599  11.482   6.908
19405SOL     OW58238   2.117  12.520   5.876
19405SOL    HW158239   2.021  12.521   5.849
19405SOL    HW258240   2.129  12.573   5.960
19406SOL     OW58241   1.967  12.185   7.312
19406SOL    HW158242   1.890  12.152   7.366
19406SOL    HW258243   2.052  12.155   7.354
19407SOL     OW58244   2.534  11.375   7.075
19407SOL    HW158245   2.624  11.359   7.035
19407SOL    HW258246   2.542  11.380   7.174
19408SOL     OW58247   1.937  11.517   5.619
19408SOL    HW158248   1.845  11.489   5.590
19408SOL    HW258249   1.968  11.594   5.563
19409SOL     OW58250   3.302  12.028   6.984
19409SOL    HW158251   3.245  12.080   6.921
19409SOL    HW258252   3.398  12.040   6.960
19410SOL     OW58253   1.934  11.338   5.904
19410SOL    HW158254   1.917  11.421   5.850
19410SOL    HW258255   2.024  11.301   5.882
19411SOL     OW58256   3.045  12.507   5.705
19411SOL    HW158257   2.946  12.496   5.707
19411SOL    HW258258   3.079  12.522   5.798
19412SOL     OW58259   2.475  12.014   7.017
19412SOL    HW158260   2.531  12.095   7.000
19412SOL    HW258261   2.534  11.934   7.020
19413SOL     OW58262   2.578  11.737   7.294
19413SOL    HW158263   2.597  11.802   7.368
19413SOL    HW258264   2.638  11.657   7.303
19414SOL     OW58265   3.312  12.392   7.219
19414SOL    HW158266   3.303  12.382   7.318
19414SOL    HW258267   3.408  12.385   7.193
19415SOL     OW58268   3.536  12.055   6.840
19415SOL    HW158269   3.509  11.966   6.803
19415SOL    HW258270   3.537  12.123   6.767
19416SOL     OW58271   3.087  11.497   6.035
19416SOL    HW158272   3.152  11.423   6.024
19416SOL    HW258273   3.107  11.547   6.119
19417SOL     OW58274   2.456  11.917   6.238
19417SOL    HW158275   2.506  12.002   6.219
19417SOL    HW258276   2.368  11.919   6.190
19418SOL     OW58277   3.639  11.514   7.228
19418SOL    HW158278   3.622  11.545   7.134
19418SOL    HW258279   3.555  11.477   7.266
19419SOL     OW58280   3.592  12.106   7.103
19419SOL    HW158281   3.630  12.197   7.118
19419SOL    HW258282   3.584  12.089   7.004
19420SOL     OW58283   2.721  12.546   5.602
19420SOL    HW158284   2.675  12.561   5.690
19420SOL    HW258285   2.765  12.631   5.572
19421SOL     OW58286   2.721  12.128   6.447
19421SOL    HW158287   2.775  12.059   6.495
19421SOL    HW258288   2.689  12.197   6.513
19422SOL     OW58289   2.945  12.156   5.673
19422SOL    HW158290   2.922  12.209   5.591
19422SOL    HW258291   3.026  12.100   5.654
19423SOL     OW58292   3.723  12.741   6.437
19423SOL    HW158293   3.652  12.729   6.367
19423SOL    HW258294   3.724  12.662   6.497
19424SOL     OW58295   2.083  12.486   7.430
19424SOL    HW158296   2.018  12.413   7.409
19424SOL    HW258297   2.087  12.500   7.528
19425SOL     OW58298   1.941  12.412   6.239
19425SOL    HW158299   1.940  12.365   6.327
19425SOL    HW258300   2.023  12.384   6.188
19426SOL     OW58301   2.534  12.563   7.210
19426SOL    HW158302   2.456  12.513   7.248
19426SOL    HW258303   2.531  12.658   7.241
19427SOL     OW58304   3.686  11.364   6.813
19427SOL    HW158305   3.682  11.274   6.857
19427SOL    HW258306   3.689  11.353   6.714
19428SOL     OW58307   2.290  11.596   6.106
19428SOL    HW158308   2.320  11.524   6.044
19428SOL    HW258309   2.251  11.556   6.189
19429SOL     OW58310   3.567  12.659   6.690
19429SOL    HW158311   3.474  12.634   6.663
19429SOL    HW258312   3.593  12.609   6.772
19430SOL     OW58313   2.179  11.719   6.866
19430SOL    HW158314   2.217  11.660   6.938
19430SOL    HW258315   2.219  11.693   6.778
19431SOL     OW58316   3.286  11.386   6.698
19431SOL    HW158317   3.338  11.321   6.753
19431SOL    HW258318   3.237  11.449   6.759
19432SOL     OW58319   2.863  11.206   6.740
19432SOL    HW158320   2.800  11.134   6.709
19432SOL    HW258321   2.956  11.170   6.740
19433SOL     OW58322   2.632  12.502   5.887
19433SOL    HW158323   2.586  12.415   5.904
19433SOL    HW258324   2.723  12.499   5.928
19434SOL     OW58325   2.480  12.739   6.870
19434SOL    HW158326   2.475  12.821   6.927
19434SOL    HW258327   2.569  12.736   6.825
19435SOL     OW58328   3.214  11.224   5.754
19435SOL    HW158329   3.249  11.183   5.670
19435SOL    HW258330   3.124  11.186   5.774
19436SOL     OW58331   3.162  11.625   6.277
19436SOL    HW158332   3.103  11.705   6.281
19436SOL    HW258333   3.177  11.590   6.370
19437SOL     OW58334   3.455  11.393   6.468
19437SOL    HW158335   3.371  11.392   6.522
19437SOL    HW258336   3.457  11.476   6.412
19438SOL     OW58337   1.901  12.249   5.886
19438SOL    HW158338   2.000  12.238   5.877
19438SOL    HW258339   1.861  12.163   5.918
19439SOL     OW58340   2.092  11.800   7.561
19439SOL    HW158341   1.999  11.798   7.598
19439SOL    HW258342   2.093  11.761   7.469
19440SOL     OW58343   2.087  11.447   8.444
19440SOL    HW158344   2.122  11.430   8.536
19440SOL    HW258345   1.999  11.402   8.432
19441SOL     OW58346   1.881  11.540   8.095
19441SOL    HW158347   1.799  11.583   8.134
19441SOL    HW258348   1.853  11.467   8.032
19442SOL     OW58349   2.431  12.447   8.613
19442SOL    HW158350   2.338  12.440   8.576
19442SOL    HW258351   2.442  12.536   8.657
19443SOL     OW58352   3.417  12.683   8.151
19443SOL    HW158353   3.360  12.667   8.232
19443SOL    HW258354   3.358  12.693   8.071
19444SOL     OW58355   2.997  11.875   8.165
19444SOL    HW158356   3.054  11.953   8.140
19444SOL    HW258357   2.937  11.901   8.241
19445SOL     OW58358   3.617  11.779   7.679
19445SOL    HW158359   3.605  11.766   7.580
19445SOL    HW258360   3.587  11.698   7.728
19446SOL     OW58361   2.630  12.316   8.471
19446SOL    HW158362   2.552  12.333   8.531
19446SOL    HW258363   2.664  12.403   8.435
19447SOL     OW58364   2.712  11.970   9.271
19447SOL    HW158365   2.708  12.046   9.336
19447SOL    HW258366   2.734  12.006   9.180
19448SOL     OW58367   2.547  12.184   8.113
19448SOL    HW158368   2.616  12.168   8.183
19448SOL    HW258369   2.474  12.241   8.151
19449SOL     OW58370   2.548  12.333   9.251
19449SOL    HW158371   2.608  12.412   9.265
19449SOL    HW258372   2.462  12.364   9.210
19450SOL     OW58373   2.197  12.607   8.509
19450SOL    HW158374   2.119  12.576   8.456
19450SOL    HW258375   2.255  12.665   8.452
19451SOL     OW58376   3.322  12.677   8.787
19451SOL    HW158377   3.346  12.771   8.813
19451SOL    HW258378   3.306  12.623   8.869
19452SOL     OW58379   2.300  11.564   8.947
19452SOL    HW158380   2.382  11.508   8.956
19452SOL    HW258381   2.219  11.506   8.951
19453SOL     OW58382   3.465  11.619   8.185
19453SOL    HW158383   3.391  11.665   8.135
19453SOL    HW258384   3.516  11.687   8.238
19454SOL     OW58385   2.989  12.513   9.138
19454SOL    HW158386   3.036  12.513   9.226
19454SOL    HW258387   2.941  12.426   9.127
19455SOL     OW58388   2.092  12.606   7.986
19455SOL    HW158389   2.066  12.702   7.986
19455SOL    HW258390   2.021  12.552   8.031
19456SOL     OW58391   2.102  12.263   8.334
19456SOL    HW158392   2.116  12.179   8.386
19456SOL    HW258393   2.047  12.327   8.389
19457SOL     OW58394   2.468  12.136   7.571
19457SOL    HW158395   2.475  12.220   7.517
19457SOL    HW258396   2.514  12.149   7.659
19458SOL     OW58397   3.456  11.286   8.928
19458SOL    HW158398   3.438  11.353   8.856
19458SOL    HW258399   3.453  11.332   9.017
19459SOL     OW58400   1.984  11.815   8.011
19459SOL    HW158401   1.939  11.727   8.028
19459SOL    HW258402   1.983  11.869   8.095
19460SOL     OW58403   1.889  12.768   7.565
19460SOL    HW158404   1.870  12.672   7.586
19460SOL    HW258405   1.856  12.826   7.640
19461SOL     OW58406   3.551  12.094   8.060
19461SOL    HW158407   3.646  12.065   8.068
19461SOL    HW258408   3.543  12.159   7.985
19462SOL     OW58409   3.503  12.280   7.880
19462SOL    HW158410   3.589  12.282   7.828
19462SOL    HW258411   3.517  12.327   7.968
19463SOL     OW58412   1.975  11.909   9.045
19463SOL    HW158413   2.063  11.896   9.090
19463SOL    HW258414   1.962  12.006   9.023
19464SOL     OW58415   2.475  12.537   8.174
19464SOL    HW158416   2.426  12.450   8.183
19464SOL    HW258417   2.452  12.580   8.087
19465SOL     OW58418   3.155  12.400   8.871
19465SOL    HW158419   3.192  12.327   8.813
19465SOL    HW258420   3.207  12.405   8.956
19466SOL     OW58421   2.671  11.176   7.950
19466SOL    HW158422   2.711  11.267   7.941
19466SOL    HW258423   2.571  11.184   7.956
19467SOL     OW58424   2.059  12.148   8.712
19467SOL    HW158425   2.148  12.103   8.698
19467SOL    HW258426   1.986  12.083   8.693
19468SOL     OW58427   3.387  12.171   7.638
19468SOL    HW158428   3.324  12.095   7.651
19468SOL    HW258429   3.435  12.189   7.724
19469SOL     OW58430   2.179  11.423   9.249
19469SOL    HW158431   2.250  11.494   9.255
19469SOL    HW258432   2.091  11.462   9.277
19470SOL     OW58433   3.328  12.589   8.401
19470SOL    HW158434   3.269  12.595   8.481
19470SOL    HW258435   3.313  12.501   8.355
19471SOL     OW58436   2.460  11.901   7.718
19471SOL    HW158437   2.484  11.970   7.650
19471SOL    HW258438   2.382  11.934   7.772
19472SOL     OW58439   3.143  11.517   8.392
19472SOL    HW158440   3.057  11.467   8.379
19472SOL    HW258441   3.205  11.463   8.448
19473SOL     OW58442   3.438  12.834   7.755
19473SOL    HW158443   3.527  12.880   7.758
19473SOL    HW258444   3.417  12.810   7.660
19474SOL     OW58445   2.669  11.777   8.913
19474SOL    HW158446   2.622  11.774   9.002
19474SOL    HW258447   2.618  11.722   8.847
19475SOL     OW58448   3.256  11.641   9.122
19475SOL    HW158449   3.236  11.684   9.210
19475SOL    HW258450   3.334  11.579   9.131
19476SOL     OW58451   2.835  12.062   9.020
19476SOL    HW158452   2.881  11.978   8.991
19476SOL    HW258453   2.779  12.096   8.945
19477SOL     OW58454   2.853  11.582   8.690
19477SOL    HW158455   2.776  11.616   8.744
19477SOL    HW258456   2.819  11.531   8.611
19478SOL     OW58457   2.903  11.873   7.877
19478SOL    HW158458   2.929  11.869   7.973
19478SOL    HW258459   2.818  11.822   7.863
19479SOL     OW58460   1.938  11.983   8.237
19479SOL    HW158461   2.037  11.971   8.246
19479SOL    HW258462   1.914  12.078   8.258
19480SOL     OW58463   2.727  11.520   7.643
19480SOL    HW158464   2.786  11.583   7.594
19480SOL    HW258465   2.746  11.426   7.614
19481SOL     OW58466   3.581  11.757   9.279
19481SOL    HW158467   3.555  11.846   9.243
19481SOL    HW258468   3.579  11.689   9.206
19482SOL     OW58469   3.224  12.316   7.993
19482SOL    HW158470   3.307  12.287   7.945
19482SOL    HW258471   3.175  12.383   7.937
19483SOL     OW58472   2.412  11.368   8.333
19483SOL    HW158473   2.407  11.363   8.433
19483SOL    HW258474   2.414  11.464   8.304
19484SOL     OW58475   2.870  12.628   7.925
19484SOL    HW158476   2.824  12.700   7.873
19484SOL    HW258477   2.866  12.648   8.023
19485SOL     OW58478   3.657  12.238   8.321
19485SOL    HW158479   3.595  12.223   8.245
19485SOL    HW258480   3.605  12.249   8.406
19486SOL     OW58481   3.089  12.722   8.954
19486SOL    HW158482   3.095  12.645   9.018
19486SOL    HW258483   3.037  12.696   8.874
19487SOL     OW58484   2.183  12.115   7.690
19487SOL    HW158485   2.265  12.154   7.648
19487SOL    HW258486   2.156  12.033   7.641
19488SOL     OW58487   3.320  11.907   8.176
19488SOL    HW158488   3.315  11.842   8.251
19488SOL    HW258489   3.400  11.966   8.189
19489SOL     OW58490   2.323  12.438   9.175
19489SOL    HW158491   2.273  12.439   9.089
19489SOL    HW258492   2.260  12.420   9.251
19490SOL     OW58493   2.064  11.457   8.946
19490SOL    HW158494   1.984  11.517   8.933
19490SOL    HW258495   2.054  11.408   9.032
19491SOL     OW58496   3.494  12.549   7.529
19491SOL    HW158497   3.462  12.643   7.519
19491SOL    HW258498   3.418  12.486   7.517
19492SOL     OW58499   3.262  11.279   7.874
19492SOL    HW158500   3.238  11.242   7.784
19492SOL    HW258501   3.361  11.295   7.878
19493SOL     OW58502   2.244  11.872   7.928
19493SOL    HW158503   2.289  11.782   7.925
19493SOL    HW258504   2.150  11.861   7.961
19494SOL     OW58505   3.409  11.394   9.177
19494SOL    HW158506   3.404  11.431   9.269
19494SOL    HW258507   3.337  11.325   9.165
19495SOL     OW58508   2.476  11.294   7.565
19495SOL    HW158509   2.574  11.272   7.572
19495SOL    HW258510   2.445  11.277   7.472
19496SOL     OW58511   2.643  11.436   9.197
19496SOL    HW158512   2.710  11.375   9.240
19496SOL    HW258513   2.570  11.455   9.262
19497SOL     OW58514   3.213  11.762   8.881
19497SOL    HW158515   3.241  11.719   8.966
19497SOL    HW258516   3.238  11.858   8.882
19498SOL     OW58517   2.665  12.574   8.372
19498SOL    HW158518   2.755  12.588   8.330
19498SOL    HW258519   2.594  12.576   8.301
19499SOL     OW58520   2.784  11.675   8.347
19499SOL    HW158521   2.759  11.666   8.251
19499SOL    HW258522   2.832  11.593   8.378
19500SOL     OW58523   2.401  11.236   7.960
19500SOL    HW158524   2.320  11.237   8.018
19500SOL    HW258525   2.404  11.319   7.905
19501SOL     OW58526   3.296  12.360   7.489
19501SOL    HW158527   3.328  12.284   7.546
19501SOL    HW258528   3.204  12.387   7.519
19502SOL     OW58529   2.159  11.207   7.619
19502SOL    HW158530   2.208  11.291   7.598
19502SOL    HW258531   2.221  11.142   7.664
19503SOL     OW58532   2.797  11.408   7.928
19503SOL    HW158533   2.749  11.449   7.850
19503SOL    HW258534   2.896  11.406   7.909
19504SOL     OW58535   2.938  11.855   8.912
19504SOL    HW158536   2.858  11.794   8.915
19504SOL    HW258537   3.019  11.802   8.888
19505SOL     OW58538   3.089  12.742   8.241
19505SOL    HW158539   3.110  12.816   8.176
19505SOL    HW258540   3.157  12.742   8.314
19506SOL     OW58541   2.321  12.324   8.189
19506SOL    HW158542   2.250  12.297   8.254
19506SOL    HW258543   2.295  12.296   8.096
19507SOL     OW58544   2.894  11.721   7.464
19507SOL    HW158545   2.853  11.803   7.425
19507SOL    HW258546   2.958  11.747   7.537
19508SOL     OW58547   1.940  11.728   8.834
19508SOL    HW158548   2.032  11.727   8.793
19508SOL    HW258549   1.934  11.802   8.901
19509SOL     OW58550   2.423  11.394   8.595
19509SOL    HW158551   2.461  11.310   8.632
19509SOL    HW258552   2.335  11.413   8.639
19510SOL     OW58553   2.728  11.626   8.090
19510SOL    HW158554   2.696  11.698   8.028
19510SOL    HW258555   2.752  11.545   8.037
19511SOL     OW58556   2.879  11.211   8.201
19511SOL    HW158557   2.807  11.216   8.132
19511SOL    HW258558   2.855  11.142   8.270
19512SOL     OW58559   3.291  12.345   8.315
19512SOL    HW158560   3.236  12.261   8.308
19512SOL    HW258561   3.317  12.374   8.223
19513SOL     OW58562   3.328  11.762   8.440
19513SOL    HW158563   3.298  11.667   8.447
19513SOL    HW258564   3.401  11.778   8.506
19514SOL     OW58565   3.719  12.005   7.825
19514SOL    HW158566   3.761  11.941   7.889
19514SOL    HW258567   3.681  11.954   7.747
19515SOL     OW58568   2.350  12.557   7.622
19515SOL    HW158569   2.263  12.542   7.669
19515SOL    HW258570   2.333  12.583   7.527
19516SOL     OW58571   3.526  12.452   8.105
19516SOL    HW158572   3.625  12.460   8.119
19516SOL    HW258573   3.481  12.536   8.136
19517SOL     OW58574   3.252  11.747   7.526
19517SOL    HW158575   3.198  11.726   7.607
19517SOL    HW258576   3.343  11.706   7.535
19518SOL     OW58577   2.389  11.428   7.776
19518SOL    HW158578   2.416  11.369   7.701
19518SOL    HW258579   2.389  11.523   7.745
19519SOL     OW58580   3.616  12.395   9.036
19519SOL    HW158581   3.707  12.356   9.023
19519SOL    HW258582   3.624  12.491   9.060
19520SOL     OW58583   2.926  12.519   8.788
19520SOL    HW158584   2.846  12.496   8.843
19520SOL    HW258585   3.009  12.493   8.837
19521SOL     OW58586   2.973  12.367   8.548
19521SOL    HW158587   2.933  12.411   8.629
19521SOL    HW258588   2.932  12.404   8.465
19522SOL     OW58589   3.500  12.271   8.527
19522SOL    HW158590   3.505  12.352   8.586
19522SOL    HW258591   3.414  12.273   8.476
19523SOL     OW58592   2.777  11.261   8.850
19523SOL    HW158593   2.802  11.241   8.755
19523SOL    HW258594   2.849  11.317   8.892
19524SOL     OW58595   2.842  12.288   9.167
19524SOL    HW158596   2.743  12.294   9.177
19524SOL    HW258597   2.865  12.208   9.111
19525SOL     OW58598   2.567  12.222   7.816
19525SOL    HW158599   2.553  12.229   7.915
19525SOL    HW258600   2.651  12.171   7.798
19526SOL     OW58601   2.272  11.985   8.699
19526SOL    HW158602   2.358  11.997   8.749
19526SOL    HW258603   2.230  11.898   8.726
19527SOL     OW58604   3.136  11.558   8.710
19527SOL    HW158605   3.157  11.632   8.774
19527SOL    HW258606   3.047  11.575   8.667
19528SOL     OW58607   1.926  12.736   8.779
19528SOL    HW158608   1.880  12.818   8.745
19528SOL    HW258609   2.024  12.755   8.788
19529SOL     OW58610   2.229  12.272   7.949
19529SOL    HW158611   2.222  12.355   7.893
19529SOL    HW258612   2.233  12.192   7.889
19530SOL     OW58613   2.428  11.709   8.313
19530SOL    HW158614   2.440  11.775   8.239
19530SOL    HW258615   2.474  11.743   8.396
19531SOL     OW58616   3.114  12.520   7.836
19531SOL    HW158617   3.164  12.597   7.876
19531SOL    HW258618   3.019  12.522   7.868
19532SOL     OW58619   3.134  12.617   8.590
19532SOL    HW158620   3.181  12.630   8.677
19532SOL    HW258621   3.068  12.543   8.599
19533SOL     OW58622   3.444  11.811   7.920
19533SOL    HW158623   3.413  11.872   7.993
19533SOL    HW258624   3.494  11.863   7.851
19534SOL     OW58625   2.216  12.682   8.777
19534SOL    HW158626   2.195  12.638   8.690
19534SOL    HW258627   2.313  12.708   8.780
19535SOL     OW58628   2.264  11.923   9.046
19535SOL    HW158629   2.332  11.978   8.999
19535SOL    HW258630   2.304  11.835   9.073
19536SOL     OW58631   3.449  11.951   9.118
19536SOL    HW158632   3.357  11.989   9.113
19536SOL    HW258633   3.509  11.998   9.053
19537SOL     OW58634   2.875  11.277   9.218
19537SOL    HW158635   2.881  11.362   9.166
19537SOL    HW258636   2.907  11.201   9.161
19538SOL     OW58637   2.366  11.222   9.188
19538SOL    HW158638   2.324  11.165   9.118
19538SOL    HW258639   2.300  11.291   9.220
19539SOL     OW58640   2.435  12.042   8.477
19539SOL    HW158641   2.479  12.131   8.468
19539SOL    HW258642   2.372  12.042   8.554
19540SOL     OW58643   3.222  12.034   8.493
19540SOL    HW158644   3.147  12.034   8.427
19540SOL    HW258645   3.259  11.942   8.502
19541SOL     OW58646   3.071  11.697   7.723
19541SOL    HW158647   3.084  11.613   7.777
19541SOL    HW258648   3.042  11.771   7.783
19542SOL     OW58649   2.169  11.385   8.679
19542SOL    HW158650   2.146  11.422   8.769
19542SOL    HW258651   2.139  11.290   8.673
19543SOL     OW58652   1.899  12.482   8.730
19543SOL    HW158653   1.952  12.433   8.798
19543SOL    HW258654   1.921  12.580   8.735
19544SOL     OW58655   2.594  11.806   8.512
19544SOL    HW158656   2.653  11.780   8.436
19544SOL    HW258657   2.566  11.902   8.501
19545SOL     OW58658   3.590  12.107   9.302
19545SOL    HW158659   3.544  12.100   9.213
19545SOL    HW258660   3.528  12.151   9.368
19546SOL     OW58661   2.169  11.235   8.066
19546SOL    HW158662   2.158  11.329   8.099
19546SOL    HW258663   2.164  11.172   8.143
19547SOL     OW58664   3.484  11.539   7.822
19547SOL    HW158665   3.486  11.463   7.886
19547SOL    HW258666   3.436  11.616   7.862
19548SOL     OW58667   2.885  11.938   8.414
19548SOL    HW158668   2.900  11.959   8.510
19548SOL    HW258669   2.855  11.843   8.405
19549SOL     OW58670   3.721  12.690   9.053
19549SOL    HW158671   3.735  12.717   8.958
19549SOL    HW258672   3.804  12.712   9.106
19550SOL     OW58673   2.212  12.070   9.252
19550SOL    HW158674   2.288  12.114   9.300
19550SOL    HW258675   2.247  12.023   9.170
19551SOL     OW58676   3.402  11.446   7.573
19551SOL    HW158677   3.341  11.371   7.596
19551SOL    HW258678   3.424  11.498   7.656
19552SOL     OW58679   3.165  12.010   7.490
19552SOL    HW158680   3.199  11.917   7.505
19552SOL    HW258681   3.183  12.037   7.395
19553SOL     OW58682   2.930  12.505   8.297
19553SOL    HW158683   2.937  12.421   8.242
19553SOL    HW258684   2.992  12.574   8.261
19554SOL     OW58685   2.181  11.982   8.397
19554SOL    HW158686   2.274  12.018   8.402
19554SOL    HW258687   2.175  11.897   8.449
19555SOL     OW58688   2.201  11.681   8.454
19555SOL    HW158689   2.149  11.598   8.437
19555SOL    HW258690   2.278  11.686   8.390
19556SOL     OW58691   3.000  11.552   9.126
19556SOL    HW158692   2.955  11.615   9.190
19556SOL    HW258693   3.093  11.583   9.109
19557SOL     OW58694   3.022  11.379   8.925
19557SOL    HW158695   3.022  11.443   9.002
19557SOL    HW258696   3.050  11.427   8.842
19558SOL     OW58697   1.870  12.498   7.648
19558SOL    HW158698   1.777  12.519   7.617
19558SOL    HW258699   1.880  12.399   7.661
19559SOL     OW58700   2.366  12.740   8.358
19559SOL    HW158701   2.432  12.814   8.367
19559SOL    HW258702   2.410  12.661   8.316
19560SOL     OW58703   2.864  11.968   8.686
19560SOL    HW158704   2.905  11.936   8.772
19560SOL    HW258705   2.768  11.941   8.683
19561SOL     OW58706   1.902  11.716   8.562
19561SOL    HW158707   1.987  11.683   8.521
19561SOL    HW258708   1.915  11.731   8.660
19562SOL     OW58709   2.051  11.692   9.170
19562SOL    HW158710   2.110  11.652   9.100
19562SOL    HW258711   1.993  11.763   9.129
19563SOL     OW58712   3.231  12.122   9.108
19563SOL    HW158713   3.270  12.211   9.128
19563SOL    HW258714   3.241  12.102   9.011
19564SOL     OW58715   2.677  11.744   7.773
19564SOL    HW158716   2.684  11.655   7.727
19564SOL    HW258717   2.583  11.778   7.765
19565SOL     OW58718   3.519  11.776   8.654
19565SOL    HW158719   3.481  11.707   8.716
19565SOL    HW258720   3.601  11.740   8.610
19566SOL     OW58721   2.114  12.736   9.192
19566SOL    HW158722   2.084  12.793   9.268
19566SOL    HW258723   2.107  12.639   9.218
19567SOL     OW58724   2.533  11.636   8.717
19567SOL    HW158725   2.499  11.547   8.687
19567SOL    HW258726   2.559  11.690   8.637
19568SOL     OW58727   2.335  11.672   7.639
19568SOL    HW158728   2.396  11.752   7.643
19568SOL    HW258729   2.240  11.703   7.646
19569SOL     OW58730   2.021  12.309   8.914
19569SOL    HW158731   2.043  12.248   8.990
19569SOL    HW258732   2.031  12.260   8.828
19570SOL     OW58733   3.209  12.231   8.682
19570SOL    HW158734   3.233  12.168   8.608
19570SOL    HW258735   3.119  12.271   8.664
19571SOL     OW58736   3.164  12.027   7.757
19571SOL    HW158737   3.078  11.996   7.799
19571SOL    HW258738   3.160  12.013   7.658
19572SOL     OW58739   3.114  12.903   8.576
19572SOL    HW158740   3.198  12.908   8.522
19572SOL    HW258741   3.091  12.807   8.594
19573SOL     OW58742   1.945  12.430   8.470
19573SOL    HW158743   1.940  12.429   8.570
19573SOL    HW258744   1.862  12.389   8.432
19574SOL     OW58745   3.588  11.307   7.971
19574SOL    HW158746   3.661  11.290   7.904
19574SOL    HW258747   3.557  11.220   8.009
19575SOL     OW58748   1.992  12.966   9.299
19575SOL    HW158749   1.951  12.892   9.352
19575SOL    HW258750   2.056  13.017   9.357
19576SOL     OW58751   3.142  12.099   8.120
19576SOL    HW158752   3.202  12.018   8.122
19576SOL    HW258753   3.182  12.168   8.060
19577SOL     OW58754   2.692  12.445   8.870
19577SOL    HW158755   2.687  12.478   8.965
19577SOL    HW258756   2.606  12.464   8.824
19578SOL     OW58757   2.534  12.788   7.602
19578SOL    HW158758   2.543  12.798   7.503
19578SOL    HW258759   2.494  12.699   7.623
19579SOL     OW58760   3.703  11.347   8.411
19579SOL    HW158761   3.742  11.262   8.375
19579SOL    HW258762   3.605  11.349   8.392
19580SOL     OW58763   2.125  11.498   8.168
19580SOL    HW158764   2.046  11.549   8.134
19580SOL    HW258765   2.116  11.483   8.266
19581SOL     OW58766   3.056  12.784   7.479
19581SOL    HW158767   3.062  12.691   7.516
19581SOL    HW258768   2.997  12.784   7.399
19582SOL     OW58769   2.684  12.174   8.820
19582SOL    HW158770   2.724  12.173   8.728
19582SOL    HW258771   2.694  12.266   8.860
19583SOL     OW58772   2.778  12.082   7.739
19583SOL    HW158773   2.841  12.120   7.671
19583SOL    HW258774   2.818  11.999   7.778
19584SOL     OW58775   2.234  12.460   8.938
19584SOL    HW158776   2.221  12.553   8.904
19584SOL    HW258777   2.150  12.408   8.925
19585SOL     OW58778   3.476  12.464   8.737
19585SOL    HW158779   3.536  12.467   8.817
19585SOL    HW258780   3.401  12.528   8.750
19586SOL     OW58781   2.901  12.270   8.144
19586SOL    HW158782   2.831  12.223   8.198
19586SOL    HW258783   2.960  12.202   8.101
19587SOL     OW58784   2.876  11.408   8.419
19587SOL    HW158785   2.868  11.372   8.326
19587SOL    HW258786   2.874  11.332   8.484
19588SOL     OW58787   2.452  12.659   7.939
19588SOL    HW158788   2.494  12.601   7.869
19588SOL    HW258789   2.408  12.738   7.895
19589SOL     OW58790   3.571  11.557   8.829
19589SOL    HW158791   3.644  11.626   8.833
19589SOL    HW258792   3.599  11.482   8.770
19590SOL     OW58793   2.117  12.520   7.738
19590SOL    HW158794   2.021  12.521   7.711
19590SOL    HW258795   2.129  12.573   7.822
19591SOL     OW58796   1.967  12.185   9.174
19591SOL    HW158797   1.890  12.152   9.228
19591SOL    HW258798   2.052  12.155   9.216
19592SOL     OW58799   2.534  11.375   8.937
19592SOL    HW158800   2.624  11.359   8.897
19592SOL    HW258801   2.542  11.380   9.036
19593SOL     OW58802   1.937  11.517   7.481
19593SOL    HW158803   1.845  11.489   7.452
19593SOL    HW258804   1.968  11.594   7.425
19594SOL     OW58805   3.302  12.028   8.846
19594SOL    HW158806   3.245  12.080   8.783
19594SOL    HW258807   3.398  12.040   8.822
19595SOL     OW58808   1.934  11.338   7.766
19595SOL    HW158809   1.917  11.421   7.712
19595SOL    HW258810   2.024  11.301   7.744
19596SOL     OW58811   3.045  12.507   7.567
19596SOL    HW158812   2.946  12.496   7.569
19596SOL    HW258813   3.079  12.522   7.660
19597SOL     OW58814   2.475  12.014   8.879
19597SOL    HW158815   2.531  12.095   8.862
19597SOL    HW258816   2.534  11.934   8.882
19598SOL     OW58817   2.578  11.737   9.156
19598SOL    HW158818   2.597  11.802   9.230
19598SOL    HW258819   2.638  11.657   9.165
19599SOL     OW58820   3.312  12.392   9.081
19599SOL    HW158821   3.303  12.382   9.180
19599SOL    HW258822   3.408  12.385   9.055
19600SOL     OW58823   3.536  12.055   8.702
19600SOL    HW158824   3.509  11.966   8.665
19600SOL    HW258825   3.537  12.123   8.629
19601SOL     OW58826   3.087  11.497   7.897
19601SOL    HW158827   3.152  11.423   7.886
19601SOL    HW258828   3.107  11.547   7.981
19602SOL     OW58829   2.456  11.917   8.100
19602SOL    HW158830   2.506  12.002   8.081
19602SOL    HW258831   2.368  11.919   8.052
19603SOL     OW58832   3.639  11.514   9.090
19603SOL    HW158833   3.622  11.545   8.996
19603SOL    HW258834   3.555  11.477   9.128
19604SOL     OW58835   3.592  12.106   8.965
19604SOL    HW158836   3.630  12.197   8.980
19604SOL    HW258837   3.584  12.089   8.866
19605SOL     OW58838   2.721  12.546   7.464
19605SOL    HW158839   2.675  12.561   7.552
19605SOL    HW258840   2.765  12.631   7.434
19606SOL     OW58841   2.721  12.128   8.309
19606SOL    HW158842   2.775  12.059   8.357
19606SOL    HW258843   2.689  12.197   8.375
19607SOL     OW58844   2.945  12.156   7.535
19607SOL    HW158845   2.922  12.209   7.453
19607SOL    HW258846   3.026  12.100   7.516
19608SOL     OW58847   3.723  12.741   8.299
19608SOL    HW158848   3.652  12.729   8.229
19608SOL    HW258849   3.724  12.662   8.359
19609SOL     OW58850   2.083  12.486   9.292
19609SOL    HW158851   2.018  12.413   9.271
19609SOL    HW258852   2.087  12.500   9.390
19610SOL     OW58853   1.941  12.412   8.101
19610SOL    HW158854   1.940  12.365   8.189
19610SOL    HW258855   2.023  12.384   8.050
19611SOL     OW58856   2.534  12.563   9.072
19611SOL    HW158857   2.456  12.513   9.110
19611SOL    HW258858   2.531  12.658   9.103
19612SOL     OW58859   3.686  11.364   8.675
19612SOL    HW158860   3.682  11.274   8.719
19612SOL    HW258861   3.689  11.353   8.576
19613SOL     OW58862   2.290  11.596   7.968
19613SOL    HW158863   2.320  11.524   7.906
19613SOL    HW258864   2.251  11.556   8.051
19614SOL     OW58865   3.567  12.659   8.552
19614SOL    HW158866   3.474  12.634   8.525
19614SOL    HW258867   3.593  12.609   8.634
19615SOL     OW58868   2.179  11.719   8.728
19615SOL    HW158869   2.217  11.660   8.800
19615SOL    HW258870   2.219  11.693   8.640
19616SOL     OW58871   3.286  11.386   8.560
19616SOL    HW158872   3.338  11.321   8.615
19616SOL    HW258873   3.237  11.449   8.621
19617SOL     OW58874   2.863  11.206   8.602
19617SOL    HW158875   2.800  11.134   8.571
19617SOL    HW258876   2.956  11.170   8.602
19618SOL     OW58877   2.632  12.502   7.749
19618SOL    HW158878   2.586  12.415   7.766
19618SOL    HW258879   2.723  12.499   7.790
19619SOL     OW58880   2.480  12.739   8.732
19619SOL    HW158881   2.475  12.821   8.789
19619SOL    HW258882   2.569  12.736   8.687
19620SOL     OW58883   3.214  11.224   7.616
19620SOL    HW158884   3.249  11.183   7.532
19620SOL    HW258885   3.124  11.186   7.636
19621SOL     OW58886   3.162  11.625   8.139
19621SOL    HW158887   3.103  11.705   8.143
19621SOL    HW258888   3.177  11.590   8.232
19622SOL     OW58889   3.455  11.393   8.330
19622SOL    HW158890   3.371  11.392   8.384
19622SOL    HW258891   3.457  11.476   8.274
19623SOL     OW58892   1.901  12.249   7.748
19623SOL    HW158893   2.000  12.238   7.739
19623SOL    HW258894   1.861  12.163   7.780
19624SOL     OW58895   2.092  11.800   9.423
19624SOL    HW158896   1.999  11.798   9.460
19624SOL    HW258897   2.093  11.761   9.331
19625SOL     OW58898   2.087  11.447  10.306
19625SOL    HW158899   2.122  11.430  10.398
19625SOL    HW258900   1.999  11.402  10.294
19626SOL     OW58901   1.881  11.540   9.957
19626SOL    HW158902   1.799  11.583   9.996
19626SOL    HW258903   1.853  11.467   9.894
19627SOL     OW58904   2.431  12.447  10.475
19627SOL    HW158905   2.338  12.440  10.438
19627SOL    HW258906   2.442  12.536  10.519
19628SOL     OW58907   3.417  12.683  10.013
19628SOL    HW158908   3.360  12.667  10.094
19628SOL    HW258909   3.358  12.693   9.933
19629SOL     OW58910   2.997  11.875  10.027
19629SOL    HW158911   3.054  11.953  10.002
19629SOL    HW258912   2.937  11.901  10.103
19630SOL     OW58913   3.617  11.779   9.541
19630SOL    HW158914   3.605  11.766   9.442
19630SOL    HW258915   3.587  11.698   9.590
19631SOL     OW58916   2.630  12.316  10.333
19631SOL    HW158917   2.552  12.333  10.393
19631SOL    HW258918   2.664  12.403  10.297
19632SOL     OW58919   2.712  11.970  11.133
19632SOL    HW158920   2.708  12.046  11.198
19632SOL    HW258921   2.734  12.006  11.042
19633SOL     OW58922   2.547  12.184   9.975
19633SOL    HW158923   2.616  12.168  10.045
19633SOL    HW258924   2.474  12.241  10.013
19634SOL     OW58925   2.548  12.333  11.113
19634SOL    HW158926   2.608  12.412  11.127
19634SOL    HW258927   2.462  12.364  11.072
19635SOL     OW58928   2.197  12.607  10.371
19635SOL    HW158929   2.119  12.576  10.318
19635SOL    HW258930   2.255  12.665  10.314
19636SOL     OW58931   3.322  12.677  10.649
19636SOL    HW158932   3.346  12.771  10.675
19636SOL    HW258933   3.306  12.623  10.731
19637SOL     OW58934   2.300  11.564  10.809
19637SOL    HW158935   2.382  11.508  10.818
19637SOL    HW258936   2.219  11.506  10.813
19638SOL     OW58937   3.465  11.619  10.047
19638SOL    HW158938   3.391  11.665   9.997
19638SOL    HW258939   3.516  11.687  10.100
19639SOL     OW58940   2.989  12.513  11.000
19639SOL    HW158941   3.036  12.513  11.088
19639SOL    HW258942   2.941  12.426  10.989
19640SOL     OW58943   2.092  12.606   9.848
19640SOL    HW158944   2.066  12.702   9.848
19640SOL    HW258945   2.021  12.552   9.893
19641SOL     OW58946   2.102  12.263  10.196
19641SOL    HW158947   2.116  12.179  10.248
19641SOL    HW258948   2.047  12.327  10.251
19642SOL     OW58949   2.468  12.136   9.433
19642SOL    HW158950   2.475  12.220   9.379
19642SOL    HW258951   2.514  12.149   9.521
19643SOL     OW58952   3.456  11.286  10.790
19643SOL    HW158953   3.438  11.353  10.718
19643SOL    HW258954   3.453  11.332  10.879
19644SOL     OW58955   1.984  11.815   9.873
19644SOL    HW158956   1.939  11.727   9.890
19644SOL    HW258957   1.983  11.869   9.957
19645SOL     OW58958   1.889  12.768   9.427
19645SOL    HW158959   1.870  12.672   9.448
19645SOL    HW258960   1.856  12.826   9.502
19646SOL     OW58961   3.551  12.094   9.922
19646SOL    HW158962   3.646  12.065   9.930
19646SOL    HW258963   3.543  12.159   9.847
19647SOL     OW58964   3.503  12.280   9.742
19647SOL    HW158965   3.589  12.282   9.690
19647SOL    HW258966   3.517  12.327   9.830
19648SOL     OW58967   1.975  11.909  10.907
19648SOL    HW158968   2.063  11.896  10.952
19648SOL    HW258969   1.962  12.006  10.885
19649SOL     OW58970   2.475  12.537  10.036
19649SOL    HW158971   2.426  12.450  10.045
19649SOL    HW258972   2.452  12.580   9.949
19650SOL     OW58973   3.155  12.400  10.733
19650SOL    HW158974   3.192  12.327  10.675
19650SOL    HW258975   3.207  12.405  10.818
19651SOL     OW58976   2.671  11.176   9.812
19651SOL    HW158977   2.711  11.267   9.803
19651SOL    HW258978   2.571  11.184   9.818
19652SOL     OW58979   2.059  12.148  10.574
19652SOL    HW158980   2.148  12.103  10.560
19652SOL    HW258981   1.986  12.083  10.555
19653SOL     OW58982   3.387  12.171   9.500
19653SOL    HW158983   3.324  12.095   9.513
19653SOL    HW258984   3.435  12.189   9.586
19654SOL     OW58985   2.179  11.423  11.111
19654SOL    HW158986   2.250  11.494  11.117
19654SOL    HW258987   2.091  11.462  11.139
19655SOL     OW58988   3.328  12.589  10.263
19655SOL    HW158989   3.269  12.595  10.343
19655SOL    HW258990   3.313  12.501  10.217
19656SOL     OW58991   2.460  11.901   9.580
19656SOL    HW158992   2.484  11.970   9.512
19656SOL    HW258993   2.382  11.934   9.634
19657SOL     OW58994   3.143  11.517  10.254
19657SOL    HW158995   3.057  11.467  10.241
19657SOL    HW258996   3.205  11.463  10.310
19658SOL     OW58997   3.438  12.834   9.617
19658SOL    HW158998   3.527  12.880   9.620
19658SOL    HW258999   3.417  12.810   9.522
19659SOL     OW59000   2.669  11.777  10.775
19659SOL    HW159001   2.622  11.774  10.864
19659SOL    HW259002   2.618  11.722  10.709
19660SOL     OW59003   3.256  11.641  10.984
19660SOL    HW159004   3.236  11.684  11.072
19660SOL    HW259005   3.334  11.579  10.993
19661SOL     OW59006   2.835  12.062  10.882
19661SOL    HW159007   2.881  11.978  10.853
19661SOL    HW259008   2.779  12.096  10.807
19662SOL     OW59009   2.853  11.582  10.552
19662SOL    HW159010   2.776  11.616  10.606
19662SOL    HW259011   2.819  11.531  10.473
19663SOL     OW59012   2.903  11.873   9.739
19663SOL    HW159013   2.929  11.869   9.835
19663SOL    HW259014   2.818  11.822   9.725
19664SOL     OW59015   1.938  11.983  10.099
19664SOL    HW159016   2.037  11.971  10.108
19664SOL    HW259017   1.914  12.078  10.120
19665SOL     OW59018   2.727  11.520   9.505
19665SOL    HW159019   2.786  11.583   9.456
19665SOL    HW259020   2.746  11.426   9.476
19666SOL     OW59021   3.581  11.757  11.141
19666SOL    HW159022   3.555  11.846  11.105
19666SOL    HW259023   3.579  11.689  11.068
19667SOL     OW59024   3.224  12.316   9.855
19667SOL    HW159025   3.307  12.287   9.807
19667SOL    HW259026   3.175  12.383   9.799
19668SOL     OW59027   2.412  11.368  10.195
19668SOL    HW159028   2.407  11.363  10.295
19668SOL    HW259029   2.414  11.464  10.166
19669SOL     OW59030   2.870  12.628   9.787
19669SOL    HW159031   2.824  12.700   9.735
19669SOL    HW259032   2.866  12.648   9.885
19670SOL     OW59033   3.657  12.238  10.183
19670SOL    HW159034   3.595  12.223  10.107
19670SOL    HW259035   3.605  12.249  10.268
19671SOL     OW59036   3.089  12.722  10.816
19671SOL    HW159037   3.095  12.645  10.880
19671SOL    HW259038   3.037  12.696  10.736
19672SOL     OW59039   2.183  12.115   9.552
19672SOL    HW159040   2.265  12.154   9.510
19672SOL    HW259041   2.156  12.033   9.503
19673SOL     OW59042   3.320  11.907  10.038
19673SOL    HW159043   3.315  11.842  10.113
19673SOL    HW259044   3.400  11.966  10.051
19674SOL     OW59045   2.323  12.438  11.037
19674SOL    HW159046   2.273  12.439  10.951
19674SOL    HW259047   2.260  12.420  11.113
19675SOL     OW59048   2.064  11.457  10.808
19675SOL    HW159049   1.984  11.517  10.795
19675SOL    HW259050   2.054  11.408  10.894
19676SOL     OW59051   3.494  12.549   9.391
19676SOL    HW159052   3.462  12.643   9.381
19676SOL    HW259053   3.418  12.486   9.379
19677SOL     OW59054   3.262  11.279   9.736
19677SOL    HW159055   3.238  11.242   9.646
19677SOL    HW259056   3.361  11.295   9.740
19678SOL     OW59057   2.244  11.872   9.790
19678SOL    HW159058   2.289  11.782   9.787
19678SOL    HW259059   2.150  11.861   9.823
19679SOL     OW59060   3.409  11.394  11.039
19679SOL    HW159061   3.404  11.431  11.131
19679SOL    HW259062   3.337  11.325  11.027
19680SOL     OW59063   2.476  11.294   9.427
19680SOL    HW159064   2.574  11.272   9.434
19680SOL    HW259065   2.445  11.277   9.334
19681SOL     OW59066   2.643  11.436  11.059
19681SOL    HW159067   2.710  11.375  11.102
19681SOL    HW259068   2.570  11.455  11.124
19682SOL     OW59069   3.213  11.762  10.743
19682SOL    HW159070   3.241  11.719  10.828
19682SOL    HW259071   3.238  11.858  10.744
19683SOL     OW59072   2.665  12.574  10.234
19683SOL    HW159073   2.755  12.588  10.192
19683SOL    HW259074   2.594  12.576  10.163
19684SOL     OW59075   2.784  11.675  10.209
19684SOL    HW159076   2.759  11.666  10.113
19684SOL    HW259077   2.832  11.593  10.240
19685SOL     OW59078   2.401  11.236   9.822
19685SOL    HW159079   2.320  11.237   9.880
19685SOL    HW259080   2.404  11.319   9.767
19686SOL     OW59081   3.296  12.360   9.351
19686SOL    HW159082   3.328  12.284   9.408
19686SOL    HW259083   3.204  12.387   9.381
19687SOL     OW59084   2.159  11.207   9.481
19687SOL    HW159085   2.208  11.291   9.460
19687SOL    HW259086   2.221  11.142   9.526
19688SOL     OW59087   2.797  11.408   9.790
19688SOL    HW159088   2.749  11.449   9.712
19688SOL    HW259089   2.896  11.406   9.771
19689SOL     OW59090   2.938  11.855  10.774
19689SOL    HW159091   2.858  11.794  10.777
19689SOL    HW259092   3.019  11.802  10.750
19690SOL     OW59093   3.089  12.742  10.103
19690SOL    HW159094   3.110  12.816  10.038
19690SOL    HW259095   3.157  12.742  10.176
19691SOL     OW59096   2.321  12.324  10.051
19691SOL    HW159097   2.250  12.297  10.116
19691SOL    HW259098   2.295  12.296   9.958
19692SOL     OW59099   2.894  11.721   9.326
19692SOL    HW159100   2.853  11.803   9.287
19692SOL    HW259101   2.958  11.747   9.399
19693SOL     OW59102   1.940  11.728  10.696
19693SOL    HW159103   2.032  11.727  10.655
19693SOL    HW259104   1.934  11.802  10.763
19694SOL     OW59105   2.423  11.394  10.457
19694SOL    HW159106   2.461  11.310  10.494
19694SOL    HW259107   2.335  11.413  10.501
19695SOL     OW59108   2.728  11.626   9.952
19695SOL    HW159109   2.696  11.698   9.890
19695SOL    HW259110   2.752  11.545   9.899
19696SOL     OW59111   2.879  11.211  10.063
19696SOL    HW159112   2.807  11.216   9.994
19696SOL    HW259113   2.855  11.142  10.132
19697SOL     OW59114   3.291  12.345  10.177
19697SOL    HW159115   3.236  12.261  10.170
19697SOL    HW259116   3.317  12.374  10.085
19698SOL     OW59117   3.328  11.762  10.302
19698SOL    HW159118   3.298  11.667  10.309
19698SOL    HW259119   3.401  11.778  10.368
19699SOL     OW59120   3.719  12.005   9.687
19699SOL    HW159121   3.761  11.941   9.751
19699SOL    HW259122   3.681  11.954   9.609
19700SOL     OW59123   2.350  12.557   9.484
19700SOL    HW159124   2.263  12.542   9.531
19700SOL    HW259125   2.333  12.583   9.389
19701SOL     OW59126   3.526  12.452   9.967
19701SOL    HW159127   3.625  12.460   9.981
19701SOL    HW259128   3.481  12.536   9.998
19702SOL     OW59129   3.252  11.747   9.388
19702SOL    HW159130   3.198  11.726   9.469
19702SOL    HW259131   3.343  11.706   9.397
19703SOL     OW59132   2.389  11.428   9.638
19703SOL    HW159133   2.416  11.369   9.563
19703SOL    HW259134   2.389  11.523   9.607
19704SOL     OW59135   3.616  12.395  10.898
19704SOL    HW159136   3.707  12.356  10.885
19704SOL    HW259137   3.624  12.491  10.922
19705SOL     OW59138   2.926  12.519  10.650
19705SOL    HW159139   2.846  12.496  10.705
19705SOL    HW259140   3.009  12.493  10.699
19706SOL     OW59141   2.973  12.367  10.410
19706SOL    HW159142   2.933  12.411  10.491
19706SOL    HW259143   2.932  12.404  10.327
19707SOL     OW59144   3.500  12.271  10.389
19707SOL    HW159145   3.505  12.352  10.448
19707SOL    HW259146   3.414  12.273  10.338
19708SOL     OW59147   2.777  11.261  10.712
19708SOL    HW159148   2.802  11.241  10.617
19708SOL    HW259149   2.849  11.317  10.754
19709SOL     OW59150   2.842  12.288  11.029
19709SOL    HW159151   2.743  12.294  11.039
19709SOL    HW259152   2.865  12.208  10.973
19710SOL     OW59153   2.567  12.222   9.678
19710SOL    HW159154   2.553  12.229   9.777
19710SOL    HW259155   2.651  12.171   9.660
19711SOL     OW59156   2.272  11.985  10.561
19711SOL    HW159157   2.358  11.997  10.611
19711SOL    HW259158   2.230  11.898  10.588
19712SOL     OW59159   3.136  11.558  10.572
19712SOL    HW159160   3.157  11.632  10.636
19712SOL    HW259161   3.047  11.575  10.529
19713SOL     OW59162   1.926  12.736  10.641
19713SOL    HW159163   1.880  12.818  10.607
19713SOL    HW259164   2.024  12.755  10.650
19714SOL     OW59165   2.229  12.272   9.811
19714SOL    HW159166   2.222  12.355   9.755
19714SOL    HW259167   2.233  12.192   9.751
19715SOL     OW59168   2.428  11.709  10.175
19715SOL    HW159169   2.440  11.775  10.101
19715SOL    HW259170   2.474  11.743  10.258
19716SOL     OW59171   3.114  12.520   9.698
19716SOL    HW159172   3.164  12.597   9.738
19716SOL    HW259173   3.019  12.522   9.730
19717SOL     OW59174   3.134  12.617  10.452
19717SOL    HW159175   3.181  12.630  10.539
19717SOL    HW259176   3.068  12.543  10.461
19718SOL     OW59177   3.444  11.811   9.782
19718SOL    HW159178   3.413  11.872   9.855
19718SOL    HW259179   3.494  11.863   9.713
19719SOL     OW59180   2.216  12.682  10.639
19719SOL    HW159181   2.195  12.638  10.552
19719SOL    HW259182   2.313  12.708  10.642
19720SOL     OW59183   2.264  11.923  10.908
19720SOL    HW159184   2.332  11.978  10.861
19720SOL    HW259185   2.304  11.835  10.935
19721SOL     OW59186   3.449  11.951  10.980
19721SOL    HW159187   3.357  11.989  10.975
19721SOL    HW259188   3.509  11.998  10.915
19722SOL     OW59189   2.875  11.277  11.080
19722SOL    HW159190   2.881  11.362  11.028
19722SOL    HW259191   2.907  11.201  11.023
19723SOL     OW59192   2.366  11.222  11.050
19723SOL    HW159193   2.324  11.165  10.980
19723SOL    HW259194   2.300  11.291  11.082
19724SOL     OW59195   2.435  12.042  10.339
19724SOL    HW159196   2.479  12.131  10.330
19724SOL    HW259197   2.372  12.042  10.416
19725SOL     OW59198   3.222  12.034  10.355
19725SOL    HW159199   3.147  12.034  10.289
19725SOL    HW259200   3.259  11.942  10.364
19726SOL     OW59201   3.071  11.697   9.585
19726SOL    HW159202   3.084  11.613   9.639
19726SOL    HW259203   3.042  11.771   9.645
19727SOL     OW59204   2.169  11.385  10.541
19727SOL    HW159205   2.146  11.422  10.631
19727SOL    HW259206   2.139  11.290  10.535
19728SOL     OW59207   1.899  12.482  10.592
19728SOL    HW159208   1.952  12.433  10.660
19728SOL    HW259209   1.921  12.580  10.597
19729SOL     OW59210   2.594  11.806  10.374
19729SOL    HW159211   2.653  11.780  10.298
19729SOL    HW259212   2.566  11.902  10.363
19730SOL     OW59213   3.590  12.107  11.164
19730SOL    HW159214   3.544  12.100  11.075
19730SOL    HW259215   3.528  12.151  11.230
19731SOL     OW59216   2.169  11.235   9.928
19731SOL    HW159217   2.158  11.329   9.961
19731SOL    HW259218   2.164  11.172  10.005
19732SOL     OW59219   3.484  11.539   9.684
19732SOL    HW159220   3.486  11.463   9.748
19732SOL    HW259221   3.436  11.616   9.724
19733SOL     OW59222   2.885  11.938  10.276
19733SOL    HW159223   2.900  11.959  10.372
19733SOL    HW259224   2.855  11.843  10.267
19734SOL     OW59225   3.721  12.690  10.915
19734SOL    HW159226   3.735  12.717  10.820
19734SOL    HW259227   3.804  12.712  10.968
19735SOL     OW59228   2.212  12.070  11.114
19735SOL    HW159229   2.288  12.114  11.162
19735SOL    HW259230   2.247  12.023  11.032
19736SOL     OW59231   3.402  11.446   9.435
19736SOL    HW159232   3.341  11.371   9.458
19736SOL    HW259233   3.424  11.498   9.518
19737SOL     OW59234   3.165  12.010   9.352
19737SOL    HW159235   3.199  11.917   9.367
19737SOL    HW259236   3.183  12.037   9.257
19738SOL     OW59237   2.930  12.505  10.159
19738SOL    HW159238   2.937  12.421  10.104
19738SOL    HW259239   2.992  12.574  10.123
19739SOL     OW59240   2.181  11.982  10.259
19739SOL    HW159241   2.274  12.018  10.264
19739SOL    HW259242   2.175  11.897  10.311
19740SOL     OW59243   2.201  11.681  10.316
19740SOL    HW159244   2.149  11.598  10.299
19740SOL    HW259245   2.278  11.686  10.252
19741SOL     OW59246   3.000  11.552  10.988
19741SOL    HW159247   2.955  11.615  11.052
19741SOL    HW259248   3.093  11.583  10.971
19742SOL     OW59249   3.022  11.379  10.787
19742SOL    HW159250   3.022  11.443  10.864
19742SOL    HW259251   3.050  11.427  10.704
19743SOL     OW59252   1.870  12.498   9.510
19743SOL    HW159253   1.777  12.519   9.479
19743SOL    HW259254   1.880  12.399   9.523
19744SOL     OW59255   2.366  12.740  10.220
19744SOL    HW159256   2.432  12.814  10.229
19744SOL    HW259257   2.410  12.661  10.178
19745SOL     OW59258   2.864  11.968  10.548
19745SOL    HW159259   2.905  11.936  10.634
19745SOL    HW259260   2.768  11.941  10.545
19746SOL     OW59261   1.902  11.716  10.424
19746SOL    HW159262   1.987  11.683  10.383
19746SOL    HW259263   1.915  11.731  10.522
19747SOL     OW59264   2.051  11.692  11.032
19747SOL    HW159265   2.110  11.652  10.962
19747SOL    HW259266   1.993  11.763  10.991
19748SOL     OW59267   3.231  12.122  10.970
19748SOL    HW159268   3.270  12.211  10.990
19748SOL    HW259269   3.241  12.102  10.873
19749SOL     OW59270   2.677  11.744   9.635
19749SOL    HW159271   2.684  11.655   9.589
19749SOL    HW259272   2.583  11.778   9.627
19750SOL     OW59273   3.519  11.776  10.516
19750SOL    HW159274   3.481  11.707  10.578
19750SOL    HW259275   3.601  11.740  10.472
19751SOL     OW59276   2.114  12.736  11.054
19751SOL    HW159277   2.084  12.793  11.130
19751SOL    HW259278   2.107  12.639  11.080
19752SOL     OW59279   2.533  11.636  10.579
19752SOL    HW159280   2.499  11.547  10.549
19752SOL    HW259281   2.559  11.690  10.499
19753SOL     OW59282   2.335  11.672   9.501
19753SOL    HW159283   2.396  11.752   9.505
19753SOL    HW259284   2.240  11.703   9.508
19754SOL     OW59285   2.021  12.309  10.776
19754SOL    HW159286   2.043  12.248  10.852
19754SOL    HW259287   2.031  12.260  10.690
19755SOL     OW59288   3.209  12.231  10.544
19755SOL    HW159289   3.233  12.168  10.470
19755SOL    HW259290   3.119  12.271  10.526
19756SOL     OW59291   3.164  12.027   9.619
19756SOL    HW159292   3.078  11.996   9.661
19756SOL    HW259293   3.160  12.013   9.520
19757SOL     OW59294   3.114  12.903  10.438
19757SOL    HW159295   3.198  12.908  10.384
19757SOL    HW259296   3.091  12.807  10.456
19758SOL     OW59297   1.945  12.430  10.332
19758SOL    HW159298   1.940  12.429  10.432
19758SOL    HW259299   1.862  12.389  10.294
19759SOL     OW59300   3.588  11.307   9.833
19759SOL    HW159301   3.661  11.290   9.766
19759SOL    HW259302   3.557  11.220   9.871
19760SOL     OW59303   1.992  12.966  11.161
19760SOL    HW159304   1.951  12.892  11.214
19760SOL    HW259305   2.056  13.017  11.219
19761SOL     OW59306   3.142  12.099   9.982
19761SOL    HW159307   3.202  12.018   9.984
19761SOL    HW259308   3.182  12.168   9.922
19762SOL     OW59309   2.692  12.445  10.732
19762SOL    HW159310   2.687  12.478  10.827
19762SOL    HW259311   2.606  12.464  10.686
19763SOL     OW59312   2.534  12.788   9.464
19763SOL    HW159313   2.543  12.798   9.365
19763SOL    HW259314   2.494  12.699   9.485
19764SOL     OW59315   3.703  11.347  10.273
19764SOL    HW159316   3.742  11.262  10.237
19764SOL    HW259317   3.605  11.349  10.254
19765SOL     OW59318   2.125  11.498  10.030
19765SOL    HW159319   2.046  11.549   9.996
19765SOL    HW259320   2.116  11.483  10.128
19766SOL     OW59321   3.056  12.784   9.341
19766SOL    HW159322   3.062  12.691   9.378
19766SOL    HW259323   2.997  12.784   9.261
19767SOL     OW59324   2.684  12.174  10.682
19767SOL    HW159325   2.724  12.173  10.590
19767SOL    HW259326   2.694  12.266  10.722
19768SOL     OW59327   2.778  12.082   9.601
19768SOL    HW159328   2.841  12.120   9.533
19768SOL    HW259329   2.818  11.999   9.640
19769SOL     OW59330   2.234  12.460  10.800
19769SOL    HW159331   2.221  12.553  10.766
19769SOL    HW259332   2.150  12.408  10.787
19770SOL     OW59333   3.476  12.464  10.599
19770SOL    HW159334   3.536  12.467  10.679
19770SOL    HW259335   3.401  12.528  10.612
19771SOL     OW59336   2.901  12.270  10.006
19771SOL    HW159337   2.831  12.223  10.060
19771SOL    HW259338   2.960  12.202   9.963
19772SOL     OW59339   2.876  11.408  10.281
19772SOL    HW159340   2.868  11.372  10.188
19772SOL    HW259341   2.874  11.332  10.346
19773SOL     OW59342   2.452  12.659   9.801
19773SOL    HW159343   2.494  12.601   9.731
19773SOL    HW259344   2.408  12.738   9.757
19774SOL     OW59345   3.571  11.557  10.691
19774SOL    HW159346   3.644  11.626  10.695
19774SOL    HW259347   3.599  11.482  10.632
19775SOL     OW59348   2.117  12.520   9.600
19775SOL    HW159349   2.021  12.521   9.573
19775SOL    HW259350   2.129  12.573   9.684
19776SOL     OW59351   1.967  12.185  11.036
19776SOL    HW159352   1.890  12.152  11.090
19776SOL    HW259353   2.052  12.155  11.078
19777SOL     OW59354   2.534  11.375  10.799
19777SOL    HW159355   2.624  11.359  10.759
19777SOL    HW259356   2.542  11.380  10.898
19778SOL     OW59357   1.937  11.517   9.343
19778SOL    HW159358   1.845  11.489   9.314
19778SOL    HW259359   1.968  11.594   9.287
19779SOL     OW59360   3.302  12.028  10.708
19779SOL    HW159361   3.245  12.080  10.645
19779SOL    HW259362   3.398  12.040  10.684
19780SOL     OW59363   1.934  11.338   9.628
19780SOL    HW159364   1.917  11.421   9.574
19780SOL    HW259365   2.024  11.301   9.606
19781SOL     OW59366   2.475  12.014  10.741
19781SOL    HW159367   2.531  12.095  10.724
19781SOL    HW259368   2.534  11.934  10.744
19782SOL     OW59369   2.578  11.737  11.018
19782SOL    HW159370   2.597  11.802  11.092
19782SOL    HW259371   2.638  11.657  11.027
19783SOL     OW59372   3.312  12.392  10.943
19783SOL    HW159373   3.303  12.382  11.042
19783SOL    HW259374   3.408  12.385  10.917
19784SOL     OW59375   3.536  12.055  10.564
19784SOL    HW159376   3.509  11.966  10.527
19784SOL    HW259377   3.537  12.123  10.491
19785SOL     OW59378   3.087  11.497   9.759
19785SOL    HW159379   3.152  11.423   9.748
19785SOL    HW259380   3.107  11.547   9.843
19786SOL     OW59381   2.456  11.917   9.962
19786SOL    HW159382   2.506  12.002   9.943
19786SOL    HW259383   2.368  11.919   9.914
19787SOL     OW59384   3.639  11.514  10.952
19787SOL    HW159385   3.622  11.545  10.858
19787SOL    HW259386   3.555  11.477  10.990
19788SOL     OW59387   3.592  12.106  10.827
19788SOL    HW159388   3.630  12.197  10.842
19788SOL    HW259389   3.584  12.089  10.728
19789SOL     OW59390   2.721  12.546   9.326
19789SOL    HW159391   2.675  12.561   9.414
19789SOL    HW259392   2.765  12.631   9.296
19790SOL     OW59393   2.721  12.128  10.171
19790SOL    HW159394   2.775  12.059  10.219
19790SOL    HW259395   2.689  12.197  10.237
19791SOL     OW59396   2.945  12.156   9.397
19791SOL    HW159397   2.922  12.209   9.315
19791SOL    HW259398   3.026  12.100   9.378
19792SOL     OW59399   3.723  12.741  10.161
19792SOL    HW159400   3.652  12.729  10.091
19792SOL    HW259401   3.724  12.662  10.221
19793SOL     OW59402   2.083  12.486  11.154
19793SOL    HW159403   2.018  12.413  11.133
19793SOL    HW259404   2.087  12.500  11.252
19794SOL     OW59405   1.941  12.412   9.963
19794SOL    HW159406   1.940  12.365  10.051
19794SOL    HW259407   2.023  12.384   9.912
19795SOL     OW59408   2.534  12.563  10.934
19795SOL    HW159409   2.456  12.513  10.972
19795SOL    HW259410   2.531  12.658  10.965
19796SOL     OW59411   3.686  11.364  10.537
19796SOL    HW159412   3.682  11.274  10.581
19796SOL    HW259413   3.689  11.353  10.438
19797SOL     OW59414   2.290  11.596   9.830
19797SOL    HW159415   2.320  11.524   9.768
19797SOL    HW259416   2.251  11.556   9.913
19798SOL     OW59417   3.567  12.659  10.414
19798SOL    HW159418   3.474  12.634  10.387
19798SOL    HW259419   3.593  12.609  10.496
19799SOL     OW59420   2.179  11.719  10.590
19799SOL    HW159421   2.217  11.660  10.662
19799SOL    HW259422   2.219  11.693  10.502
19800SOL     OW59423   3.286  11.386  10.422
19800SOL    HW159424   3.338  11.321  10.477
19800SOL    HW259425   3.237  11.449  10.483
19801SOL     OW59426   2.863  11.206  10.464
19801SOL    HW159427   2.800  11.134  10.433
19801SOL    HW259428   2.956  11.170  10.464
19802SOL     OW59429   2.632  12.502   9.611
19802SOL    HW159430   2.586  12.415   9.628
19802SOL    HW259431   2.723  12.499   9.652
19803SOL     OW59432   2.480  12.739  10.594
19803SOL    HW159433   2.475  12.821  10.651
19803SOL    HW259434   2.569  12.736  10.549
19804SOL     OW59435   3.214  11.224   9.478
19804SOL    HW159436   3.249  11.183   9.394
19804SOL    HW259437   3.124  11.186   9.498
19805SOL     OW59438   3.162  11.625  10.001
19805SOL    HW159439   3.103  11.705  10.005
19805SOL    HW259440   3.177  11.590  10.094
19806SOL     OW59441   3.455  11.393  10.192
19806SOL    HW159442   3.371  11.392  10.246
19806SOL    HW259443   3.457  11.476  10.136
19807SOL     OW59444   1.901  12.249   9.610
19807SOL    HW159445   2.000  12.238   9.601
19807SOL    HW259446   1.861  12.163   9.642
19808SOL     OW59447   2.092  11.800  11.285
19808SOL    HW159448   1.999  11.798  11.322
19808SOL    HW259449   2.093  11.761  11.193
19809SOL     OW59450   2.087  11.447  12.168
19809SOL    HW159451   2.122  11.430  12.260
19809SOL    HW259452   1.999  11.402  12.156
19810SOL     OW59453   1.881  11.540  11.819
19810SOL    HW159454   1.799  11.583  11.858
19810SOL    HW259455   1.853  11.467  11.756
19811SOL     OW59456   2.431  12.447  12.337
19811SOL    HW159457   2.338  12.440  12.300
19811SOL    HW259458   2.442  12.536  12.381
19812SOL     OW59459   3.417  12.683  11.875
19812SOL    HW159460   3.360  12.667  11.956
19812SOL    HW259461   3.358  12.693  11.795
19813SOL     OW59462   2.997  11.875  11.889
19813SOL    HW159463   3.054  11.953  11.864
19813SOL    HW259464   2.937  11.901  11.965
19814SOL     OW59465   3.617  11.779  11.403
19814SOL    HW159466   3.605  11.766  11.304
19814SOL    HW259467   3.587  11.698  11.452
19815SOL     OW59468   2.630  12.316  12.195
19815SOL    HW159469   2.552  12.333  12.255
19815SOL    HW259470   2.664  12.403  12.159
19816SOL     OW59471   2.547  12.184  11.837
19816SOL    HW159472   2.616  12.168  11.907
19816SOL    HW259473   2.474  12.241  11.875
19817SOL     OW59474   2.197  12.607  12.233
19817SOL    HW159475   2.119  12.576  12.180
19817SOL    HW259476   2.255  12.665  12.176
19818SOL     OW59477   3.322  12.677  12.511
19818SOL    HW159478   3.346  12.771  12.537
19818SOL    HW259479   3.306  12.623  12.593
19819SOL     OW59480   2.300  11.564  12.671
19819SOL    HW159481   2.382  11.508  12.680
19819SOL    HW259482   2.219  11.506  12.675
19820SOL     OW59483   3.465  11.619  11.909
19820SOL    HW159484   3.391  11.665  11.859
19820SOL    HW259485   3.516  11.687  11.962
19821SOL     OW59486   2.092  12.606  11.710
19821SOL    HW159487   2.066  12.702  11.710
19821SOL    HW259488   2.021  12.552  11.755
19822SOL     OW59489   2.102  12.263  12.058
19822SOL    HW159490   2.116  12.179  12.110
19822SOL    HW259491   2.047  12.327  12.113
19823SOL     OW59492   2.468  12.136  11.295
19823SOL    HW159493   2.475  12.220  11.241
19823SOL    HW259494   2.514  12.149  11.383
19824SOL     OW59495   3.456  11.286  12.652
19824SOL    HW159496   3.438  11.353  12.580
19824SOL    HW259497   3.453  11.332  12.741
19825SOL     OW59498   1.984  11.815  11.735
19825SOL    HW159499   1.939  11.727  11.752
19825SOL    HW259500   1.983  11.869  11.819
19826SOL     OW59501   1.889  12.768  11.289
19826SOL    HW159502   1.870  12.672  11.310
19826SOL    HW259503   1.856  12.826  11.364
19827SOL     OW59504   3.551  12.094  11.784
19827SOL    HW159505   3.646  12.065  11.792
19827SOL    HW259506   3.543  12.159  11.709
19828SOL     OW59507   3.503  12.280  11.604
19828SOL    HW159508   3.589  12.282  11.552
19828SOL    HW259509   3.517  12.327  11.692
19829SOL     OW59510   1.975  11.909  12.769
19829SOL    HW159511   2.063  11.896  12.814
19829SOL    HW259512   1.962  12.006  12.747
19830SOL     OW59513   2.475  12.537  11.898
19830SOL    HW159514   2.426  12.450  11.907
19830SOL    HW259515   2.452  12.580  11.811
19831SOL     OW59516   3.155  12.400  12.595
19831SOL    HW159517   3.192  12.327  12.537
19831SOL    HW259518   3.207  12.405  12.680
19832SOL     OW59519   2.671  11.176  11.674
19832SOL    HW159520   2.711  11.267  11.665
19832SOL    HW259521   2.571  11.184  11.680
19833SOL     OW59522   2.059  12.148  12.436
19833SOL    HW159523   2.148  12.103  12.422
19833SOL    HW259524   1.986  12.083  12.417
19834SOL     OW59525   3.387  12.171  11.362
19834SOL    HW159526   3.324  12.095  11.375
19834SOL    HW259527   3.435  12.189  11.448
19835SOL     OW59528   3.328  12.589  12.125
19835SOL    HW159529   3.269  12.595  12.205
19835SOL    HW259530   3.313  12.501  12.079
19836SOL     OW59531   2.460  11.901  11.442
19836SOL    HW159532   2.484  11.970  11.374
19836SOL    HW259533   2.382  11.934  11.496
19837SOL     OW59534   3.143  11.517  12.116
19837SOL    HW159535   3.057  11.467  12.103
19837SOL    HW259536   3.205  11.463  12.172
19838SOL     OW59537   3.438  12.834  11.479
19838SOL    HW159538   3.527  12.880  11.482
19838SOL    HW259539   3.417  12.810  11.384
19839SOL     OW59540   2.669  11.777  12.637
19839SOL    HW159541   2.622  11.774  12.726
19839SOL    HW259542   2.618  11.722  12.571
19840SOL     OW59543   2.835  12.062  12.744
19840SOL    HW159544   2.881  11.978  12.715
19840SOL    HW259545   2.779  12.096  12.669
19841SOL     OW59546   2.853  11.582  12.414
19841SOL    HW159547   2.776  11.616  12.468
19841SOL    HW259548   2.819  11.531  12.335
19842SOL     OW59549   2.903  11.873  11.601
19842SOL    HW159550   2.929  11.869  11.697
19842SOL    HW259551   2.818  11.822  11.587
19843SOL     OW59552   1.938  11.983  11.961
19843SOL    HW159553   2.037  11.971  11.970
19843SOL    HW259554   1.914  12.078  11.982
19844SOL     OW59555   2.727  11.520  11.367
19844SOL    HW159556   2.786  11.583  11.318
19844SOL    HW259557   2.746  11.426  11.338
19845SOL     OW59558   3.224  12.316  11.717
19845SOL    HW159559   3.307  12.287  11.669
19845SOL    HW259560   3.175  12.383  11.661
19846SOL     OW59561   2.412  11.368  12.057
19846SOL    HW159562   2.407  11.363  12.157
19846SOL    HW259563   2.414  11.464  12.028
19847SOL     OW59564   2.870  12.628  11.649
19847SOL    HW159565   2.824  12.700  11.597
19847SOL    HW259566   2.866  12.648  11.747
19848SOL     OW59567   3.657  12.238  12.045
19848SOL    HW159568   3.595  12.223  11.969
19848SOL    HW259569   3.605  12.249  12.130
19849SOL     OW59570   3.089  12.722  12.678
19849SOL    HW159571   3.095  12.645  12.742
19849SOL    HW259572   3.037  12.696  12.598
19850SOL     OW59573   2.183  12.115  11.414
19850SOL    HW159574   2.265  12.154  11.372
19850SOL    HW259575   2.156  12.033  11.365
19851SOL     OW59576   3.320  11.907  11.900
19851SOL    HW159577   3.315  11.842  11.975
19851SOL    HW259578   3.400  11.966  11.913
19852SOL     OW59579   2.064  11.457  12.670
19852SOL    HW159580   1.984  11.517  12.657
19852SOL    HW259581   2.054  11.408  12.756
19853SOL     OW59582   3.494  12.549  11.253
19853SOL    HW159583   3.462  12.643  11.243
19853SOL    HW259584   3.418  12.486  11.241
19854SOL     OW59585   3.262  11.279  11.598
19854SOL    HW159586   3.238  11.242  11.508
19854SOL    HW259587   3.361  11.295  11.602
19855SOL     OW59588   2.244  11.872  11.652
19855SOL    HW159589   2.289  11.782  11.649
19855SOL    HW259590   2.150  11.861  11.685
19856SOL     OW59591   2.476  11.294  11.289
19856SOL    HW159592   2.574  11.272  11.296
19856SOL    HW259593   2.445  11.277  11.196
19857SOL     OW59594   3.213  11.762  12.605
19857SOL    HW159595   3.241  11.719  12.690
19857SOL    HW259596   3.238  11.858  12.606
19858SOL     OW59597   2.665  12.574  12.096
19858SOL    HW159598   2.755  12.588  12.054
19858SOL    HW259599   2.594  12.576  12.025
19859SOL     OW59600   2.784  11.675  12.071
19859SOL    HW159601   2.759  11.666  11.975
19859SOL    HW259602   2.832  11.593  12.102
19860SOL     OW59603   2.401  11.236  11.684
19860SOL    HW159604   2.320  11.237  11.742
19860SOL    HW259605   2.404  11.319  11.629
19861SOL     OW59606   3.296  12.360  11.213
19861SOL    HW159607   3.328  12.284  11.270
19861SOL    HW259608   3.204  12.387  11.243
19862SOL     OW59609   2.159  11.207  11.343
19862SOL    HW159610   2.208  11.291  11.322
19862SOL    HW259611   2.221  11.142  11.388
19863SOL     OW59612   2.797  11.408  11.652
19863SOL    HW159613   2.749  11.449  11.574
19863SOL    HW259614   2.896  11.406  11.633
19864SOL     OW59615   2.938  11.855  12.636
19864SOL    HW159616   2.858  11.794  12.639
19864SOL    HW259617   3.019  11.802  12.612
19865SOL     OW59618   3.089  12.742  11.965
19865SOL    HW159619   3.110  12.816  11.900
19865SOL    HW259620   3.157  12.742  12.038
19866SOL     OW59621   2.321  12.324  11.913
19866SOL    HW159622   2.250  12.297  11.978
19866SOL    HW259623   2.295  12.296  11.820
19867SOL     OW59624   1.940  11.728  12.558
19867SOL    HW159625   2.032  11.727  12.517
19867SOL    HW259626   1.934  11.802  12.625
19868SOL     OW59627   2.423  11.394  12.319
19868SOL    HW159628   2.461  11.310  12.356
19868SOL    HW259629   2.335  11.413  12.363
19869SOL     OW59630   2.728  11.626  11.814
19869SOL    HW159631   2.696  11.698  11.752
19869SOL    HW259632   2.752  11.545  11.761
19870SOL     OW59633   2.879  11.211  11.925
19870SOL    HW159634   2.807  11.216  11.856
19870SOL    HW259635   2.855  11.142  11.994
19871SOL     OW59636   3.291  12.345  12.039
19871SOL    HW159637   3.236  12.261  12.032
19871SOL    HW259638   3.317  12.374  11.947
19872SOL     OW59639   3.328  11.762  12.164
19872SOL    HW159640   3.298  11.667  12.171
19872SOL    HW259641   3.401  11.778  12.230
19873SOL     OW59642   3.719  12.005  11.549
19873SOL    HW159643   3.761  11.941  11.613
19873SOL    HW259644   3.681  11.954  11.471
19874SOL     OW59645   2.350  12.557  11.346
19874SOL    HW159646   2.263  12.542  11.393
19874SOL    HW259647   2.333  12.583  11.251
19875SOL     OW59648   3.526  12.452  11.829
19875SOL    HW159649   3.625  12.460  11.843
19875SOL    HW259650   3.481  12.536  11.860
19876SOL     OW59651   3.252  11.747  11.250
19876SOL    HW159652   3.198  11.726  11.331
19876SOL    HW259653   3.343  11.706  11.259
19877SOL     OW59654   2.389  11.428  11.500
19877SOL    HW159655   2.416  11.369  11.425
19877SOL    HW259656   2.389  11.523  11.469
19878SOL     OW59657   3.616  12.395  12.760
19878SOL    HW159658   3.707  12.356  12.747
19878SOL    HW259659   3.624  12.491  12.784
19879SOL     OW59660   2.926  12.519  12.512
19879SOL    HW159661   2.846  12.496  12.567
19879SOL    HW259662   3.009  12.493  12.561
19880SOL     OW59663   2.973  12.367  12.272
19880SOL    HW159664   2.933  12.411  12.353
19880SOL    HW259665   2.932  12.404  12.189
19881SOL     OW59666   3.500  12.271  12.251
19881SOL    HW159667   3.505  12.352  12.310
19881SOL    HW259668   3.414  12.273  12.200
19882SOL     OW59669   2.777  11.261  12.574
19882SOL    HW159670   2.802  11.241  12.479
19882SOL    HW259671   2.849  11.317  12.616
19883SOL     OW59672   2.567  12.222  11.540
19883SOL    HW159673   2.553  12.229  11.639
19883SOL    HW259674   2.651  12.171  11.522
19884SOL     OW59675   2.272  11.985  12.423
19884SOL    HW159676   2.358  11.997  12.473
19884SOL    HW259677   2.230  11.898  12.450
19885SOL     OW59678   3.136  11.558  12.434
19885SOL    HW159679   3.157  11.632  12.498
19885SOL    HW259680   3.047  11.575  12.391
19886SOL     OW59681   1.926  12.736  12.503
19886SOL    HW159682   1.880  12.818  12.469
19886SOL    HW259683   2.024  12.755  12.512
19887SOL     OW59684   2.229  12.272  11.673
19887SOL    HW159685   2.222  12.355  11.617
19887SOL    HW259686   2.233  12.192  11.613
19888SOL     OW59687   2.428  11.709  12.037
19888SOL    HW159688   2.440  11.775  11.963
19888SOL    HW259689   2.474  11.743  12.120
19889SOL     OW59690   3.114  12.520  11.560
19889SOL    HW159691   3.164  12.597  11.600
19889SOL    HW259692   3.019  12.522  11.592
19890SOL     OW59693   3.134  12.617  12.314
19890SOL    HW159694   3.181  12.630  12.401
19890SOL    HW259695   3.068  12.543  12.323
19891SOL     OW59696   3.444  11.811  11.644
19891SOL    HW159697   3.413  11.872  11.717
19891SOL    HW259698   3.494  11.863  11.575
19892SOL     OW59699   2.216  12.682  12.501
19892SOL    HW159700   2.195  12.638  12.414
19892SOL    HW259701   2.313  12.708  12.504
19893SOL     OW59702   2.264  11.923  12.770
19893SOL    HW159703   2.332  11.978  12.723
19893SOL    HW259704   2.304  11.835  12.797
19894SOL     OW59705   3.449  11.951  12.842
19894SOL    HW159706   3.357  11.989  12.837
19894SOL    HW259707   3.509  11.998  12.777
19895SOL     OW59708   2.435  12.042  12.201
19895SOL    HW159709   2.479  12.131  12.192
19895SOL    HW259710   2.372  12.042  12.278
19896SOL     OW59711   3.222  12.034  12.217
19896SOL    HW159712   3.147  12.034  12.151
19896SOL    HW259713   3.259  11.942  12.226
19897SOL     OW59714   3.071  11.697  11.447
19897SOL    HW159715   3.084  11.613  11.501
19897SOL    HW259716   3.042  11.771  11.507
19898SOL     OW59717   2.169  11.385  12.403
19898SOL    HW159718   2.146  11.422  12.493
19898SOL    HW259719   2.139  11.290  12.397
19899SOL     OW59720   1.899  12.482  12.454
19899SOL    HW159721   1.952  12.433  12.522
19899SOL    HW259722   1.921  12.580  12.459
19900SOL     OW59723   2.594  11.806  12.236
19900SOL    HW159724   2.653  11.780  12.160
19900SOL    HW259725   2.566  11.902  12.225
19901SOL     OW59726   2.169  11.235  11.790
19901SOL    HW159727   2.158  11.329  11.823
19901SOL    HW259728   2.164  11.172  11.867
19902SOL     OW59729   3.484  11.539  11.546
19902SOL    HW159730   3.486  11.463  11.610
19902SOL    HW259731   3.436  11.616  11.586
19903SOL     OW59732   2.885  11.938  12.138
19903SOL    HW159733   2.900  11.959  12.234
19903SOL    HW259734   2.855  11.843  12.129
19904SOL     OW59735   3.402  11.446  11.297
19904SOL    HW159736   3.341  11.371  11.320
19904SOL    HW259737   3.424  11.498  11.380
19905SOL     OW59738   3.165  12.010  11.214
19905SOL    HW159739   3.199  11.917  11.229
19905SOL    HW259740   3.183  12.037  11.119
19906SOL     OW59741   2.930  12.505  12.021
19906SOL    HW159742   2.937  12.421  11.966
19906SOL    HW259743   2.992  12.574  11.985
19907SOL     OW59744   2.181  11.982  12.121
19907SOL    HW159745   2.274  12.018  12.126
19907SOL    HW259746   2.175  11.897  12.173
19908SOL     OW59747   2.201  11.681  12.178
19908SOL    HW159748   2.149  11.598  12.161
19908SOL    HW259749   2.278  11.686  12.114
19909SOL     OW59750   3.022  11.379  12.649
19909SOL    HW159751   3.022  11.443  12.726
19909SOL    HW259752   3.050  11.427  12.566
19910SOL     OW59753   1.870  12.498  11.372
19910SOL    HW159754   1.777  12.519  11.341
19910SOL    HW259755   1.880  12.399  11.385
19911SOL     OW59756   2.366  12.740  12.082
19911SOL    HW159757   2.432  12.814  12.091
19911SOL    HW259758   2.410  12.661  12.040
19912SOL     OW59759   2.864  11.968  12.410
19912SOL    HW159760   2.905  11.936  12.496
19912SOL    HW259761   2.768  11.941  12.407
19913SOL     OW59762   1.902  11.716  12.286
19913SOL    HW159763   1.987  11.683  12.245
19913SOL    HW259764   1.915  11.731  12.384
19914SOL     OW59765   2.677  11.744  11.497
19914SOL    HW159766   2.684  11.655  11.451
19914SOL    HW259767   2.583  11.778  11.489
19915SOL     OW59768   3.519  11.776  12.378
19915SOL    HW159769   3.481  11.707  12.440
19915SOL    HW259770   3.601  11.740  12.334
19916SOL     OW59771   2.533  11.636  12.441
19916SOL    HW159772   2.499  11.547  12.411
19916SOL    HW259773   2.559  11.690  12.361
19917SOL     OW59774   2.335  11.672  11.363
19917SOL    HW159775   2.396  11.752  11.367
19917SOL    HW259776   2.240  11.703  11.370
19918SOL     OW59777   2.021  12.309  12.638
19918SOL    HW159778   2.043  12.248  12.714
19918SOL    HW259779   2.031  12.260  12.552
19919SOL     OW59780   3.209  12.231  12.406
19919SOL    HW159781   3.233  12.168  12.332
19919SOL    HW259782   3.119  12.271  12.388
19920SOL     OW59783   3.164  12.027  11.481
19920SOL    HW159784   3.078  11.996  11.523
19920SOL    HW259785   3.160  12.013  11.382
19921SOL     OW59786   3.114  12.903  12.300
19921SOL    HW159787   3.198  12.908  12.246
19921SOL    HW259788   3.091  12.807  12.318
19922SOL     OW59789   1.945  12.430  12.194
19922SOL    HW159790   1.940  12.429  12.294
19922SOL    HW259791   1.862  12.389  12.156
19923SOL     OW59792   3.588  11.307  11.695
19923SOL    HW159793   3.661  11.290  11.628
19923SOL    HW259794   3.557  11.220  11.733
19924SOL     OW59795   3.142  12.099  11.844
19924SOL    HW159796   3.202  12.018  11.846
19924SOL    HW259797   3.182  12.168  11.784
19925SOL     OW59798   2.692  12.445  12.594
19925SOL    HW159799   2.687  12.478  12.689
19925SOL    HW259800   2.606  12.464  12.548
19926SOL     OW59801   2.534  12.788  11.326
19926SOL    HW159802   2.543  12.798  11.227
19926SOL    HW259803   2.494  12.699  11.347
19927SOL     OW59804   3.703  11.347  12.135
19927SOL    HW159805   3.742  11.262  12.099
19927SOL    HW259806   3.605  11.349  12.116
19928SOL     OW59807   2.125  11.498  11.892
19928SOL    HW159808   2.046  11.549  11.858
19928SOL    HW259809   2.116  11.483  11.990
19929SOL     OW59810   3.056  12.784  11.203
19929SOL    HW159811   3.062  12.691  11.240
19929SOL    HW259812   2.997  12.784  11.123
19930SOL     OW59813   2.684  12.174  12.544
19930SOL    HW159814   2.724  12.173  12.452
19930SOL    HW259815   2.694  12.266  12.584
19931SOL     OW59816   2.778  12.082  11.463
19931SOL    HW159817   2.841  12.120  11.395
19931SOL    HW259818   2.818  11.999  11.502
19932SOL     OW59819   2.234  12.460  12.662
19932SOL    HW159820   2.221  12.553  12.628
19932SOL    HW259821   2.150  12.408  12.649
19933SOL     OW59822   3.476  12.464  12.461
19933SOL    HW159823   3.536  12.467  12.541
19933SOL    HW259824   3.401  12.528  12.474
19934SOL     OW59825   2.901  12.270  11.868
19934SOL    HW159826   2.831  12.223  11.922
19934SOL    HW259827   2.960  12.202  11.825
19935SOL     OW59828   2.876  11.408  12.143
19935SOL    HW159829   2.868  11.372  12.050
19935SOL    HW259830   2.874  11.332  12.208
19936SOL     OW59831   2.452  12.659  11.663
19936SOL    HW159832   2.494  12.601  11.593
19936SOL    HW259833   2.408  12.738  11.619
19937SOL     OW59834   3.571  11.557  12.553
19937SOL    HW159835   3.644  11.626  12.557
19937SOL    HW259836   3.599  11.482  12.494
19938SOL     OW59837   2.117  12.520  11.462
19938SOL    HW159838   2.021  12.521  11.435
19938SOL    HW259839   2.129  12.573  11.546
19939SOL     OW59840   1.967  12.185  12.898
19939SOL    HW159841   1.890  12.152  12.952
19939SOL    HW259842   2.052  12.155  12.940
19940SOL     OW59843   2.534  11.375  12.661
19940SOL    HW159844   2.624  11.359  12.621
19940SOL    HW259845   2.542  11.380  12.760
19941SOL     OW59846   1.937  11.517  11.205
19941SOL    HW159847   1.845  11.489  11.176
19941SOL    HW259848   1.968  11.594  11.149
19942SOL     OW59849   3.302  12.028  12.570
19942SOL    HW159850   3.245  12.080  12.507
19942SOL    HW259851   3.398  12.040  12.546
19943SOL     OW59852   1.934  11.338  11.490
19943SOL    HW159853   1.917  11.421  11.436
19943SOL    HW259854   2.024  11.301  11.468
19944SOL     OW59855   3.045  12.507  11.291
19944SOL    HW159856   2.946  12.496  11.293
19944SOL    HW259857   3.079  12.522  11.384
19945SOL     OW59858   2.475  12.014  12.603
19945SOL    HW159859   2.531  12.095  12.586
19945SOL    HW259860   2.534  11.934  12.606
19946SOL     OW59861   2.578  11.737  12.880
19946SOL    HW159862   2.597  11.802  12.954
19946SOL    HW259863   2.638  11.657  12.889
19947SOL     OW59864   2.252  12.913  12.732
19947SOL    HW159865   2.161  12.954  12.730
19947SOL    HW259866   2.245  12.819  12.764
19948SOL     OW59867   3.536  12.055  12.426
19948SOL    HW159868   3.509  11.966  12.389
19948SOL    HW259869   3.537  12.123  12.353
19949SOL     OW59870   3.087  11.497  11.621
19949SOL    HW159871   3.152  11.423  11.610
19949SOL    HW259872   3.107  11.547  11.705
19950SOL     OW59873   2.456  11.917  11.824
19950SOL    HW159874   2.506  12.002  11.805
19950SOL    HW259875   2.368  11.919  11.776
19951SOL     OW59876   3.639  11.514  12.814
19951SOL    HW159877   3.622  11.545  12.720
19951SOL    HW259878   3.555  11.477  12.852
19952SOL     OW59879   3.592  12.106  12.689
19952SOL    HW159880   3.630  12.197  12.704
19952SOL    HW259881   3.584  12.089  12.590
19953SOL     OW59882   2.721  12.128  12.033
19953SOL    HW159883   2.775  12.059  12.081
19953SOL    HW259884   2.689  12.197  12.099
19954SOL     OW59885   2.945  12.156  11.259
19954SOL    HW159886   2.922  12.209  11.177
19954SOL    HW259887   3.026  12.100  11.240
19955SOL     OW59888   3.723  12.741  12.023
19955SOL    HW159889   3.652  12.729  11.953
19955SOL    HW259890   3.724  12.662  12.083
19956SOL     OW59891   1.941  12.412  11.825
19956SOL    HW159892   1.940  12.365  11.913
19956SOL    HW259893   2.023  12.384  11.774
19957SOL     OW59894   2.534  12.563  12.796
19957SOL    HW159895   2.456  12.513  12.834
19957SOL    HW259896   2.531  12.658  12.827
19958SOL     OW59897   3.686  11.364  12.399
19958SOL    HW159898   3.682  11.274  12.443
19958SOL    HW259899   3.689  11.353  12.300
19959SOL     OW59900   2.290  11.596  11.692
19959SOL    HW159901   2.320  11.524  11.630
19959SOL    HW259902   2.251  11.556  11.775
19960SOL     OW59903   3.567  12.659  12.276
19960SOL    HW159904   3.474  12.634  12.249
19960SOL    HW259905   3.593  12.609  12.358
19961SOL     OW59906   2.179  11.719  12.452
19961SOL    HW159907   2.217  11.660  12.524
19961SOL    HW259908   2.219  11.693  12.364
19962SOL     OW59909   3.286  11.386  12.284
19962SOL    HW159910   3.338  11.321  12.339
19962SOL    HW259911   3.237  11.449  12.345
19963SOL     OW59912   2.863  11.206  12.326
19963SOL    HW159913   2.800  11.134  12.295
19963SOL    HW259914   2.956  11.170  12.326
19964SOL     OW59915   2.632  12.502  11.473
19964SOL    HW159916   2.586  12.415  11.490
19964SOL    HW259917   2.723  12.499  11.514
19965SOL     OW59918   2.480  12.739  12.456
19965SOL    HW159919   2.475  12.821  12.513
19965SOL    HW259920   2.569  12.736  12.411
19966SOL     OW59921   3.214  11.224  11.340
19966SOL    HW159922   3.249  11.183  11.256
19966SOL    HW259923   3.124  11.186  11.360
19967SOL     OW59924   3.162  11.625  11.863
19967SOL    HW159925   3.103  11.705  11.867
19967SOL    HW259926   3.177  11.590  11.956
19968SOL     OW59927   3.455  11.393  12.054
19968SOL    HW159928   3.371  11.392  12.108
19968SOL    HW259929   3.457  11.476  11.998
19969SOL     OW59930   1.901  12.249  11.472
19969SOL    HW159931   2.000  12.238  11.463
19969SOL    HW259932   1.861  12.163  11.504
19970SOL     OW59933   3.954   0.628   0.113
19970SOL    HW159934   3.861   0.626   0.150
19970SOL    HW259935   3.955   0.589   0.021
19971SOL     OW59936   3.949   0.275   0.996
19971SOL    HW159937   3.984   0.258   1.088
19971SOL    HW259938   3.861   0.230   0.984
19972SOL     OW59939   3.743   0.368   0.647
19972SOL    HW159940   3.661   0.411   0.686
19972SOL    HW259941   3.715   0.295   0.584
19973SOL     OW59942   4.293   1.275   1.165
19973SOL    HW159943   4.200   1.268   1.128
19973SOL    HW259944   4.304   1.364   1.209
19974SOL     OW59945   5.279   1.511   0.703
19974SOL    HW159946   5.222   1.495   0.784
19974SOL    HW259947   5.220   1.521   0.623
19975SOL     OW59948   4.859   0.703   0.717
19975SOL    HW159949   4.916   0.781   0.692
19975SOL    HW259950   4.799   0.729   0.793
19976SOL     OW59951   5.479   0.607   0.231
19976SOL    HW159952   5.467   0.594   0.132
19976SOL    HW259953   5.449   0.526   0.280
19977SOL     OW59954   4.492   1.144   1.023
19977SOL    HW159955   4.414   1.161   1.083
19977SOL    HW259956   4.526   1.231   0.987
19978SOL     OW59957   4.574   0.798   1.823
19978SOL    HW159958   4.570   0.874   1.888
19978SOL    HW259959   4.596   0.834   1.732
19979SOL     OW59960   4.409   1.012   0.665
19979SOL    HW159961   4.478   0.996   0.735
19979SOL    HW259962   4.336   1.069   0.703
19980SOL     OW59963   4.410   1.161   1.803
19980SOL    HW159964   4.470   1.240   1.817
19980SOL    HW259965   4.324   1.192   1.762
19981SOL     OW59966   4.059   1.435   1.061
19981SOL    HW159967   3.981   1.404   1.008
19981SOL    HW259968   4.117   1.493   1.004
19982SOL     OW59969   5.184   1.505   1.339
19982SOL    HW159970   5.208   1.599   1.365
19982SOL    HW259971   5.168   1.451   1.421
19983SOL     OW59972   4.162   0.392   1.499
19983SOL    HW159973   4.244   0.336   1.508
19983SOL    HW259974   4.081   0.334   1.503
19984SOL     OW59975   5.327   0.447   0.737
19984SOL    HW159976   5.253   0.493   0.687
19984SOL    HW259977   5.378   0.515   0.790
19985SOL     OW59978   3.955   1.713   0.483
19985SOL    HW159979   3.989   1.790   0.537
19985SOL    HW259980   3.999   1.713   0.393
19986SOL     OW59981   4.851   1.341   1.690
19986SOL    HW159982   4.898   1.341   1.778
19986SOL    HW259983   4.803   1.254   1.679
19987SOL     OW59984   3.954   1.434   0.538
19987SOL    HW159985   3.928   1.530   0.538
19987SOL    HW259986   3.883   1.380   0.583
19988SOL     OW59987   3.964   1.091   0.886
19988SOL    HW159988   3.978   1.007   0.938
19988SOL    HW259989   3.909   1.155   0.941
19989SOL     OW59990   4.344   1.786   1.439
19989SOL    HW159991   4.252   1.769   1.474
19989SOL    HW259992   4.372   1.878   1.465
19990SOL     OW59993   4.330   0.964   0.123
19990SOL    HW159994   4.337   1.048   0.069
19990SOL    HW259995   4.376   0.977   0.211
19991SOL     OW59996   5.318   0.114   1.480
19991SOL    HW159997   5.300   0.181   1.408
19991SOL    HW259998   5.315   0.160   1.569
19992SOL     OW59999   3.846   0.643   0.563
19992SOL    HW160000   3.801   0.555   0.580
19992SOL    HW260001   3.845   0.697   0.647
19993SOL     OW60002   5.566   1.767   0.359
19993SOL    HW160003   5.620   1.738   0.439
19993SOL    HW260004   5.596   1.857   0.330
19994SOL     OW60005   3.751   1.596   0.117
19994SOL    HW160006   3.732   1.500   0.138
19994SOL    HW260007   3.718   1.654   0.192
19995SOL     OW60008   5.413   0.922   0.612
19995SOL    HW160009   5.508   0.893   0.620
19995SOL    HW260010   5.405   0.987   0.537
19996SOL     OW60011   5.365   1.108   0.432
19996SOL    HW160012   5.451   1.110   0.380
19996SOL    HW260013   5.379   1.155   0.520
19997SOL     OW60014   3.837   0.737   1.597
19997SOL    HW160015   3.925   0.724   1.642
19997SOL    HW260016   3.824   0.834   1.575
19998SOL     OW60017   4.337   1.365   0.726
19998SOL    HW160018   4.288   1.278   0.735
19998SOL    HW260019   4.314   1.408   0.639
19999SOL     OW60020   5.017   1.228   1.423
19999SOL    HW160021   5.054   1.155   1.365
19999SOL    HW260022   5.069   1.233   1.508
20000SOL     OW60023   4.533   0.004   0.502
20000SOL    HW160024   4.573   0.095   0.493
20000SOL    HW260025   4.433   0.012   0.508
20001SOL     OW60026   3.921   0.976   1.264
20001SOL    HW160027   4.010   0.931   1.250
20001SOL    HW260028   3.848   0.911   1.245
20002SOL     OW60029   5.249   0.999   0.190
20002SOL    HW160030   5.186   0.923   0.203
20002SOL    HW260031   5.297   1.017   0.276
20003SOL     OW60032   4.911   1.792   1.616
20003SOL    HW160033   4.935   1.852   1.540
20003SOL    HW260034   4.918   1.697   1.586
20004SOL     OW60035   4.041   0.251   1.801
20004SOL    HW160036   4.112   0.322   1.807
20004SOL    HW260037   3.953   0.290   1.829
20005SOL     OW60038   5.190   1.417   0.953
20005SOL    HW160039   5.131   1.423   1.033
20005SOL    HW260040   5.175   1.329   0.907
20006SOL     OW60041   5.391   1.714   0.572
20006SOL    HW160042   5.350   1.691   0.484
20006SOL    HW260043   5.373   1.640   0.637
20007SOL     OW60044   4.322   0.729   0.270
20007SOL    HW160045   4.346   0.798   0.202
20007SOL    HW260046   4.244   0.762   0.324
20008SOL     OW60047   5.005   0.345   0.944
20008SOL    HW160048   4.919   0.295   0.931
20008SOL    HW260049   5.067   0.291   1.000
20009SOL     OW60050   5.300   1.662   0.307
20009SOL    HW160051   5.389   1.708   0.310
20009SOL    HW260052   5.279   1.638   0.212
20010SOL     OW60053   4.531   0.605   1.465
20010SOL    HW160054   4.484   0.602   1.554
20010SOL    HW260055   4.480   0.550   1.399
20011SOL     OW60056   5.118   0.469   1.674
20011SOL    HW160057   5.098   0.512   1.762
20011SOL    HW260058   5.196   0.407   1.683
20012SOL     OW60059   4.697   0.890   1.572
20012SOL    HW160060   4.743   0.806   1.543
20012SOL    HW260061   4.641   0.924   1.497
20013SOL     OW60062   4.715   0.410   1.242
20013SOL    HW160063   4.638   0.444   1.296
20013SOL    HW260064   4.681   0.359   1.163
20014SOL     OW60065   4.765   0.701   0.429
20014SOL    HW160066   4.791   0.697   0.525
20014SOL    HW260067   4.680   0.650   0.415
20015SOL     OW60068   3.800   0.811   0.789
20015SOL    HW160069   3.899   0.799   0.798
20015SOL    HW260070   3.776   0.906   0.810
20016SOL     OW60071   3.854   1.821   1.571
20016SOL    HW160072   3.844   1.806   1.670
20016SOL    HW260073   3.768   1.857   1.535
20017SOL     OW60074   4.589   0.348   0.195
20017SOL    HW160075   4.648   0.411   0.146
20017SOL    HW260076   4.608   0.254   0.166
20018SOL     OW60077   5.443   0.585   1.831
20018SOL    HW160078   5.417   0.674   1.795
20018SOL    HW260079   5.441   0.517   1.758
20019SOL     OW60080   5.086   1.144   0.545
20019SOL    HW160081   5.169   1.115   0.497
20019SOL    HW260082   5.037   1.211   0.489
20020SOL     OW60083   4.274   0.196   0.885
20020SOL    HW160084   4.269   0.191   0.985
20020SOL    HW260085   4.276   0.292   0.856
20021SOL     OW60086   4.732   1.456   0.477
20021SOL    HW160087   4.686   1.528   0.425
20021SOL    HW260088   4.728   1.476   0.575
20022SOL     OW60089   4.075   1.801   0.853
20022SOL    HW160090   4.125   1.715   0.859
20022SOL    HW260091   4.140   1.878   0.850
20023SOL     OW60092   5.519   1.066   0.873
20023SOL    HW160093   5.457   1.051   0.797
20023SOL    HW260094   5.467   1.077   0.958
20024SOL     OW60095   4.951   1.550   1.506
20024SOL    HW160096   4.957   1.473   1.570
20024SOL    HW260097   4.899   1.524   1.426
20025SOL     OW60098   4.045   0.943   0.242
20025SOL    HW160099   4.127   0.982   0.200
20025SOL    HW260100   4.018   0.861   0.193
20026SOL     OW60101   5.182   0.735   0.728
20026SOL    HW160102   5.177   0.670   0.803
20026SOL    HW260103   5.262   0.794   0.741
20027SOL     OW60104   4.185   1.266   1.727
20027SOL    HW160105   4.135   1.267   1.641
20027SOL    HW260106   4.122   1.248   1.803
20028SOL     OW60107   4.835   1.776   0.237
20028SOL    HW160108   4.775   1.714   0.287
20028SOL    HW260109   4.866   1.732   0.152
20029SOL     OW60110   3.926   0.285   1.498
20029SOL    HW160111   3.846   0.345   1.485
20029SOL    HW260112   3.916   0.236   1.584
20030SOL     OW60113   5.356   1.377   0.081
20030SOL    HW160114   5.324   1.471   0.071
20030SOL    HW260115   5.280   1.314   0.069
20031SOL     OW60116   4.188   1.743   0.323
20031SOL    HW160117   4.221   1.782   0.409
20031SOL    HW260118   4.264   1.736   0.258
20032SOL     OW60119   5.124   0.107   0.426
20032SOL    HW160120   5.100   0.070   0.336
20032SOL    HW260121   5.223   0.123   0.430
20033SOL     OW60122   3.973   1.785   1.241
20033SOL    HW160123   4.030   1.720   1.291
20033SOL    HW260124   3.957   1.752   1.148
20034SOL     OW60125   4.106   0.700   0.480
20034SOL    HW160126   4.151   0.610   0.477
20034SOL    HW260127   4.012   0.689   0.513
20035SOL     OW60128   5.271   0.222   1.729
20035SOL    HW160129   5.266   0.259   1.821
20035SOL    HW260130   5.199   0.153   1.717
20036SOL     OW60131   4.338   0.122   0.117
20036SOL    HW160132   4.436   0.100   0.124
20036SOL    HW260133   4.307   0.105   0.024
20037SOL     OW60134   4.505   0.264   1.749
20037SOL    HW160135   4.572   0.203   1.792
20037SOL    HW260136   4.432   0.283   1.814
20038SOL     OW60137   4.612   1.514   1.195
20038SOL    HW160138   4.589   1.489   1.101
20038SOL    HW260139   4.673   1.445   1.234
20039SOL     OW60140   5.075   0.590   1.433
20039SOL    HW160141   5.103   0.547   1.518
20039SOL    HW260142   5.100   0.686   1.434
20040SOL     OW60143   4.527   1.402   0.924
20040SOL    HW160144   4.617   1.416   0.882
20040SOL    HW260145   4.456   1.404   0.853
20041SOL     OW60146   4.646   0.503   0.899
20041SOL    HW160147   4.621   0.494   0.803
20041SOL    HW260148   4.694   0.421   0.930
20042SOL     OW60149   4.263   0.064   0.512
20042SOL    HW160150   4.182   0.065   0.570
20042SOL    HW260151   4.266   0.147   0.457
20043SOL     OW60152   5.158   1.188   0.041
20043SOL    HW160153   5.190   1.112   0.098
20043SOL    HW260154   5.066   1.215   0.071
20044SOL     OW60155   4.021   0.035   0.171
20044SOL    HW160156   4.070   0.119   0.150
20044SOL    HW260157   4.083  -0.030   0.216
20045SOL     OW60158   4.659   0.236   0.480
20045SOL    HW160159   4.611   0.277   0.402
20045SOL    HW260160   4.758   0.234   0.461
20046SOL     OW60161   4.800   0.683   1.464
20046SOL    HW160162   4.720   0.622   1.467
20046SOL    HW260163   4.881   0.630   1.440
20047SOL     OW60164   4.951   1.570   0.793
20047SOL    HW160165   4.972   1.644   0.728
20047SOL    HW260166   5.019   1.570   0.866
20048SOL     OW60167   4.183   1.152   0.741
20048SOL    HW160168   4.112   1.125   0.806
20048SOL    HW260169   4.157   1.124   0.648
20049SOL     OW60170   4.995   1.797   0.591
20049SOL    HW160171   5.039   1.861   0.527
20049SOL    HW260172   4.945   1.849   0.661
20050SOL     OW60173   4.756   0.549   0.016
20050SOL    HW160174   4.715   0.631  -0.023
20050SOL    HW260175   4.820   0.575   0.089
20051SOL     OW60176   3.802   0.556   1.386
20051SOL    HW160177   3.894   0.555   1.345
20051SOL    HW260178   3.796   0.630   1.453
20052SOL     OW60179   4.285   0.222   1.147
20052SOL    HW160180   4.323   0.138   1.184
20052SOL    HW260181   4.197   0.241   1.191
20053SOL     OW60182   4.590   0.454   0.642
20053SOL    HW160183   4.558   0.526   0.580
20053SOL    HW260184   4.614   0.373   0.589
20054SOL     OW60185   4.741   0.039   0.753
20054SOL    HW160186   4.669   0.044   0.684
20054SOL    HW260187   4.717  -0.030   0.822
20055SOL     OW60188   5.153   1.173   0.867
20055SOL    HW160189   5.098   1.089   0.860
20055SOL    HW260190   5.179   1.202   0.775
20056SOL     OW60191   5.190   0.590   0.992
20056SOL    HW160192   5.160   0.495   0.999
20056SOL    HW260193   5.263   0.606   1.058
20057SOL     OW60194   5.581   0.833   0.377
20057SOL    HW160195   5.623   0.769   0.441
20057SOL    HW260196   5.543   0.782   0.299
20058SOL     OW60197   4.212   1.385   0.174
20058SOL    HW160198   4.125   1.370   0.221
20058SOL    HW260199   4.195   1.411   0.079
20059SOL     OW60200   5.388   1.280   0.657
20059SOL    HW160201   5.487   1.288   0.671
20059SOL    HW260202   5.343   1.364   0.688
20060SOL     OW60203   5.114   0.575   0.078
20060SOL    HW160204   5.060   0.554   0.159
20060SOL    HW260205   5.205   0.534   0.087
20061SOL     OW60206   4.251   0.256   0.328
20061SOL    HW160207   4.278   0.197   0.253
20061SOL    HW260208   4.251   0.351   0.297
20062SOL     OW60209   5.478   1.223   1.588
20062SOL    HW160210   5.569   1.184   1.575
20062SOL    HW260211   5.486   1.319   1.612
20063SOL     OW60212   4.788   1.347   1.340
20063SOL    HW160213   4.708   1.324   1.395
20063SOL    HW260214   4.871   1.321   1.389
20064SOL     OW60215   5.316   1.629   1.625
20064SOL    HW160216   5.343   1.663   1.535
20064SOL    HW260217   5.395   1.591   1.671
20065SOL     OW60218   4.835   1.195   1.100
20065SOL    HW160219   4.795   1.239   1.181
20065SOL    HW260220   4.794   1.232   1.017
20066SOL     OW60221   5.362   1.099   1.079
20066SOL    HW160222   5.367   1.180   1.138
20066SOL    HW260223   5.276   1.101   1.028
20067SOL     OW60224   4.639   0.089   1.402
20067SOL    HW160225   4.664   0.069   1.307
20067SOL    HW260226   4.711   0.145   1.444
20068SOL     OW60227   4.704   1.116   1.719
20068SOL    HW160228   4.605   1.122   1.729
20068SOL    HW260229   4.727   1.036   1.663
20069SOL     OW60230   4.429   1.050   0.368
20069SOL    HW160231   4.415   1.057   0.467
20069SOL    HW260232   4.513   0.999   0.350
20070SOL     OW60233   4.134   0.813   1.251
20070SOL    HW160234   4.220   0.825   1.301
20070SOL    HW260235   4.092   0.726   1.278
20071SOL     OW60236   4.998   0.386   1.262
20071SOL    HW160237   5.019   0.460   1.326
20071SOL    HW260238   4.909   0.403   1.219
20072SOL     OW60239   3.788   1.564   1.331
20072SOL    HW160240   3.742   1.646   1.297
20072SOL    HW260241   3.886   1.583   1.340
20073SOL     OW60242   4.091   1.100   0.501
20073SOL    HW160243   4.084   1.183   0.445
20073SOL    HW260244   4.095   1.020   0.441
20074SOL     OW60245   4.290   0.537   0.865
20074SOL    HW160246   4.302   0.603   0.791
20074SOL    HW260247   4.336   0.571   0.948
20075SOL     OW60248   4.976   1.348   0.388
20075SOL    HW160249   5.026   1.425   0.428
20075SOL    HW260250   4.881   1.350   0.420
20076SOL     OW60251   4.996   1.445   1.142
20076SOL    HW160252   5.043   1.458   1.229
20076SOL    HW260253   4.930   1.371   1.151
20077SOL     OW60254   5.306   0.639   0.472
20077SOL    HW160255   5.275   0.700   0.545
20077SOL    HW260256   5.356   0.691   0.403
20078SOL     OW60257   4.078   1.510   1.329
20078SOL    HW160258   4.057   1.466   1.242
20078SOL    HW260259   4.175   1.536   1.332
20079SOL     OW60260   4.126   0.751   1.598
20079SOL    HW160261   4.194   0.806   1.551
20079SOL    HW260262   4.166   0.663   1.625
20080SOL     OW60263   5.311   0.779   1.670
20080SOL    HW160264   5.219   0.817   1.665
20080SOL    HW260265   5.371   0.826   1.605
20081SOL     OW60266   4.737   0.105   1.770
20081SOL    HW160267   4.743   0.190   1.718
20081SOL    HW260268   4.769   0.029   1.713
20082SOL     OW60269   4.228   0.050   1.740
20082SOL    HW160270   4.186  -0.007   1.670
20082SOL    HW260271   4.162   0.119   1.772
20083SOL     OW60272   4.297   0.870   1.029
20083SOL    HW160273   4.341   0.959   1.020
20083SOL    HW260274   4.234   0.870   1.106
20084SOL     OW60275   5.084   0.862   1.045
20084SOL    HW160276   5.009   0.862   0.979
20084SOL    HW260277   5.121   0.770   1.054
20085SOL     OW60278   4.933   0.525   0.275
20085SOL    HW160279   4.946   0.441   0.329
20085SOL    HW260280   4.904   0.599   0.335
20086SOL     OW60281   4.031   0.213   1.231
20086SOL    HW160282   4.008   0.250   1.321
20086SOL    HW260283   4.001   0.118   1.225
20087SOL     OW60284   3.761   1.310   1.282
20087SOL    HW160285   3.814   1.261   1.350
20087SOL    HW260286   3.783   1.408   1.287
20088SOL     OW60287   4.456   0.634   1.064
20088SOL    HW160288   4.515   0.608   0.988
20088SOL    HW260289   4.428   0.730   1.053
20089SOL     OW60290   5.452   0.935   1.854
20089SOL    HW160291   5.406   0.928   1.765
20089SOL    HW260292   5.390   0.979   1.920
20090SOL     OW60293   4.031   0.063   0.618
20090SOL    HW160294   4.020   0.157   0.651
20090SOL    HW260295   4.026   0.000   0.695
20091SOL     OW60296   5.346   0.367   0.374
20091SOL    HW160297   5.348   0.291   0.438
20091SOL    HW260298   5.298   0.444   0.414
20092SOL     OW60299   4.747   0.766   0.966
20092SOL    HW160300   4.762   0.787   1.062
20092SOL    HW260301   4.717   0.671   0.957
20093SOL     OW60302   4.704   1.573   1.700
20093SOL    HW160303   4.684   1.617   1.612
20093SOL    HW260304   4.743   1.482   1.684
20094SOL     OW60305   5.583   1.518   1.605
20094SOL    HW160306   5.597   1.545   1.510
20094SOL    HW260307   5.666   1.540   1.658
20095SOL     OW60308   4.074   0.898   1.804
20095SOL    HW160309   4.150   0.942   1.852
20095SOL    HW260310   4.109   0.851   1.722
20096SOL     OW60311   5.264   0.274   0.125
20096SOL    HW160312   5.203   0.199   0.148
20096SOL    HW260313   5.286   0.326   0.208
20097SOL     OW60314   5.027   0.838   0.042
20097SOL    HW160315   5.061   0.745   0.057
20097SOL    HW260316   5.045   0.865  -0.053
20098SOL     OW60317   4.792   1.333   0.849
20098SOL    HW160318   4.799   1.249   0.794
20098SOL    HW260319   4.854   1.402   0.813
20099SOL     OW60320   4.043   0.810   0.949
20099SOL    HW160321   4.136   0.846   0.954
20099SOL    HW260322   4.037   0.725   1.001
20100SOL     OW60323   4.063   0.509   1.006
20100SOL    HW160324   4.011   0.426   0.989
20100SOL    HW260325   4.140   0.514   0.942
20101SOL     OW60326   4.862   0.380   1.678
20101SOL    HW160327   4.817   0.443   1.742
20101SOL    HW260328   4.955   0.411   1.661
20102SOL     OW60329   4.884   0.207   1.477
20102SOL    HW160330   4.884   0.271   1.554
20102SOL    HW260331   4.912   0.255   1.394
20103SOL     OW60332   3.732   1.326   0.200
20103SOL    HW160333   3.639   1.347   0.169
20103SOL    HW260334   3.742   1.227   0.213
20104SOL     OW60335   3.812   1.801   0.927
20104SOL    HW160336   3.770   1.715   0.900
20104SOL    HW260337   3.906   1.804   0.893
20105SOL     OW60338   4.228   1.568   0.910
20105SOL    HW160339   4.294   1.642   0.919
20105SOL    HW260340   4.272   1.489   0.868
20106SOL     OW60341   4.726   0.796   1.238
20106SOL    HW160342   4.767   0.764   1.324
20106SOL    HW260343   4.630   0.769   1.235
20107SOL     OW60344   3.764   0.544   1.114
20107SOL    HW160345   3.849   0.511   1.073
20107SOL    HW260346   3.777   0.559   1.212
20108SOL     OW60347   3.913   0.520   1.722
20108SOL    HW160348   3.972   0.480   1.652
20108SOL    HW260349   3.855   0.591   1.681
20109SOL     OW60350   5.093   0.950   1.660
20109SOL    HW160351   5.132   1.039   1.680
20109SOL    HW260352   5.103   0.930   1.563
20110SOL     OW60353   4.539   0.572   0.325
20110SOL    HW160354   4.546   0.483   0.279
20110SOL    HW260355   4.445   0.606   0.317
20111SOL     OW60356   5.381   0.604   1.206
20111SOL    HW160357   5.343   0.535   1.268
20111SOL    HW260358   5.463   0.568   1.162
20112SOL     OW60359   3.976   1.564   1.744
20112SOL    HW160360   3.946   1.621   1.820
20112SOL    HW260361   3.969   1.467   1.770
20113SOL     OW60362   4.395   0.464   1.269
20113SOL    HW160363   4.361   0.375   1.239
20113SOL    HW260364   4.421   0.518   1.189
20114SOL     OW60365   4.654   1.678   1.465
20114SOL    HW160366   4.630   1.660   1.370
20114SOL    HW260367   4.684   1.772   1.475
20115SOL     OW60368   4.197   0.500   0.191
20115SOL    HW160369   4.258   0.580   0.195
20115SOL    HW260370   4.102   0.531   0.198
20116SOL     OW60371   3.883   1.137   1.466
20116SOL    HW160372   3.905   1.076   1.542
20116SOL    HW260373   3.893   1.088   1.380
20117SOL     OW60374   5.071   1.059   1.234
20117SOL    HW160375   5.095   0.996   1.160
20117SOL    HW260376   4.981   1.099   1.216
20118SOL     OW60377   5.026   0.855   0.309
20118SOL    HW160378   4.940   0.824   0.351
20118SOL    HW260379   5.022   0.841   0.210
20119SOL     OW60380   5.483   1.747   1.154
20119SOL    HW160381   5.544   1.777   1.081
20119SOL    HW260382   5.445   1.658   1.132
20120SOL     OW60383   4.976   1.731   1.128
20120SOL    HW160384   5.060   1.736   1.074
20120SOL    HW260385   4.953   1.635   1.146
20121SOL     OW60386   3.807   1.258   1.022
20121SOL    HW160387   3.802   1.257   1.122
20121SOL    HW260388   3.724   1.217   0.984
20122SOL     OW60389   4.412   1.662   1.716
20122SOL    HW160390   4.356   1.743   1.725
20122SOL    HW260391   4.464   1.666   1.630
20123SOL     OW60392   4.627   0.086   0.133
20123SOL    HW160393   4.678   0.087   0.047
20123SOL    HW260394   4.683   0.044   0.204
20124SOL     OW60395   5.450   0.135   0.523
20124SOL    HW160396   5.523   0.118   0.456
20124SOL    HW260397   5.419   0.048   0.561
20125SOL     OW60398   5.112   1.573   0.477
20125SOL    HW160399   5.179   1.585   0.403
20125SOL    HW260400   5.072   1.662   0.500
20126SOL     OW60401   3.854   1.794   1.851
20126SOL    HW160402   3.813   1.720   1.904
20126SOL    HW260403   3.918   1.845   1.909
20127SOL     OW60404   5.004   0.927   0.672
20127SOL    HW160405   5.064   0.846   0.674
20127SOL    HW260406   5.044   0.996   0.612
20128SOL     OW60407   4.554   1.273   1.422
20128SOL    HW160408   4.549   1.306   1.517
20128SOL    HW260409   4.468   1.292   1.376
20129SOL     OW60410   4.396   1.616   0.154
20129SOL    HW160411   4.405   1.626   0.055
20129SOL    HW260412   4.356   1.527   0.175
20130SOL     OW60413   5.374   1.720   1.394
20130SOL    HW160414   5.427   1.730   1.310
20130SOL    HW260415   5.347   1.810   1.428
20131SOL     OW60416   5.565   0.175   0.963
20131SOL    HW160417   5.604   0.090   0.927
20131SOL    HW260418   5.467   0.177   0.944
20132SOL     OW60419   3.987   0.326   0.720
20132SOL    HW160420   3.908   0.377   0.686
20132SOL    HW260421   3.978   0.311   0.818
20133SOL     OW60422   4.918   1.612   0.031
20133SOL    HW160423   4.924   1.519   0.068
20133SOL    HW260424   4.859   1.612  -0.049
20134SOL     OW60425   4.546   1.002   1.372
20134SOL    HW160426   4.586   1.001   1.280
20134SOL    HW260427   4.556   1.094   1.412
20135SOL     OW60428   4.640   0.910   0.291
20135SOL    HW160429   4.703   0.948   0.223
20135SOL    HW260430   4.680   0.827   0.330
20136SOL     OW60431   5.228   1.607   0.044
20136SOL    HW160432   5.136   1.644   0.051
20136SOL    HW260433   5.266   1.627  -0.046
20137SOL     OW60434   4.096   1.288   1.490
20137SOL    HW160435   4.083   1.381   1.456
20137SOL    HW260436   4.012   1.236   1.477
20138SOL     OW60437   5.338   1.292   1.289
20138SOL    HW160438   5.398   1.295   1.369
20138SOL    HW260439   5.263   1.356   1.302
20139SOL     OW60440   4.763   1.098   0.696
20139SOL    HW160441   4.693   1.051   0.750
20139SOL    HW260442   4.822   1.030   0.653
20140SOL     OW60443   4.738   0.236   0.971
20140SOL    HW160444   4.730   0.200   0.878
20140SOL    HW260445   4.736   0.160   1.036
20141SOL     OW60446   4.314   1.487   0.491
20141SOL    HW160447   4.356   1.429   0.421
20141SOL    HW260448   4.270   1.566   0.447
20142SOL     OW60449   5.433   0.385   1.381
20142SOL    HW160450   5.506   0.454   1.385
20142SOL    HW260451   5.461   0.310   1.322
20143SOL     OW60452   3.979   1.348   0.290
20143SOL    HW160453   3.883   1.349   0.263
20143SOL    HW260454   3.991   1.401   0.374
20144SOL     OW60455   3.829   1.013   1.726
20144SOL    HW160456   3.752   0.980   1.780
20144SOL    HW260457   3.914   0.983   1.768
20145SOL     OW60458   4.396   0.203   1.489
20145SOL    HW160459   4.486   0.187   1.449
20145SOL    HW260460   4.404   0.208   1.588
20146SOL     OW60461   5.164   0.856   1.398
20146SOL    HW160462   5.107   0.908   1.335
20146SOL    HW260463   5.260   0.868   1.374
20147SOL     OW60464   3.796   0.166   0.318
20147SOL    HW160465   3.779   0.249   0.264
20147SOL    HW260466   3.886   0.129   0.296
20148SOL     OW60467   4.907   1.335   0.119
20148SOL    HW160468   4.808   1.324   0.121
20148SOL    HW260469   4.941   1.350   0.212
20149SOL     OW60470   4.337   0.842   1.431
20149SOL    HW160471   4.393   0.923   1.414
20149SOL    HW260472   4.396   0.762   1.434
20150SOL     OW60473   5.217   1.767   0.959
20150SOL    HW160474   5.250   1.831   0.890
20150SOL    HW260475   5.283   1.761   1.034
20151SOL     OW60476   4.440   0.565   1.708
20151SOL    HW160477   4.459   0.630   1.782
20151SOL    HW260478   4.500   0.485   1.717
20152SOL     OW60479   5.174   1.220   1.633
20152SOL    HW160480   5.165   1.210   1.732
20152SOL    HW260481   5.270   1.213   1.607
20153SOL     OW60482   4.114   1.741   1.560
20153SOL    HW160483   4.023   1.782   1.558
20153SOL    HW260484   4.107   1.647   1.592
20154SOL     OW60485   5.398   0.883   1.254
20154SOL    HW160486   5.371   0.794   1.217
20154SOL    HW260487   5.399   0.951   1.181
20155SOL     OW60488   4.949   0.325   0.449
20155SOL    HW160489   5.014   0.251   0.438
20155SOL    HW260490   4.969   0.375   0.533
20156SOL     OW60491   4.318   0.745   0.652
20156SOL    HW160492   4.368   0.830   0.633
20156SOL    HW260493   4.230   0.747   0.604
20157SOL     OW60494   5.501   0.342   1.642
20157SOL    HW160495   5.484   0.373   1.548
20157SOL    HW260496   5.417   0.305   1.680
20158SOL     OW60497   5.454   0.934   1.517
20158SOL    HW160498   5.492   1.025   1.532
20158SOL    HW260499   5.446   0.917   1.418
20159SOL     OW60500   4.583   1.374   0.016
20159SOL    HW160501   4.537   1.389   0.104
20159SOL    HW260502   4.627   1.459  -0.014
20160SOL     OW60503   4.385   1.790   0.953
20160SOL    HW160504   4.339   1.878   0.940
20160SOL    HW260505   4.484   1.802   0.946
20161SOL     OW60506   4.583   0.956   0.861
20161SOL    HW160507   4.637   0.887   0.909
20161SOL    HW260508   4.551   1.025   0.927
20162SOL     OW60509   4.807   0.984   0.087
20162SOL    HW160510   4.784   1.037   0.005
20162SOL    HW260511   4.888   0.928   0.068
20163SOL     OW60512   5.585   1.569   0.851
20163SOL    HW160513   5.514   1.557   0.781
20163SOL    HW260514   5.586   1.490   0.911
20164SOL     OW60515   3.945   1.314   1.844
20164SOL    HW160516   3.880   1.241   1.823
20164SOL    HW260517   3.949   1.328   1.942
20165SOL     OW60518   3.803   1.240   0.653
20165SOL    HW160519   3.802   1.193   0.741
20165SOL    HW260520   3.885   1.212   0.602
20166SOL     OW60521   4.396   1.391   1.624
20166SOL    HW160522   4.318   1.341   1.662
20166SOL    HW260523   4.393   1.486   1.655
20167SOL     OW60524   5.548   0.192   1.227
20167SOL    HW160525   5.544   0.102   1.271
20167SOL    HW260526   5.551   0.181   1.128
20168SOL     OW60527   4.152   0.424   0.520
20168SOL    HW160528   4.182   0.352   0.458
20168SOL    HW260529   4.113   0.384   0.603
20169SOL     OW60530   5.429   1.487   1.104
20169SOL    HW160531   5.336   1.462   1.077
20169SOL    HW260532   5.455   1.437   1.186
20170SOL     OW60533   4.041   0.547   1.280
20170SOL    HW160534   4.079   0.488   1.352
20170SOL    HW260535   4.081   0.521   1.192
20171SOL     OW60536   4.536   1.586   0.687
20171SOL    HW160537   4.568   1.596   0.593
20171SOL    HW260538   4.457   1.524   0.689
20172SOL     OW60539   5.148   0.214   1.112
20172SOL    HW160540   5.200   0.149   1.167
20172SOL    HW260541   5.099   0.277   1.173
20173SOL     OW60542   4.725   0.034   1.154
20173SOL    HW160543   4.662  -0.038   1.123
20173SOL    HW260544   4.818  -0.002   1.154
20174SOL     OW60545   4.494   1.330   0.301
20174SOL    HW160546   4.448   1.243   0.318
20174SOL    HW260547   4.585   1.327   0.342
20175SOL     OW60548   4.342   1.567   1.284
20175SOL    HW160549   4.337   1.649   1.341
20175SOL    HW260550   4.431   1.564   1.239
20176SOL     OW60551   5.076   0.052   0.168
20176SOL    HW160552   5.111   0.011   0.084
20176SOL    HW260553   4.986   0.014   0.188
20177SOL     OW60554   5.024   0.453   0.691
20177SOL    HW160555   4.965   0.533   0.695
20177SOL    HW260556   5.039   0.418   0.784
20178SOL     OW60557   5.317   0.221   0.882
20178SOL    HW160558   5.233   0.220   0.936
20178SOL    HW260559   5.319   0.304   0.826
20179SOL     OW60560   3.763   1.077   0.300
20179SOL    HW160561   3.862   1.066   0.291
20179SOL    HW260562   3.723   0.991   0.332
20180SOL     OW60563   4.599   1.646   0.337
20180SOL    HW160564   4.522   1.611   0.283
20180SOL    HW260565   4.567   1.717   0.399
20181SOL     OW60566   3.954   0.628   1.975
20181SOL    HW160567   3.861   0.626   2.012
20181SOL    HW260568   3.955   0.589   1.883
20182SOL     OW60569   3.949   0.275   2.858
20182SOL    HW160570   3.984   0.258   2.950
20182SOL    HW260571   3.861   0.230   2.846
20183SOL     OW60572   3.743   0.368   2.509
20183SOL    HW160573   3.661   0.411   2.548
20183SOL    HW260574   3.715   0.295   2.446
20184SOL     OW60575   4.293   1.275   3.027
20184SOL    HW160576   4.200   1.268   2.990
20184SOL    HW260577   4.304   1.364   3.071
20185SOL     OW60578   5.279   1.511   2.565
20185SOL    HW160579   5.222   1.495   2.646
20185SOL    HW260580   5.220   1.521   2.485
20186SOL     OW60581   4.859   0.703   2.579
20186SOL    HW160582   4.916   0.781   2.554
20186SOL    HW260583   4.799   0.729   2.655
20187SOL     OW60584   5.479   0.607   2.093
20187SOL    HW160585   5.467   0.594   1.994
20187SOL    HW260586   5.449   0.526   2.142
20188SOL     OW60587   4.492   1.144   2.885
20188SOL    HW160588   4.414   1.161   2.945
20188SOL    HW260589   4.526   1.231   2.849
20189SOL     OW60590   4.574   0.798   3.685
20189SOL    HW160591   4.570   0.874   3.750
20189SOL    HW260592   4.596   0.834   3.594
20190SOL     OW60593   4.409   1.012   2.527
20190SOL    HW160594   4.478   0.996   2.597
20190SOL    HW260595   4.336   1.069   2.565
20191SOL     OW60596   4.410   1.161   3.665
20191SOL    HW160597   4.470   1.240   3.679
20191SOL    HW260598   4.324   1.192   3.624
20192SOL     OW60599   4.059   1.435   2.923
20192SOL    HW160600   3.981   1.404   2.870
20192SOL    HW260601   4.117   1.493   2.866
20193SOL     OW60602   5.184   1.505   3.201
20193SOL    HW160603   5.208   1.599   3.227
20193SOL    HW260604   5.168   1.451   3.283
20194SOL     OW60605   4.162   0.392   3.361
20194SOL    HW160606   4.244   0.336   3.370
20194SOL    HW260607   4.081   0.334   3.365
20195SOL     OW60608   5.327   0.447   2.599
20195SOL    HW160609   5.253   0.493   2.549
20195SOL    HW260610   5.378   0.515   2.652
20196SOL     OW60611   3.955   1.713   2.345
20196SOL    HW160612   3.989   1.790   2.399
20196SOL    HW260613   3.999   1.713   2.255
20197SOL     OW60614   4.851   1.341   3.552
20197SOL    HW160615   4.898   1.341   3.640
20197SOL    HW260616   4.803   1.254   3.541
20198SOL     OW60617   3.954   1.434   2.400
20198SOL    HW160618   3.928   1.530   2.400
20198SOL    HW260619   3.883   1.380   2.445
20199SOL     OW60620   3.964   1.091   2.748
20199SOL    HW160621   3.978   1.007   2.800
20199SOL    HW260622   3.909   1.155   2.803
20200SOL     OW60623   4.344   1.786   3.301
20200SOL    HW160624   4.252   1.769   3.336
20200SOL    HW260625   4.372   1.878   3.327
20201SOL     OW60626   4.330   0.964   1.985
20201SOL    HW160627   4.337   1.048   1.931
20201SOL    HW260628   4.376   0.977   2.073
20202SOL     OW60629   5.318   0.114   3.342
20202SOL    HW160630   5.300   0.181   3.270
20202SOL    HW260631   5.315   0.160   3.431
20203SOL     OW60632   3.846   0.643   2.425
20203SOL    HW160633   3.801   0.555   2.442
20203SOL    HW260634   3.845   0.697   2.509
20204SOL     OW60635   5.566   1.767   2.221
20204SOL    HW160636   5.620   1.738   2.301
20204SOL    HW260637   5.596   1.857   2.192
20205SOL     OW60638   3.751   1.596   1.979
20205SOL    HW160639   3.732   1.500   2.000
20205SOL    HW260640   3.718   1.654   2.054
20206SOL     OW60641   5.413   0.922   2.474
20206SOL    HW160642   5.508   0.893   2.482
20206SOL    HW260643   5.405   0.987   2.399
20207SOL     OW60644   5.365   1.108   2.294
20207SOL    HW160645   5.451   1.110   2.242
20207SOL    HW260646   5.379   1.155   2.382
20208SOL     OW60647   3.837   0.737   3.459
20208SOL    HW160648   3.925   0.724   3.504
20208SOL    HW260649   3.824   0.834   3.437
20209SOL     OW60650   4.337   1.365   2.588
20209SOL    HW160651   4.288   1.278   2.597
20209SOL    HW260652   4.314   1.408   2.501
20210SOL     OW60653   5.017   1.228   3.285
20210SOL    HW160654   5.054   1.155   3.227
20210SOL    HW260655   5.069   1.233   3.370
20211SOL     OW60656   4.533   0.004   2.364
20211SOL    HW160657   4.573   0.095   2.355
20211SOL    HW260658   4.433   0.012   2.370
20212SOL     OW60659   3.921   0.976   3.126
20212SOL    HW160660   4.010   0.931   3.112
20212SOL    HW260661   3.848   0.911   3.107
20213SOL     OW60662   5.249   0.999   2.052
20213SOL    HW160663   5.186   0.923   2.065
20213SOL    HW260664   5.297   1.017   2.138
20214SOL     OW60665   4.911   1.792   3.478
20214SOL    HW160666   4.935   1.852   3.402
20214SOL    HW260667   4.918   1.697   3.448
20215SOL     OW60668   4.041   0.251   3.663
20215SOL    HW160669   4.112   0.322   3.669
20215SOL    HW260670   3.953   0.290   3.691
20216SOL     OW60671   5.190   1.417   2.815
20216SOL    HW160672   5.131   1.423   2.895
20216SOL    HW260673   5.175   1.329   2.769
20217SOL     OW60674   5.391   1.714   2.434
20217SOL    HW160675   5.350   1.691   2.346
20217SOL    HW260676   5.373   1.640   2.499
20218SOL     OW60677   4.322   0.729   2.132
20218SOL    HW160678   4.346   0.798   2.064
20218SOL    HW260679   4.244   0.762   2.186
20219SOL     OW60680   5.005   0.345   2.806
20219SOL    HW160681   4.919   0.295   2.793
20219SOL    HW260682   5.067   0.291   2.862
20220SOL     OW60683   5.300   1.662   2.169
20220SOL    HW160684   5.389   1.708   2.172
20220SOL    HW260685   5.279   1.638   2.074
20221SOL     OW60686   4.531   0.605   3.327
20221SOL    HW160687   4.484   0.602   3.416
20221SOL    HW260688   4.480   0.550   3.261
20222SOL     OW60689   5.118   0.469   3.536
20222SOL    HW160690   5.098   0.512   3.624
20222SOL    HW260691   5.196   0.407   3.545
20223SOL     OW60692   4.697   0.890   3.434
20223SOL    HW160693   4.743   0.806   3.405
20223SOL    HW260694   4.641   0.924   3.359
20224SOL     OW60695   4.715   0.410   3.104
20224SOL    HW160696   4.638   0.444   3.158
20224SOL    HW260697   4.681   0.359   3.025
20225SOL     OW60698   4.765   0.701   2.291
20225SOL    HW160699   4.791   0.697   2.387
20225SOL    HW260700   4.680   0.650   2.277
20226SOL     OW60701   3.800   0.811   2.651
20226SOL    HW160702   3.899   0.799   2.660
20226SOL    HW260703   3.776   0.906   2.672
20227SOL     OW60704   3.854   1.821   3.433
20227SOL    HW160705   3.844   1.806   3.532
20227SOL    HW260706   3.768   1.857   3.397
20228SOL     OW60707   4.589   0.348   2.057
20228SOL    HW160708   4.648   0.411   2.008
20228SOL    HW260709   4.608   0.254   2.028
20229SOL     OW60710   5.443   0.585   3.693
20229SOL    HW160711   5.417   0.674   3.657
20229SOL    HW260712   5.441   0.517   3.620
20230SOL     OW60713   5.086   1.144   2.407
20230SOL    HW160714   5.169   1.115   2.359
20230SOL    HW260715   5.037   1.211   2.351
20231SOL     OW60716   4.274   0.196   2.747
20231SOL    HW160717   4.269   0.191   2.847
20231SOL    HW260718   4.276   0.292   2.718
20232SOL     OW60719   4.732   1.456   2.339
20232SOL    HW160720   4.686   1.528   2.287
20232SOL    HW260721   4.728   1.476   2.437
20233SOL     OW60722   4.075   1.801   2.715
20233SOL    HW160723   4.125   1.715   2.721
20233SOL    HW260724   4.140   1.878   2.712
20234SOL     OW60725   5.519   1.066   2.735
20234SOL    HW160726   5.457   1.051   2.659
20234SOL    HW260727   5.467   1.077   2.820
20235SOL     OW60728   4.951   1.550   3.368
20235SOL    HW160729   4.957   1.473   3.432
20235SOL    HW260730   4.899   1.524   3.288
20236SOL     OW60731   4.045   0.943   2.104
20236SOL    HW160732   4.127   0.982   2.062
20236SOL    HW260733   4.018   0.861   2.055
20237SOL     OW60734   5.182   0.735   2.590
20237SOL    HW160735   5.177   0.670   2.665
20237SOL    HW260736   5.262   0.794   2.603
20238SOL     OW60737   4.185   1.266   3.589
20238SOL    HW160738   4.135   1.267   3.503
20238SOL    HW260739   4.122   1.248   3.665
20239SOL     OW60740   4.835   1.776   2.099
20239SOL    HW160741   4.775   1.714   2.149
20239SOL    HW260742   4.866   1.732   2.014
20240SOL     OW60743   3.926   0.285   3.360
20240SOL    HW160744   3.846   0.345   3.347
20240SOL    HW260745   3.916   0.236   3.446
20241SOL     OW60746   5.356   1.377   1.943
20241SOL    HW160747   5.324   1.471   1.933
20241SOL    HW260748   5.280   1.314   1.931
20242SOL     OW60749   4.188   1.743   2.185
20242SOL    HW160750   4.221   1.782   2.271
20242SOL    HW260751   4.264   1.736   2.120
20243SOL     OW60752   5.124   0.107   2.288
20243SOL    HW160753   5.100   0.070   2.198
20243SOL    HW260754   5.223   0.123   2.292
20244SOL     OW60755   3.973   1.785   3.103
20244SOL    HW160756   4.030   1.720   3.153
20244SOL    HW260757   3.957   1.752   3.010
20245SOL     OW60758   4.664   1.698   2.766
20245SOL    HW160759   4.744   1.641   2.787
20245SOL    HW260760   4.615   1.658   2.689
20246SOL     OW60761   4.106   0.700   2.342
20246SOL    HW160762   4.151   0.610   2.339
20246SOL    HW260763   4.012   0.689   2.375
20247SOL     OW60764   5.271   0.222   3.591
20247SOL    HW160765   5.266   0.259   3.683
20247SOL    HW260766   5.199   0.153   3.579
20248SOL     OW60767   4.338   0.122   1.979
20248SOL    HW160768   4.436   0.100   1.986
20248SOL    HW260769   4.307   0.105   1.886
20249SOL     OW60770   4.505   0.264   3.611
20249SOL    HW160771   4.572   0.203   3.654
20249SOL    HW260772   4.432   0.283   3.676
20250SOL     OW60773   4.612   1.514   3.057
20250SOL    HW160774   4.589   1.489   2.963
20250SOL    HW260775   4.673   1.445   3.096
20251SOL     OW60776   5.075   0.590   3.295
20251SOL    HW160777   5.103   0.547   3.380
20251SOL    HW260778   5.100   0.686   3.296
20252SOL     OW60779   4.527   1.402   2.786
20252SOL    HW160780   4.617   1.416   2.744
20252SOL    HW260781   4.456   1.404   2.715
20253SOL     OW60782   4.646   0.503   2.761
20253SOL    HW160783   4.621   0.494   2.665
20253SOL    HW260784   4.694   0.421   2.792
20254SOL     OW60785   4.263   0.064   2.374
20254SOL    HW160786   4.182   0.065   2.432
20254SOL    HW260787   4.266   0.147   2.319
20255SOL     OW60788   5.158   1.188   1.903
20255SOL    HW160789   5.190   1.112   1.960
20255SOL    HW260790   5.066   1.215   1.933
20256SOL     OW60791   4.021   0.035   2.033
20256SOL    HW160792   4.070   0.119   2.012
20256SOL    HW260793   4.083  -0.030   2.078
20257SOL     OW60794   4.659   0.236   2.342
20257SOL    HW160795   4.611   0.277   2.264
20257SOL    HW260796   4.758   0.234   2.323
20258SOL     OW60797   4.800   0.683   3.326
20258SOL    HW160798   4.720   0.622   3.329
20258SOL    HW260799   4.881   0.630   3.302
20259SOL     OW60800   4.951   1.570   2.655
20259SOL    HW160801   4.972   1.644   2.590
20259SOL    HW260802   5.019   1.570   2.728
20260SOL     OW60803   4.183   1.152   2.603
20260SOL    HW160804   4.112   1.125   2.668
20260SOL    HW260805   4.157   1.124   2.510
20261SOL     OW60806   4.995   1.797   2.453
20261SOL    HW160807   5.039   1.861   2.389
20261SOL    HW260808   4.945   1.849   2.523
20262SOL     OW60809   4.756   0.549   1.878
20262SOL    HW160810   4.715   0.631   1.839
20262SOL    HW260811   4.820   0.575   1.951
20263SOL     OW60812   4.285   0.222   3.009
20263SOL    HW160813   4.323   0.138   3.046
20263SOL    HW260814   4.197   0.241   3.053
20264SOL     OW60815   4.590   0.454   2.504
20264SOL    HW160816   4.558   0.526   2.442
20264SOL    HW260817   4.614   0.373   2.451
20265SOL     OW60818   4.741   0.039   2.615
20265SOL    HW160819   4.669   0.044   2.546
20265SOL    HW260820   4.717  -0.030   2.684
20266SOL     OW60821   5.153   1.173   2.729
20266SOL    HW160822   5.098   1.089   2.722
20266SOL    HW260823   5.179   1.202   2.637
20267SOL     OW60824   5.190   0.590   2.854
20267SOL    HW160825   5.160   0.495   2.861
20267SOL    HW260826   5.263   0.606   2.920
20268SOL     OW60827   5.581   0.833   2.239
20268SOL    HW160828   5.623   0.769   2.303
20268SOL    HW260829   5.543   0.782   2.161
20269SOL     OW60830   4.212   1.385   2.036
20269SOL    HW160831   4.125   1.370   2.083
20269SOL    HW260832   4.195   1.411   1.941
20270SOL     OW60833   5.388   1.280   2.519
20270SOL    HW160834   5.487   1.288   2.533
20270SOL    HW260835   5.343   1.364   2.550
20271SOL     OW60836   5.114   0.575   1.940
20271SOL    HW160837   5.060   0.554   2.021
20271SOL    HW260838   5.205   0.534   1.949
20272SOL     OW60839   4.251   0.256   2.190
20272SOL    HW160840   4.278   0.197   2.115
20272SOL    HW260841   4.251   0.351   2.159
20273SOL     OW60842   5.478   1.223   3.450
20273SOL    HW160843   5.569   1.184   3.437
20273SOL    HW260844   5.486   1.319   3.474
20274SOL     OW60845   4.788   1.347   3.202
20274SOL    HW160846   4.708   1.324   3.257
20274SOL    HW260847   4.871   1.321   3.251
20275SOL     OW60848   5.316   1.629   3.487
20275SOL    HW160849   5.343   1.663   3.397
20275SOL    HW260850   5.395   1.591   3.533
20276SOL     OW60851   4.835   1.195   2.962
20276SOL    HW160852   4.795   1.239   3.043
20276SOL    HW260853   4.794   1.232   2.879
20277SOL     OW60854   5.362   1.099   2.941
20277SOL    HW160855   5.367   1.180   3.000
20277SOL    HW260856   5.276   1.101   2.890
20278SOL     OW60857   4.639   0.089   3.264
20278SOL    HW160858   4.664   0.069   3.169
20278SOL    HW260859   4.711   0.145   3.306
20279SOL     OW60860   4.704   1.116   3.581
20279SOL    HW160861   4.605   1.122   3.591
20279SOL    HW260862   4.727   1.036   3.525
20280SOL     OW60863   4.429   1.050   2.230
20280SOL    HW160864   4.415   1.057   2.329
20280SOL    HW260865   4.513   0.999   2.212
20281SOL     OW60866   4.134   0.813   3.113
20281SOL    HW160867   4.220   0.825   3.163
20281SOL    HW260868   4.092   0.726   3.140
20282SOL     OW60869   4.998   0.386   3.124
20282SOL    HW160870   5.019   0.460   3.188
20282SOL    HW260871   4.909   0.403   3.081
20283SOL     OW60872   3.788   1.564   3.193
20283SOL    HW160873   3.742   1.646   3.159
20283SOL    HW260874   3.886   1.583   3.202
20284SOL     OW60875   4.091   1.100   2.363
20284SOL    HW160876   4.084   1.183   2.307
20284SOL    HW260877   4.095   1.020   2.303
20285SOL     OW60878   4.290   0.537   2.727
20285SOL    HW160879   4.302   0.603   2.653
20285SOL    HW260880   4.336   0.571   2.810
20286SOL     OW60881   4.976   1.348   2.250
20286SOL    HW160882   5.026   1.425   2.290
20286SOL    HW260883   4.881   1.350   2.282
20287SOL     OW60884   4.996   1.445   3.004
20287SOL    HW160885   5.043   1.458   3.091
20287SOL    HW260886   4.930   1.371   3.013
20288SOL     OW60887   5.306   0.639   2.334
20288SOL    HW160888   5.275   0.700   2.407
20288SOL    HW260889   5.356   0.691   2.265
20289SOL     OW60890   4.078   1.510   3.191
20289SOL    HW160891   4.057   1.466   3.104
20289SOL    HW260892   4.175   1.536   3.194
20290SOL     OW60893   4.126   0.751   3.460
20290SOL    HW160894   4.194   0.806   3.413
20290SOL    HW260895   4.166   0.663   3.487
20291SOL     OW60896   5.311   0.779   3.532
20291SOL    HW160897   5.219   0.817   3.527
20291SOL    HW260898   5.371   0.826   3.467
20292SOL     OW60899   4.737   0.105   3.632
20292SOL    HW160900   4.743   0.190   3.580
20292SOL    HW260901   4.769   0.029   3.575
20293SOL     OW60902   4.228   0.050   3.602
20293SOL    HW160903   4.186  -0.007   3.532
20293SOL    HW260904   4.162   0.119   3.634
20294SOL     OW60905   4.297   0.870   2.891
20294SOL    HW160906   4.341   0.959   2.882
20294SOL    HW260907   4.234   0.870   2.968
20295SOL     OW60908   5.084   0.862   2.907
20295SOL    HW160909   5.009   0.862   2.841
20295SOL    HW260910   5.121   0.770   2.916
20296SOL     OW60911   4.933   0.525   2.137
20296SOL    HW160912   4.946   0.441   2.191
20296SOL    HW260913   4.904   0.599   2.197
20297SOL     OW60914   4.031   0.213   3.093
20297SOL    HW160915   4.008   0.250   3.183
20297SOL    HW260916   4.001   0.118   3.087
20298SOL     OW60917   3.761   1.310   3.144
20298SOL    HW160918   3.814   1.261   3.212
20298SOL    HW260919   3.783   1.408   3.149
20299SOL     OW60920   4.456   0.634   2.926
20299SOL    HW160921   4.515   0.608   2.850
20299SOL    HW260922   4.428   0.730   2.915
20300SOL     OW60923   5.452   0.935   3.716
20300SOL    HW160924   5.406   0.928   3.627
20300SOL    HW260925   5.390   0.979   3.782
20301SOL     OW60926   4.031   0.063   2.480
20301SOL    HW160927   4.020   0.157   2.513
20301SOL    HW260928   4.026   0.000   2.557
20302SOL     OW60929   5.346   0.367   2.236
20302SOL    HW160930   5.348   0.291   2.300
20302SOL    HW260931   5.298   0.444   2.276
20303SOL     OW60932   4.747   0.766   2.828
20303SOL    HW160933   4.762   0.787   2.924
20303SOL    HW260934   4.717   0.671   2.819
20304SOL     OW60935   4.704   1.573   3.562
20304SOL    HW160936   4.684   1.617   3.474
20304SOL    HW260937   4.743   1.482   3.546
20305SOL     OW60938   5.583   1.518   3.467
20305SOL    HW160939   5.597   1.545   3.372
20305SOL    HW260940   5.666   1.540   3.520
20306SOL     OW60941   4.074   0.898   3.666
20306SOL    HW160942   4.150   0.942   3.714
20306SOL    HW260943   4.109   0.851   3.584
20307SOL     OW60944   5.264   0.274   1.987
20307SOL    HW160945   5.203   0.199   2.010
20307SOL    HW260946   5.286   0.326   2.070
20308SOL     OW60947   5.027   0.838   1.904
20308SOL    HW160948   5.061   0.745   1.919
20308SOL    HW260949   5.045   0.865   1.809
20309SOL     OW60950   4.792   1.333   2.711
20309SOL    HW160951   4.799   1.249   2.656
20309SOL    HW260952   4.854   1.402   2.675
20310SOL     OW60953   4.043   0.810   2.811
20310SOL    HW160954   4.136   0.846   2.816
20310SOL    HW260955   4.037   0.725   2.863
20311SOL     OW60956   4.063   0.509   2.868
20311SOL    HW160957   4.011   0.426   2.851
20311SOL    HW260958   4.140   0.514   2.804
20312SOL     OW60959   4.862   0.380   3.540
20312SOL    HW160960   4.817   0.443   3.604
20312SOL    HW260961   4.955   0.411   3.523
20313SOL     OW60962   4.884   0.207   3.339
20313SOL    HW160963   4.884   0.271   3.416
20313SOL    HW260964   4.912   0.255   3.256
20314SOL     OW60965   3.732   1.326   2.062
20314SOL    HW160966   3.639   1.347   2.031
20314SOL    HW260967   3.742   1.227   2.075
20315SOL     OW60968   3.812   1.801   2.789
20315SOL    HW160969   3.770   1.715   2.762
20315SOL    HW260970   3.906   1.804   2.755
20316SOL     OW60971   4.228   1.568   2.772
20316SOL    HW160972   4.294   1.642   2.781
20316SOL    HW260973   4.272   1.489   2.730
20317SOL     OW60974   4.726   0.796   3.100
20317SOL    HW160975   4.767   0.764   3.186
20317SOL    HW260976   4.630   0.769   3.097
20318SOL     OW60977   3.764   0.544   2.976
20318SOL    HW160978   3.849   0.511   2.935
20318SOL    HW260979   3.777   0.559   3.074
20319SOL     OW60980   3.913   0.520   3.584
20319SOL    HW160981   3.972   0.480   3.514
20319SOL    HW260982   3.855   0.591   3.543
20320SOL     OW60983   5.093   0.950   3.522
20320SOL    HW160984   5.132   1.039   3.542
20320SOL    HW260985   5.103   0.930   3.425
20321SOL     OW60986   4.539   0.572   2.187
20321SOL    HW160987   4.546   0.483   2.141
20321SOL    HW260988   4.445   0.606   2.179
20322SOL     OW60989   5.381   0.604   3.068
20322SOL    HW160990   5.343   0.535   3.130
20322SOL    HW260991   5.463   0.568   3.024
20323SOL     OW60992   3.976   1.564   3.606
20323SOL    HW160993   3.946   1.621   3.682
20323SOL    HW260994   3.969   1.467   3.632
20324SOL     OW60995   4.395   0.464   3.131
20324SOL    HW160996   4.361   0.375   3.101
20324SOL    HW260997   4.421   0.518   3.051
20325SOL     OW60998   4.654   1.678   3.327
20325SOL    HW160999   4.630   1.660   3.232
20325SOL    HW261000   4.684   1.772   3.337
20326SOL     OW61001   4.197   0.500   2.053
20326SOL    HW161002   4.258   0.580   2.057
20326SOL    HW261003   4.102   0.531   2.060
20327SOL     OW61004   3.883   1.137   3.328
20327SOL    HW161005   3.905   1.076   3.404
20327SOL    HW261006   3.893   1.088   3.242
20328SOL     OW61007   5.071   1.059   3.096
20328SOL    HW161008   5.095   0.996   3.022
20328SOL    HW261009   4.981   1.099   3.078
20329SOL     OW61010   5.026   0.855   2.171
20329SOL    HW161011   4.940   0.824   2.213
20329SOL    HW261012   5.022   0.841   2.072
20330SOL     OW61013   5.483   1.747   3.016
20330SOL    HW161014   5.544   1.777   2.943
20330SOL    HW261015   5.445   1.658   2.994
20331SOL     OW61016   4.976   1.731   2.990
20331SOL    HW161017   5.060   1.736   2.936
20331SOL    HW261018   4.953   1.635   3.008
20332SOL     OW61019   3.807   1.258   2.884
20332SOL    HW161020   3.802   1.257   2.984
20332SOL    HW261021   3.724   1.217   2.846
20333SOL     OW61022   4.412   1.662   3.578
20333SOL    HW161023   4.356   1.743   3.587
20333SOL    HW261024   4.464   1.666   3.492
20334SOL     OW61025   5.450   0.135   2.385
20334SOL    HW161026   5.523   0.118   2.318
20334SOL    HW261027   5.419   0.048   2.423
20335SOL     OW61028   5.112   1.573   2.339
20335SOL    HW161029   5.179   1.585   2.265
20335SOL    HW261030   5.072   1.662   2.362
20336SOL     OW61031   3.854   1.794   3.713
20336SOL    HW161032   3.813   1.720   3.766
20336SOL    HW261033   3.918   1.845   3.771
20337SOL     OW61034   5.004   0.927   2.534
20337SOL    HW161035   5.064   0.846   2.536
20337SOL    HW261036   5.044   0.996   2.474
20338SOL     OW61037   4.554   1.273   3.284
20338SOL    HW161038   4.549   1.306   3.379
20338SOL    HW261039   4.468   1.292   3.238
20339SOL     OW61040   4.396   1.616   2.016
20339SOL    HW161041   4.405   1.626   1.917
20339SOL    HW261042   4.356   1.527   2.037
20340SOL     OW61043   5.374   1.720   3.256
20340SOL    HW161044   5.427   1.730   3.172
20340SOL    HW261045   5.347   1.810   3.290
20341SOL     OW61046   5.565   0.175   2.825
20341SOL    HW161047   5.604   0.090   2.789
20341SOL    HW261048   5.467   0.177   2.806
20342SOL     OW61049   3.987   0.326   2.582
20342SOL    HW161050   3.908   0.377   2.548
20342SOL    HW261051   3.978   0.311   2.680
20343SOL     OW61052   4.918   1.612   1.893
20343SOL    HW161053   4.924   1.519   1.930
20343SOL    HW261054   4.859   1.612   1.813
20344SOL     OW61055   4.546   1.002   3.234
20344SOL    HW161056   4.586   1.001   3.142
20344SOL    HW261057   4.556   1.094   3.274
20345SOL     OW61058   4.640   0.910   2.153
20345SOL    HW161059   4.703   0.948   2.085
20345SOL    HW261060   4.680   0.827   2.192
20346SOL     OW61061   5.228   1.607   1.906
20346SOL    HW161062   5.136   1.644   1.913
20346SOL    HW261063   5.266   1.627   1.816
20347SOL     OW61064   4.096   1.288   3.352
20347SOL    HW161065   4.083   1.381   3.318
20347SOL    HW261066   4.012   1.236   3.339
20348SOL     OW61067   5.338   1.292   3.151
20348SOL    HW161068   5.398   1.295   3.231
20348SOL    HW261069   5.263   1.356   3.164
20349SOL     OW61070   4.763   1.098   2.558
20349SOL    HW161071   4.693   1.051   2.612
20349SOL    HW261072   4.822   1.030   2.515
20350SOL     OW61073   4.738   0.236   2.833
20350SOL    HW161074   4.730   0.200   2.740
20350SOL    HW261075   4.736   0.160   2.898
20351SOL     OW61076   4.314   1.487   2.353
20351SOL    HW161077   4.356   1.429   2.283
20351SOL    HW261078   4.270   1.566   2.309
20352SOL     OW61079   5.433   0.385   3.243
20352SOL    HW161080   5.506   0.454   3.247
20352SOL    HW261081   5.461   0.310   3.184
20353SOL     OW61082   3.979   1.348   2.152
20353SOL    HW161083   3.883   1.349   2.125
20353SOL    HW261084   3.991   1.401   2.236
20354SOL     OW61085   3.829   1.013   3.588
20354SOL    HW161086   3.752   0.980   3.642
20354SOL    HW261087   3.914   0.983   3.630
20355SOL     OW61088   4.396   0.203   3.351
20355SOL    HW161089   4.486   0.187   3.311
20355SOL    HW261090   4.404   0.208   3.450
20356SOL     OW61091   3.799   0.345   1.895
20356SOL    HW161092   3.707   0.317   1.866
20356SOL    HW261093   3.830   0.422   1.839
20357SOL     OW61094   5.164   0.856   3.260
20357SOL    HW161095   5.107   0.908   3.197
20357SOL    HW261096   5.260   0.868   3.236
20358SOL     OW61097   3.796   0.166   2.180
20358SOL    HW161098   3.779   0.249   2.126
20358SOL    HW261099   3.886   0.129   2.158
20359SOL     OW61100   4.907   1.335   1.981
20359SOL    HW161101   4.808   1.324   1.983
20359SOL    HW261102   4.941   1.350   2.074
20360SOL     OW61103   4.337   0.842   3.293
20360SOL    HW161104   4.393   0.923   3.276
20360SOL    HW261105   4.396   0.762   3.296
20361SOL     OW61106   5.217   1.767   2.821
20361SOL    HW161107   5.250   1.831   2.752
20361SOL    HW261108   5.283   1.761   2.896
20362SOL     OW61109   4.440   0.565   3.570
20362SOL    HW161110   4.459   0.630   3.644
20362SOL    HW261111   4.500   0.485   3.579
20363SOL     OW61112   5.174   1.220   3.495
20363SOL    HW161113   5.165   1.210   3.594
20363SOL    HW261114   5.270   1.213   3.469
20364SOL     OW61115   4.114   1.741   3.422
20364SOL    HW161116   4.023   1.782   3.420
20364SOL    HW261117   4.107   1.647   3.454
20365SOL     OW61118   5.398   0.883   3.116
20365SOL    HW161119   5.371   0.794   3.079
20365SOL    HW261120   5.399   0.951   3.043
20366SOL     OW61121   4.949   0.325   2.311
20366SOL    HW161122   5.014   0.251   2.300
20366SOL    HW261123   4.969   0.375   2.395
20367SOL     OW61124   4.318   0.745   2.514
20367SOL    HW161125   4.368   0.830   2.495
20367SOL    HW261126   4.230   0.747   2.466
20368SOL     OW61127   5.501   0.342   3.504
20368SOL    HW161128   5.484   0.373   3.410
20368SOL    HW261129   5.417   0.305   3.542
20369SOL     OW61130   5.454   0.934   3.379
20369SOL    HW161131   5.492   1.025   3.394
20369SOL    HW261132   5.446   0.917   3.280
20370SOL     OW61133   4.583   1.374   1.878
20370SOL    HW161134   4.537   1.389   1.966
20370SOL    HW261135   4.627   1.459   1.848
20371SOL     OW61136   4.385   1.790   2.815
20371SOL    HW161137   4.339   1.878   2.802
20371SOL    HW261138   4.484   1.802   2.808
20372SOL     OW61139   4.583   0.956   2.723
20372SOL    HW161140   4.637   0.887   2.771
20372SOL    HW261141   4.551   1.025   2.789
20373SOL     OW61142   4.807   0.984   1.949
20373SOL    HW161143   4.784   1.037   1.867
20373SOL    HW261144   4.888   0.928   1.930
20374SOL     OW61145   5.585   1.569   2.713
20374SOL    HW161146   5.514   1.557   2.643
20374SOL    HW261147   5.586   1.490   2.773
20375SOL     OW61148   3.945   1.314   3.706
20375SOL    HW161149   3.880   1.241   3.685
20375SOL    HW261150   3.949   1.328   3.804
20376SOL     OW61151   3.803   1.240   2.515
20376SOL    HW161152   3.802   1.193   2.603
20376SOL    HW261153   3.885   1.212   2.464
20377SOL     OW61154   4.396   1.391   3.486
20377SOL    HW161155   4.318   1.341   3.524
20377SOL    HW261156   4.393   1.486   3.517
20378SOL     OW61157   5.548   0.192   3.089
20378SOL    HW161158   5.544   0.102   3.133
20378SOL    HW261159   5.551   0.181   2.990
20379SOL     OW61160   4.152   0.424   2.382
20379SOL    HW161161   4.182   0.352   2.320
20379SOL    HW261162   4.113   0.384   2.465
20380SOL     OW61163   5.429   1.487   2.966
20380SOL    HW161164   5.336   1.462   2.939
20380SOL    HW261165   5.455   1.437   3.048
20381SOL     OW61166   4.041   0.547   3.142
20381SOL    HW161167   4.079   0.488   3.214
20381SOL    HW261168   4.081   0.521   3.054
20382SOL     OW61169   4.536   1.586   2.549
20382SOL    HW161170   4.568   1.596   2.455
20382SOL    HW261171   4.457   1.524   2.551
20383SOL     OW61172   5.148   0.214   2.974
20383SOL    HW161173   5.200   0.149   3.029
20383SOL    HW261174   5.099   0.277   3.035
20384SOL     OW61175   4.725   0.034   3.016
20384SOL    HW161176   4.662  -0.038   2.985
20384SOL    HW261177   4.818  -0.002   3.016
20385SOL     OW61178   4.494   1.330   2.163
20385SOL    HW161179   4.448   1.243   2.180
20385SOL    HW261180   4.585   1.327   2.204
20386SOL     OW61181   4.342   1.567   3.146
20386SOL    HW161182   4.337   1.649   3.203
20386SOL    HW261183   4.431   1.564   3.101
20387SOL     OW61184   5.076   0.052   2.030
20387SOL    HW161185   5.111   0.011   1.946
20387SOL    HW261186   4.986   0.014   2.050
20388SOL     OW61187   5.024   0.453   2.553
20388SOL    HW161188   4.965   0.533   2.557
20388SOL    HW261189   5.039   0.418   2.646
20389SOL     OW61190   5.317   0.221   2.744
20389SOL    HW161191   5.233   0.220   2.798
20389SOL    HW261192   5.319   0.304   2.688
20390SOL     OW61193   3.763   1.077   2.162
20390SOL    HW161194   3.862   1.066   2.153
20390SOL    HW261195   3.723   0.991   2.194
20391SOL     OW61196   4.599   1.646   2.199
20391SOL    HW161197   4.522   1.611   2.145
20391SOL    HW261198   4.567   1.717   2.261
20392SOL     OW61199   3.954   0.628   3.837
20392SOL    HW161200   3.861   0.626   3.874
20392SOL    HW261201   3.955   0.589   3.745
20393SOL     OW61202   3.949   0.275   4.720
20393SOL    HW161203   3.984   0.258   4.812
20393SOL    HW261204   3.861   0.230   4.708
20394SOL     OW61205   3.743   0.368   4.371
20394SOL    HW161206   3.661   0.411   4.410
20394SOL    HW261207   3.715   0.295   4.308
20395SOL     OW61208   4.293   1.275   4.889
20395SOL    HW161209   4.200   1.268   4.852
20395SOL    HW261210   4.304   1.364   4.933
20396SOL     OW61211   5.279   1.511   4.427
20396SOL    HW161212   5.222   1.495   4.508
20396SOL    HW261213   5.220   1.521   4.347
20397SOL     OW61214   4.859   0.703   4.441
20397SOL    HW161215   4.916   0.781   4.416
20397SOL    HW261216   4.799   0.729   4.517
20398SOL     OW61217   5.479   0.607   3.955
20398SOL    HW161218   5.467   0.594   3.856
20398SOL    HW261219   5.449   0.526   4.004
20399SOL     OW61220   4.492   1.144   4.747
20399SOL    HW161221   4.414   1.161   4.807
20399SOL    HW261222   4.526   1.231   4.711
20400SOL     OW61223   4.574   0.798   5.547
20400SOL    HW161224   4.570   0.874   5.612
20400SOL    HW261225   4.596   0.834   5.456
20401SOL     OW61226   4.409   1.012   4.389
20401SOL    HW161227   4.478   0.996   4.459
20401SOL    HW261228   4.336   1.069   4.427
20402SOL     OW61229   4.410   1.161   5.527
20402SOL    HW161230   4.470   1.240   5.541
20402SOL    HW261231   4.324   1.192   5.486
20403SOL     OW61232   4.059   1.435   4.785
20403SOL    HW161233   3.981   1.404   4.732
20403SOL    HW261234   4.117   1.493   4.728
20404SOL     OW61235   5.184   1.505   5.063
20404SOL    HW161236   5.208   1.599   5.089
20404SOL    HW261237   5.168   1.451   5.145
20405SOL     OW61238   4.162   0.392   5.223
20405SOL    HW161239   4.244   0.336   5.232
20405SOL    HW261240   4.081   0.334   5.227
20406SOL     OW61241   5.327   0.447   4.461
20406SOL    HW161242   5.253   0.493   4.411
20406SOL    HW261243   5.378   0.515   4.514
20407SOL     OW61244   3.955   1.713   4.207
20407SOL    HW161245   3.989   1.790   4.261
20407SOL    HW261246   3.999   1.713   4.117
20408SOL     OW61247   4.851   1.341   5.414
20408SOL    HW161248   4.898   1.341   5.502
20408SOL    HW261249   4.803   1.254   5.403
20409SOL     OW61250   3.954   1.434   4.262
20409SOL    HW161251   3.928   1.530   4.262
20409SOL    HW261252   3.883   1.380   4.307
20410SOL     OW61253   3.964   1.091   4.610
20410SOL    HW161254   3.978   1.007   4.662
20410SOL    HW261255   3.909   1.155   4.665
20411SOL     OW61256   4.344   1.786   5.163
20411SOL    HW161257   4.252   1.769   5.198
20411SOL    HW261258   4.372   1.878   5.189
20412SOL     OW61259   4.330   0.964   3.847
20412SOL    HW161260   4.337   1.048   3.793
20412SOL    HW261261   4.376   0.977   3.935
20413SOL     OW61262   5.318   0.114   5.204
20413SOL    HW161263   5.300   0.181   5.132
20413SOL    HW261264   5.315   0.160   5.293
20414SOL     OW61265   3.846   0.643   4.287
20414SOL    HW161266   3.801   0.555   4.304
20414SOL    HW261267   3.845   0.697   4.371
20415SOL     OW61268   5.566   1.767   4.083
20415SOL    HW161269   5.620   1.738   4.163
20415SOL    HW261270   5.596   1.857   4.054
20416SOL     OW61271   3.751   1.596   3.841
20416SOL    HW161272   3.732   1.500   3.862
20416SOL    HW261273   3.718   1.654   3.916
20417SOL     OW61274   5.413   0.922   4.336
20417SOL    HW161275   5.508   0.893   4.344
20417SOL    HW261276   5.405   0.987   4.261
20418SOL     OW61277   5.365   1.108   4.156
20418SOL    HW161278   5.451   1.110   4.104
20418SOL    HW261279   5.379   1.155   4.244
20419SOL     OW61280   3.837   0.737   5.321
20419SOL    HW161281   3.925   0.724   5.366
20419SOL    HW261282   3.824   0.834   5.299
20420SOL     OW61283   4.337   1.365   4.450
20420SOL    HW161284   4.288   1.278   4.459
20420SOL    HW261285   4.314   1.408   4.363
20421SOL     OW61286   5.017   1.228   5.147
20421SOL    HW161287   5.054   1.155   5.089
20421SOL    HW261288   5.069   1.233   5.232
20422SOL     OW61289   4.533   0.004   4.226
20422SOL    HW161290   4.573   0.095   4.217
20422SOL    HW261291   4.433   0.012   4.232
20423SOL     OW61292   3.921   0.976   4.988
20423SOL    HW161293   4.010   0.931   4.974
20423SOL    HW261294   3.848   0.911   4.969
20424SOL     OW61295   5.249   0.999   3.914
20424SOL    HW161296   5.186   0.923   3.927
20424SOL    HW261297   5.297   1.017   4.000
20425SOL     OW61298   4.911   1.792   5.340
20425SOL    HW161299   4.935   1.852   5.264
20425SOL    HW261300   4.918   1.697   5.310
20426SOL     OW61301   4.041   0.251   5.525
20426SOL    HW161302   4.112   0.322   5.531
20426SOL    HW261303   3.953   0.290   5.553
20427SOL     OW61304   5.391   1.714   4.296
20427SOL    HW161305   5.350   1.691   4.208
20427SOL    HW261306   5.373   1.640   4.361
20428SOL     OW61307   4.322   0.729   3.994
20428SOL    HW161308   4.346   0.798   3.926
20428SOL    HW261309   4.244   0.762   4.048
20429SOL     OW61310   5.005   0.345   4.668
20429SOL    HW161311   4.919   0.295   4.655
20429SOL    HW261312   5.067   0.291   4.724
20430SOL     OW61313   5.300   1.662   4.031
20430SOL    HW161314   5.389   1.708   4.034
20430SOL    HW261315   5.279   1.638   3.936
20431SOL     OW61316   4.531   0.605   5.189
20431SOL    HW161317   4.484   0.602   5.278
20431SOL    HW261318   4.480   0.550   5.123
20432SOL     OW61319   5.118   0.469   5.398
20432SOL    HW161320   5.098   0.512   5.486
20432SOL    HW261321   5.196   0.407   5.407
20433SOL     OW61322   4.697   0.890   5.296
20433SOL    HW161323   4.743   0.806   5.267
20433SOL    HW261324   4.641   0.924   5.221
20434SOL     OW61325   4.715   0.410   4.966
20434SOL    HW161326   4.638   0.444   5.020
20434SOL    HW261327   4.681   0.359   4.887
20435SOL     OW61328   4.765   0.701   4.153
20435SOL    HW161329   4.791   0.697   4.249
20435SOL    HW261330   4.680   0.650   4.139
20436SOL     OW61331   3.800   0.811   4.513
20436SOL    HW161332   3.899   0.799   4.522
20436SOL    HW261333   3.776   0.906   4.534
20437SOL     OW61334   3.854   1.821   5.295
20437SOL    HW161335   3.844   1.806   5.394
20437SOL    HW261336   3.768   1.857   5.259
20438SOL     OW61337   4.589   0.348   3.919
20438SOL    HW161338   4.648   0.411   3.870
20438SOL    HW261339   4.608   0.254   3.890
20439SOL     OW61340   5.443   0.585   5.555
20439SOL    HW161341   5.417   0.674   5.519
20439SOL    HW261342   5.441   0.517   5.482
20440SOL     OW61343   5.086   1.144   4.269
20440SOL    HW161344   5.169   1.115   4.221
20440SOL    HW261345   5.037   1.211   4.213
20441SOL     OW61346   4.274   0.196   4.609
20441SOL    HW161347   4.269   0.191   4.709
20441SOL    HW261348   4.276   0.292   4.580
20442SOL     OW61349   4.732   1.456   4.201
20442SOL    HW161350   4.686   1.528   4.149
20442SOL    HW261351   4.728   1.476   4.299
20443SOL     OW61352   4.075   1.801   4.577
20443SOL    HW161353   4.125   1.715   4.583
20443SOL    HW261354   4.140   1.878   4.574
20444SOL     OW61355   5.519   1.066   4.597
20444SOL    HW161356   5.457   1.051   4.521
20444SOL    HW261357   5.467   1.077   4.682
20445SOL     OW61358   4.951   1.550   5.230
20445SOL    HW161359   4.957   1.473   5.294
20445SOL    HW261360   4.899   1.524   5.150
20446SOL     OW61361   4.045   0.943   3.966
20446SOL    HW161362   4.127   0.982   3.924
20446SOL    HW261363   4.018   0.861   3.917
20447SOL     OW61364   5.182   0.735   4.452
20447SOL    HW161365   5.177   0.670   4.527
20447SOL    HW261366   5.262   0.794   4.465
20448SOL     OW61367   4.185   1.266   5.451
20448SOL    HW161368   4.135   1.267   5.365
20448SOL    HW261369   4.122   1.248   5.527
20449SOL     OW61370   4.835   1.776   3.961
20449SOL    HW161371   4.775   1.714   4.011
20449SOL    HW261372   4.866   1.732   3.876
20450SOL     OW61373   3.926   0.285   5.222
20450SOL    HW161374   3.846   0.345   5.209
20450SOL    HW261375   3.916   0.236   5.308
20451SOL     OW61376   5.356   1.377   3.805
20451SOL    HW161377   5.324   1.471   3.795
20451SOL    HW261378   5.280   1.314   3.793
20452SOL     OW61379   4.188   1.743   4.047
20452SOL    HW161380   4.221   1.782   4.133
20452SOL    HW261381   4.264   1.736   3.982
20453SOL     OW61382   5.124   0.107   4.150
20453SOL    HW161383   5.100   0.070   4.060
20453SOL    HW261384   5.223   0.123   4.154
20454SOL     OW61385   3.973   1.785   4.965
20454SOL    HW161386   4.030   1.720   5.015
20454SOL    HW261387   3.957   1.752   4.872
20455SOL     OW61388   4.664   1.698   4.628
20455SOL    HW161389   4.744   1.641   4.649
20455SOL    HW261390   4.615   1.658   4.551
20456SOL     OW61391   4.106   0.700   4.204
20456SOL    HW161392   4.151   0.610   4.201
20456SOL    HW261393   4.012   0.689   4.237
20457SOL     OW61394   5.271   0.222   5.453
20457SOL    HW161395   5.266   0.259   5.545
20457SOL    HW261396   5.199   0.153   5.441
20458SOL     OW61397   4.338   0.122   3.841
20458SOL    HW161398   4.436   0.100   3.848
20458SOL    HW261399   4.307   0.105   3.748
20459SOL     OW61400   4.505   0.264   5.473
20459SOL    HW161401   4.572   0.203   5.516
20459SOL    HW261402   4.432   0.283   5.538
20460SOL     OW61403   4.612   1.514   4.919
20460SOL    HW161404   4.589   1.489   4.825
20460SOL    HW261405   4.673   1.445   4.958
20461SOL     OW61406   5.075   0.590   5.157
20461SOL    HW161407   5.103   0.547   5.242
20461SOL    HW261408   5.100   0.686   5.158
20462SOL     OW61409   4.527   1.402   4.648
20462SOL    HW161410   4.617   1.416   4.606
20462SOL    HW261411   4.456   1.404   4.577
20463SOL     OW61412   4.646   0.503   4.623
20463SOL    HW161413   4.621   0.494   4.527
20463SOL    HW261414   4.694   0.421   4.654
20464SOL     OW61415   4.263   0.064   4.236
20464SOL    HW161416   4.182   0.065   4.294
20464SOL    HW261417   4.266   0.147   4.181
20465SOL     OW61418   5.158   1.188   3.765
20465SOL    HW161419   5.190   1.112   3.822
20465SOL    HW261420   5.066   1.215   3.795
20466SOL     OW61421   4.021   0.035   3.895
20466SOL    HW161422   4.070   0.119   3.874
20466SOL    HW261423   4.083  -0.030   3.940
20467SOL     OW61424   4.659   0.236   4.204
20467SOL    HW161425   4.611   0.277   4.126
20467SOL    HW261426   4.758   0.234   4.185
20468SOL     OW61427   4.800   0.683   5.188
20468SOL    HW161428   4.720   0.622   5.191
20468SOL    HW261429   4.881   0.630   5.164
20469SOL     OW61430   4.951   1.570   4.517
20469SOL    HW161431   4.972   1.644   4.452
20469SOL    HW261432   5.019   1.570   4.590
20470SOL     OW61433   4.183   1.152   4.465
20470SOL    HW161434   4.112   1.125   4.530
20470SOL    HW261435   4.157   1.124   4.372
20471SOL     OW61436   4.995   1.797   4.315
20471SOL    HW161437   5.039   1.861   4.251
20471SOL    HW261438   4.945   1.849   4.385
20472SOL     OW61439   4.756   0.549   3.740
20472SOL    HW161440   4.715   0.631   3.701
20472SOL    HW261441   4.820   0.575   3.813
20473SOL     OW61442   3.802   0.556   5.110
20473SOL    HW161443   3.894   0.555   5.069
20473SOL    HW261444   3.796   0.630   5.177
20474SOL     OW61445   4.285   0.222   4.871
20474SOL    HW161446   4.323   0.138   4.908
20474SOL    HW261447   4.197   0.241   4.915
20475SOL     OW61448   4.590   0.454   4.366
20475SOL    HW161449   4.558   0.526   4.304
20475SOL    HW261450   4.614   0.373   4.313
20476SOL     OW61451   4.741   0.039   4.477
20476SOL    HW161452   4.669   0.044   4.408
20476SOL    HW261453   4.717  -0.030   4.546
20477SOL     OW61454   5.153   1.173   4.591
20477SOL    HW161455   5.098   1.089   4.584
20477SOL    HW261456   5.179   1.202   4.499
20478SOL     OW61457   5.190   0.590   4.716
20478SOL    HW161458   5.160   0.495   4.723
20478SOL    HW261459   5.263   0.606   4.782
20479SOL     OW61460   5.581   0.833   4.101
20479SOL    HW161461   5.623   0.769   4.165
20479SOL    HW261462   5.543   0.782   4.023
20480SOL     OW61463   4.212   1.385   3.898
20480SOL    HW161464   4.125   1.370   3.945
20480SOL    HW261465   4.195   1.411   3.803
20481SOL     OW61466   5.388   1.280   4.381
20481SOL    HW161467   5.487   1.288   4.395
20481SOL    HW261468   5.343   1.364   4.412
20482SOL     OW61469   5.114   0.575   3.802
20482SOL    HW161470   5.060   0.554   3.883
20482SOL    HW261471   5.205   0.534   3.811
20483SOL     OW61472   4.251   0.256   4.052
20483SOL    HW161473   4.278   0.197   3.977
20483SOL    HW261474   4.251   0.351   4.021
20484SOL     OW61475   5.478   1.223   5.312
20484SOL    HW161476   5.569   1.184   5.299
20484SOL    HW261477   5.486   1.319   5.336
20485SOL     OW61478   4.788   1.347   5.064
20485SOL    HW161479   4.708   1.324   5.119
20485SOL    HW261480   4.871   1.321   5.113
20486SOL     OW61481   5.316   1.629   5.349
20486SOL    HW161482   5.343   1.663   5.259
20486SOL    HW261483   5.395   1.591   5.395
20487SOL     OW61484   4.835   1.195   4.824
20487SOL    HW161485   4.795   1.239   4.905
20487SOL    HW261486   4.794   1.232   4.741
20488SOL     OW61487   5.362   1.099   4.803
20488SOL    HW161488   5.367   1.180   4.862
20488SOL    HW261489   5.276   1.101   4.752
20489SOL     OW61490   4.639   0.089   5.126
20489SOL    HW161491   4.664   0.069   5.031
20489SOL    HW261492   4.711   0.145   5.168
20490SOL     OW61493   4.704   1.116   5.443
20490SOL    HW161494   4.605   1.122   5.453
20490SOL    HW261495   4.727   1.036   5.387
20491SOL     OW61496   4.429   1.050   4.092
20491SOL    HW161497   4.415   1.057   4.191
20491SOL    HW261498   4.513   0.999   4.074
20492SOL     OW61499   4.134   0.813   4.975
20492SOL    HW161500   4.220   0.825   5.025
20492SOL    HW261501   4.092   0.726   5.002
20493SOL     OW61502   4.998   0.386   4.986
20493SOL    HW161503   5.019   0.460   5.050
20493SOL    HW261504   4.909   0.403   4.943
20494SOL     OW61505   3.788   1.564   5.055
20494SOL    HW161506   3.742   1.646   5.021
20494SOL    HW261507   3.886   1.583   5.064
20495SOL     OW61508   4.091   1.100   4.225
20495SOL    HW161509   4.084   1.183   4.169
20495SOL    HW261510   4.095   1.020   4.165
20496SOL     OW61511   4.290   0.537   4.589
20496SOL    HW161512   4.302   0.603   4.515
20496SOL    HW261513   4.336   0.571   4.672
20497SOL     OW61514   4.976   1.348   4.112
20497SOL    HW161515   5.026   1.425   4.152
20497SOL    HW261516   4.881   1.350   4.144
20498SOL     OW61517   4.996   1.445   4.866
20498SOL    HW161518   5.043   1.458   4.953
20498SOL    HW261519   4.930   1.371   4.875
20499SOL     OW61520   5.306   0.639   4.196
20499SOL    HW161521   5.275   0.700   4.269
20499SOL    HW261522   5.356   0.691   4.127
20500SOL     OW61523   4.078   1.510   5.053
20500SOL    HW161524   4.057   1.466   4.966
20500SOL    HW261525   4.175   1.536   5.056
20501SOL     OW61526   4.126   0.751   5.322
20501SOL    HW161527   4.194   0.806   5.275
20501SOL    HW261528   4.166   0.663   5.349
20502SOL     OW61529   5.311   0.779   5.394
20502SOL    HW161530   5.219   0.817   5.389
20502SOL    HW261531   5.371   0.826   5.329
20503SOL     OW61532   4.737   0.105   5.494
20503SOL    HW161533   4.743   0.190   5.442
20503SOL    HW261534   4.769   0.029   5.437
20504SOL     OW61535   4.228   0.050   5.464
20504SOL    HW161536   4.186  -0.007   5.394
20504SOL    HW261537   4.162   0.119   5.496
20505SOL     OW61538   4.297   0.870   4.753
20505SOL    HW161539   4.341   0.959   4.744
20505SOL    HW261540   4.234   0.870   4.830
20506SOL     OW61541   5.084   0.862   4.769
20506SOL    HW161542   5.009   0.862   4.703
20506SOL    HW261543   5.121   0.770   4.778
20507SOL     OW61544   4.933   0.525   3.999
20507SOL    HW161545   4.946   0.441   4.053
20507SOL    HW261546   4.904   0.599   4.059
20508SOL     OW61547   4.031   0.213   4.955
20508SOL    HW161548   4.008   0.250   5.045
20508SOL    HW261549   4.001   0.118   4.949
20509SOL     OW61550   3.761   1.310   5.006
20509SOL    HW161551   3.814   1.261   5.074
20509SOL    HW261552   3.783   1.408   5.011
20510SOL     OW61553   4.456   0.634   4.788
20510SOL    HW161554   4.515   0.608   4.712
20510SOL    HW261555   4.428   0.730   4.777
20511SOL     OW61556   5.452   0.935   5.578
20511SOL    HW161557   5.406   0.928   5.489
20511SOL    HW261558   5.390   0.979   5.644
20512SOL     OW61559   4.031   0.063   4.342
20512SOL    HW161560   4.020   0.157   4.375
20512SOL    HW261561   4.026   0.000   4.419
20513SOL     OW61562   5.346   0.367   4.098
20513SOL    HW161563   5.348   0.291   4.162
20513SOL    HW261564   5.298   0.444   4.138
20514SOL     OW61565   4.747   0.766   4.690
20514SOL    HW161566   4.762   0.787   4.786
20514SOL    HW261567   4.717   0.671   4.681
20515SOL     OW61568   4.704   1.573   5.424
20515SOL    HW161569   4.684   1.617   5.336
20515SOL    HW261570   4.743   1.482   5.408
20516SOL     OW61571   5.583   1.518   5.329
20516SOL    HW161572   5.597   1.545   5.234
20516SOL    HW261573   5.666   1.540   5.382
20517SOL     OW61574   4.074   0.898   5.528
20517SOL    HW161575   4.150   0.942   5.576
20517SOL    HW261576   4.109   0.851   5.446
20518SOL     OW61577   5.264   0.274   3.849
20518SOL    HW161578   5.203   0.199   3.872
20518SOL    HW261579   5.286   0.326   3.932
20519SOL     OW61580   5.027   0.838   3.766
20519SOL    HW161581   5.061   0.745   3.781
20519SOL    HW261582   5.045   0.865   3.671
20520SOL     OW61583   4.792   1.333   4.573
20520SOL    HW161584   4.799   1.249   4.518
20520SOL    HW261585   4.854   1.402   4.537
20521SOL     OW61586   4.043   0.810   4.673
20521SOL    HW161587   4.136   0.846   4.678
20521SOL    HW261588   4.037   0.725   4.725
20522SOL     OW61589   4.063   0.509   4.730
20522SOL    HW161590   4.011   0.426   4.713
20522SOL    HW261591   4.140   0.514   4.666
20523SOL     OW61592   4.862   0.380   5.402
20523SOL    HW161593   4.817   0.443   5.466
20523SOL    HW261594   4.955   0.411   5.385
20524SOL     OW61595   4.884   0.207   5.201
20524SOL    HW161596   4.884   0.271   5.278
20524SOL    HW261597   4.912   0.255   5.118
20525SOL     OW61598   3.732   1.326   3.924
20525SOL    HW161599   3.639   1.347   3.893
20525SOL    HW261600   3.742   1.227   3.937
20526SOL     OW61601   3.812   1.801   4.651
20526SOL    HW161602   3.770   1.715   4.624
20526SOL    HW261603   3.906   1.804   4.617
20527SOL     OW61604   4.228   1.568   4.634
20527SOL    HW161605   4.294   1.642   4.643
20527SOL    HW261606   4.272   1.489   4.592
20528SOL     OW61607   4.726   0.796   4.962
20528SOL    HW161608   4.767   0.764   5.048
20528SOL    HW261609   4.630   0.769   4.959
20529SOL     OW61610   3.764   0.544   4.838
20529SOL    HW161611   3.849   0.511   4.797
20529SOL    HW261612   3.777   0.559   4.936
20530SOL     OW61613   3.913   0.520   5.446
20530SOL    HW161614   3.972   0.480   5.376
20530SOL    HW261615   3.855   0.591   5.405
20531SOL     OW61616   5.093   0.950   5.384
20531SOL    HW161617   5.132   1.039   5.404
20531SOL    HW261618   5.103   0.930   5.287
20532SOL     OW61619   4.539   0.572   4.049
20532SOL    HW161620   4.546   0.483   4.003
20532SOL    HW261621   4.445   0.606   4.041
20533SOL     OW61622   5.381   0.604   4.930
20533SOL    HW161623   5.343   0.535   4.992
20533SOL    HW261624   5.463   0.568   4.886
20534SOL     OW61625   3.976   1.564   5.468
20534SOL    HW161626   3.946   1.621   5.544
20534SOL    HW261627   3.969   1.467   5.494
20535SOL     OW61628   4.395   0.464   4.993
20535SOL    HW161629   4.361   0.375   4.963
20535SOL    HW261630   4.421   0.518   4.913
20536SOL     OW61631   4.654   1.678   5.189
20536SOL    HW161632   4.630   1.660   5.094
20536SOL    HW261633   4.684   1.772   5.199
20537SOL     OW61634   4.197   0.500   3.915
20537SOL    HW161635   4.258   0.580   3.919
20537SOL    HW261636   4.102   0.531   3.922
20538SOL     OW61637   3.883   1.137   5.190
20538SOL    HW161638   3.905   1.076   5.266
20538SOL    HW261639   3.893   1.088   5.104
20539SOL     OW61640   5.071   1.059   4.958
20539SOL    HW161641   5.095   0.996   4.884
20539SOL    HW261642   4.981   1.099   4.940
20540SOL     OW61643   5.026   0.855   4.033
20540SOL    HW161644   4.940   0.824   4.075
20540SOL    HW261645   5.022   0.841   3.934
20541SOL     OW61646   5.483   1.747   4.878
20541SOL    HW161647   5.544   1.777   4.805
20541SOL    HW261648   5.445   1.658   4.856
20542SOL     OW61649   4.976   1.731   4.852
20542SOL    HW161650   5.060   1.736   4.798
20542SOL    HW261651   4.953   1.635   4.870
20543SOL     OW61652   3.807   1.258   4.746
20543SOL    HW161653   3.802   1.257   4.846
20543SOL    HW261654   3.724   1.217   4.708
20544SOL     OW61655   4.412   1.662   5.440
20544SOL    HW161656   4.356   1.743   5.449
20544SOL    HW261657   4.464   1.666   5.354
20545SOL     OW61658   5.450   0.135   4.247
20545SOL    HW161659   5.523   0.118   4.180
20545SOL    HW261660   5.419   0.048   4.285
20546SOL     OW61661   5.112   1.573   4.201
20546SOL    HW161662   5.179   1.585   4.127
20546SOL    HW261663   5.072   1.662   4.224
20547SOL     OW61664   3.854   1.794   5.575
20547SOL    HW161665   3.813   1.720   5.628
20547SOL    HW261666   3.918   1.845   5.633
20548SOL     OW61667   5.004   0.927   4.396
20548SOL    HW161668   5.064   0.846   4.398
20548SOL    HW261669   5.044   0.996   4.336
20549SOL     OW61670   4.554   1.273   5.146
20549SOL    HW161671   4.549   1.306   5.241
20549SOL    HW261672   4.468   1.292   5.100
20550SOL     OW61673   4.396   1.616   3.878
20550SOL    HW161674   4.405   1.626   3.779
20550SOL    HW261675   4.356   1.527   3.899
20551SOL     OW61676   5.374   1.720   5.118
20551SOL    HW161677   5.427   1.730   5.034
20551SOL    HW261678   5.347   1.810   5.152
20552SOL     OW61679   5.565   0.175   4.687
20552SOL    HW161680   5.604   0.090   4.651
20552SOL    HW261681   5.467   0.177   4.668
20553SOL     OW61682   4.918   1.612   3.755
20553SOL    HW161683   4.924   1.519   3.792
20553SOL    HW261684   4.859   1.612   3.675
20554SOL     OW61685   4.546   1.002   5.096
20554SOL    HW161686   4.586   1.001   5.004
20554SOL    HW261687   4.556   1.094   5.136
20555SOL     OW61688   4.640   0.910   4.015
20555SOL    HW161689   4.703   0.948   3.947
20555SOL    HW261690   4.680   0.827   4.054
20556SOL     OW61691   5.228   1.607   3.768
20556SOL    HW161692   5.136   1.644   3.775
20556SOL    HW261693   5.266   1.627   3.678
20557SOL     OW61694   4.096   1.288   5.214
20557SOL    HW161695   4.083   1.381   5.180
20557SOL    HW261696   4.012   1.236   5.201
20558SOL     OW61697   5.338   1.292   5.013
20558SOL    HW161698   5.398   1.295   5.093
20558SOL    HW261699   5.263   1.356   5.026
20559SOL     OW61700   4.763   1.098   4.420
20559SOL    HW161701   4.693   1.051   4.474
20559SOL    HW261702   4.822   1.030   4.377
20560SOL     OW61703   4.738   0.236   4.695
20560SOL    HW161704   4.730   0.200   4.602
20560SOL    HW261705   4.736   0.160   4.760
20561SOL     OW61706   4.314   1.487   4.215
20561SOL    HW161707   4.356   1.429   4.145
20561SOL    HW261708   4.270   1.566   4.171
20562SOL     OW61709   5.433   0.385   5.105
20562SOL    HW161710   5.506   0.454   5.109
20562SOL    HW261711   5.461   0.310   5.046
20563SOL     OW61712   3.979   1.348   4.014
20563SOL    HW161713   3.883   1.349   3.987
20563SOL    HW261714   3.991   1.401   4.098
20564SOL     OW61715   3.829   1.013   5.450
20564SOL    HW161716   3.752   0.980   5.504
20564SOL    HW261717   3.914   0.983   5.492
20565SOL     OW61718   4.396   0.203   5.213
20565SOL    HW161719   4.486   0.187   5.173
20565SOL    HW261720   4.404   0.208   5.312
20566SOL     OW61721   3.799   0.345   3.757
20566SOL    HW161722   3.707   0.317   3.728
20566SOL    HW261723   3.830   0.422   3.701
20567SOL     OW61724   5.164   0.856   5.122
20567SOL    HW161725   5.107   0.908   5.059
20567SOL    HW261726   5.260   0.868   5.098
20568SOL     OW61727   3.796   0.166   4.042
20568SOL    HW161728   3.779   0.249   3.988
20568SOL    HW261729   3.886   0.129   4.020
20569SOL     OW61730   4.907   1.335   3.843
20569SOL    HW161731   4.808   1.324   3.845
20569SOL    HW261732   4.941   1.350   3.936
20570SOL     OW61733   4.337   0.842   5.155
20570SOL    HW161734   4.393   0.923   5.138
20570SOL    HW261735   4.396   0.762   5.158
20571SOL     OW61736   5.217   1.767   4.683
20571SOL    HW161737   5.250   1.831   4.614
20571SOL    HW261738   5.283   1.761   4.758
20572SOL     OW61739   4.440   0.565   5.432
20572SOL    HW161740   4.459   0.630   5.506
20572SOL    HW261741   4.500   0.485   5.441
20573SOL     OW61742   5.174   1.220   5.357
20573SOL    HW161743   5.165   1.210   5.456
20573SOL    HW261744   5.270   1.213   5.331
20574SOL     OW61745   4.114   1.741   5.284
20574SOL    HW161746   4.023   1.782   5.282
20574SOL    HW261747   4.107   1.647   5.316
20575SOL     OW61748   5.398   0.883   4.978
20575SOL    HW161749   5.371   0.794   4.941
20575SOL    HW261750   5.399   0.951   4.905
20576SOL     OW61751   4.949   0.325   4.173
20576SOL    HW161752   5.014   0.251   4.162
20576SOL    HW261753   4.969   0.375   4.257
20577SOL     OW61754   4.318   0.745   4.376
20577SOL    HW161755   4.368   0.830   4.357
20577SOL    HW261756   4.230   0.747   4.328
20578SOL     OW61757   5.501   0.342   5.366
20578SOL    HW161758   5.484   0.373   5.272
20578SOL    HW261759   5.417   0.305   5.404
20579SOL     OW61760   5.454   0.934   5.241
20579SOL    HW161761   5.492   1.025   5.256
20579SOL    HW261762   5.446   0.917   5.142
20580SOL     OW61763   4.583   1.374   3.740
20580SOL    HW161764   4.537   1.389   3.828
20580SOL    HW261765   4.627   1.459   3.710
20581SOL     OW61766   4.385   1.790   4.677
20581SOL    HW161767   4.339   1.878   4.664
20581SOL    HW261768   4.484   1.802   4.670
20582SOL     OW61769   4.583   0.956   4.585
20582SOL    HW161770   4.637   0.887   4.633
20582SOL    HW261771   4.551   1.025   4.651
20583SOL     OW61772   4.807   0.984   3.811
20583SOL    HW161773   4.784   1.037   3.729
20583SOL    HW261774   4.888   0.928   3.792
20584SOL     OW61775   5.585   1.569   4.575
20584SOL    HW161776   5.514   1.557   4.505
20584SOL    HW261777   5.586   1.490   4.635
20585SOL     OW61778   3.945   1.314   5.568
20585SOL    HW161779   3.880   1.241   5.547
20585SOL    HW261780   3.949   1.328   5.666
20586SOL     OW61781   3.803   1.240   4.377
20586SOL    HW161782   3.802   1.193   4.465
20586SOL    HW261783   3.885   1.212   4.326
20587SOL     OW61784   4.396   1.391   5.348
20587SOL    HW161785   4.318   1.341   5.386
20587SOL    HW261786   4.393   1.486   5.379
20588SOL     OW61787   5.548   0.192   4.951
20588SOL    HW161788   5.544   0.102   4.995
20588SOL    HW261789   5.551   0.181   4.852
20589SOL     OW61790   4.152   0.424   4.244
20589SOL    HW161791   4.182   0.352   4.182
20589SOL    HW261792   4.113   0.384   4.327
20590SOL     OW61793   5.429   1.487   4.828
20590SOL    HW161794   5.336   1.462   4.801
20590SOL    HW261795   5.455   1.437   4.910
20591SOL     OW61796   4.041   0.547   5.004
20591SOL    HW161797   4.079   0.488   5.076
20591SOL    HW261798   4.081   0.521   4.916
20592SOL     OW61799   4.536   1.586   4.411
20592SOL    HW161800   4.568   1.596   4.317
20592SOL    HW261801   4.457   1.524   4.413
20593SOL     OW61802   5.148   0.214   4.836
20593SOL    HW161803   5.200   0.149   4.891
20593SOL    HW261804   5.099   0.277   4.897
20594SOL     OW61805   4.494   1.330   4.025
20594SOL    HW161806   4.448   1.243   4.042
20594SOL    HW261807   4.585   1.327   4.066
20595SOL     OW61808   4.342   1.567   5.008
20595SOL    HW161809   4.337   1.649   5.065
20595SOL    HW261810   4.431   1.564   4.963
20596SOL     OW61811   5.076   0.052   3.892
20596SOL    HW161812   5.111   0.011   3.808
20596SOL    HW261813   4.986   0.014   3.912
20597SOL     OW61814   5.024   0.453   4.415
20597SOL    HW161815   4.965   0.533   4.419
20597SOL    HW261816   5.039   0.418   4.508
20598SOL     OW61817   5.317   0.221   4.606
20598SOL    HW161818   5.233   0.220   4.660
20598SOL    HW261819   5.319   0.304   4.550
20599SOL     OW61820   3.763   1.077   4.024
20599SOL    HW161821   3.862   1.066   4.015
20599SOL    HW261822   3.723   0.991   4.056
20600SOL     OW61823   4.599   1.646   4.061
20600SOL    HW161824   4.522   1.611   4.007
20600SOL    HW261825   4.567   1.717   4.123
20601SOL     OW61826   3.954   0.628   5.699
20601SOL    HW161827   3.861   0.626   5.736
20601SOL    HW261828   3.955   0.589   5.607
20602SOL     OW61829   3.949   0.275   6.582
20602SOL    HW161830   3.984   0.258   6.674
20602SOL    HW261831   3.861   0.230   6.570
20603SOL     OW61832   3.743   0.368   6.233
20603SOL    HW161833   3.661   0.411   6.272
20603SOL    HW261834   3.715   0.295   6.170
20604SOL     OW61835   4.293   1.275   6.751
20604SOL    HW161836   4.200   1.268   6.714
20604SOL    HW261837   4.304   1.364   6.795
20605SOL     OW61838   5.279   1.511   6.289
20605SOL    HW161839   5.222   1.495   6.370
20605SOL    HW261840   5.220   1.521   6.209
20606SOL     OW61841   4.859   0.703   6.303
20606SOL    HW161842   4.916   0.781   6.278
20606SOL    HW261843   4.799   0.729   6.379
20607SOL     OW61844   5.479   0.607   5.817
20607SOL    HW161845   5.467   0.594   5.718
20607SOL    HW261846   5.449   0.526   5.866
20608SOL     OW61847   4.492   1.144   6.609
20608SOL    HW161848   4.414   1.161   6.669
20608SOL    HW261849   4.526   1.231   6.573
20609SOL     OW61850   4.574   0.798   7.409
20609SOL    HW161851   4.570   0.874   7.474
20609SOL    HW261852   4.596   0.834   7.318
20610SOL     OW61853   4.409   1.012   6.251
20610SOL    HW161854   4.478   0.996   6.321
20610SOL    HW261855   4.336   1.069   6.289
20611SOL     OW61856   4.410   1.161   7.389
20611SOL    HW161857   4.470   1.240   7.403
20611SOL    HW261858   4.324   1.192   7.348
20612SOL     OW61859   4.059   1.435   6.647
20612SOL    HW161860   3.981   1.404   6.594
20612SOL    HW261861   4.117   1.493   6.590
20613SOL     OW61862   5.184   1.505   6.925
20613SOL    HW161863   5.208   1.599   6.951
20613SOL    HW261864   5.168   1.451   7.007
20614SOL     OW61865   4.162   0.392   7.085
20614SOL    HW161866   4.244   0.336   7.094
20614SOL    HW261867   4.081   0.334   7.089
20615SOL     OW61868   5.327   0.447   6.323
20615SOL    HW161869   5.253   0.493   6.273
20615SOL    HW261870   5.378   0.515   6.376
20616SOL     OW61871   3.955   1.713   6.069
20616SOL    HW161872   3.989   1.790   6.123
20616SOL    HW261873   3.999   1.713   5.979
20617SOL     OW61874   4.851   1.341   7.276
20617SOL    HW161875   4.898   1.341   7.364
20617SOL    HW261876   4.803   1.254   7.265
20618SOL     OW61877   3.954   1.434   6.124
20618SOL    HW161878   3.928   1.530   6.124
20618SOL    HW261879   3.883   1.380   6.169
20619SOL     OW61880   3.964   1.091   6.472
20619SOL    HW161881   3.978   1.007   6.524
20619SOL    HW261882   3.909   1.155   6.527
20620SOL     OW61883   4.344   1.786   7.025
20620SOL    HW161884   4.252   1.769   7.060
20620SOL    HW261885   4.372   1.878   7.051
20621SOL     OW61886   4.330   0.964   5.709
20621SOL    HW161887   4.337   1.048   5.655
20621SOL    HW261888   4.376   0.977   5.797
20622SOL     OW61889   5.318   0.114   7.066
20622SOL    HW161890   5.300   0.181   6.994
20622SOL    HW261891   5.315   0.160   7.155
20623SOL     OW61892   3.846   0.643   6.149
20623SOL    HW161893   3.801   0.555   6.166
20623SOL    HW261894   3.845   0.697   6.233
20624SOL     OW61895   5.566   1.767   5.945
20624SOL    HW161896   5.620   1.738   6.025
20624SOL    HW261897   5.596   1.857   5.916
20625SOL     OW61898   3.751   1.596   5.703
20625SOL    HW161899   3.732   1.500   5.724
20625SOL    HW261900   3.718   1.654   5.778
20626SOL     OW61901   5.413   0.922   6.198
20626SOL    HW161902   5.508   0.893   6.206
20626SOL    HW261903   5.405   0.987   6.123
20627SOL     OW61904   5.365   1.108   6.018
20627SOL    HW161905   5.451   1.110   5.966
20627SOL    HW261906   5.379   1.155   6.106
20628SOL     OW61907   4.337   1.365   6.312
20628SOL    HW161908   4.288   1.278   6.321
20628SOL    HW261909   4.314   1.408   6.225
20629SOL     OW61910   5.017   1.228   7.009
20629SOL    HW161911   5.054   1.155   6.951
20629SOL    HW261912   5.069   1.233   7.094
20630SOL     OW61913   4.533   0.004   6.088
20630SOL    HW161914   4.573   0.095   6.079
20630SOL    HW261915   4.433   0.012   6.094
20631SOL     OW61916   3.921   0.976   6.850
20631SOL    HW161917   4.010   0.931   6.836
20631SOL    HW261918   3.848   0.911   6.831
20632SOL     OW61919   5.249   0.999   5.776
20632SOL    HW161920   5.186   0.923   5.789
20632SOL    HW261921   5.297   1.017   5.862
20633SOL     OW61922   4.911   1.792   7.202
20633SOL    HW161923   4.935   1.852   7.126
20633SOL    HW261924   4.918   1.697   7.172
20634SOL     OW61925   4.041   0.251   7.387
20634SOL    HW161926   4.112   0.322   7.393
20634SOL    HW261927   3.953   0.290   7.415
20635SOL     OW61928   5.190   1.417   6.539
20635SOL    HW161929   5.131   1.423   6.619
20635SOL    HW261930   5.175   1.329   6.493
20636SOL     OW61931   5.391   1.714   6.158
20636SOL    HW161932   5.350   1.691   6.070
20636SOL    HW261933   5.373   1.640   6.223
20637SOL     OW61934   4.322   0.729   5.856
20637SOL    HW161935   4.346   0.798   5.788
20637SOL    HW261936   4.244   0.762   5.910
20638SOL     OW61937   5.005   0.345   6.530
20638SOL    HW161938   4.919   0.295   6.517
20638SOL    HW261939   5.067   0.291   6.586
20639SOL     OW61940   5.300   1.662   5.893
20639SOL    HW161941   5.389   1.708   5.896
20639SOL    HW261942   5.279   1.638   5.798
20640SOL     OW61943   4.531   0.605   7.051
20640SOL    HW161944   4.484   0.602   7.140
20640SOL    HW261945   4.480   0.550   6.985
20641SOL     OW61946   5.118   0.469   7.260
20641SOL    HW161947   5.098   0.512   7.348
20641SOL    HW261948   5.196   0.407   7.269
20642SOL     OW61949   4.697   0.890   7.158
20642SOL    HW161950   4.743   0.806   7.129
20642SOL    HW261951   4.641   0.924   7.083
20643SOL     OW61952   4.715   0.410   6.828
20643SOL    HW161953   4.638   0.444   6.882
20643SOL    HW261954   4.681   0.359   6.749
20644SOL     OW61955   4.765   0.701   6.015
20644SOL    HW161956   4.791   0.697   6.111
20644SOL    HW261957   4.680   0.650   6.001
20645SOL     OW61958   3.800   0.811   6.375
20645SOL    HW161959   3.899   0.799   6.384
20645SOL    HW261960   3.776   0.906   6.396
20646SOL     OW61961   3.854   1.821   7.157
20646SOL    HW161962   3.844   1.806   7.256
20646SOL    HW261963   3.768   1.857   7.121
20647SOL     OW61964   4.589   0.348   5.781
20647SOL    HW161965   4.648   0.411   5.732
20647SOL    HW261966   4.608   0.254   5.752
20648SOL     OW61967   5.443   0.585   7.417
20648SOL    HW161968   5.417   0.674   7.381
20648SOL    HW261969   5.441   0.517   7.344
20649SOL     OW61970   5.086   1.144   6.131
20649SOL    HW161971   5.169   1.115   6.083
20649SOL    HW261972   5.037   1.211   6.075
20650SOL     OW61973   4.274   0.196   6.471
20650SOL    HW161974   4.269   0.191   6.571
20650SOL    HW261975   4.276   0.292   6.442
20651SOL     OW61976   4.732   1.456   6.063
20651SOL    HW161977   4.686   1.528   6.011
20651SOL    HW261978   4.728   1.476   6.161
20652SOL     OW61979   4.075   1.801   6.439
20652SOL    HW161980   4.125   1.715   6.445
20652SOL    HW261981   4.140   1.878   6.436
20653SOL     OW61982   5.519   1.066   6.459
20653SOL    HW161983   5.457   1.051   6.383
20653SOL    HW261984   5.467   1.077   6.544
20654SOL     OW61985   4.951   1.550   7.092
20654SOL    HW161986   4.957   1.473   7.156
20654SOL    HW261987   4.899   1.524   7.012
20655SOL     OW61988   4.045   0.943   5.828
20655SOL    HW161989   4.127   0.982   5.786
20655SOL    HW261990   4.018   0.861   5.779
20656SOL     OW61991   5.182   0.735   6.314
20656SOL    HW161992   5.177   0.670   6.389
20656SOL    HW261993   5.262   0.794   6.327
20657SOL     OW61994   4.185   1.266   7.313
20657SOL    HW161995   4.135   1.267   7.227
20657SOL    HW261996   4.122   1.248   7.389
20658SOL     OW61997   4.835   1.776   5.823
20658SOL    HW161998   4.775   1.714   5.873
20658SOL    HW261999   4.866   1.732   5.738
20659SOL     OW62000   3.926   0.285   7.084
20659SOL    HW162001   3.846   0.345   7.071
20659SOL    HW262002   3.916   0.236   7.170
20660SOL     OW62003   5.356   1.377   5.667
20660SOL    HW162004   5.324   1.471   5.657
20660SOL    HW262005   5.280   1.314   5.655
20661SOL     OW62006   4.188   1.743   5.909
20661SOL    HW162007   4.221   1.782   5.995
20661SOL    HW262008   4.264   1.736   5.844
20662SOL     OW62009   5.124   0.107   6.012
20662SOL    HW162010   5.100   0.070   5.922
20662SOL    HW262011   5.223   0.123   6.016
20663SOL     OW62012   3.973   1.785   6.827
20663SOL    HW162013   4.030   1.720   6.877
20663SOL    HW262014   3.957   1.752   6.734
20664SOL     OW62015   4.664   1.698   6.490
20664SOL    HW162016   4.744   1.641   6.511
20664SOL    HW262017   4.615   1.658   6.413
20665SOL     OW62018   4.106   0.700   6.066
20665SOL    HW162019   4.151   0.610   6.063
20665SOL    HW262020   4.012   0.689   6.099
20666SOL     OW62021   5.271   0.222   7.315
20666SOL    HW162022   5.266   0.259   7.407
20666SOL    HW262023   5.199   0.153   7.303
20667SOL     OW62024   4.338   0.122   5.703
20667SOL    HW162025   4.436   0.100   5.710
20667SOL    HW262026   4.307   0.105   5.610
20668SOL     OW62027   4.505   0.264   7.335
20668SOL    HW162028   4.572   0.203   7.378
20668SOL    HW262029   4.432   0.283   7.400
20669SOL     OW62030   4.612   1.514   6.781
20669SOL    HW162031   4.589   1.489   6.687
20669SOL    HW262032   4.673   1.445   6.820
20670SOL     OW62033   5.075   0.590   7.019
20670SOL    HW162034   5.103   0.547   7.104
20670SOL    HW262035   5.100   0.686   7.020
20671SOL     OW62036   4.527   1.402   6.510
20671SOL    HW162037   4.617   1.416   6.468
20671SOL    HW262038   4.456   1.404   6.439
20672SOL     OW62039   4.646   0.503   6.485
20672SOL    HW162040   4.621   0.494   6.389
20672SOL    HW262041   4.694   0.421   6.516
20673SOL     OW62042   4.263   0.064   6.098
20673SOL    HW162043   4.182   0.065   6.156
20673SOL    HW262044   4.266   0.147   6.043
20674SOL     OW62045   5.158   1.188   5.627
20674SOL    HW162046   5.190   1.112   5.684
20674SOL    HW262047   5.066   1.215   5.657
20675SOL     OW62048   4.021   0.035   5.757
20675SOL    HW162049   4.070   0.119   5.736
20675SOL    HW262050   4.083  -0.030   5.802
20676SOL     OW62051   4.659   0.236   6.066
20676SOL    HW162052   4.611   0.277   5.988
20676SOL    HW262053   4.758   0.234   6.047
20677SOL     OW62054   4.800   0.683   7.050
20677SOL    HW162055   4.720   0.622   7.053
20677SOL    HW262056   4.881   0.630   7.026
20678SOL     OW62057   4.951   1.570   6.379
20678SOL    HW162058   4.972   1.644   6.314
20678SOL    HW262059   5.019   1.570   6.452
20679SOL     OW62060   4.183   1.152   6.327
20679SOL    HW162061   4.112   1.125   6.392
20679SOL    HW262062   4.157   1.124   6.234
20680SOL     OW62063   4.995   1.797   6.177
20680SOL    HW162064   5.039   1.861   6.113
20680SOL    HW262065   4.945   1.849   6.247
20681SOL     OW62066   4.756   0.549   5.602
20681SOL    HW162067   4.715   0.631   5.563
20681SOL    HW262068   4.820   0.575   5.675
20682SOL     OW62069   3.802   0.556   6.972
20682SOL    HW162070   3.894   0.555   6.931
20682SOL    HW262071   3.796   0.630   7.039
20683SOL     OW62072   4.285   0.222   6.733
20683SOL    HW162073   4.323   0.138   6.770
20683SOL    HW262074   4.197   0.241   6.777
20684SOL     OW62075   4.590   0.454   6.228
20684SOL    HW162076   4.558   0.526   6.166
20684SOL    HW262077   4.614   0.373   6.175
20685SOL     OW62078   4.741   0.039   6.339
20685SOL    HW162079   4.669   0.044   6.270
20685SOL    HW262080   4.717  -0.030   6.408
20686SOL     OW62081   5.153   1.173   6.453
20686SOL    HW162082   5.098   1.089   6.446
20686SOL    HW262083   5.179   1.202   6.361
20687SOL     OW62084   5.190   0.590   6.578
20687SOL    HW162085   5.160   0.495   6.585
20687SOL    HW262086   5.263   0.606   6.644
20688SOL     OW62087   5.581   0.833   5.963
20688SOL    HW162088   5.623   0.769   6.027
20688SOL    HW262089   5.543   0.782   5.885
20689SOL     OW62090   4.212   1.385   5.760
20689SOL    HW162091   4.125   1.370   5.807
20689SOL    HW262092   4.195   1.411   5.665
20690SOL     OW62093   5.388   1.280   6.243
20690SOL    HW162094   5.487   1.288   6.257
20690SOL    HW262095   5.343   1.364   6.274
20691SOL     OW62096   5.114   0.575   5.664
20691SOL    HW162097   5.060   0.554   5.745
20691SOL    HW262098   5.205   0.534   5.673
20692SOL     OW62099   4.251   0.256   5.914
20692SOL    HW162100   4.278   0.197   5.839
20692SOL    HW262101   4.251   0.351   5.883
20693SOL     OW62102   5.478   1.223   7.174
20693SOL    HW162103   5.569   1.184   7.161
20693SOL    HW262104   5.486   1.319   7.198
20694SOL     OW62105   4.788   1.347   6.926
20694SOL    HW162106   4.708   1.324   6.981
20694SOL    HW262107   4.871   1.321   6.975
20695SOL     OW62108   5.316   1.629   7.211
20695SOL    HW162109   5.343   1.663   7.121
20695SOL    HW262110   5.395   1.591   7.257
20696SOL     OW62111   4.835   1.195   6.686
20696SOL    HW162112   4.795   1.239   6.767
20696SOL    HW262113   4.794   1.232   6.603
20697SOL     OW62114   5.362   1.099   6.665
20697SOL    HW162115   5.367   1.180   6.724
20697SOL    HW262116   5.276   1.101   6.614
20698SOL     OW62117   4.704   1.116   7.305
20698SOL    HW162118   4.605   1.122   7.315
20698SOL    HW262119   4.727   1.036   7.249
20699SOL     OW62120   4.429   1.050   5.954
20699SOL    HW162121   4.415   1.057   6.053
20699SOL    HW262122   4.513   0.999   5.936
20700SOL     OW62123   4.134   0.813   6.837
20700SOL    HW162124   4.220   0.825   6.887
20700SOL    HW262125   4.092   0.726   6.864
20701SOL     OW62126   4.998   0.386   6.848
20701SOL    HW162127   5.019   0.460   6.912
20701SOL    HW262128   4.909   0.403   6.805
20702SOL     OW62129   3.788   1.564   6.917
20702SOL    HW162130   3.742   1.646   6.883
20702SOL    HW262131   3.886   1.583   6.926
20703SOL     OW62132   4.091   1.100   6.087
20703SOL    HW162133   4.084   1.183   6.031
20703SOL    HW262134   4.095   1.020   6.027
20704SOL     OW62135   4.290   0.537   6.451
20704SOL    HW162136   4.302   0.603   6.377
20704SOL    HW262137   4.336   0.571   6.534
20705SOL     OW62138   4.976   1.348   5.974
20705SOL    HW162139   5.026   1.425   6.014
20705SOL    HW262140   4.881   1.350   6.006
20706SOL     OW62141   4.996   1.445   6.728
20706SOL    HW162142   5.043   1.458   6.815
20706SOL    HW262143   4.930   1.371   6.737
20707SOL     OW62144   5.306   0.639   6.058
20707SOL    HW162145   5.275   0.700   6.131
20707SOL    HW262146   5.356   0.691   5.989
20708SOL     OW62147   4.078   1.510   6.915
20708SOL    HW162148   4.057   1.466   6.828
20708SOL    HW262149   4.175   1.536   6.918
20709SOL     OW62150   4.126   0.751   7.184
20709SOL    HW162151   4.194   0.806   7.137
20709SOL    HW262152   4.166   0.663   7.211
20710SOL     OW62153   5.311   0.779   7.256
20710SOL    HW162154   5.219   0.817   7.251
20710SOL    HW262155   5.371   0.826   7.191
20711SOL     OW62156   4.737   0.105   7.356
20711SOL    HW162157   4.743   0.190   7.304
20711SOL    HW262158   4.769   0.029   7.299
20712SOL     OW62159   4.228   0.050   7.326
20712SOL    HW162160   4.186  -0.007   7.256
20712SOL    HW262161   4.162   0.119   7.358
20713SOL     OW62162   4.297   0.870   6.615
20713SOL    HW162163   4.341   0.959   6.606
20713SOL    HW262164   4.234   0.870   6.692
20714SOL     OW62165   5.084   0.862   6.631
20714SOL    HW162166   5.009   0.862   6.565
20714SOL    HW262167   5.121   0.770   6.640
20715SOL     OW62168   4.933   0.525   5.861
20715SOL    HW162169   4.946   0.441   5.915
20715SOL    HW262170   4.904   0.599   5.921
20716SOL     OW62171   4.031   0.213   6.817
20716SOL    HW162172   4.008   0.250   6.907
20716SOL    HW262173   4.001   0.118   6.811
20717SOL     OW62174   3.761   1.310   6.868
20717SOL    HW162175   3.814   1.261   6.936
20717SOL    HW262176   3.783   1.408   6.873
20718SOL     OW62177   4.456   0.634   6.650
20718SOL    HW162178   4.515   0.608   6.574
20718SOL    HW262179   4.428   0.730   6.639
20719SOL     OW62180   5.452   0.935   7.440
20719SOL    HW162181   5.406   0.928   7.351
20719SOL    HW262182   5.390   0.979   7.506
20720SOL     OW62183   4.031   0.063   6.204
20720SOL    HW162184   4.020   0.157   6.237
20720SOL    HW262185   4.026   0.000   6.281
20721SOL     OW62186   5.346   0.367   5.960
20721SOL    HW162187   5.348   0.291   6.024
20721SOL    HW262188   5.298   0.444   6.000
20722SOL     OW62189   4.747   0.766   6.552
20722SOL    HW162190   4.762   0.787   6.648
20722SOL    HW262191   4.717   0.671   6.543
20723SOL     OW62192   4.704   1.573   7.286
20723SOL    HW162193   4.684   1.617   7.198
20723SOL    HW262194   4.743   1.482   7.270
20724SOL     OW62195   5.583   1.518   7.191
20724SOL    HW162196   5.597   1.545   7.096
20724SOL    HW262197   5.666   1.540   7.244
20725SOL     OW62198   4.074   0.898   7.390
20725SOL    HW162199   4.150   0.942   7.438
20725SOL    HW262200   4.109   0.851   7.308
20726SOL     OW62201   5.264   0.274   5.711
20726SOL    HW162202   5.203   0.199   5.734
20726SOL    HW262203   5.286   0.326   5.794
20727SOL     OW62204   5.027   0.838   5.628
20727SOL    HW162205   5.061   0.745   5.643
20727SOL    HW262206   5.045   0.865   5.533
20728SOL     OW62207   4.792   1.333   6.435
20728SOL    HW162208   4.799   1.249   6.380
20728SOL    HW262209   4.854   1.402   6.399
20729SOL     OW62210   4.043   0.810   6.535
20729SOL    HW162211   4.136   0.846   6.540
20729SOL    HW262212   4.037   0.725   6.587
20730SOL     OW62213   4.063   0.509   6.592
20730SOL    HW162214   4.011   0.426   6.575
20730SOL    HW262215   4.140   0.514   6.528
20731SOL     OW62216   4.862   0.380   7.264
20731SOL    HW162217   4.817   0.443   7.328
20731SOL    HW262218   4.955   0.411   7.247
20732SOL     OW62219   4.884   0.207   7.063
20732SOL    HW162220   4.884   0.271   7.140
20732SOL    HW262221   4.912   0.255   6.980
20733SOL     OW62222   3.732   1.326   5.786
20733SOL    HW162223   3.639   1.347   5.755
20733SOL    HW262224   3.742   1.227   5.799
20734SOL     OW62225   3.812   1.801   6.513
20734SOL    HW162226   3.770   1.715   6.486
20734SOL    HW262227   3.906   1.804   6.479
20735SOL     OW62228   4.228   1.568   6.496
20735SOL    HW162229   4.294   1.642   6.505
20735SOL    HW262230   4.272   1.489   6.454
20736SOL     OW62231   4.726   0.796   6.824
20736SOL    HW162232   4.767   0.764   6.910
20736SOL    HW262233   4.630   0.769   6.821
20737SOL     OW62234   3.764   0.544   6.700
20737SOL    HW162235   3.849   0.511   6.659
20737SOL    HW262236   3.777   0.559   6.798
20738SOL     OW62237   3.913   0.520   7.308
20738SOL    HW162238   3.972   0.480   7.238
20738SOL    HW262239   3.855   0.591   7.267
20739SOL     OW62240   5.093   0.950   7.246
20739SOL    HW162241   5.132   1.039   7.266
20739SOL    HW262242   5.103   0.930   7.149
20740SOL     OW62243   4.539   0.572   5.911
20740SOL    HW162244   4.546   0.483   5.865
20740SOL    HW262245   4.445   0.606   5.903
20741SOL     OW62246   5.381   0.604   6.792
20741SOL    HW162247   5.343   0.535   6.854
20741SOL    HW262248   5.463   0.568   6.748
20742SOL     OW62249   3.976   1.564   7.330
20742SOL    HW162250   3.946   1.621   7.406
20742SOL    HW262251   3.969   1.467   7.356
20743SOL     OW62252   4.395   0.464   6.855
20743SOL    HW162253   4.361   0.375   6.825
20743SOL    HW262254   4.421   0.518   6.775
20744SOL     OW62255   4.654   1.678   7.051
20744SOL    HW162256   4.630   1.660   6.956
20744SOL    HW262257   4.684   1.772   7.061
20745SOL     OW62258   4.197   0.500   5.777
20745SOL    HW162259   4.258   0.580   5.781
20745SOL    HW262260   4.102   0.531   5.784
20746SOL     OW62261   3.883   1.137   7.052
20746SOL    HW162262   3.905   1.076   7.128
20746SOL    HW262263   3.893   1.088   6.966
20747SOL     OW62264   5.071   1.059   6.820
20747SOL    HW162265   5.095   0.996   6.746
20747SOL    HW262266   4.981   1.099   6.802
20748SOL     OW62267   5.026   0.855   5.895
20748SOL    HW162268   4.940   0.824   5.937
20748SOL    HW262269   5.022   0.841   5.796
20749SOL     OW62270   5.483   1.747   6.740
20749SOL    HW162271   5.544   1.777   6.667
20749SOL    HW262272   5.445   1.658   6.718
20750SOL     OW62273   4.976   1.731   6.714
20750SOL    HW162274   5.060   1.736   6.660
20750SOL    HW262275   4.953   1.635   6.732
20751SOL     OW62276   3.807   1.258   6.608
20751SOL    HW162277   3.802   1.257   6.708
20751SOL    HW262278   3.724   1.217   6.570
20752SOL     OW62279   4.412   1.662   7.302
20752SOL    HW162280   4.356   1.743   7.311
20752SOL    HW262281   4.464   1.666   7.216
20753SOL     OW62282   5.450   0.135   6.109
20753SOL    HW162283   5.523   0.118   6.042
20753SOL    HW262284   5.419   0.048   6.147
20754SOL     OW62285   5.112   1.573   6.063
20754SOL    HW162286   5.179   1.585   5.989
20754SOL    HW262287   5.072   1.662   6.086
20755SOL     OW62288   3.854   1.794   7.437
20755SOL    HW162289   3.813   1.720   7.490
20755SOL    HW262290   3.918   1.845   7.495
20756SOL     OW62291   5.004   0.927   6.258
20756SOL    HW162292   5.064   0.846   6.260
20756SOL    HW262293   5.044   0.996   6.198
20757SOL     OW62294   4.554   1.273   7.008
20757SOL    HW162295   4.549   1.306   7.103
20757SOL    HW262296   4.468   1.292   6.962
20758SOL     OW62297   4.396   1.616   5.740
20758SOL    HW162298   4.405   1.626   5.641
20758SOL    HW262299   4.356   1.527   5.761
20759SOL     OW62300   5.374   1.720   6.980
20759SOL    HW162301   5.427   1.730   6.896
20759SOL    HW262302   5.347   1.810   7.014
20760SOL     OW62303   5.565   0.175   6.549
20760SOL    HW162304   5.604   0.090   6.513
20760SOL    HW262305   5.467   0.177   6.530
20761SOL     OW62306   3.987   0.326   6.306
20761SOL    HW162307   3.908   0.377   6.272
20761SOL    HW262308   3.978   0.311   6.404
20762SOL     OW62309   4.918   1.612   5.617
20762SOL    HW162310   4.924   1.519   5.654
20762SOL    HW262311   4.859   1.612   5.537
20763SOL     OW62312   4.546   1.002   6.958
20763SOL    HW162313   4.586   1.001   6.866
20763SOL    HW262314   4.556   1.094   6.998
20764SOL     OW62315   4.640   0.910   5.877
20764SOL    HW162316   4.703   0.948   5.809
20764SOL    HW262317   4.680   0.827   5.916
20765SOL     OW62318   5.228   1.607   5.630
20765SOL    HW162319   5.136   1.644   5.637
20765SOL    HW262320   5.266   1.627   5.540
20766SOL     OW62321   4.096   1.288   7.076
20766SOL    HW162322   4.083   1.381   7.042
20766SOL    HW262323   4.012   1.236   7.063
20767SOL     OW62324   5.338   1.292   6.875
20767SOL    HW162325   5.398   1.295   6.955
20767SOL    HW262326   5.263   1.356   6.888
20768SOL     OW62327   4.763   1.098   6.282
20768SOL    HW162328   4.693   1.051   6.336
20768SOL    HW262329   4.822   1.030   6.239
20769SOL     OW62330   4.738   0.236   6.557
20769SOL    HW162331   4.730   0.200   6.464
20769SOL    HW262332   4.736   0.160   6.622
20770SOL     OW62333   4.314   1.487   6.077
20770SOL    HW162334   4.356   1.429   6.007
20770SOL    HW262335   4.270   1.566   6.033
20771SOL     OW62336   5.433   0.385   6.967
20771SOL    HW162337   5.506   0.454   6.971
20771SOL    HW262338   5.461   0.310   6.908
20772SOL     OW62339   3.979   1.348   5.876
20772SOL    HW162340   3.883   1.349   5.849
20772SOL    HW262341   3.991   1.401   5.960
20773SOL     OW62342   3.829   1.013   7.312
20773SOL    HW162343   3.752   0.980   7.366
20773SOL    HW262344   3.914   0.983   7.354
20774SOL     OW62345   4.396   0.203   7.075
20774SOL    HW162346   4.486   0.187   7.035
20774SOL    HW262347   4.404   0.208   7.174
20775SOL     OW62348   3.799   0.345   5.619
20775SOL    HW162349   3.707   0.317   5.590
20775SOL    HW262350   3.830   0.422   5.563
20776SOL     OW62351   5.164   0.856   6.984
20776SOL    HW162352   5.107   0.908   6.921
20776SOL    HW262353   5.260   0.868   6.960
20777SOL     OW62354   3.796   0.166   5.904
20777SOL    HW162355   3.779   0.249   5.850
20777SOL    HW262356   3.886   0.129   5.882
20778SOL     OW62357   4.907   1.335   5.705
20778SOL    HW162358   4.808   1.324   5.707
20778SOL    HW262359   4.941   1.350   5.798
20779SOL     OW62360   4.337   0.842   7.017
20779SOL    HW162361   4.393   0.923   7.000
20779SOL    HW262362   4.396   0.762   7.020
20780SOL     OW62363   5.217   1.767   6.545
20780SOL    HW162364   5.250   1.831   6.476
20780SOL    HW262365   5.283   1.761   6.620
20781SOL     OW62366   4.440   0.565   7.294
20781SOL    HW162367   4.459   0.630   7.368
20781SOL    HW262368   4.500   0.485   7.303
20782SOL     OW62369   5.174   1.220   7.219
20782SOL    HW162370   5.165   1.210   7.318
20782SOL    HW262371   5.270   1.213   7.193
20783SOL     OW62372   4.114   1.741   7.146
20783SOL    HW162373   4.023   1.782   7.144
20783SOL    HW262374   4.107   1.647   7.178
20784SOL     OW62375   5.398   0.883   6.840
20784SOL    HW162376   5.371   0.794   6.803
20784SOL    HW262377   5.399   0.951   6.767
20785SOL     OW62378   4.949   0.325   6.035
20785SOL    HW162379   5.014   0.251   6.024
20785SOL    HW262380   4.969   0.375   6.119
20786SOL     OW62381   4.318   0.745   6.238
20786SOL    HW162382   4.368   0.830   6.219
20786SOL    HW262383   4.230   0.747   6.190
20787SOL     OW62384   5.501   0.342   7.228
20787SOL    HW162385   5.484   0.373   7.134
20787SOL    HW262386   5.417   0.305   7.266
20788SOL     OW62387   5.454   0.934   7.103
20788SOL    HW162388   5.492   1.025   7.118
20788SOL    HW262389   5.446   0.917   7.004
20789SOL     OW62390   4.583   1.374   5.602
20789SOL    HW162391   4.537   1.389   5.690
20789SOL    HW262392   4.627   1.459   5.572
20790SOL     OW62393   4.385   1.790   6.539
20790SOL    HW162394   4.339   1.878   6.526
20790SOL    HW262395   4.484   1.802   6.532
20791SOL     OW62396   4.583   0.956   6.447
20791SOL    HW162397   4.637   0.887   6.495
20791SOL    HW262398   4.551   1.025   6.513
20792SOL     OW62399   4.807   0.984   5.673
20792SOL    HW162400   4.784   1.037   5.591
20792SOL    HW262401   4.888   0.928   5.654
20793SOL     OW62402   5.585   1.569   6.437
20793SOL    HW162403   5.514   1.557   6.367
20793SOL    HW262404   5.586   1.490   6.497
20794SOL     OW62405   3.945   1.314   7.430
20794SOL    HW162406   3.880   1.241   7.409
20794SOL    HW262407   3.949   1.328   7.528
20795SOL     OW62408   3.803   1.240   6.239
20795SOL    HW162409   3.802   1.193   6.327
20795SOL    HW262410   3.885   1.212   6.188
20796SOL     OW62411   4.396   1.391   7.210
20796SOL    HW162412   4.318   1.341   7.248
20796SOL    HW262413   4.393   1.486   7.241
20797SOL     OW62414   5.548   0.192   6.813
20797SOL    HW162415   5.544   0.102   6.857
20797SOL    HW262416   5.551   0.181   6.714
20798SOL     OW62417   4.152   0.424   6.106
20798SOL    HW162418   4.182   0.352   6.044
20798SOL    HW262419   4.113   0.384   6.189
20799SOL     OW62420   5.429   1.487   6.690
20799SOL    HW162421   5.336   1.462   6.663
20799SOL    HW262422   5.455   1.437   6.772
20800SOL     OW62423   4.041   0.547   6.866
20800SOL    HW162424   4.079   0.488   6.938
20800SOL    HW262425   4.081   0.521   6.778
20801SOL     OW62426   4.536   1.586   6.273
20801SOL    HW162427   4.568   1.596   6.179
20801SOL    HW262428   4.457   1.524   6.275
20802SOL     OW62429   5.148   0.214   6.698
20802SOL    HW162430   5.200   0.149   6.753
20802SOL    HW262431   5.099   0.277   6.759
20803SOL     OW62432   4.725   0.034   6.740
20803SOL    HW162433   4.662  -0.038   6.709
20803SOL    HW262434   4.818  -0.002   6.740
20804SOL     OW62435   4.494   1.330   5.887
20804SOL    HW162436   4.448   1.243   5.904
20804SOL    HW262437   4.585   1.327   5.928
20805SOL     OW62438   4.342   1.567   6.870
20805SOL    HW162439   4.337   1.649   6.927
20805SOL    HW262440   4.431   1.564   6.825
20806SOL     OW62441   5.076   0.052   5.754
20806SOL    HW162442   5.111   0.011   5.670
20806SOL    HW262443   4.986   0.014   5.774
20807SOL     OW62444   5.024   0.453   6.277
20807SOL    HW162445   4.965   0.533   6.281
20807SOL    HW262446   5.039   0.418   6.370
20808SOL     OW62447   5.317   0.221   6.468
20808SOL    HW162448   5.233   0.220   6.522
20808SOL    HW262449   5.319   0.304   6.412
20809SOL     OW62450   3.763   1.077   5.886
20809SOL    HW162451   3.862   1.066   5.877
20809SOL    HW262452   3.723   0.991   5.918
20810SOL     OW62453   4.599   1.646   5.923
20810SOL    HW162454   4.522   1.611   5.869
20810SOL    HW262455   4.567   1.717   5.985
20811SOL     OW62456   3.954   0.628   7.561
20811SOL    HW162457   3.861   0.626   7.598
20811SOL    HW262458   3.955   0.589   7.469
20812SOL     OW62459   3.949   0.275   8.444
20812SOL    HW162460   3.984   0.258   8.536
20812SOL    HW262461   3.861   0.230   8.432
20813SOL     OW62462   3.743   0.368   8.095
20813SOL    HW162463   3.661   0.411   8.134
20813SOL    HW262464   3.715   0.295   8.032
20814SOL     OW62465   4.293   1.275   8.613
20814SOL    HW162466   4.200   1.268   8.576
20814SOL    HW262467   4.304   1.364   8.657
20815SOL     OW62468   5.279   1.511   8.151
20815SOL    HW162469   5.222   1.495   8.232
20815SOL    HW262470   5.220   1.521   8.071
20816SOL     OW62471   4.859   0.703   8.165
20816SOL    HW162472   4.916   0.781   8.140
20816SOL    HW262473   4.799   0.729   8.241
20817SOL     OW62474   5.479   0.607   7.679
20817SOL    HW162475   5.467   0.594   7.580
20817SOL    HW262476   5.449   0.526   7.728
20818SOL     OW62477   4.492   1.144   8.471
20818SOL    HW162478   4.414   1.161   8.531
20818SOL    HW262479   4.526   1.231   8.435
20819SOL     OW62480   4.574   0.798   9.271
20819SOL    HW162481   4.570   0.874   9.336
20819SOL    HW262482   4.596   0.834   9.180
20820SOL     OW62483   4.409   1.012   8.113
20820SOL    HW162484   4.478   0.996   8.183
20820SOL    HW262485   4.336   1.069   8.151
20821SOL     OW62486   4.410   1.161   9.251
20821SOL    HW162487   4.470   1.240   9.265
20821SOL    HW262488   4.324   1.192   9.210
20822SOL     OW62489   4.059   1.435   8.509
20822SOL    HW162490   3.981   1.404   8.456
20822SOL    HW262491   4.117   1.493   8.452
20823SOL     OW62492   5.184   1.505   8.787
20823SOL    HW162493   5.208   1.599   8.813
20823SOL    HW262494   5.168   1.451   8.869
20824SOL     OW62495   4.162   0.392   8.947
20824SOL    HW162496   4.244   0.336   8.956
20824SOL    HW262497   4.081   0.334   8.951
20825SOL     OW62498   5.327   0.447   8.185
20825SOL    HW162499   5.253   0.493   8.135
20825SOL    HW262500   5.378   0.515   8.238
20826SOL     OW62501   3.955   1.713   7.931
20826SOL    HW162502   3.989   1.790   7.985
20826SOL    HW262503   3.999   1.713   7.841
20827SOL     OW62504   4.851   1.341   9.138
20827SOL    HW162505   4.898   1.341   9.226
20827SOL    HW262506   4.803   1.254   9.127
20828SOL     OW62507   3.954   1.434   7.986
20828SOL    HW162508   3.928   1.530   7.986
20828SOL    HW262509   3.883   1.380   8.031
20829SOL     OW62510   3.964   1.091   8.334
20829SOL    HW162511   3.978   1.007   8.386
20829SOL    HW262512   3.909   1.155   8.389
20830SOL     OW62513   4.344   1.786   8.887
20830SOL    HW162514   4.252   1.769   8.922
20830SOL    HW262515   4.372   1.878   8.913
20831SOL     OW62516   4.330   0.964   7.571
20831SOL    HW162517   4.337   1.048   7.517
20831SOL    HW262518   4.376   0.977   7.659
20832SOL     OW62519   5.318   0.114   8.928
20832SOL    HW162520   5.300   0.181   8.856
20832SOL    HW262521   5.315   0.160   9.017
20833SOL     OW62522   3.846   0.643   8.011
20833SOL    HW162523   3.801   0.555   8.028
20833SOL    HW262524   3.845   0.697   8.095
20834SOL     OW62525   5.566   1.767   7.807
20834SOL    HW162526   5.620   1.738   7.887
20834SOL    HW262527   5.596   1.857   7.778
20835SOL     OW62528   3.751   1.596   7.565
20835SOL    HW162529   3.732   1.500   7.586
20835SOL    HW262530   3.718   1.654   7.640
20836SOL     OW62531   5.413   0.922   8.060
20836SOL    HW162532   5.508   0.893   8.068
20836SOL    HW262533   5.405   0.987   7.985
20837SOL     OW62534   5.365   1.108   7.880
20837SOL    HW162535   5.451   1.110   7.828
20837SOL    HW262536   5.379   1.155   7.968
20838SOL     OW62537   3.837   0.737   9.045
20838SOL    HW162538   3.925   0.724   9.090
20838SOL    HW262539   3.824   0.834   9.023
20839SOL     OW62540   4.337   1.365   8.174
20839SOL    HW162541   4.288   1.278   8.183
20839SOL    HW262542   4.314   1.408   8.087
20840SOL     OW62543   5.017   1.228   8.871
20840SOL    HW162544   5.054   1.155   8.813
20840SOL    HW262545   5.069   1.233   8.956
20841SOL     OW62546   4.533   0.004   7.950
20841SOL    HW162547   4.573   0.095   7.941
20841SOL    HW262548   4.433   0.012   7.956
20842SOL     OW62549   3.921   0.976   8.712
20842SOL    HW162550   4.010   0.931   8.698
20842SOL    HW262551   3.848   0.911   8.693
20843SOL     OW62552   5.249   0.999   7.638
20843SOL    HW162553   5.186   0.923   7.651
20843SOL    HW262554   5.297   1.017   7.724
20844SOL     OW62555   4.911   1.792   9.064
20844SOL    HW162556   4.935   1.852   8.988
20844SOL    HW262557   4.918   1.697   9.034
20845SOL     OW62558   4.041   0.251   9.249
20845SOL    HW162559   4.112   0.322   9.255
20845SOL    HW262560   3.953   0.290   9.277
20846SOL     OW62561   5.190   1.417   8.401
20846SOL    HW162562   5.131   1.423   8.481
20846SOL    HW262563   5.175   1.329   8.355
20847SOL     OW62564   5.391   1.714   8.020
20847SOL    HW162565   5.350   1.691   7.932
20847SOL    HW262566   5.373   1.640   8.085
20848SOL     OW62567   4.322   0.729   7.718
20848SOL    HW162568   4.346   0.798   7.650
20848SOL    HW262569   4.244   0.762   7.772
20849SOL     OW62570   5.005   0.345   8.392
20849SOL    HW162571   4.919   0.295   8.379
20849SOL    HW262572   5.067   0.291   8.448
20850SOL     OW62573   5.300   1.662   7.755
20850SOL    HW162574   5.389   1.708   7.758
20850SOL    HW262575   5.279   1.638   7.660
20851SOL     OW62576   4.531   0.605   8.913
20851SOL    HW162577   4.484   0.602   9.002
20851SOL    HW262578   4.480   0.550   8.847
20852SOL     OW62579   5.118   0.469   9.122
20852SOL    HW162580   5.098   0.512   9.210
20852SOL    HW262581   5.196   0.407   9.131
20853SOL     OW62582   4.697   0.890   9.020
20853SOL    HW162583   4.743   0.806   8.991
20853SOL    HW262584   4.641   0.924   8.945
20854SOL     OW62585   4.715   0.410   8.690
20854SOL    HW162586   4.638   0.444   8.744
20854SOL    HW262587   4.681   0.359   8.611
20855SOL     OW62588   4.765   0.701   7.877
20855SOL    HW162589   4.791   0.697   7.973
20855SOL    HW262590   4.680   0.650   7.863
20856SOL     OW62591   3.800   0.811   8.237
20856SOL    HW162592   3.899   0.799   8.246
20856SOL    HW262593   3.776   0.906   8.258
20857SOL     OW62594   3.854   1.821   9.019
20857SOL    HW162595   3.844   1.806   9.118
20857SOL    HW262596   3.768   1.857   8.983
20858SOL     OW62597   4.589   0.348   7.643
20858SOL    HW162598   4.648   0.411   7.594
20858SOL    HW262599   4.608   0.254   7.614
20859SOL     OW62600   5.443   0.585   9.279
20859SOL    HW162601   5.417   0.674   9.243
20859SOL    HW262602   5.441   0.517   9.206
20860SOL     OW62603   5.086   1.144   7.993
20860SOL    HW162604   5.169   1.115   7.945
20860SOL    HW262605   5.037   1.211   7.937
20861SOL     OW62606   4.274   0.196   8.333
20861SOL    HW162607   4.269   0.191   8.433
20861SOL    HW262608   4.276   0.292   8.304
20862SOL     OW62609   4.732   1.456   7.925
20862SOL    HW162610   4.686   1.528   7.873
20862SOL    HW262611   4.728   1.476   8.023
20863SOL     OW62612   4.075   1.801   8.301
20863SOL    HW162613   4.125   1.715   8.307
20863SOL    HW262614   4.140   1.878   8.298
20864SOL     OW62615   5.519   1.066   8.321
20864SOL    HW162616   5.457   1.051   8.245
20864SOL    HW262617   5.467   1.077   8.406
20865SOL     OW62618   4.951   1.550   8.954
20865SOL    HW162619   4.957   1.473   9.018
20865SOL    HW262620   4.899   1.524   8.874
20866SOL     OW62621   4.045   0.943   7.690
20866SOL    HW162622   4.127   0.982   7.648
20866SOL    HW262623   4.018   0.861   7.641
20867SOL     OW62624   5.182   0.735   8.176
20867SOL    HW162625   5.177   0.670   8.251
20867SOL    HW262626   5.262   0.794   8.189
20868SOL     OW62627   4.185   1.266   9.175
20868SOL    HW162628   4.135   1.267   9.089
20868SOL    HW262629   4.122   1.248   9.251
20869SOL     OW62630   4.835   1.776   7.685
20869SOL    HW162631   4.775   1.714   7.735
20869SOL    HW262632   4.866   1.732   7.600
20870SOL     OW62633   3.926   0.285   8.946
20870SOL    HW162634   3.846   0.345   8.933
20870SOL    HW262635   3.916   0.236   9.032
20871SOL     OW62636   5.356   1.377   7.529
20871SOL    HW162637   5.324   1.471   7.519
20871SOL    HW262638   5.280   1.314   7.517
20872SOL     OW62639   4.188   1.743   7.771
20872SOL    HW162640   4.221   1.782   7.857
20872SOL    HW262641   4.264   1.736   7.706
20873SOL     OW62642   5.124   0.107   7.874
20873SOL    HW162643   5.100   0.070   7.784
20873SOL    HW262644   5.223   0.123   7.878
20874SOL     OW62645   3.973   1.785   8.689
20874SOL    HW162646   4.030   1.720   8.739
20874SOL    HW262647   3.957   1.752   8.596
20875SOL     OW62648   4.664   1.698   8.352
20875SOL    HW162649   4.744   1.641   8.373
20875SOL    HW262650   4.615   1.658   8.275
20876SOL     OW62651   4.106   0.700   7.928
20876SOL    HW162652   4.151   0.610   7.925
20876SOL    HW262653   4.012   0.689   7.961
20877SOL     OW62654   5.271   0.222   9.177
20877SOL    HW162655   5.266   0.259   9.269
20877SOL    HW262656   5.199   0.153   9.165
20878SOL     OW62657   4.338   0.122   7.565
20878SOL    HW162658   4.436   0.100   7.572
20878SOL    HW262659   4.307   0.105   7.472
20879SOL     OW62660   4.505   0.264   9.197
20879SOL    HW162661   4.572   0.203   9.240
20879SOL    HW262662   4.432   0.283   9.262
20880SOL     OW62663   4.612   1.514   8.643
20880SOL    HW162664   4.589   1.489   8.549
20880SOL    HW262665   4.673   1.445   8.682
20881SOL     OW62666   5.075   0.590   8.881
20881SOL    HW162667   5.103   0.547   8.966
20881SOL    HW262668   5.100   0.686   8.882
20882SOL     OW62669   4.527   1.402   8.372
20882SOL    HW162670   4.617   1.416   8.330
20882SOL    HW262671   4.456   1.404   8.301
20883SOL     OW62672   4.646   0.503   8.347
20883SOL    HW162673   4.621   0.494   8.251
20883SOL    HW262674   4.694   0.421   8.378
20884SOL     OW62675   4.263   0.064   7.960
20884SOL    HW162676   4.182   0.065   8.018
20884SOL    HW262677   4.266   0.147   7.905
20885SOL     OW62678   5.158   1.188   7.489
20885SOL    HW162679   5.190   1.112   7.546
20885SOL    HW262680   5.066   1.215   7.519
20886SOL     OW62681   4.021   0.035   7.619
20886SOL    HW162682   4.070   0.119   7.598
20886SOL    HW262683   4.083  -0.030   7.664
20887SOL     OW62684   4.659   0.236   7.928
20887SOL    HW162685   4.611   0.277   7.850
20887SOL    HW262686   4.758   0.234   7.909
20888SOL     OW62687   4.800   0.683   8.912
20888SOL    HW162688   4.720   0.622   8.915
20888SOL    HW262689   4.881   0.630   8.888
20889SOL     OW62690   4.951   1.570   8.241
20889SOL    HW162691   4.972   1.644   8.176
20889SOL    HW262692   5.019   1.570   8.314
20890SOL     OW62693   4.183   1.152   8.189
20890SOL    HW162694   4.112   1.125   8.254
20890SOL    HW262695   4.157   1.124   8.096
20891SOL     OW62696   4.995   1.797   8.039
20891SOL    HW162697   5.039   1.861   7.975
20891SOL    HW262698   4.945   1.849   8.109
20892SOL     OW62699   4.756   0.549   7.464
20892SOL    HW162700   4.715   0.631   7.425
20892SOL    HW262701   4.820   0.575   7.537
20893SOL     OW62702   3.802   0.556   8.834
20893SOL    HW162703   3.894   0.555   8.793
20893SOL    HW262704   3.796   0.630   8.901
20894SOL     OW62705   4.285   0.222   8.595
20894SOL    HW162706   4.323   0.138   8.632
20894SOL    HW262707   4.197   0.241   8.639
20895SOL     OW62708   4.590   0.454   8.090
20895SOL    HW162709   4.558   0.526   8.028
20895SOL    HW262710   4.614   0.373   8.037
20896SOL     OW62711   4.741   0.039   8.201
20896SOL    HW162712   4.669   0.044   8.132
20896SOL    HW262713   4.717  -0.030   8.270
20897SOL     OW62714   5.153   1.173   8.315
20897SOL    HW162715   5.098   1.089   8.308
20897SOL    HW262716   5.179   1.202   8.223
20898SOL     OW62717   5.190   0.590   8.440
20898SOL    HW162718   5.160   0.495   8.447
20898SOL    HW262719   5.263   0.606   8.506
20899SOL     OW62720   5.581   0.833   7.825
20899SOL    HW162721   5.623   0.769   7.889
20899SOL    HW262722   5.543   0.782   7.747
20900SOL     OW62723   4.212   1.385   7.622
20900SOL    HW162724   4.125   1.370   7.669
20900SOL    HW262725   4.195   1.411   7.527
20901SOL     OW62726   5.388   1.280   8.105
20901SOL    HW162727   5.487   1.288   8.119
20901SOL    HW262728   5.343   1.364   8.136
20902SOL     OW62729   5.114   0.575   7.526
20902SOL    HW162730   5.060   0.554   7.607
20902SOL    HW262731   5.205   0.534   7.535
20903SOL     OW62732   4.251   0.256   7.776
20903SOL    HW162733   4.278   0.197   7.701
20903SOL    HW262734   4.251   0.351   7.745
20904SOL     OW62735   5.478   1.223   9.036
20904SOL    HW162736   5.569   1.184   9.023
20904SOL    HW262737   5.486   1.319   9.060
20905SOL     OW62738   4.788   1.347   8.788
20905SOL    HW162739   4.708   1.324   8.843
20905SOL    HW262740   4.871   1.321   8.837
20906SOL     OW62741   5.316   1.629   9.073
20906SOL    HW162742   5.343   1.663   8.983
20906SOL    HW262743   5.395   1.591   9.119
20907SOL     OW62744   4.835   1.195   8.548
20907SOL    HW162745   4.795   1.239   8.629
20907SOL    HW262746   4.794   1.232   8.465
20908SOL     OW62747   5.362   1.099   8.527
20908SOL    HW162748   5.367   1.180   8.586
20908SOL    HW262749   5.276   1.101   8.476
20909SOL     OW62750   4.639   0.089   8.850
20909SOL    HW162751   4.664   0.069   8.755
20909SOL    HW262752   4.711   0.145   8.892
20910SOL     OW62753   4.704   1.116   9.167
20910SOL    HW162754   4.605   1.122   9.177
20910SOL    HW262755   4.727   1.036   9.111
20911SOL     OW62756   4.429   1.050   7.816
20911SOL    HW162757   4.415   1.057   7.915
20911SOL    HW262758   4.513   0.999   7.798
20912SOL     OW62759   4.134   0.813   8.699
20912SOL    HW162760   4.220   0.825   8.749
20912SOL    HW262761   4.092   0.726   8.726
20913SOL     OW62762   4.998   0.386   8.710
20913SOL    HW162763   5.019   0.460   8.774
20913SOL    HW262764   4.909   0.403   8.667
20914SOL     OW62765   3.788   1.564   8.779
20914SOL    HW162766   3.742   1.646   8.745
20914SOL    HW262767   3.886   1.583   8.788
20915SOL     OW62768   4.091   1.100   7.949
20915SOL    HW162769   4.084   1.183   7.893
20915SOL    HW262770   4.095   1.020   7.889
20916SOL     OW62771   4.290   0.537   8.313
20916SOL    HW162772   4.302   0.603   8.239
20916SOL    HW262773   4.336   0.571   8.396
20917SOL     OW62774   4.976   1.348   7.836
20917SOL    HW162775   5.026   1.425   7.876
20917SOL    HW262776   4.881   1.350   7.868
20918SOL     OW62777   4.996   1.445   8.590
20918SOL    HW162778   5.043   1.458   8.677
20918SOL    HW262779   4.930   1.371   8.599
20919SOL     OW62780   5.306   0.639   7.920
20919SOL    HW162781   5.275   0.700   7.993
20919SOL    HW262782   5.356   0.691   7.851
20920SOL     OW62783   4.078   1.510   8.777
20920SOL    HW162784   4.057   1.466   8.690
20920SOL    HW262785   4.175   1.536   8.780
20921SOL     OW62786   4.126   0.751   9.046
20921SOL    HW162787   4.194   0.806   8.999
20921SOL    HW262788   4.166   0.663   9.073
20922SOL     OW62789   5.311   0.779   9.118
20922SOL    HW162790   5.219   0.817   9.113
20922SOL    HW262791   5.371   0.826   9.053
20923SOL     OW62792   4.737   0.105   9.218
20923SOL    HW162793   4.743   0.190   9.166
20923SOL    HW262794   4.769   0.029   9.161
20924SOL     OW62795   4.228   0.050   9.188
20924SOL    HW162796   4.186  -0.007   9.118
20924SOL    HW262797   4.162   0.119   9.220
20925SOL     OW62798   4.297   0.870   8.477
20925SOL    HW162799   4.341   0.959   8.468
20925SOL    HW262800   4.234   0.870   8.554
20926SOL     OW62801   5.084   0.862   8.493
20926SOL    HW162802   5.009   0.862   8.427
20926SOL    HW262803   5.121   0.770   8.502
20927SOL     OW62804   4.933   0.525   7.723
20927SOL    HW162805   4.946   0.441   7.777
20927SOL    HW262806   4.904   0.599   7.783
20928SOL     OW62807   4.031   0.213   8.679
20928SOL    HW162808   4.008   0.250   8.769
20928SOL    HW262809   4.001   0.118   8.673
20929SOL     OW62810   3.761   1.310   8.730
20929SOL    HW162811   3.814   1.261   8.798
20929SOL    HW262812   3.783   1.408   8.735
20930SOL     OW62813   4.456   0.634   8.512
20930SOL    HW162814   4.515   0.608   8.436
20930SOL    HW262815   4.428   0.730   8.501
20931SOL     OW62816   5.452   0.935   9.302
20931SOL    HW162817   5.406   0.928   9.213
20931SOL    HW262818   5.390   0.979   9.368
20932SOL     OW62819   4.031   0.063   8.066
20932SOL    HW162820   4.020   0.157   8.099
20932SOL    HW262821   4.026   0.000   8.143
20933SOL     OW62822   5.346   0.367   7.822
20933SOL    HW162823   5.348   0.291   7.886
20933SOL    HW262824   5.298   0.444   7.862
20934SOL     OW62825   4.747   0.766   8.414
20934SOL    HW162826   4.762   0.787   8.510
20934SOL    HW262827   4.717   0.671   8.405
20935SOL     OW62828   4.704   1.573   9.148
20935SOL    HW162829   4.684   1.617   9.060
20935SOL    HW262830   4.743   1.482   9.132
20936SOL     OW62831   5.583   1.518   9.053
20936SOL    HW162832   5.597   1.545   8.958
20936SOL    HW262833   5.666   1.540   9.106
20937SOL     OW62834   4.074   0.898   9.252
20937SOL    HW162835   4.150   0.942   9.300
20937SOL    HW262836   4.109   0.851   9.170
20938SOL     OW62837   5.264   0.274   7.573
20938SOL    HW162838   5.203   0.199   7.596
20938SOL    HW262839   5.286   0.326   7.656
20939SOL     OW62840   5.027   0.838   7.490
20939SOL    HW162841   5.061   0.745   7.505
20939SOL    HW262842   5.045   0.865   7.395
20940SOL     OW62843   4.792   1.333   8.297
20940SOL    HW162844   4.799   1.249   8.242
20940SOL    HW262845   4.854   1.402   8.261
20941SOL     OW62846   4.043   0.810   8.397
20941SOL    HW162847   4.136   0.846   8.402
20941SOL    HW262848   4.037   0.725   8.449
20942SOL     OW62849   4.063   0.509   8.454
20942SOL    HW162850   4.011   0.426   8.437
20942SOL    HW262851   4.140   0.514   8.390
20943SOL     OW62852   4.862   0.380   9.126
20943SOL    HW162853   4.817   0.443   9.190
20943SOL    HW262854   4.955   0.411   9.109
20944SOL     OW62855   4.884   0.207   8.925
20944SOL    HW162856   4.884   0.271   9.002
20944SOL    HW262857   4.912   0.255   8.842
20945SOL     OW62858   3.732   1.326   7.648
20945SOL    HW162859   3.639   1.347   7.617
20945SOL    HW262860   3.742   1.227   7.661
20946SOL     OW62861   3.812   1.801   8.375
20946SOL    HW162862   3.770   1.715   8.348
20946SOL    HW262863   3.906   1.804   8.341
20947SOL     OW62864   4.228   1.568   8.358
20947SOL    HW162865   4.294   1.642   8.367
20947SOL    HW262866   4.272   1.489   8.316
20948SOL     OW62867   4.726   0.796   8.686
20948SOL    HW162868   4.767   0.764   8.772
20948SOL    HW262869   4.630   0.769   8.683
20949SOL     OW62870   3.764   0.544   8.562
20949SOL    HW162871   3.849   0.511   8.521
20949SOL    HW262872   3.777   0.559   8.660
20950SOL     OW62873   3.913   0.520   9.170
20950SOL    HW162874   3.972   0.480   9.100
20950SOL    HW262875   3.855   0.591   9.129
20951SOL     OW62876   5.093   0.950   9.108
20951SOL    HW162877   5.132   1.039   9.128
20951SOL    HW262878   5.103   0.930   9.011
20952SOL     OW62879   4.539   0.572   7.773
20952SOL    HW162880   4.546   0.483   7.727
20952SOL    HW262881   4.445   0.606   7.765
20953SOL     OW62882   5.381   0.604   8.654
20953SOL    HW162883   5.343   0.535   8.716
20953SOL    HW262884   5.463   0.568   8.610
20954SOL     OW62885   3.976   1.564   9.192
20954SOL    HW162886   3.946   1.621   9.268
20954SOL    HW262887   3.969   1.467   9.218
20955SOL     OW62888   4.395   0.464   8.717
20955SOL    HW162889   4.361   0.375   8.687
20955SOL    HW262890   4.421   0.518   8.637
20956SOL     OW62891   4.654   1.678   8.913
20956SOL    HW162892   4.630   1.660   8.818
20956SOL    HW262893   4.684   1.772   8.923
20957SOL     OW62894   4.197   0.500   7.639
20957SOL    HW162895   4.258   0.580   7.643
20957SOL    HW262896   4.102   0.531   7.646
20958SOL     OW62897   3.883   1.137   8.914
20958SOL    HW162898   3.905   1.076   8.990
20958SOL    HW262899   3.893   1.088   8.828
20959SOL     OW62900   5.071   1.059   8.682
20959SOL    HW162901   5.095   0.996   8.608
20959SOL    HW262902   4.981   1.099   8.664
20960SOL     OW62903   5.026   0.855   7.757
20960SOL    HW162904   4.940   0.824   7.799
20960SOL    HW262905   5.022   0.841   7.658
20961SOL     OW62906   5.483   1.747   8.602
20961SOL    HW162907   5.544   1.777   8.529
20961SOL    HW262908   5.445   1.658   8.580
20962SOL     OW62909   4.976   1.731   8.576
20962SOL    HW162910   5.060   1.736   8.522
20962SOL    HW262911   4.953   1.635   8.594
20963SOL     OW62912   3.807   1.258   8.470
20963SOL    HW162913   3.802   1.257   8.570
20963SOL    HW262914   3.724   1.217   8.432
20964SOL     OW62915   4.412   1.662   9.164
20964SOL    HW162916   4.356   1.743   9.173
20964SOL    HW262917   4.464   1.666   9.078
20965SOL     OW62918   5.450   0.135   7.971
20965SOL    HW162919   5.523   0.118   7.904
20965SOL    HW262920   5.419   0.048   8.009
20966SOL     OW62921   5.112   1.573   7.925
20966SOL    HW162922   5.179   1.585   7.851
20966SOL    HW262923   5.072   1.662   7.948
20967SOL     OW62924   3.854   1.794   9.299
20967SOL    HW162925   3.813   1.720   9.352
20967SOL    HW262926   3.918   1.845   9.357
20968SOL     OW62927   5.004   0.927   8.120
20968SOL    HW162928   5.064   0.846   8.122
20968SOL    HW262929   5.044   0.996   8.060
20969SOL     OW62930   4.554   1.273   8.870
20969SOL    HW162931   4.549   1.306   8.965
20969SOL    HW262932   4.468   1.292   8.824
20970SOL     OW62933   4.396   1.616   7.602
20970SOL    HW162934   4.405   1.626   7.503
20970SOL    HW262935   4.356   1.527   7.623
20971SOL     OW62936   5.374   1.720   8.842
20971SOL    HW162937   5.427   1.730   8.758
20971SOL    HW262938   5.347   1.810   8.876
20972SOL     OW62939   5.565   0.175   8.411
20972SOL    HW162940   5.604   0.090   8.375
20972SOL    HW262941   5.467   0.177   8.392
20973SOL     OW62942   3.987   0.326   8.168
20973SOL    HW162943   3.908   0.377   8.134
20973SOL    HW262944   3.978   0.311   8.266
20974SOL     OW62945   4.918   1.612   7.479
20974SOL    HW162946   4.924   1.519   7.516
20974SOL    HW262947   4.859   1.612   7.399
20975SOL     OW62948   4.546   1.002   8.820
20975SOL    HW162949   4.586   1.001   8.728
20975SOL    HW262950   4.556   1.094   8.860
20976SOL     OW62951   4.640   0.910   7.739
20976SOL    HW162952   4.703   0.948   7.671
20976SOL    HW262953   4.680   0.827   7.778
20977SOL     OW62954   5.228   1.607   7.492
20977SOL    HW162955   5.136   1.644   7.499
20977SOL    HW262956   5.266   1.627   7.402
20978SOL     OW62957   4.096   1.288   8.938
20978SOL    HW162958   4.083   1.381   8.904
20978SOL    HW262959   4.012   1.236   8.925
20979SOL     OW62960   5.338   1.292   8.737
20979SOL    HW162961   5.398   1.295   8.817
20979SOL    HW262962   5.263   1.356   8.750
20980SOL     OW62963   4.763   1.098   8.144
20980SOL    HW162964   4.693   1.051   8.198
20980SOL    HW262965   4.822   1.030   8.101
20981SOL     OW62966   4.738   0.236   8.419
20981SOL    HW162967   4.730   0.200   8.326
20981SOL    HW262968   4.736   0.160   8.484
20982SOL     OW62969   4.314   1.487   7.939
20982SOL    HW162970   4.356   1.429   7.869
20982SOL    HW262971   4.270   1.566   7.895
20983SOL     OW62972   5.433   0.385   8.829
20983SOL    HW162973   5.506   0.454   8.833
20983SOL    HW262974   5.461   0.310   8.770
20984SOL     OW62975   3.979   1.348   7.738
20984SOL    HW162976   3.883   1.349   7.711
20984SOL    HW262977   3.991   1.401   7.822
20985SOL     OW62978   3.829   1.013   9.174
20985SOL    HW162979   3.752   0.980   9.228
20985SOL    HW262980   3.914   0.983   9.216
20986SOL     OW62981   4.396   0.203   8.937
20986SOL    HW162982   4.486   0.187   8.897
20986SOL    HW262983   4.404   0.208   9.036
20987SOL     OW62984   3.799   0.345   7.481
20987SOL    HW162985   3.707   0.317   7.452
20987SOL    HW262986   3.830   0.422   7.425
20988SOL     OW62987   5.164   0.856   8.846
20988SOL    HW162988   5.107   0.908   8.783
20988SOL    HW262989   5.260   0.868   8.822
20989SOL     OW62990   3.796   0.166   7.766
20989SOL    HW162991   3.779   0.249   7.712
20989SOL    HW262992   3.886   0.129   7.744
20990SOL     OW62993   4.907   1.335   7.567
20990SOL    HW162994   4.808   1.324   7.569
20990SOL    HW262995   4.941   1.350   7.660
20991SOL     OW62996   4.337   0.842   8.879
20991SOL    HW162997   4.393   0.923   8.862
20991SOL    HW262998   4.396   0.762   8.882
20992SOL     OW62999   5.217   1.767   8.407
20992SOL    HW163000   5.250   1.831   8.338
20992SOL    HW263001   5.283   1.761   8.482
20993SOL     OW63002   4.440   0.565   9.156
20993SOL    HW163003   4.459   0.630   9.230
20993SOL    HW263004   4.500   0.485   9.165
20994SOL     OW63005   5.174   1.220   9.081
20994SOL    HW163006   5.165   1.210   9.180
20994SOL    HW263007   5.270   1.213   9.055
20995SOL     OW63008   4.114   1.741   9.008
20995SOL    HW163009   4.023   1.782   9.006
20995SOL    HW263010   4.107   1.647   9.040
20996SOL     OW63011   5.398   0.883   8.702
20996SOL    HW163012   5.371   0.794   8.665
20996SOL    HW263013   5.399   0.951   8.629
20997SOL     OW63014   4.949   0.325   7.897
20997SOL    HW163015   5.014   0.251   7.886
20997SOL    HW263016   4.969   0.375   7.981
20998SOL     OW63017   4.318   0.745   8.100
20998SOL    HW163018   4.368   0.830   8.081
20998SOL    HW263019   4.230   0.747   8.052
20999SOL     OW63020   5.501   0.342   9.090
20999SOL    HW163021   5.484   0.373   8.996
20999SOL    HW263022   5.417   0.305   9.128
21000SOL     OW63023   5.454   0.934   8.965
21000SOL    HW163024   5.492   1.025   8.980
21000SOL    HW263025   5.446   0.917   8.866
21001SOL     OW63026   4.583   1.374   7.464
21001SOL    HW163027   4.537   1.389   7.552
21001SOL    HW263028   4.627   1.459   7.434
21002SOL     OW63029   4.385   1.790   8.401
21002SOL    HW163030   4.339   1.878   8.388
21002SOL    HW263031   4.484   1.802   8.394
21003SOL     OW63032   4.807   0.984   7.535
21003SOL    HW163033   4.784   1.037   7.453
21003SOL    HW263034   4.888   0.928   7.516
21004SOL     OW63035   5.585   1.569   8.299
21004SOL    HW163036   5.514   1.557   8.229
21004SOL    HW263037   5.586   1.490   8.359
21005SOL     OW63038   3.945   1.314   9.292
21005SOL    HW163039   3.880   1.241   9.271
21005SOL    HW263040   3.949   1.328   9.390
21006SOL     OW63041   3.803   1.240   8.101
21006SOL    HW163042   3.802   1.193   8.189
21006SOL    HW263043   3.885   1.212   8.050
21007SOL     OW63044   4.396   1.391   9.072
21007SOL    HW163045   4.318   1.341   9.110
21007SOL    HW263046   4.393   1.486   9.103
21008SOL     OW63047   5.548   0.192   8.675
21008SOL    HW163048   5.544   0.102   8.719
21008SOL    HW263049   5.551   0.181   8.576
21009SOL     OW63050   4.152   0.424   7.968
21009SOL    HW163051   4.182   0.352   7.906
21009SOL    HW263052   4.113   0.384   8.051
21010SOL     OW63053   5.429   1.487   8.552
21010SOL    HW163054   5.336   1.462   8.525
21010SOL    HW263055   5.455   1.437   8.634
21011SOL     OW63056   4.041   0.547   8.728
21011SOL    HW163057   4.079   0.488   8.800
21011SOL    HW263058   4.081   0.521   8.640
21012SOL     OW63059   4.536   1.586   8.135
21012SOL    HW163060   4.568   1.596   8.041
21012SOL    HW263061   4.457   1.524   8.137
21013SOL     OW63062   5.148   0.214   8.560
21013SOL    HW163063   5.200   0.149   8.615
21013SOL    HW263064   5.099   0.277   8.621
21014SOL     OW63065   4.725   0.034   8.602
21014SOL    HW163066   4.662  -0.038   8.571
21014SOL    HW263067   4.818  -0.002   8.602
21015SOL     OW63068   4.494   1.330   7.749
21015SOL    HW163069   4.448   1.243   7.766
21015SOL    HW263070   4.585   1.327   7.790
21016SOL     OW63071   4.342   1.567   8.732
21016SOL    HW163072   4.337   1.649   8.789
21016SOL    HW263073   4.431   1.564   8.687
21017SOL     OW63074   5.076   0.052   7.616
21017SOL    HW163075   5.111   0.011   7.532
21017SOL    HW263076   4.986   0.014   7.636
21018SOL     OW63077   5.024   0.453   8.139
21018SOL    HW163078   4.965   0.533   8.143
21018SOL    HW263079   5.039   0.418   8.232
21019SOL     OW63080   5.317   0.221   8.330
21019SOL    HW163081   5.233   0.220   8.384
21019SOL    HW263082   5.319   0.304   8.274
21020SOL     OW63083   3.763   1.077   7.748
21020SOL    HW163084   3.862   1.066   7.739
21020SOL    HW263085   3.723   0.991   7.780
21021SOL     OW63086   4.599   1.646   7.785
21021SOL    HW163087   4.522   1.611   7.731
21021SOL    HW263088   4.567   1.717   7.847
21022SOL     OW63089   3.954   0.628   9.423
21022SOL    HW163090   3.861   0.626   9.460
21022SOL    HW263091   3.955   0.589   9.331
21023SOL     OW63092   3.949   0.275  10.306
21023SOL    HW163093   3.984   0.258  10.398
21023SOL    HW263094   3.861   0.230  10.294
21024SOL     OW63095   3.743   0.368   9.957
21024SOL    HW163096   3.661   0.411   9.996
21024SOL    HW263097   3.715   0.295   9.894
21025SOL     OW63098   4.293   1.275  10.475
21025SOL    HW163099   4.200   1.268  10.438
21025SOL    HW263100   4.304   1.364  10.519
21026SOL     OW63101   5.279   1.511  10.013
21026SOL    HW163102   5.222   1.495  10.094
21026SOL    HW263103   5.220   1.521   9.933
21027SOL     OW63104   4.859   0.703  10.027
21027SOL    HW163105   4.916   0.781  10.002
21027SOL    HW263106   4.799   0.729  10.103
21028SOL     OW63107   5.479   0.607   9.541
21028SOL    HW163108   5.467   0.594   9.442
21028SOL    HW263109   5.449   0.526   9.590
21029SOL     OW63110   4.492   1.144  10.333
21029SOL    HW163111   4.414   1.161  10.393
21029SOL    HW263112   4.526   1.231  10.297
21030SOL     OW63113   4.574   0.798  11.133
21030SOL    HW163114   4.570   0.874  11.198
21030SOL    HW263115   4.596   0.834  11.042
21031SOL     OW63116   4.409   1.012   9.975
21031SOL    HW163117   4.478   0.996  10.045
21031SOL    HW263118   4.336   1.069  10.013
21032SOL     OW63119   4.410   1.161  11.113
21032SOL    HW163120   4.470   1.240  11.127
21032SOL    HW263121   4.324   1.192  11.072
21033SOL     OW63122   4.059   1.435  10.371
21033SOL    HW163123   3.981   1.404  10.318
21033SOL    HW263124   4.117   1.493  10.314
21034SOL     OW63125   5.184   1.505  10.649
21034SOL    HW163126   5.208   1.599  10.675
21034SOL    HW263127   5.168   1.451  10.731
21035SOL     OW63128   4.162   0.392  10.809
21035SOL    HW163129   4.244   0.336  10.818
21035SOL    HW263130   4.081   0.334  10.813
21036SOL     OW63131   5.327   0.447  10.047
21036SOL    HW163132   5.253   0.493   9.997
21036SOL    HW263133   5.378   0.515  10.100
21037SOL     OW63134   3.955   1.713   9.793
21037SOL    HW163135   3.989   1.790   9.847
21037SOL    HW263136   3.999   1.713   9.703
21038SOL     OW63137   4.851   1.341  11.000
21038SOL    HW163138   4.898   1.341  11.088
21038SOL    HW263139   4.803   1.254  10.989
21039SOL     OW63140   3.954   1.434   9.848
21039SOL    HW163141   3.928   1.530   9.848
21039SOL    HW263142   3.883   1.380   9.893
21040SOL     OW63143   3.964   1.091  10.196
21040SOL    HW163144   3.978   1.007  10.248
21040SOL    HW263145   3.909   1.155  10.251
21041SOL     OW63146   4.344   1.786  10.749
21041SOL    HW163147   4.252   1.769  10.784
21041SOL    HW263148   4.372   1.878  10.775
21042SOL     OW63149   4.330   0.964   9.433
21042SOL    HW163150   4.337   1.048   9.379
21042SOL    HW263151   4.376   0.977   9.521
21043SOL     OW63152   5.318   0.114  10.790
21043SOL    HW163153   5.300   0.181  10.718
21043SOL    HW263154   5.315   0.160  10.879
21044SOL     OW63155   3.846   0.643   9.873
21044SOL    HW163156   3.801   0.555   9.890
21044SOL    HW263157   3.845   0.697   9.957
21045SOL     OW63158   5.566   1.767   9.669
21045SOL    HW163159   5.620   1.738   9.749
21045SOL    HW263160   5.596   1.857   9.640
21046SOL     OW63161   3.751   1.596   9.427
21046SOL    HW163162   3.732   1.500   9.448
21046SOL    HW263163   3.718   1.654   9.502
21047SOL     OW63164   5.413   0.922   9.922
21047SOL    HW163165   5.508   0.893   9.930
21047SOL    HW263166   5.405   0.987   9.847
21048SOL     OW63167   5.365   1.108   9.742
21048SOL    HW163168   5.451   1.110   9.690
21048SOL    HW263169   5.379   1.155   9.830
21049SOL     OW63170   3.837   0.737  10.907
21049SOL    HW163171   3.925   0.724  10.952
21049SOL    HW263172   3.824   0.834  10.885
21050SOL     OW63173   4.337   1.365  10.036
21050SOL    HW163174   4.288   1.278  10.045
21050SOL    HW263175   4.314   1.408   9.949
21051SOL     OW63176   5.017   1.228  10.733
21051SOL    HW163177   5.054   1.155  10.675
21051SOL    HW263178   5.069   1.233  10.818
21052SOL     OW63179   4.533   0.004   9.812
21052SOL    HW163180   4.573   0.095   9.803
21052SOL    HW263181   4.433   0.012   9.818
21053SOL     OW63182   3.921   0.976  10.574
21053SOL    HW163183   4.010   0.931  10.560
21053SOL    HW263184   3.848   0.911  10.555
21054SOL     OW63185   5.249   0.999   9.500
21054SOL    HW163186   5.186   0.923   9.513
21054SOL    HW263187   5.297   1.017   9.586
21055SOL     OW63188   4.911   1.792  10.926
21055SOL    HW163189   4.935   1.852  10.850
21055SOL    HW263190   4.918   1.697  10.896
21056SOL     OW63191   4.041   0.251  11.111
21056SOL    HW163192   4.112   0.322  11.117
21056SOL    HW263193   3.953   0.290  11.139
21057SOL     OW63194   5.190   1.417  10.263
21057SOL    HW163195   5.131   1.423  10.343
21057SOL    HW263196   5.175   1.329  10.217
21058SOL     OW63197   5.391   1.714   9.882
21058SOL    HW163198   5.350   1.691   9.794
21058SOL    HW263199   5.373   1.640   9.947
21059SOL     OW63200   4.322   0.729   9.580
21059SOL    HW163201   4.346   0.798   9.512
21059SOL    HW263202   4.244   0.762   9.634
21060SOL     OW63203   5.005   0.345  10.254
21060SOL    HW163204   4.919   0.295  10.241
21060SOL    HW263205   5.067   0.291  10.310
21061SOL     OW63206   5.300   1.662   9.617
21061SOL    HW163207   5.389   1.708   9.620
21061SOL    HW263208   5.279   1.638   9.522
21062SOL     OW63209   4.531   0.605  10.775
21062SOL    HW163210   4.484   0.602  10.864
21062SOL    HW263211   4.480   0.550  10.709
21063SOL     OW63212   5.118   0.469  10.984
21063SOL    HW163213   5.098   0.512  11.072
21063SOL    HW263214   5.196   0.407  10.993
21064SOL     OW63215   4.697   0.890  10.882
21064SOL    HW163216   4.743   0.806  10.853
21064SOL    HW263217   4.641   0.924  10.807
21065SOL     OW63218   4.715   0.410  10.552
21065SOL    HW163219   4.638   0.444  10.606
21065SOL    HW263220   4.681   0.359  10.473
21066SOL     OW63221   4.765   0.701   9.739
21066SOL    HW163222   4.791   0.697   9.835
21066SOL    HW263223   4.680   0.650   9.725
21067SOL     OW63224   3.800   0.811  10.099
21067SOL    HW163225   3.899   0.799  10.108
21067SOL    HW263226   3.776   0.906  10.120
21068SOL     OW63227   3.854   1.821  10.881
21068SOL    HW163228   3.844   1.806  10.980
21068SOL    HW263229   3.768   1.857  10.845
21069SOL     OW63230   4.589   0.348   9.505
21069SOL    HW163231   4.648   0.411   9.456
21069SOL    HW263232   4.608   0.254   9.476
21070SOL     OW63233   5.443   0.585  11.141
21070SOL    HW163234   5.417   0.674  11.105
21070SOL    HW263235   5.441   0.517  11.068
21071SOL     OW63236   5.086   1.144   9.855
21071SOL    HW163237   5.169   1.115   9.807
21071SOL    HW263238   5.037   1.211   9.799
21072SOL     OW63239   4.274   0.196  10.195
21072SOL    HW163240   4.269   0.191  10.295
21072SOL    HW263241   4.276   0.292  10.166
21073SOL     OW63242   4.732   1.456   9.787
21073SOL    HW163243   4.686   1.528   9.735
21073SOL    HW263244   4.728   1.476   9.885
21074SOL     OW63245   4.075   1.801  10.163
21074SOL    HW163246   4.125   1.715  10.169
21074SOL    HW263247   4.140   1.878  10.160
21075SOL     OW63248   5.519   1.066  10.183
21075SOL    HW163249   5.457   1.051  10.107
21075SOL    HW263250   5.467   1.077  10.268
21076SOL     OW63251   4.951   1.550  10.816
21076SOL    HW163252   4.957   1.473  10.880
21076SOL    HW263253   4.899   1.524  10.736
21077SOL     OW63254   4.045   0.943   9.552
21077SOL    HW163255   4.127   0.982   9.510
21077SOL    HW263256   4.018   0.861   9.503
21078SOL     OW63257   5.182   0.735  10.038
21078SOL    HW163258   5.177   0.670  10.113
21078SOL    HW263259   5.262   0.794  10.051
21079SOL     OW63260   4.185   1.266  11.037
21079SOL    HW163261   4.135   1.267  10.951
21079SOL    HW263262   4.122   1.248  11.113
21080SOL     OW63263   4.835   1.776   9.547
21080SOL    HW163264   4.775   1.714   9.597
21080SOL    HW263265   4.866   1.732   9.462
21081SOL     OW63266   3.926   0.285  10.808
21081SOL    HW163267   3.846   0.345  10.795
21081SOL    HW263268   3.916   0.236  10.894
21082SOL     OW63269   5.356   1.377   9.391
21082SOL    HW163270   5.324   1.471   9.381
21082SOL    HW263271   5.280   1.314   9.379
21083SOL     OW63272   4.188   1.743   9.633
21083SOL    HW163273   4.221   1.782   9.719
21083SOL    HW263274   4.264   1.736   9.568
21084SOL     OW63275   5.124   0.107   9.736
21084SOL    HW163276   5.100   0.070   9.646
21084SOL    HW263277   5.223   0.123   9.740
21085SOL     OW63278   3.973   1.785  10.551
21085SOL    HW163279   4.030   1.720  10.601
21085SOL    HW263280   3.957   1.752  10.458
21086SOL     OW63281   4.664   1.698  10.214
21086SOL    HW163282   4.744   1.641  10.235
21086SOL    HW263283   4.615   1.658  10.137
21087SOL     OW63284   4.106   0.700   9.790
21087SOL    HW163285   4.151   0.610   9.787
21087SOL    HW263286   4.012   0.689   9.823
21088SOL     OW63287   5.271   0.222  11.039
21088SOL    HW163288   5.266   0.259  11.131
21088SOL    HW263289   5.199   0.153  11.027
21089SOL     OW63290   4.338   0.122   9.427
21089SOL    HW163291   4.436   0.100   9.434
21089SOL    HW263292   4.307   0.105   9.334
21090SOL     OW63293   4.505   0.264  11.059
21090SOL    HW163294   4.572   0.203  11.102
21090SOL    HW263295   4.432   0.283  11.124
21091SOL     OW63296   4.612   1.514  10.505
21091SOL    HW163297   4.589   1.489  10.411
21091SOL    HW263298   4.673   1.445  10.544
21092SOL     OW63299   5.075   0.590  10.743
21092SOL    HW163300   5.103   0.547  10.828
21092SOL    HW263301   5.100   0.686  10.744
21093SOL     OW63302   4.527   1.402  10.234
21093SOL    HW163303   4.617   1.416  10.192
21093SOL    HW263304   4.456   1.404  10.163
21094SOL     OW63305   4.646   0.503  10.209
21094SOL    HW163306   4.621   0.494  10.113
21094SOL    HW263307   4.694   0.421  10.240
21095SOL     OW63308   4.263   0.064   9.822
21095SOL    HW163309   4.182   0.065   9.880
21095SOL    HW263310   4.266   0.147   9.767
21096SOL     OW63311   5.158   1.188   9.351
21096SOL    HW163312   5.190   1.112   9.408
21096SOL    HW263313   5.066   1.215   9.381
21097SOL     OW63314   4.021   0.035   9.481
21097SOL    HW163315   4.070   0.119   9.460
21097SOL    HW263316   4.083  -0.030   9.526
21098SOL     OW63317   4.659   0.236   9.790
21098SOL    HW163318   4.611   0.277   9.712
21098SOL    HW263319   4.758   0.234   9.771
21099SOL     OW63320   4.800   0.683  10.774
21099SOL    HW163321   4.720   0.622  10.777
21099SOL    HW263322   4.881   0.630  10.750
21100SOL     OW63323   4.951   1.570  10.103
21100SOL    HW163324   4.972   1.644  10.038
21100SOL    HW263325   5.019   1.570  10.176
21101SOL     OW63326   4.183   1.152  10.051
21101SOL    HW163327   4.112   1.125  10.116
21101SOL    HW263328   4.157   1.124   9.958
21102SOL     OW63329   4.995   1.797   9.901
21102SOL    HW163330   5.039   1.861   9.837
21102SOL    HW263331   4.945   1.849   9.971
21103SOL     OW63332   4.756   0.549   9.326
21103SOL    HW163333   4.715   0.631   9.287
21103SOL    HW263334   4.820   0.575   9.399
21104SOL     OW63335   3.802   0.556  10.696
21104SOL    HW163336   3.894   0.555  10.655
21104SOL    HW263337   3.796   0.630  10.763
21105SOL     OW63338   4.285   0.222  10.457
21105SOL    HW163339   4.323   0.138  10.494
21105SOL    HW263340   4.197   0.241  10.501
21106SOL     OW63341   4.590   0.454   9.952
21106SOL    HW163342   4.558   0.526   9.890
21106SOL    HW263343   4.614   0.373   9.899
21107SOL     OW63344   4.741   0.039  10.063
21107SOL    HW163345   4.669   0.044   9.994
21107SOL    HW263346   4.717  -0.030  10.132
21108SOL     OW63347   5.153   1.173  10.177
21108SOL    HW163348   5.098   1.089  10.170
21108SOL    HW263349   5.179   1.202  10.085
21109SOL     OW63350   5.190   0.590  10.302
21109SOL    HW163351   5.160   0.495  10.309
21109SOL    HW263352   5.263   0.606  10.368
21110SOL     OW63353   5.581   0.833   9.687
21110SOL    HW163354   5.623   0.769   9.751
21110SOL    HW263355   5.543   0.782   9.609
21111SOL     OW63356   4.212   1.385   9.484
21111SOL    HW163357   4.125   1.370   9.531
21111SOL    HW263358   4.195   1.411   9.389
21112SOL     OW63359   5.388   1.280   9.967
21112SOL    HW163360   5.487   1.288   9.981
21112SOL    HW263361   5.343   1.364   9.998
21113SOL     OW63362   5.114   0.575   9.388
21113SOL    HW163363   5.060   0.554   9.469
21113SOL    HW263364   5.205   0.534   9.397
21114SOL     OW63365   4.251   0.256   9.638
21114SOL    HW163366   4.278   0.197   9.563
21114SOL    HW263367   4.251   0.351   9.607
21115SOL     OW63368   5.478   1.223  10.898
21115SOL    HW163369   5.569   1.184  10.885
21115SOL    HW263370   5.486   1.319  10.922
21116SOL     OW63371   4.788   1.347  10.650
21116SOL    HW163372   4.708   1.324  10.705
21116SOL    HW263373   4.871   1.321  10.699
21117SOL     OW63374   5.316   1.629  10.935
21117SOL    HW163375   5.343   1.663  10.845
21117SOL    HW263376   5.395   1.591  10.981
21118SOL     OW63377   4.835   1.195  10.410
21118SOL    HW163378   4.795   1.239  10.491
21118SOL    HW263379   4.794   1.232  10.327
21119SOL     OW63380   5.362   1.099  10.389
21119SOL    HW163381   5.367   1.180  10.448
21119SOL    HW263382   5.276   1.101  10.338
21120SOL     OW63383   4.639   0.089  10.712
21120SOL    HW163384   4.664   0.069  10.617
21120SOL    HW263385   4.711   0.145  10.754
21121SOL     OW63386   4.704   1.116  11.029
21121SOL    HW163387   4.605   1.122  11.039
21121SOL    HW263388   4.727   1.036  10.973
21122SOL     OW63389   4.429   1.050   9.678
21122SOL    HW163390   4.415   1.057   9.777
21122SOL    HW263391   4.513   0.999   9.660
21123SOL     OW63392   4.134   0.813  10.561
21123SOL    HW163393   4.220   0.825  10.611
21123SOL    HW263394   4.092   0.726  10.588
21124SOL     OW63395   4.998   0.386  10.572
21124SOL    HW163396   5.019   0.460  10.636
21124SOL    HW263397   4.909   0.403  10.529
21125SOL     OW63398   3.788   1.564  10.641
21125SOL    HW163399   3.742   1.646  10.607
21125SOL    HW263400   3.886   1.583  10.650
21126SOL     OW63401   4.091   1.100   9.811
21126SOL    HW163402   4.084   1.183   9.755
21126SOL    HW263403   4.095   1.020   9.751
21127SOL     OW63404   4.290   0.537  10.175
21127SOL    HW163405   4.302   0.603  10.101
21127SOL    HW263406   4.336   0.571  10.258
21128SOL     OW63407   4.976   1.348   9.698
21128SOL    HW163408   5.026   1.425   9.738
21128SOL    HW263409   4.881   1.350   9.730
21129SOL     OW63410   4.996   1.445  10.452
21129SOL    HW163411   5.043   1.458  10.539
21129SOL    HW263412   4.930   1.371  10.461
21130SOL     OW63413   5.306   0.639   9.782
21130SOL    HW163414   5.275   0.700   9.855
21130SOL    HW263415   5.356   0.691   9.713
21131SOL     OW63416   4.078   1.510  10.639
21131SOL    HW163417   4.057   1.466  10.552
21131SOL    HW263418   4.175   1.536  10.642
21132SOL     OW63419   4.126   0.751  10.908
21132SOL    HW163420   4.194   0.806  10.861
21132SOL    HW263421   4.166   0.663  10.935
21133SOL     OW63422   5.311   0.779  10.980
21133SOL    HW163423   5.219   0.817  10.975
21133SOL    HW263424   5.371   0.826  10.915
21134SOL     OW63425   4.737   0.105  11.080
21134SOL    HW163426   4.743   0.190  11.028
21134SOL    HW263427   4.769   0.029  11.023
21135SOL     OW63428   4.228   0.050  11.050
21135SOL    HW163429   4.186  -0.007  10.980
21135SOL    HW263430   4.162   0.119  11.082
21136SOL     OW63431   4.297   0.870  10.339
21136SOL    HW163432   4.341   0.959  10.330
21136SOL    HW263433   4.234   0.870  10.416
21137SOL     OW63434   5.084   0.862  10.355
21137SOL    HW163435   5.009   0.862  10.289
21137SOL    HW263436   5.121   0.770  10.364
21138SOL     OW63437   4.933   0.525   9.585
21138SOL    HW163438   4.946   0.441   9.639
21138SOL    HW263439   4.904   0.599   9.645
21139SOL     OW63440   4.031   0.213  10.541
21139SOL    HW163441   4.008   0.250  10.631
21139SOL    HW263442   4.001   0.118  10.535
21140SOL     OW63443   3.761   1.310  10.592
21140SOL    HW163444   3.814   1.261  10.660
21140SOL    HW263445   3.783   1.408  10.597
21141SOL     OW63446   4.456   0.634  10.374
21141SOL    HW163447   4.515   0.608  10.298
21141SOL    HW263448   4.428   0.730  10.363
21142SOL     OW63449   5.452   0.935  11.164
21142SOL    HW163450   5.406   0.928  11.075
21142SOL    HW263451   5.390   0.979  11.230
21143SOL     OW63452   4.031   0.063   9.928
21143SOL    HW163453   4.020   0.157   9.961
21143SOL    HW263454   4.026   0.000  10.005
21144SOL     OW63455   5.346   0.367   9.684
21144SOL    HW163456   5.348   0.291   9.748
21144SOL    HW263457   5.298   0.444   9.724
21145SOL     OW63458   4.747   0.766  10.276
21145SOL    HW163459   4.762   0.787  10.372
21145SOL    HW263460   4.717   0.671  10.267
21146SOL     OW63461   4.704   1.573  11.010
21146SOL    HW163462   4.684   1.617  10.922
21146SOL    HW263463   4.743   1.482  10.994
21147SOL     OW63464   5.583   1.518  10.915
21147SOL    HW163465   5.597   1.545  10.820
21147SOL    HW263466   5.666   1.540  10.968
21148SOL     OW63467   4.074   0.898  11.114
21148SOL    HW163468   4.150   0.942  11.162
21148SOL    HW263469   4.109   0.851  11.032
21149SOL     OW63470   5.264   0.274   9.435
21149SOL    HW163471   5.203   0.199   9.458
21149SOL    HW263472   5.286   0.326   9.518
21150SOL     OW63473   5.027   0.838   9.352
21150SOL    HW163474   5.061   0.745   9.367
21150SOL    HW263475   5.045   0.865   9.257
21151SOL     OW63476   4.792   1.333  10.159
21151SOL    HW163477   4.799   1.249  10.104
21151SOL    HW263478   4.854   1.402  10.123
21152SOL     OW63479   4.043   0.810  10.259
21152SOL    HW163480   4.136   0.846  10.264
21152SOL    HW263481   4.037   0.725  10.311
21153SOL     OW63482   4.063   0.509  10.316
21153SOL    HW163483   4.011   0.426  10.299
21153SOL    HW263484   4.140   0.514  10.252
21154SOL     OW63485   4.862   0.380  10.988
21154SOL    HW163486   4.817   0.443  11.052
21154SOL    HW263487   4.955   0.411  10.971
21155SOL     OW63488   4.884   0.207  10.787
21155SOL    HW163489   4.884   0.271  10.864
21155SOL    HW263490   4.912   0.255  10.704
21156SOL     OW63491   3.732   1.326   9.510
21156SOL    HW163492   3.639   1.347   9.479
21156SOL    HW263493   3.742   1.227   9.523
21157SOL     OW63494   3.812   1.801  10.237
21157SOL    HW163495   3.770   1.715  10.210
21157SOL    HW263496   3.906   1.804  10.203
21158SOL     OW63497   4.228   1.568  10.220
21158SOL    HW163498   4.294   1.642  10.229
21158SOL    HW263499   4.272   1.489  10.178
21159SOL     OW63500   4.726   0.796  10.548
21159SOL    HW163501   4.767   0.764  10.634
21159SOL    HW263502   4.630   0.769  10.545
21160SOL     OW63503   3.764   0.544  10.424
21160SOL    HW163504   3.849   0.511  10.383
21160SOL    HW263505   3.777   0.559  10.522
21161SOL     OW63506   3.913   0.520  11.032
21161SOL    HW163507   3.972   0.480  10.962
21161SOL    HW263508   3.855   0.591  10.991
21162SOL     OW63509   5.093   0.950  10.970
21162SOL    HW163510   5.132   1.039  10.990
21162SOL    HW263511   5.103   0.930  10.873
21163SOL     OW63512   4.539   0.572   9.635
21163SOL    HW163513   4.546   0.483   9.589
21163SOL    HW263514   4.445   0.606   9.627
21164SOL     OW63515   5.381   0.604  10.516
21164SOL    HW163516   5.343   0.535  10.578
21164SOL    HW263517   5.463   0.568  10.472
21165SOL     OW63518   3.976   1.564  11.054
21165SOL    HW163519   3.946   1.621  11.130
21165SOL    HW263520   3.969   1.467  11.080
21166SOL     OW63521   4.395   0.464  10.579
21166SOL    HW163522   4.361   0.375  10.549
21166SOL    HW263523   4.421   0.518  10.499
21167SOL     OW63524   4.654   1.678  10.775
21167SOL    HW163525   4.630   1.660  10.680
21167SOL    HW263526   4.684   1.772  10.785
21168SOL     OW63527   4.197   0.500   9.501
21168SOL    HW163528   4.258   0.580   9.505
21168SOL    HW263529   4.102   0.531   9.508
21169SOL     OW63530   3.883   1.137  10.776
21169SOL    HW163531   3.905   1.076  10.852
21169SOL    HW263532   3.893   1.088  10.690
21170SOL     OW63533   5.071   1.059  10.544
21170SOL    HW163534   5.095   0.996  10.470
21170SOL    HW263535   4.981   1.099  10.526
21171SOL     OW63536   5.026   0.855   9.619
21171SOL    HW163537   4.940   0.824   9.661
21171SOL    HW263538   5.022   0.841   9.520
21172SOL     OW63539   5.483   1.747  10.464
21172SOL    HW163540   5.544   1.777  10.391
21172SOL    HW263541   5.445   1.658  10.442
21173SOL     OW63542   4.976   1.731  10.438
21173SOL    HW163543   5.060   1.736  10.384
21173SOL    HW263544   4.953   1.635  10.456
21174SOL     OW63545   3.807   1.258  10.332
21174SOL    HW163546   3.802   1.257  10.432
21174SOL    HW263547   3.724   1.217  10.294
21175SOL     OW63548   4.412   1.662  11.026
21175SOL    HW163549   4.356   1.743  11.035
21175SOL    HW263550   4.464   1.666  10.940
21176SOL     OW63551   5.450   0.135   9.833
21176SOL    HW163552   5.523   0.118   9.766
21176SOL    HW263553   5.419   0.048   9.871
21177SOL     OW63554   5.112   1.573   9.787
21177SOL    HW163555   5.179   1.585   9.713
21177SOL    HW263556   5.072   1.662   9.810
21178SOL     OW63557   3.854   1.794  11.161
21178SOL    HW163558   3.813   1.720  11.214
21178SOL    HW263559   3.918   1.845  11.219
21179SOL     OW63560   5.004   0.927   9.982
21179SOL    HW163561   5.064   0.846   9.984
21179SOL    HW263562   5.044   0.996   9.922
21180SOL     OW63563   4.554   1.273  10.732
21180SOL    HW163564   4.549   1.306  10.827
21180SOL    HW263565   4.468   1.292  10.686
21181SOL     OW63566   4.396   1.616   9.464
21181SOL    HW163567   4.405   1.626   9.365
21181SOL    HW263568   4.356   1.527   9.485
21182SOL     OW63569   5.374   1.720  10.704
21182SOL    HW163570   5.427   1.730  10.620
21182SOL    HW263571   5.347   1.810  10.738
21183SOL     OW63572   5.565   0.175  10.273
21183SOL    HW163573   5.604   0.090  10.237
21183SOL    HW263574   5.467   0.177  10.254
21184SOL     OW63575   3.987   0.326  10.030
21184SOL    HW163576   3.908   0.377   9.996
21184SOL    HW263577   3.978   0.311  10.128
21185SOL     OW63578   4.918   1.612   9.341
21185SOL    HW163579   4.924   1.519   9.378
21185SOL    HW263580   4.859   1.612   9.261
21186SOL     OW63581   4.546   1.002  10.682
21186SOL    HW163582   4.586   1.001  10.590
21186SOL    HW263583   4.556   1.094  10.722
21187SOL     OW63584   4.640   0.910   9.601
21187SOL    HW163585   4.703   0.948   9.533
21187SOL    HW263586   4.680   0.827   9.640
21188SOL     OW63587   5.228   1.607   9.354
21188SOL    HW163588   5.136   1.644   9.361
21188SOL    HW263589   5.266   1.627   9.264
21189SOL     OW63590   4.096   1.288  10.800
21189SOL    HW163591   4.083   1.381  10.766
21189SOL    HW263592   4.012   1.236  10.787
21190SOL     OW63593   5.338   1.292  10.599
21190SOL    HW163594   5.398   1.295  10.679
21190SOL    HW263595   5.263   1.356  10.612
21191SOL     OW63596   4.763   1.098  10.006
21191SOL    HW163597   4.693   1.051  10.060
21191SOL    HW263598   4.822   1.030   9.963
21192SOL     OW63599   4.738   0.236  10.281
21192SOL    HW163600   4.730   0.200  10.188
21192SOL    HW263601   4.736   0.160  10.346
21193SOL     OW63602   4.314   1.487   9.801
21193SOL    HW163603   4.356   1.429   9.731
21193SOL    HW263604   4.270   1.566   9.757
21194SOL     OW63605   5.433   0.385  10.691
21194SOL    HW163606   5.506   0.454  10.695
21194SOL    HW263607   5.461   0.310  10.632
21195SOL     OW63608   3.979   1.348   9.600
21195SOL    HW163609   3.883   1.349   9.573
21195SOL    HW263610   3.991   1.401   9.684
21196SOL     OW63611   3.829   1.013  11.036
21196SOL    HW163612   3.752   0.980  11.090
21196SOL    HW263613   3.914   0.983  11.078
21197SOL     OW63614   4.396   0.203  10.799
21197SOL    HW163615   4.486   0.187  10.759
21197SOL    HW263616   4.404   0.208  10.898
21198SOL     OW63617   3.799   0.345   9.343
21198SOL    HW163618   3.707   0.317   9.314
21198SOL    HW263619   3.830   0.422   9.287
21199SOL     OW63620   5.164   0.856  10.708
21199SOL    HW163621   5.107   0.908  10.645
21199SOL    HW263622   5.260   0.868  10.684
21200SOL     OW63623   3.796   0.166   9.628
21200SOL    HW163624   3.779   0.249   9.574
21200SOL    HW263625   3.886   0.129   9.606
21201SOL     OW63626   4.907   1.335   9.429
21201SOL    HW163627   4.808   1.324   9.431
21201SOL    HW263628   4.941   1.350   9.522
21202SOL     OW63629   4.337   0.842  10.741
21202SOL    HW163630   4.393   0.923  10.724
21202SOL    HW263631   4.396   0.762  10.744
21203SOL     OW63632   5.217   1.767  10.269
21203SOL    HW163633   5.250   1.831  10.200
21203SOL    HW263634   5.283   1.761  10.344
21204SOL     OW63635   4.440   0.565  11.018
21204SOL    HW163636   4.459   0.630  11.092
21204SOL    HW263637   4.500   0.485  11.027
21205SOL     OW63638   5.174   1.220  10.943
21205SOL    HW163639   5.165   1.210  11.042
21205SOL    HW263640   5.270   1.213  10.917
21206SOL     OW63641   4.114   1.741  10.870
21206SOL    HW163642   4.023   1.782  10.868
21206SOL    HW263643   4.107   1.647  10.902
21207SOL     OW63644   5.398   0.883  10.564
21207SOL    HW163645   5.371   0.794  10.527
21207SOL    HW263646   5.399   0.951  10.491
21208SOL     OW63647   4.949   0.325   9.759
21208SOL    HW163648   5.014   0.251   9.748
21208SOL    HW263649   4.969   0.375   9.843
21209SOL     OW63650   4.318   0.745   9.962
21209SOL    HW163651   4.368   0.830   9.943
21209SOL    HW263652   4.230   0.747   9.914
21210SOL     OW63653   5.501   0.342  10.952
21210SOL    HW163654   5.484   0.373  10.858
21210SOL    HW263655   5.417   0.305  10.990
21211SOL     OW63656   5.454   0.934  10.827
21211SOL    HW163657   5.492   1.025  10.842
21211SOL    HW263658   5.446   0.917  10.728
21212SOL     OW63659   4.583   1.374   9.326
21212SOL    HW163660   4.537   1.389   9.414
21212SOL    HW263661   4.627   1.459   9.296
21213SOL     OW63662   4.385   1.790  10.263
21213SOL    HW163663   4.339   1.878  10.250
21213SOL    HW263664   4.484   1.802  10.256
21214SOL     OW63665   4.583   0.956  10.171
21214SOL    HW163666   4.637   0.887  10.219
21214SOL    HW263667   4.551   1.025  10.237
21215SOL     OW63668   4.807   0.984   9.397
21215SOL    HW163669   4.784   1.037   9.315
21215SOL    HW263670   4.888   0.928   9.378
21216SOL     OW63671   5.585   1.569  10.161
21216SOL    HW163672   5.514   1.557  10.091
21216SOL    HW263673   5.586   1.490  10.221
21217SOL     OW63674   3.945   1.314  11.154
21217SOL    HW163675   3.880   1.241  11.133
21217SOL    HW263676   3.949   1.328  11.252
21218SOL     OW63677   3.803   1.240   9.963
21218SOL    HW163678   3.802   1.193  10.051
21218SOL    HW263679   3.885   1.212   9.912
21219SOL     OW63680   4.396   1.391  10.934
21219SOL    HW163681   4.318   1.341  10.972
21219SOL    HW263682   4.393   1.486  10.965
21220SOL     OW63683   5.548   0.192  10.537
21220SOL    HW163684   5.544   0.102  10.581
21220SOL    HW263685   5.551   0.181  10.438
21221SOL     OW63686   4.152   0.424   9.830
21221SOL    HW163687   4.182   0.352   9.768
21221SOL    HW263688   4.113   0.384   9.913
21222SOL     OW63689   5.429   1.487  10.414
21222SOL    HW163690   5.336   1.462  10.387
21222SOL    HW263691   5.455   1.437  10.496
21223SOL     OW63692   4.041   0.547  10.590
21223SOL    HW163693   4.079   0.488  10.662
21223SOL    HW263694   4.081   0.521  10.502
21224SOL     OW63695   4.536   1.586   9.997
21224SOL    HW163696   4.568   1.596   9.903
21224SOL    HW263697   4.457   1.524   9.999
21225SOL     OW63698   5.148   0.214  10.422
21225SOL    HW163699   5.200   0.149  10.477
21225SOL    HW263700   5.099   0.277  10.483
21226SOL     OW63701   4.725   0.034  10.464
21226SOL    HW163702   4.662  -0.038  10.433
21226SOL    HW263703   4.818  -0.002  10.464
21227SOL     OW63704   4.494   1.330   9.611
21227SOL    HW163705   4.448   1.243   9.628
21227SOL    HW263706   4.585   1.327   9.652
21228SOL     OW63707   4.342   1.567  10.594
21228SOL    HW163708   4.337   1.649  10.651
21228SOL    HW263709   4.431   1.564  10.549
21229SOL     OW63710   5.076   0.052   9.478
21229SOL    HW163711   5.111   0.011   9.394
21229SOL    HW263712   4.986   0.014   9.498
21230SOL     OW63713   5.024   0.453  10.001
21230SOL    HW163714   4.965   0.533  10.005
21230SOL    HW263715   5.039   0.418  10.094
21231SOL     OW63716   5.317   0.221  10.192
21231SOL    HW163717   5.233   0.220  10.246
21231SOL    HW263718   5.319   0.304  10.136
21232SOL     OW63719   3.763   1.077   9.610
21232SOL    HW163720   3.862   1.066   9.601
21232SOL    HW263721   3.723   0.991   9.642
21233SOL     OW63722   4.599   1.646   9.647
21233SOL    HW163723   4.522   1.611   9.593
21233SOL    HW263724   4.567   1.717   9.709
21234SOL     OW63725   3.954   0.628  11.285
21234SOL    HW163726   3.861   0.626  11.322
21234SOL    HW263727   3.955   0.589  11.193
21235SOL     OW63728   3.949   0.275  12.168
21235SOL    HW163729   3.984   0.258  12.260
21235SOL    HW263730   3.861   0.230  12.156
21236SOL     OW63731   3.743   0.368  11.819
21236SOL    HW163732   3.661   0.411  11.858
21236SOL    HW263733   3.715   0.295  11.756
21237SOL     OW63734   4.293   1.275  12.337
21237SOL    HW163735   4.200   1.268  12.300
21237SOL    HW263736   4.304   1.364  12.381
21238SOL     OW63737   5.279   1.511  11.875
21238SOL    HW163738   5.222   1.495  11.956
21238SOL    HW263739   5.220   1.521  11.795
21239SOL     OW63740   4.859   0.703  11.889
21239SOL    HW163741   4.916   0.781  11.864
21239SOL    HW263742   4.799   0.729  11.965
21240SOL     OW63743   5.479   0.607  11.403
21240SOL    HW163744   5.467   0.594  11.304
21240SOL    HW263745   5.449   0.526  11.452
21241SOL     OW63746   4.492   1.144  12.195
21241SOL    HW163747   4.414   1.161  12.255
21241SOL    HW263748   4.526   1.231  12.159
21242SOL     OW63749   4.409   1.012  11.837
21242SOL    HW163750   4.478   0.996  11.907
21242SOL    HW263751   4.336   1.069  11.875
21243SOL     OW63752   4.059   1.435  12.233
21243SOL    HW163753   3.981   1.404  12.180
21243SOL    HW263754   4.117   1.493  12.176
21244SOL     OW63755   5.184   1.505  12.511
21244SOL    HW163756   5.208   1.599  12.537
21244SOL    HW263757   5.168   1.451  12.593
21245SOL     OW63758   4.162   0.392  12.671
21245SOL    HW163759   4.244   0.336  12.680
21245SOL    HW263760   4.081   0.334  12.675
21246SOL     OW63761   5.327   0.447  11.909
21246SOL    HW163762   5.253   0.493  11.859
21246SOL    HW263763   5.378   0.515  11.962
21247SOL     OW63764   3.955   1.713  11.655
21247SOL    HW163765   3.989   1.790  11.709
21247SOL    HW263766   3.999   1.713  11.565
21248SOL     OW63767   3.954   1.434  11.710
21248SOL    HW163768   3.928   1.530  11.710
21248SOL    HW263769   3.883   1.380  11.755
21249SOL     OW63770   3.964   1.091  12.058
21249SOL    HW163771   3.978   1.007  12.110
21249SOL    HW263772   3.909   1.155  12.113
21250SOL     OW63773   4.344   1.786  12.611
21250SOL    HW163774   4.252   1.769  12.646
21250SOL    HW263775   4.372   1.878  12.637
21251SOL     OW63776   4.330   0.964  11.295
21251SOL    HW163777   4.337   1.048  11.241
21251SOL    HW263778   4.376   0.977  11.383
21252SOL     OW63779   5.318   0.114  12.652
21252SOL    HW163780   5.300   0.181  12.580
21252SOL    HW263781   5.315   0.160  12.741
21253SOL     OW63782   3.846   0.643  11.735
21253SOL    HW163783   3.801   0.555  11.752
21253SOL    HW263784   3.845   0.697  11.819
21254SOL     OW63785   5.566   1.767  11.531
21254SOL    HW163786   5.620   1.738  11.611
21254SOL    HW263787   5.596   1.857  11.502
21255SOL     OW63788   3.751   1.596  11.289
21255SOL    HW163789   3.732   1.500  11.310
21255SOL    HW263790   3.718   1.654  11.364
21256SOL     OW63791   5.413   0.922  11.784
21256SOL    HW163792   5.508   0.893  11.792
21256SOL    HW263793   5.405   0.987  11.709
21257SOL     OW63794   5.365   1.108  11.604
21257SOL    HW163795   5.451   1.110  11.552
21257SOL    HW263796   5.379   1.155  11.692
21258SOL     OW63797   3.837   0.737  12.769
21258SOL    HW163798   3.925   0.724  12.814
21258SOL    HW263799   3.824   0.834  12.747
21259SOL     OW63800   4.337   1.365  11.898
21259SOL    HW163801   4.288   1.278  11.907
21259SOL    HW263802   4.314   1.408  11.811
21260SOL     OW63803   5.017   1.228  12.595
21260SOL    HW163804   5.054   1.155  12.537
21260SOL    HW263805   5.069   1.233  12.680
21261SOL     OW63806   4.533   0.004  11.674
21261SOL    HW163807   4.573   0.095  11.665
21261SOL    HW263808   4.433   0.012  11.680
21262SOL     OW63809   3.921   0.976  12.436
21262SOL    HW163810   4.010   0.931  12.422
21262SOL    HW263811   3.848   0.911  12.417
21263SOL     OW63812   5.249   0.999  11.362
21263SOL    HW163813   5.186   0.923  11.375
21263SOL    HW263814   5.297   1.017  11.448
21264SOL     OW63815   5.190   1.417  12.125
21264SOL    HW163816   5.131   1.423  12.205
21264SOL    HW263817   5.175   1.329  12.079
21265SOL     OW63818   5.391   1.714  11.744
21265SOL    HW163819   5.350   1.691  11.656
21265SOL    HW263820   5.373   1.640  11.809
21266SOL     OW63821   4.322   0.729  11.442
21266SOL    HW163822   4.346   0.798  11.374
21266SOL    HW263823   4.244   0.762  11.496
21267SOL     OW63824   5.005   0.345  12.116
21267SOL    HW163825   4.919   0.295  12.103
21267SOL    HW263826   5.067   0.291  12.172
21268SOL     OW63827   5.300   1.662  11.479
21268SOL    HW163828   5.389   1.708  11.482
21268SOL    HW263829   5.279   1.638  11.384
21269SOL     OW63830   4.531   0.605  12.637
21269SOL    HW163831   4.484   0.602  12.726
21269SOL    HW263832   4.480   0.550  12.571
21270SOL     OW63833   4.697   0.890  12.744
21270SOL    HW163834   4.743   0.806  12.715
21270SOL    HW263835   4.641   0.924  12.669
21271SOL     OW63836   4.715   0.410  12.414
21271SOL    HW163837   4.638   0.444  12.468
21271SOL    HW263838   4.681   0.359  12.335
21272SOL     OW63839   4.765   0.701  11.601
21272SOL    HW163840   4.791   0.697  11.697
21272SOL    HW263841   4.680   0.650  11.587
21273SOL     OW63842   3.800   0.811  11.961
21273SOL    HW163843   3.899   0.799  11.970
21273SOL    HW263844   3.776   0.906  11.982
21274SOL     OW63845   3.854   1.821  12.743
21274SOL    HW163846   3.844   1.806  12.842
21274SOL    HW263847   3.768   1.857  12.707
21275SOL     OW63848   4.589   0.348  11.367
21275SOL    HW163849   4.648   0.411  11.318
21275SOL    HW263850   4.608   0.254  11.338
21276SOL     OW63851   5.086   1.144  11.717
21276SOL    HW163852   5.169   1.115  11.669
21276SOL    HW263853   5.037   1.211  11.661
21277SOL     OW63854   4.274   0.196  12.057
21277SOL    HW163855   4.269   0.191  12.157
21277SOL    HW263856   4.276   0.292  12.028
21278SOL     OW63857   4.732   1.456  11.649
21278SOL    HW163858   4.686   1.528  11.597
21278SOL    HW263859   4.728   1.476  11.747
21279SOL     OW63860   4.075   1.801  12.025
21279SOL    HW163861   4.125   1.715  12.031
21279SOL    HW263862   4.140   1.878  12.022
21280SOL     OW63863   5.519   1.066  12.045
21280SOL    HW163864   5.457   1.051  11.969
21280SOL    HW263865   5.467   1.077  12.130
21281SOL     OW63866   4.951   1.550  12.678
21281SOL    HW163867   4.957   1.473  12.742
21281SOL    HW263868   4.899   1.524  12.598
21282SOL     OW63869   4.045   0.943  11.414
21282SOL    HW163870   4.127   0.982  11.372
21282SOL    HW263871   4.018   0.861  11.365
21283SOL     OW63872   5.182   0.735  11.900
21283SOL    HW163873   5.177   0.670  11.975
21283SOL    HW263874   5.262   0.794  11.913
21284SOL     OW63875   4.835   1.776  11.409
21284SOL    HW163876   4.775   1.714  11.459
21284SOL    HW263877   4.866   1.732  11.324
21285SOL     OW63878   3.926   0.285  12.670
21285SOL    HW163879   3.846   0.345  12.657
21285SOL    HW263880   3.916   0.236  12.756
21286SOL     OW63881   5.356   1.377  11.253
21286SOL    HW163882   5.324   1.471  11.243
21286SOL    HW263883   5.280   1.314  11.241
21287SOL     OW63884   4.188   1.743  11.495
21287SOL    HW163885   4.221   1.782  11.581
21287SOL    HW263886   4.264   1.736  11.430
21288SOL     OW63887   5.124   0.107  11.598
21288SOL    HW163888   5.100   0.070  11.508
21288SOL    HW263889   5.223   0.123  11.602
21289SOL     OW63890   3.973   1.785  12.413
21289SOL    HW163891   4.030   1.720  12.463
21289SOL    HW263892   3.957   1.752  12.320
21290SOL     OW63893   4.664   1.698  12.076
21290SOL    HW163894   4.744   1.641  12.097
21290SOL    HW263895   4.615   1.658  11.999
21291SOL     OW63896   4.106   0.700  11.652
21291SOL    HW163897   4.151   0.610  11.649
21291SOL    HW263898   4.012   0.689  11.685
21292SOL     OW63899   4.338   0.122  11.289
21292SOL    HW163900   4.436   0.100  11.296
21292SOL    HW263901   4.307   0.105  11.196
21293SOL     OW63902   4.612   1.514  12.367
21293SOL    HW163903   4.589   1.489  12.273
21293SOL    HW263904   4.673   1.445  12.406
21294SOL     OW63905   5.075   0.590  12.605
21294SOL    HW163906   5.103   0.547  12.690
21294SOL    HW263907   5.100   0.686  12.606
21295SOL     OW63908   4.527   1.402  12.096
21295SOL    HW163909   4.617   1.416  12.054
21295SOL    HW263910   4.456   1.404  12.025
21296SOL     OW63911   4.646   0.503  12.071
21296SOL    HW163912   4.621   0.494  11.975
21296SOL    HW263913   4.694   0.421  12.102
21297SOL     OW63914   4.263   0.064  11.684
21297SOL    HW163915   4.182   0.065  11.742
21297SOL    HW263916   4.266   0.147  11.629
21298SOL     OW63917   5.158   1.188  11.213
21298SOL    HW163918   5.190   1.112  11.270
21298SOL    HW263919   5.066   1.215  11.243
21299SOL     OW63920   4.021   0.035  11.343
21299SOL    HW163921   4.070   0.119  11.322
21299SOL    HW263922   4.083  -0.030  11.388
21300SOL     OW63923   4.659   0.236  11.652
21300SOL    HW163924   4.611   0.277  11.574
21300SOL    HW263925   4.758   0.234  11.633
21301SOL     OW63926   4.800   0.683  12.636
21301SOL    HW163927   4.720   0.622  12.639
21301SOL    HW263928   4.881   0.630  12.612
21302SOL     OW63929   4.951   1.570  11.965
21302SOL    HW163930   4.972   1.644  11.900
21302SOL    HW263931   5.019   1.570  12.038
21303SOL     OW63932   4.183   1.152  11.913
21303SOL    HW163933   4.112   1.125  11.978
21303SOL    HW263934   4.157   1.124  11.820
21304SOL     OW63935   4.995   1.797  11.763
21304SOL    HW163936   5.039   1.861  11.699
21304SOL    HW263937   4.945   1.849  11.833
21305SOL     OW63938   4.756   0.549  11.188
21305SOL    HW163939   4.715   0.631  11.149
21305SOL    HW263940   4.820   0.575  11.261
21306SOL     OW63941   3.802   0.556  12.558
21306SOL    HW163942   3.894   0.555  12.517
21306SOL    HW263943   3.796   0.630  12.625
21307SOL     OW63944   4.285   0.222  12.319
21307SOL    HW163945   4.323   0.138  12.356
21307SOL    HW263946   4.197   0.241  12.363
21308SOL     OW63947   4.590   0.454  11.814
21308SOL    HW163948   4.558   0.526  11.752
21308SOL    HW263949   4.614   0.373  11.761
21309SOL     OW63950   4.741   0.039  11.925
21309SOL    HW163951   4.669   0.044  11.856
21309SOL    HW263952   4.717  -0.030  11.994
21310SOL     OW63953   5.153   1.173  12.039
21310SOL    HW163954   5.098   1.089  12.032
21310SOL    HW263955   5.179   1.202  11.947
21311SOL     OW63956   5.190   0.590  12.164
21311SOL    HW163957   5.160   0.495  12.171
21311SOL    HW263958   5.263   0.606  12.230
21312SOL     OW63959   5.581   0.833  11.549
21312SOL    HW163960   5.623   0.769  11.613
21312SOL    HW263961   5.543   0.782  11.471
21313SOL     OW63962   4.212   1.385  11.346
21313SOL    HW163963   4.125   1.370  11.393
21313SOL    HW263964   4.195   1.411  11.251
21314SOL     OW63965   5.388   1.280  11.829
21314SOL    HW163966   5.487   1.288  11.843
21314SOL    HW263967   5.343   1.364  11.860
21315SOL     OW63968   5.114   0.575  11.250
21315SOL    HW163969   5.060   0.554  11.331
21315SOL    HW263970   5.205   0.534  11.259
21316SOL     OW63971   4.251   0.256  11.500
21316SOL    HW163972   4.278   0.197  11.425
21316SOL    HW263973   4.251   0.351  11.469
21317SOL     OW63974   5.478   1.223  12.760
21317SOL    HW163975   5.569   1.184  12.747
21317SOL    HW263976   5.486   1.319  12.784
21318SOL     OW63977   4.788   1.347  12.512
21318SOL    HW163978   4.708   1.324  12.567
21318SOL    HW263979   4.871   1.321  12.561
21319SOL     OW63980   4.835   1.195  12.272
21319SOL    HW163981   4.795   1.239  12.353
21319SOL    HW263982   4.794   1.232  12.189
21320SOL     OW63983   5.362   1.099  12.251
21320SOL    HW163984   5.367   1.180  12.310
21320SOL    HW263985   5.276   1.101  12.200
21321SOL     OW63986   4.639   0.089  12.574
21321SOL    HW163987   4.664   0.069  12.479
21321SOL    HW263988   4.711   0.145  12.616
21322SOL     OW63989   4.429   1.050  11.540
21322SOL    HW163990   4.415   1.057  11.639
21322SOL    HW263991   4.513   0.999  11.522
21323SOL     OW63992   4.134   0.813  12.423
21323SOL    HW163993   4.220   0.825  12.473
21323SOL    HW263994   4.092   0.726  12.450
21324SOL     OW63995   3.788   1.564  12.503
21324SOL    HW163996   3.742   1.646  12.469
21324SOL    HW263997   3.886   1.583  12.512
21325SOL     OW63998   4.091   1.100  11.673
21325SOL    HW163999   4.084   1.183  11.617
21325SOL    HW264000   4.095   1.020  11.613
21326SOL     OW64001   4.290   0.537  12.037
21326SOL    HW164002   4.302   0.603  11.963
21326SOL    HW264003   4.336   0.571  12.120
21327SOL     OW64004   4.976   1.348  11.560
21327SOL    HW164005   5.026   1.425  11.600
21327SOL    HW264006   4.881   1.350  11.592
21328SOL     OW64007   4.996   1.445  12.314
21328SOL    HW164008   5.043   1.458  12.401
21328SOL    HW264009   4.930   1.371  12.323
21329SOL     OW64010   5.306   0.639  11.644
21329SOL    HW164011   5.275   0.700  11.717
21329SOL    HW264012   5.356   0.691  11.575
21330SOL     OW64013   4.078   1.510  12.501
21330SOL    HW164014   4.057   1.466  12.414
21330SOL    HW264015   4.175   1.536  12.504
21331SOL     OW64016   4.126   0.751  12.770
21331SOL    HW164017   4.194   0.806  12.723
21331SOL    HW264018   4.166   0.663  12.797
21332SOL     OW64019   5.311   0.779  12.842
21332SOL    HW164020   5.219   0.817  12.837
21332SOL    HW264021   5.371   0.826  12.777
21333SOL     OW64022   4.297   0.870  12.201
21333SOL    HW164023   4.341   0.959  12.192
21333SOL    HW264024   4.234   0.870  12.278
21334SOL     OW64025   5.084   0.862  12.217
21334SOL    HW164026   5.009   0.862  12.151
21334SOL    HW264027   5.121   0.770  12.226
21335SOL     OW64028   4.933   0.525  11.447
21335SOL    HW164029   4.946   0.441  11.501
21335SOL    HW264030   4.904   0.599  11.507
21336SOL     OW64031   4.031   0.213  12.403
21336SOL    HW164032   4.008   0.250  12.493
21336SOL    HW264033   4.001   0.118  12.397
21337SOL     OW64034   3.761   1.310  12.454
21337SOL    HW164035   3.814   1.261  12.522
21337SOL    HW264036   3.783   1.408  12.459
21338SOL     OW64037   4.456   0.634  12.236
21338SOL    HW164038   4.515   0.608  12.160
21338SOL    HW264039   4.428   0.730  12.225
21339SOL     OW64040   4.031   0.063  11.790
21339SOL    HW164041   4.020   0.157  11.823
21339SOL    HW264042   4.026   0.000  11.867
21340SOL     OW64043   5.346   0.367  11.546
21340SOL    HW164044   5.348   0.291  11.610
21340SOL    HW264045   5.298   0.444  11.586
21341SOL     OW64046   4.747   0.766  12.138
21341SOL    HW164047   4.762   0.787  12.234
21341SOL    HW264048   4.717   0.671  12.129
21342SOL     OW64049   5.264   0.274  11.297
21342SOL    HW164050   5.203   0.199  11.320
21342SOL    HW264051   5.286   0.326  11.380
21343SOL     OW64052   5.027   0.838  11.214
21343SOL    HW164053   5.061   0.745  11.229
21343SOL    HW264054   5.045   0.865  11.119
21344SOL     OW64055   4.792   1.333  12.021
21344SOL    HW164056   4.799   1.249  11.966
21344SOL    HW264057   4.854   1.402  11.985
21345SOL     OW64058   4.043   0.810  12.121
21345SOL    HW164059   4.136   0.846  12.126
21345SOL    HW264060   4.037   0.725  12.173
21346SOL     OW64061   4.063   0.509  12.178
21346SOL    HW164062   4.011   0.426  12.161
21346SOL    HW264063   4.140   0.514  12.114
21347SOL     OW64064   4.884   0.207  12.649
21347SOL    HW164065   4.884   0.271  12.726
21347SOL    HW264066   4.912   0.255  12.566
21348SOL     OW64067   3.732   1.326  11.372
21348SOL    HW164068   3.639   1.347  11.341
21348SOL    HW264069   3.742   1.227  11.385
21349SOL     OW64070   3.812   1.801  12.099
21349SOL    HW164071   3.770   1.715  12.072
21349SOL    HW264072   3.906   1.804  12.065
21350SOL     OW64073   4.228   1.568  12.082
21350SOL    HW164074   4.294   1.642  12.091
21350SOL    HW264075   4.272   1.489  12.040
21351SOL     OW64076   4.726   0.796  12.410
21351SOL    HW164077   4.767   0.764  12.496
21351SOL    HW264078   4.630   0.769  12.407
21352SOL     OW64079   3.764   0.544  12.286
21352SOL    HW164080   3.849   0.511  12.245
21352SOL    HW264081   3.777   0.559  12.384
21353SOL     OW64082   4.539   0.572  11.497
21353SOL    HW164083   4.546   0.483  11.451
21353SOL    HW264084   4.445   0.606  11.489
21354SOL     OW64085   5.381   0.604  12.378
21354SOL    HW164086   5.343   0.535  12.440
21354SOL    HW264087   5.463   0.568  12.334
21355SOL     OW64088   3.976   1.564  12.916
21355SOL    HW164089   3.946   1.621  12.992
21355SOL    HW264090   3.969   1.467  12.942
21356SOL     OW64091   4.395   0.464  12.441
21356SOL    HW164092   4.361   0.375  12.411
21356SOL    HW264093   4.421   0.518  12.361
21357SOL     OW64094   4.654   1.678  12.637
21357SOL    HW164095   4.630   1.660  12.542
21357SOL    HW264096   4.684   1.772  12.647
21358SOL     OW64097   4.197   0.500  11.363
21358SOL    HW164098   4.258   0.580  11.367
21358SOL    HW264099   4.102   0.531  11.370
21359SOL     OW64100   3.883   1.137  12.638
21359SOL    HW164101   3.905   1.076  12.714
21359SOL    HW264102   3.893   1.088  12.552
21360SOL     OW64103   5.071   1.059  12.406
21360SOL    HW164104   5.095   0.996  12.332
21360SOL    HW264105   4.981   1.099  12.388
21361SOL     OW64106   5.026   0.855  11.481
21361SOL    HW164107   4.940   0.824  11.523
21361SOL    HW264108   5.022   0.841  11.382
21362SOL     OW64109   5.483   1.747  12.326
21362SOL    HW164110   5.544   1.777  12.253
21362SOL    HW264111   5.445   1.658  12.304
21363SOL     OW64112   4.976   1.731  12.300
21363SOL    HW164113   5.060   1.736  12.246
21363SOL    HW264114   4.953   1.635  12.318
21364SOL     OW64115   3.807   1.258  12.194
21364SOL    HW164116   3.802   1.257  12.294
21364SOL    HW264117   3.724   1.217  12.156
21365SOL     OW64118   5.450   0.135  11.695
21365SOL    HW164119   5.523   0.118  11.628
21365SOL    HW264120   5.419   0.048  11.733
21366SOL     OW64121   5.112   1.573  11.649
21366SOL    HW164122   5.179   1.585  11.575
21366SOL    HW264123   5.072   1.662  11.672
21367SOL     OW64124   5.004   0.927  11.844
21367SOL    HW164125   5.064   0.846  11.846
21367SOL    HW264126   5.044   0.996  11.784
21368SOL     OW64127   4.554   1.273  12.594
21368SOL    HW164128   4.549   1.306  12.689
21368SOL    HW264129   4.468   1.292  12.548
21369SOL     OW64130   4.396   1.616  11.326
21369SOL    HW164131   4.405   1.626  11.227
21369SOL    HW264132   4.356   1.527  11.347
21370SOL     OW64133   5.374   1.720  12.566
21370SOL    HW164134   5.427   1.730  12.482
21370SOL    HW264135   5.347   1.810  12.600
21371SOL     OW64136   5.565   0.175  12.135
21371SOL    HW164137   5.604   0.090  12.099
21371SOL    HW264138   5.467   0.177  12.116
21372SOL     OW64139   3.987   0.326  11.892
21372SOL    HW164140   3.908   0.377  11.858
21372SOL    HW264141   3.978   0.311  11.990
21373SOL     OW64142   4.918   1.612  11.203
21373SOL    HW164143   4.924   1.519  11.240
21373SOL    HW264144   4.859   1.612  11.123
21374SOL     OW64145   4.546   1.002  12.544
21374SOL    HW164146   4.586   1.001  12.452
21374SOL    HW264147   4.556   1.094  12.584
21375SOL     OW64148   4.640   0.910  11.463
21375SOL    HW164149   4.703   0.948  11.395
21375SOL    HW264150   4.680   0.827  11.502
21376SOL     OW64151   5.228   1.607  11.216
21376SOL    HW164152   5.136   1.644  11.223
21376SOL    HW264153   5.266   1.627  11.126
21377SOL     OW64154   4.096   1.288  12.662
21377SOL    HW164155   4.083   1.381  12.628
21377SOL    HW264156   4.012   1.236  12.649
21378SOL     OW64157   5.338   1.292  12.461
21378SOL    HW164158   5.398   1.295  12.541
21378SOL    HW264159   5.263   1.356  12.474
21379SOL     OW64160   4.763   1.098  11.868
21379SOL    HW164161   4.693   1.051  11.922
21379SOL    HW264162   4.822   1.030  11.825
21380SOL     OW64163   4.738   0.236  12.143
21380SOL    HW164164   4.730   0.200  12.050
21380SOL    HW264165   4.736   0.160  12.208
21381SOL     OW64166   4.314   1.487  11.663
21381SOL    HW164167   4.356   1.429  11.593
21381SOL    HW264168   4.270   1.566  11.619
21382SOL     OW64169   5.433   0.385  12.553
21382SOL    HW164170   5.506   0.454  12.557
21382SOL    HW264171   5.461   0.310  12.494
21383SOL     OW64172   3.979   1.348  11.462
21383SOL    HW164173   3.883   1.349  11.435
21383SOL    HW264174   3.991   1.401  11.546
21384SOL     OW64175   3.829   1.013  12.898
21384SOL    HW164176   3.752   0.980  12.952
21384SOL    HW264177   3.914   0.983  12.940
21385SOL     OW64178   4.396   0.203  12.661
21385SOL    HW164179   4.486   0.187  12.621
21385SOL    HW264180   4.404   0.208  12.760
21386SOL     OW64181   3.799   0.345  11.205
21386SOL    HW164182   3.707   0.317  11.176
21386SOL    HW264183   3.830   0.422  11.149
21387SOL     OW64184   5.164   0.856  12.570
21387SOL    HW164185   5.107   0.908  12.507
21387SOL    HW264186   5.260   0.868  12.546
21388SOL     OW64187   3.796   0.166  11.490
21388SOL    HW164188   3.779   0.249  11.436
21388SOL    HW264189   3.886   0.129  11.468
21389SOL     OW64190   4.907   1.335  11.291
21389SOL    HW164191   4.808   1.324  11.293
21389SOL    HW264192   4.941   1.350  11.384
21390SOL     OW64193   4.337   0.842  12.603
21390SOL    HW164194   4.393   0.923  12.586
21390SOL    HW264195   4.396   0.762  12.606
21391SOL     OW64196   5.217   1.767  12.131
21391SOL    HW164197   5.250   1.831  12.062
21391SOL    HW264198   5.283   1.761  12.206
21392SOL     OW64199   4.440   0.565  12.880
21392SOL    HW164200   4.459   0.630  12.954
21392SOL    HW264201   4.500   0.485  12.889
21393SOL     OW64202   4.114   1.741  12.732
21393SOL    HW164203   4.023   1.782  12.730
21393SOL    HW264204   4.107   1.647  12.764
21394SOL     OW64205   5.398   0.883  12.426
21394SOL    HW164206   5.371   0.794  12.389
21394SOL    HW264207   5.399   0.951  12.353
21395SOL     OW64208   4.949   0.325  11.621
21395SOL    HW164209   5.014   0.251  11.610
21395SOL    HW264210   4.969   0.375  11.705
21396SOL     OW64211   4.318   0.745  11.824
21396SOL    HW164212   4.368   0.830  11.805
21396SOL    HW264213   4.230   0.747  11.776
21397SOL     OW64214   5.501   0.342  12.814
21397SOL    HW164215   5.484   0.373  12.720
21397SOL    HW264216   5.417   0.305  12.852
21398SOL     OW64217   5.454   0.934  12.689
21398SOL    HW164218   5.492   1.025  12.704
21398SOL    HW264219   5.446   0.917  12.590
21399SOL     OW64220   4.583   1.374  11.188
21399SOL    HW164221   4.537   1.389  11.276
21399SOL    HW264222   4.627   1.459  11.158
21400SOL     OW64223   4.385   1.790  12.125
21400SOL    HW164224   4.339   1.878  12.112
21400SOL    HW264225   4.484   1.802  12.118
21401SOL     OW64226   4.583   0.956  12.033
21401SOL    HW164227   4.637   0.887  12.081
21401SOL    HW264228   4.551   1.025  12.099
21402SOL     OW64229   4.807   0.984  11.259
21402SOL    HW164230   4.784   1.037  11.177
21402SOL    HW264231   4.888   0.928  11.240
21403SOL     OW64232   5.585   1.569  12.023
21403SOL    HW164233   5.514   1.557  11.953
21403SOL    HW264234   5.586   1.490  12.083
21404SOL     OW64235   3.803   1.240  11.825
21404SOL    HW164236   3.802   1.193  11.913
21404SOL    HW264237   3.885   1.212  11.774
21405SOL     OW64238   4.396   1.391  12.796
21405SOL    HW164239   4.318   1.341  12.834
21405SOL    HW264240   4.393   1.486  12.827
21406SOL     OW64241   5.548   0.192  12.399
21406SOL    HW164242   5.544   0.102  12.443
21406SOL    HW264243   5.551   0.181  12.300
21407SOL     OW64244   4.152   0.424  11.692
21407SOL    HW164245   4.182   0.352  11.630
21407SOL    HW264246   4.113   0.384  11.775
21408SOL     OW64247   5.429   1.487  12.276
21408SOL    HW164248   5.336   1.462  12.249
21408SOL    HW264249   5.455   1.437  12.358
21409SOL     OW64250   4.041   0.547  12.452
21409SOL    HW164251   4.079   0.488  12.524
21409SOL    HW264252   4.081   0.521  12.364
21410SOL     OW64253   4.536   1.586  11.859
21410SOL    HW164254   4.568   1.596  11.765
21410SOL    HW264255   4.457   1.524  11.861
21411SOL     OW64256   5.148   0.214  12.284
21411SOL    HW164257   5.200   0.149  12.339
21411SOL    HW264258   5.099   0.277  12.345
21412SOL     OW64259   4.725   0.034  12.326
21412SOL    HW164260   4.662  -0.038  12.295
21412SOL    HW264261   4.818  -0.002  12.326
21413SOL     OW64262   4.494   1.330  11.473
21413SOL    HW164263   4.448   1.243  11.490
21413SOL    HW264264   4.585   1.327  11.514
21414SOL     OW64265   4.342   1.567  12.456
21414SOL    HW164266   4.337   1.649  12.513
21414SOL    HW264267   4.431   1.564  12.411
21415SOL     OW64268   5.076   0.052  11.340
21415SOL    HW164269   5.111   0.011  11.256
21415SOL    HW264270   4.986   0.014  11.360
21416SOL     OW64271   5.024   0.453  11.863
21416SOL    HW164272   4.965   0.533  11.867
21416SOL    HW264273   5.039   0.418  11.956
21417SOL     OW64274   5.317   0.221  12.054
21417SOL    HW164275   5.233   0.220  12.108
21417SOL    HW264276   5.319   0.304  11.998
21418SOL     OW64277   3.763   1.077  11.472
21418SOL    HW164278   3.862   1.066  11.463
21418SOL    HW264279   3.723   0.991  11.504
21419SOL     OW64280   4.599   1.646  11.509
21419SOL    HW164281   4.522   1.611  11.455
21419SOL    HW264282   4.567   1.717  11.571
21420SOL     OW64283   3.954   2.490   0.113
21420SOL    HW164284   3.861   2.488   0.150
21420SOL    HW264285   3.955   2.451   0.021
21421SOL     OW64286   3.949   2.137   0.996
21421SOL    HW164287   3.984   2.120   1.088
21421SOL    HW264288   3.861   2.092   0.984
21422SOL     OW64289   3.743   2.230   0.647
21422SOL    HW164290   3.661   2.273   0.686
21422SOL    HW264291   3.715   2.157   0.584
21423SOL     OW64292   4.293   3.137   1.165
21423SOL    HW164293   4.200   3.130   1.128
21423SOL    HW264294   4.304   3.226   1.209
21424SOL     OW64295   5.279   3.373   0.703
21424SOL    HW164296   5.222   3.357   0.784
21424SOL    HW264297   5.220   3.383   0.623
21425SOL     OW64298   4.859   2.565   0.717
21425SOL    HW164299   4.916   2.643   0.692
21425SOL    HW264300   4.799   2.591   0.793
21426SOL     OW64301   5.479   2.469   0.231
21426SOL    HW164302   5.467   2.456   0.132
21426SOL    HW264303   5.449   2.388   0.280
21427SOL     OW64304   4.492   3.006   1.023
21427SOL    HW164305   4.414   3.023   1.083
21427SOL    HW264306   4.526   3.093   0.987
21428SOL     OW64307   4.574   2.660   1.823
21428SOL    HW164308   4.570   2.736   1.888
21428SOL    HW264309   4.596   2.696   1.732
21429SOL     OW64310   4.409   2.874   0.665
21429SOL    HW164311   4.478   2.858   0.735
21429SOL    HW264312   4.336   2.931   0.703
21430SOL     OW64313   4.410   3.023   1.803
21430SOL    HW164314   4.470   3.102   1.817
21430SOL    HW264315   4.324   3.054   1.762
21431SOL     OW64316   4.059   3.297   1.061
21431SOL    HW164317   3.981   3.266   1.008
21431SOL    HW264318   4.117   3.355   1.004
21432SOL     OW64319   5.184   3.367   1.339
21432SOL    HW164320   5.208   3.461   1.365
21432SOL    HW264321   5.168   3.313   1.421
21433SOL     OW64322   4.162   2.254   1.499
21433SOL    HW164323   4.244   2.198   1.508
21433SOL    HW264324   4.081   2.196   1.503
21434SOL     OW64325   5.327   2.309   0.737
21434SOL    HW164326   5.253   2.355   0.687
21434SOL    HW264327   5.378   2.377   0.790
21435SOL     OW64328   3.955   3.575   0.483
21435SOL    HW164329   3.989   3.652   0.537
21435SOL    HW264330   3.999   3.575   0.393
21436SOL     OW64331   4.851   3.203   1.690
21436SOL    HW164332   4.898   3.203   1.778
21436SOL    HW264333   4.803   3.116   1.679
21437SOL     OW64334   3.954   3.296   0.538
21437SOL    HW164335   3.928   3.392   0.538
21437SOL    HW264336   3.883   3.242   0.583
21438SOL     OW64337   3.964   2.953   0.886
21438SOL    HW164338   3.978   2.869   0.938
21438SOL    HW264339   3.909   3.017   0.941
21439SOL     OW64340   4.344   3.648   1.439
21439SOL    HW164341   4.252   3.631   1.474
21439SOL    HW264342   4.372   3.740   1.465
21440SOL     OW64343   4.330   2.826   0.123
21440SOL    HW164344   4.337   2.910   0.069
21440SOL    HW264345   4.376   2.839   0.211
21441SOL     OW64346   5.318   1.976   1.480
21441SOL    HW164347   5.300   2.043   1.408
21441SOL    HW264348   5.315   2.022   1.569
21442SOL     OW64349   3.846   2.505   0.563
21442SOL    HW164350   3.801   2.417   0.580
21442SOL    HW264351   3.845   2.559   0.647
21443SOL     OW64352   5.566   3.629   0.359
21443SOL    HW164353   5.620   3.600   0.439
21443SOL    HW264354   5.596   3.719   0.330
21444SOL     OW64355   3.751   3.458   0.117
21444SOL    HW164356   3.732   3.362   0.138
21444SOL    HW264357   3.718   3.516   0.192
21445SOL     OW64358   5.413   2.784   0.612
21445SOL    HW164359   5.508   2.755   0.620
21445SOL    HW264360   5.405   2.849   0.537
21446SOL     OW64361   5.365   2.970   0.432
21446SOL    HW164362   5.451   2.972   0.380
21446SOL    HW264363   5.379   3.017   0.520
21447SOL     OW64364   3.837   2.599   1.597
21447SOL    HW164365   3.925   2.586   1.642
21447SOL    HW264366   3.824   2.696   1.575
21448SOL     OW64367   4.337   3.227   0.726
21448SOL    HW164368   4.288   3.140   0.735
21448SOL    HW264369   4.314   3.270   0.639
21449SOL     OW64370   5.017   3.090   1.423
21449SOL    HW164371   5.054   3.017   1.365
21449SOL    HW264372   5.069   3.095   1.508
21450SOL     OW64373   4.533   1.866   0.502
21450SOL    HW164374   4.573   1.957   0.493
21450SOL    HW264375   4.433   1.874   0.508
21451SOL     OW64376   3.921   2.838   1.264
21451SOL    HW164377   4.010   2.793   1.250
21451SOL    HW264378   3.848   2.773   1.245
21452SOL     OW64379   5.249   2.861   0.190
21452SOL    HW164380   5.186   2.785   0.203
21452SOL    HW264381   5.297   2.879   0.276
21453SOL     OW64382   4.911   3.654   1.616
21453SOL    HW164383   4.935   3.714   1.540
21453SOL    HW264384   4.918   3.559   1.586
21454SOL     OW64385   4.041   2.113   1.801
21454SOL    HW164386   4.112   2.184   1.807
21454SOL    HW264387   3.953   2.152   1.829
21455SOL     OW64388   5.190   3.279   0.953
21455SOL    HW164389   5.131   3.285   1.033
21455SOL    HW264390   5.175   3.191   0.907
21456SOL     OW64391   5.391   3.576   0.572
21456SOL    HW164392   5.350   3.553   0.484
21456SOL    HW264393   5.373   3.502   0.637
21457SOL     OW64394   4.322   2.591   0.270
21457SOL    HW164395   4.346   2.660   0.202
21457SOL    HW264396   4.244   2.624   0.324
21458SOL     OW64397   5.005   2.207   0.944
21458SOL    HW164398   4.919   2.157   0.931
21458SOL    HW264399   5.067   2.153   1.000
21459SOL     OW64400   5.300   3.524   0.307
21459SOL    HW164401   5.389   3.570   0.310
21459SOL    HW264402   5.279   3.500   0.212
21460SOL     OW64403   4.531   2.467   1.465
21460SOL    HW164404   4.484   2.464   1.554
21460SOL    HW264405   4.480   2.412   1.399
21461SOL     OW64406   5.118   2.331   1.674
21461SOL    HW164407   5.098   2.374   1.762
21461SOL    HW264408   5.196   2.269   1.683
21462SOL     OW64409   4.697   2.752   1.572
21462SOL    HW164410   4.743   2.668   1.543
21462SOL    HW264411   4.641   2.786   1.497
21463SOL     OW64412   4.715   2.272   1.242
21463SOL    HW164413   4.638   2.306   1.296
21463SOL    HW264414   4.681   2.221   1.163
21464SOL     OW64415   4.765   2.563   0.429
21464SOL    HW164416   4.791   2.559   0.525
21464SOL    HW264417   4.680   2.512   0.415
21465SOL     OW64418   3.800   2.673   0.789
21465SOL    HW164419   3.899   2.661   0.798
21465SOL    HW264420   3.776   2.768   0.810
21466SOL     OW64421   3.854   3.683   1.571
21466SOL    HW164422   3.844   3.668   1.670
21466SOL    HW264423   3.768   3.719   1.535
21467SOL     OW64424   4.589   2.210   0.195
21467SOL    HW164425   4.648   2.273   0.146
21467SOL    HW264426   4.608   2.116   0.166
21468SOL     OW64427   5.443   2.447   1.831
21468SOL    HW164428   5.417   2.536   1.795
21468SOL    HW264429   5.441   2.379   1.758
21469SOL     OW64430   5.086   3.006   0.545
21469SOL    HW164431   5.169   2.977   0.497
21469SOL    HW264432   5.037   3.073   0.489
21470SOL     OW64433   4.274   2.058   0.885
21470SOL    HW164434   4.269   2.053   0.985
21470SOL    HW264435   4.276   2.154   0.856
21471SOL     OW64436   4.732   3.318   0.477
21471SOL    HW164437   4.686   3.390   0.425
21471SOL    HW264438   4.728   3.338   0.575
21472SOL     OW64439   4.075   3.663   0.853
21472SOL    HW164440   4.125   3.577   0.859
21472SOL    HW264441   4.140   3.740   0.850
21473SOL     OW64442   5.519   2.928   0.873
21473SOL    HW164443   5.457   2.913   0.797
21473SOL    HW264444   5.467   2.939   0.958
21474SOL     OW64445   4.951   3.412   1.506
21474SOL    HW164446   4.957   3.335   1.570
21474SOL    HW264447   4.899   3.386   1.426
21475SOL     OW64448   4.045   2.805   0.242
21475SOL    HW164449   4.127   2.844   0.200
21475SOL    HW264450   4.018   2.723   0.193
21476SOL     OW64451   5.182   2.597   0.728
21476SOL    HW164452   5.177   2.532   0.803
21476SOL    HW264453   5.262   2.656   0.741
21477SOL     OW64454   4.185   3.128   1.727
21477SOL    HW164455   4.135   3.129   1.641
21477SOL    HW264456   4.122   3.110   1.803
21478SOL     OW64457   4.835   3.638   0.237
21478SOL    HW164458   4.775   3.576   0.287
21478SOL    HW264459   4.866   3.594   0.152
21479SOL     OW64460   3.926   2.147   1.498
21479SOL    HW164461   3.846   2.207   1.485
21479SOL    HW264462   3.916   2.098   1.584
21480SOL     OW64463   5.356   3.239   0.081
21480SOL    HW164464   5.324   3.333   0.071
21480SOL    HW264465   5.280   3.176   0.069
21481SOL     OW64466   4.188   3.605   0.323
21481SOL    HW164467   4.221   3.644   0.409
21481SOL    HW264468   4.264   3.598   0.258
21482SOL     OW64469   5.124   1.969   0.426
21482SOL    HW164470   5.100   1.932   0.336
21482SOL    HW264471   5.223   1.985   0.430
21483SOL     OW64472   3.973   3.647   1.241
21483SOL    HW164473   4.030   3.582   1.291
21483SOL    HW264474   3.957   3.614   1.148
21484SOL     OW64475   4.664   3.560   0.904
21484SOL    HW164476   4.744   3.503   0.925
21484SOL    HW264477   4.615   3.520   0.827
21485SOL     OW64478   4.106   2.562   0.480
21485SOL    HW164479   4.151   2.472   0.477
21485SOL    HW264480   4.012   2.551   0.513
21486SOL     OW64481   5.271   2.084   1.729
21486SOL    HW164482   5.266   2.121   1.821
21486SOL    HW264483   5.199   2.015   1.717
21487SOL     OW64484   4.338   1.984   0.117
21487SOL    HW164485   4.436   1.962   0.124
21487SOL    HW264486   4.307   1.967   0.024
21488SOL     OW64487   4.505   2.126   1.749
21488SOL    HW164488   4.572   2.065   1.792
21488SOL    HW264489   4.432   2.145   1.814
21489SOL     OW64490   4.612   3.376   1.195
21489SOL    HW164491   4.589   3.351   1.101
21489SOL    HW264492   4.673   3.307   1.234
21490SOL     OW64493   5.075   2.452   1.433
21490SOL    HW164494   5.103   2.409   1.518
21490SOL    HW264495   5.100   2.548   1.434
21491SOL     OW64496   4.527   3.264   0.924
21491SOL    HW164497   4.617   3.278   0.882
21491SOL    HW264498   4.456   3.266   0.853
21492SOL     OW64499   4.646   2.365   0.899
21492SOL    HW164500   4.621   2.356   0.803
21492SOL    HW264501   4.694   2.283   0.930
21493SOL     OW64502   4.263   1.926   0.512
21493SOL    HW164503   4.182   1.927   0.570
21493SOL    HW264504   4.266   2.009   0.457
21494SOL     OW64505   5.158   3.050   0.041
21494SOL    HW164506   5.190   2.974   0.098
21494SOL    HW264507   5.066   3.077   0.071
21495SOL     OW64508   4.021   1.897   0.171
21495SOL    HW164509   4.070   1.981   0.150
21495SOL    HW264510   4.083   1.832   0.216
21496SOL     OW64511   4.659   2.098   0.480
21496SOL    HW164512   4.611   2.139   0.402
21496SOL    HW264513   4.758   2.096   0.461
21497SOL     OW64514   4.800   2.545   1.464
21497SOL    HW164515   4.720   2.484   1.467
21497SOL    HW264516   4.881   2.492   1.440
21498SOL     OW64517   4.951   3.432   0.793
21498SOL    HW164518   4.972   3.506   0.728
21498SOL    HW264519   5.019   3.432   0.866
21499SOL     OW64520   4.183   3.014   0.741
21499SOL    HW164521   4.112   2.987   0.806
21499SOL    HW264522   4.157   2.986   0.648
21500SOL     OW64523   4.995   3.659   0.591
21500SOL    HW164524   5.039   3.723   0.527
21500SOL    HW264525   4.945   3.711   0.661
21501SOL     OW64526   4.756   2.411   0.016
21501SOL    HW164527   4.715   2.493  -0.023
21501SOL    HW264528   4.820   2.437   0.089
21502SOL     OW64529   3.802   2.418   1.386
21502SOL    HW164530   3.894   2.417   1.345
21502SOL    HW264531   3.796   2.492   1.453
21503SOL     OW64532   4.285   2.084   1.147
21503SOL    HW164533   4.323   2.000   1.184
21503SOL    HW264534   4.197   2.103   1.191
21504SOL     OW64535   4.590   2.316   0.642
21504SOL    HW164536   4.558   2.388   0.580
21504SOL    HW264537   4.614   2.235   0.589
21505SOL     OW64538   4.741   1.901   0.753
21505SOL    HW164539   4.669   1.906   0.684
21505SOL    HW264540   4.717   1.832   0.822
21506SOL     OW64541   5.153   3.035   0.867
21506SOL    HW164542   5.098   2.951   0.860
21506SOL    HW264543   5.179   3.064   0.775
21507SOL     OW64544   5.190   2.452   0.992
21507SOL    HW164545   5.160   2.357   0.999
21507SOL    HW264546   5.263   2.468   1.058
21508SOL     OW64547   5.581   2.695   0.377
21508SOL    HW164548   5.623   2.631   0.441
21508SOL    HW264549   5.543   2.644   0.299
21509SOL     OW64550   4.212   3.247   0.174
21509SOL    HW164551   4.125   3.232   0.221
21509SOL    HW264552   4.195   3.273   0.079
21510SOL     OW64553   5.388   3.142   0.657
21510SOL    HW164554   5.487   3.150   0.671
21510SOL    HW264555   5.343   3.226   0.688
21511SOL     OW64556   5.114   2.437   0.078
21511SOL    HW164557   5.060   2.416   0.159
21511SOL    HW264558   5.205   2.396   0.087
21512SOL     OW64559   4.251   2.118   0.328
21512SOL    HW164560   4.278   2.059   0.253
21512SOL    HW264561   4.251   2.213   0.297
21513SOL     OW64562   5.478   3.085   1.588
21513SOL    HW164563   5.569   3.046   1.575
21513SOL    HW264564   5.486   3.181   1.612
21514SOL     OW64565   4.788   3.209   1.340
21514SOL    HW164566   4.708   3.186   1.395
21514SOL    HW264567   4.871   3.183   1.389
21515SOL     OW64568   5.316   3.491   1.625
21515SOL    HW164569   5.343   3.525   1.535
21515SOL    HW264570   5.395   3.453   1.671
21516SOL     OW64571   4.835   3.057   1.100
21516SOL    HW164572   4.795   3.101   1.181
21516SOL    HW264573   4.794   3.094   1.017
21517SOL     OW64574   5.362   2.961   1.079
21517SOL    HW164575   5.367   3.042   1.138
21517SOL    HW264576   5.276   2.963   1.028
21518SOL     OW64577   4.639   1.951   1.402
21518SOL    HW164578   4.664   1.931   1.307
21518SOL    HW264579   4.711   2.007   1.444
21519SOL     OW64580   4.704   2.978   1.719
21519SOL    HW164581   4.605   2.984   1.729
21519SOL    HW264582   4.727   2.898   1.663
21520SOL     OW64583   4.429   2.912   0.368
21520SOL    HW164584   4.415   2.919   0.467
21520SOL    HW264585   4.513   2.861   0.350
21521SOL     OW64586   4.134   2.675   1.251
21521SOL    HW164587   4.220   2.687   1.301
21521SOL    HW264588   4.092   2.588   1.278
21522SOL     OW64589   4.998   2.248   1.262
21522SOL    HW164590   5.019   2.322   1.326
21522SOL    HW264591   4.909   2.265   1.219
21523SOL     OW64592   3.788   3.426   1.331
21523SOL    HW164593   3.742   3.508   1.297
21523SOL    HW264594   3.886   3.445   1.340
21524SOL     OW64595   4.091   2.962   0.501
21524SOL    HW164596   4.084   3.045   0.445
21524SOL    HW264597   4.095   2.882   0.441
21525SOL     OW64598   4.290   2.399   0.865
21525SOL    HW164599   4.302   2.465   0.791
21525SOL    HW264600   4.336   2.433   0.948
21526SOL     OW64601   4.976   3.210   0.388
21526SOL    HW164602   5.026   3.287   0.428
21526SOL    HW264603   4.881   3.212   0.420
21527SOL     OW64604   4.996   3.307   1.142
21527SOL    HW164605   5.043   3.320   1.229
21527SOL    HW264606   4.930   3.233   1.151
21528SOL     OW64607   5.306   2.501   0.472
21528SOL    HW164608   5.275   2.562   0.545
21528SOL    HW264609   5.356   2.553   0.403
21529SOL     OW64610   4.078   3.372   1.329
21529SOL    HW164611   4.057   3.328   1.242
21529SOL    HW264612   4.175   3.398   1.332
21530SOL     OW64613   4.126   2.613   1.598
21530SOL    HW164614   4.194   2.668   1.551
21530SOL    HW264615   4.166   2.525   1.625
21531SOL     OW64616   5.311   2.641   1.670
21531SOL    HW164617   5.219   2.679   1.665
21531SOL    HW264618   5.371   2.688   1.605
21532SOL     OW64619   4.737   1.967   1.770
21532SOL    HW164620   4.743   2.052   1.718
21532SOL    HW264621   4.769   1.891   1.713
21533SOL     OW64622   4.228   1.912   1.740
21533SOL    HW164623   4.186   1.855   1.670
21533SOL    HW264624   4.162   1.981   1.772
21534SOL     OW64625   4.297   2.732   1.029
21534SOL    HW164626   4.341   2.821   1.020
21534SOL    HW264627   4.234   2.732   1.106
21535SOL     OW64628   5.084   2.724   1.045
21535SOL    HW164629   5.009   2.724   0.979
21535SOL    HW264630   5.121   2.632   1.054
21536SOL     OW64631   4.933   2.387   0.275
21536SOL    HW164632   4.946   2.303   0.329
21536SOL    HW264633   4.904   2.461   0.335
21537SOL     OW64634   4.031   2.075   1.231
21537SOL    HW164635   4.008   2.112   1.321
21537SOL    HW264636   4.001   1.980   1.225
21538SOL     OW64637   3.761   3.172   1.282
21538SOL    HW164638   3.814   3.123   1.350
21538SOL    HW264639   3.783   3.270   1.287
21539SOL     OW64640   4.456   2.496   1.064
21539SOL    HW164641   4.515   2.470   0.988
21539SOL    HW264642   4.428   2.592   1.053
21540SOL     OW64643   5.452   2.797   1.854
21540SOL    HW164644   5.406   2.790   1.765
21540SOL    HW264645   5.390   2.841   1.920
21541SOL     OW64646   4.031   1.925   0.618
21541SOL    HW164647   4.020   2.019   0.651
21541SOL    HW264648   4.026   1.862   0.695
21542SOL     OW64649   5.346   2.229   0.374
21542SOL    HW164650   5.348   2.153   0.438
21542SOL    HW264651   5.298   2.306   0.414
21543SOL     OW64652   4.747   2.628   0.966
21543SOL    HW164653   4.762   2.649   1.062
21543SOL    HW264654   4.717   2.533   0.957
21544SOL     OW64655   4.704   3.435   1.700
21544SOL    HW164656   4.684   3.479   1.612
21544SOL    HW264657   4.743   3.344   1.684
21545SOL     OW64658   5.583   3.380   1.605
21545SOL    HW164659   5.597   3.407   1.510
21545SOL    HW264660   5.666   3.402   1.658
21546SOL     OW64661   4.074   2.760   1.804
21546SOL    HW164662   4.150   2.804   1.852
21546SOL    HW264663   4.109   2.713   1.722
21547SOL     OW64664   5.264   2.136   0.125
21547SOL    HW164665   5.203   2.061   0.148
21547SOL    HW264666   5.286   2.188   0.208
21548SOL     OW64667   4.792   3.195   0.849
21548SOL    HW164668   4.799   3.111   0.794
21548SOL    HW264669   4.854   3.264   0.813
21549SOL     OW64670   4.043   2.672   0.949
21549SOL    HW164671   4.136   2.708   0.954
21549SOL    HW264672   4.037   2.587   1.001
21550SOL     OW64673   4.063   2.371   1.006
21550SOL    HW164674   4.011   2.288   0.989
21550SOL    HW264675   4.140   2.376   0.942
21551SOL     OW64676   4.862   2.242   1.678
21551SOL    HW164677   4.817   2.305   1.742
21551SOL    HW264678   4.955   2.273   1.661
21552SOL     OW64679   4.884   2.069   1.477
21552SOL    HW164680   4.884   2.133   1.554
21552SOL    HW264681   4.912   2.117   1.394
21553SOL     OW64682   3.732   3.188   0.200
21553SOL    HW164683   3.639   3.209   0.169
21553SOL    HW264684   3.742   3.089   0.213
21554SOL     OW64685   3.812   3.663   0.927
21554SOL    HW164686   3.770   3.577   0.900
21554SOL    HW264687   3.906   3.666   0.893
21555SOL     OW64688   4.228   3.430   0.910
21555SOL    HW164689   4.294   3.504   0.919
21555SOL    HW264690   4.272   3.351   0.868
21556SOL     OW64691   4.726   2.658   1.238
21556SOL    HW164692   4.767   2.626   1.324
21556SOL    HW264693   4.630   2.631   1.235
21557SOL     OW64694   3.764   2.406   1.114
21557SOL    HW164695   3.849   2.373   1.073
21557SOL    HW264696   3.777   2.421   1.212
21558SOL     OW64697   3.913   2.382   1.722
21558SOL    HW164698   3.972   2.342   1.652
21558SOL    HW264699   3.855   2.453   1.681
21559SOL     OW64700   5.093   2.812   1.660
21559SOL    HW164701   5.132   2.901   1.680
21559SOL    HW264702   5.103   2.792   1.563
21560SOL     OW64703   4.539   2.434   0.325
21560SOL    HW164704   4.546   2.345   0.279
21560SOL    HW264705   4.445   2.468   0.317
21561SOL     OW64706   5.381   2.466   1.206
21561SOL    HW164707   5.343   2.397   1.268
21561SOL    HW264708   5.463   2.430   1.162
21562SOL     OW64709   3.976   3.426   1.744
21562SOL    HW164710   3.946   3.483   1.820
21562SOL    HW264711   3.969   3.329   1.770
21563SOL     OW64712   4.395   2.326   1.269
21563SOL    HW164713   4.361   2.237   1.239
21563SOL    HW264714   4.421   2.380   1.189
21564SOL     OW64715   4.654   3.540   1.465
21564SOL    HW164716   4.630   3.522   1.370
21564SOL    HW264717   4.684   3.634   1.475
21565SOL     OW64718   4.197   2.362   0.191
21565SOL    HW164719   4.258   2.442   0.195
21565SOL    HW264720   4.102   2.393   0.198
21566SOL     OW64721   3.883   2.999   1.466
21566SOL    HW164722   3.905   2.938   1.542
21566SOL    HW264723   3.893   2.950   1.380
21567SOL     OW64724   5.071   2.921   1.234
21567SOL    HW164725   5.095   2.858   1.160
21567SOL    HW264726   4.981   2.961   1.216
21568SOL     OW64727   5.026   2.717   0.309
21568SOL    HW164728   4.940   2.686   0.351
21568SOL    HW264729   5.022   2.703   0.210
21569SOL     OW64730   5.483   3.609   1.154
21569SOL    HW164731   5.544   3.639   1.081
21569SOL    HW264732   5.445   3.520   1.132
21570SOL     OW64733   4.976   3.593   1.128
21570SOL    HW164734   5.060   3.598   1.074
21570SOL    HW264735   4.953   3.497   1.146
21571SOL     OW64736   3.807   3.120   1.022
21571SOL    HW164737   3.802   3.119   1.122
21571SOL    HW264738   3.724   3.079   0.984
21572SOL     OW64739   4.412   3.524   1.716
21572SOL    HW164740   4.356   3.605   1.725
21572SOL    HW264741   4.464   3.528   1.630
21573SOL     OW64742   4.627   1.948   0.133
21573SOL    HW164743   4.678   1.949   0.047
21573SOL    HW264744   4.683   1.906   0.204
21574SOL     OW64745   5.450   1.997   0.523
21574SOL    HW164746   5.523   1.980   0.456
21574SOL    HW264747   5.419   1.910   0.561
21575SOL     OW64748   5.112   3.435   0.477
21575SOL    HW164749   5.179   3.447   0.403
21575SOL    HW264750   5.072   3.524   0.500
21576SOL     OW64751   3.854   3.656   1.851
21576SOL    HW164752   3.813   3.582   1.904
21576SOL    HW264753   3.918   3.707   1.909
21577SOL     OW64754   5.004   2.789   0.672
21577SOL    HW164755   5.064   2.708   0.674
21577SOL    HW264756   5.044   2.858   0.612
21578SOL     OW64757   4.554   3.135   1.422
21578SOL    HW164758   4.549   3.168   1.517
21578SOL    HW264759   4.468   3.154   1.376
21579SOL     OW64760   4.396   3.478   0.154
21579SOL    HW164761   4.405   3.488   0.055
21579SOL    HW264762   4.356   3.389   0.175
21580SOL     OW64763   5.374   3.582   1.394
21580SOL    HW164764   5.427   3.592   1.310
21580SOL    HW264765   5.347   3.672   1.428
21581SOL     OW64766   5.565   2.037   0.963
21581SOL    HW164767   5.604   1.952   0.927
21581SOL    HW264768   5.467   2.039   0.944
21582SOL     OW64769   3.987   2.188   0.720
21582SOL    HW164770   3.908   2.239   0.686
21582SOL    HW264771   3.978   2.173   0.818
21583SOL     OW64772   4.918   3.474   0.031
21583SOL    HW164773   4.924   3.381   0.068
21583SOL    HW264774   4.859   3.474  -0.049
21584SOL     OW64775   4.546   2.864   1.372
21584SOL    HW164776   4.586   2.863   1.280
21584SOL    HW264777   4.556   2.956   1.412
21585SOL     OW64778   4.640   2.772   0.291
21585SOL    HW164779   4.703   2.810   0.223
21585SOL    HW264780   4.680   2.689   0.330
21586SOL     OW64781   5.228   3.469   0.044
21586SOL    HW164782   5.136   3.506   0.051
21586SOL    HW264783   5.266   3.489  -0.046
21587SOL     OW64784   4.096   3.150   1.490
21587SOL    HW164785   4.083   3.243   1.456
21587SOL    HW264786   4.012   3.098   1.477
21588SOL     OW64787   5.338   3.154   1.289
21588SOL    HW164788   5.398   3.157   1.369
21588SOL    HW264789   5.263   3.218   1.302
21589SOL     OW64790   4.763   2.960   0.696
21589SOL    HW164791   4.693   2.913   0.750
21589SOL    HW264792   4.822   2.892   0.653
21590SOL     OW64793   4.738   2.098   0.971
21590SOL    HW164794   4.730   2.062   0.878
21590SOL    HW264795   4.736   2.022   1.036
21591SOL     OW64796   4.314   3.349   0.491
21591SOL    HW164797   4.356   3.291   0.421
21591SOL    HW264798   4.270   3.428   0.447
21592SOL     OW64799   5.433   2.247   1.381
21592SOL    HW164800   5.506   2.316   1.385
21592SOL    HW264801   5.461   2.172   1.322
21593SOL     OW64802   3.979   3.210   0.290
21593SOL    HW164803   3.883   3.211   0.263
21593SOL    HW264804   3.991   3.263   0.374
21594SOL     OW64805   3.829   2.875   1.726
21594SOL    HW164806   3.752   2.842   1.780
21594SOL    HW264807   3.914   2.845   1.768
21595SOL     OW64808   4.396   2.065   1.489
21595SOL    HW164809   4.486   2.049   1.449
21595SOL    HW264810   4.404   2.070   1.588
21596SOL     OW64811   5.164   2.718   1.398
21596SOL    HW164812   5.107   2.770   1.335
21596SOL    HW264813   5.260   2.730   1.374
21597SOL     OW64814   3.796   2.028   0.318
21597SOL    HW164815   3.779   2.111   0.264
21597SOL    HW264816   3.886   1.991   0.296
21598SOL     OW64817   4.907   3.197   0.119
21598SOL    HW164818   4.808   3.186   0.121
21598SOL    HW264819   4.941   3.212   0.212
21599SOL     OW64820   4.337   2.704   1.431
21599SOL    HW164821   4.393   2.785   1.414
21599SOL    HW264822   4.396   2.624   1.434
21600SOL     OW64823   5.217   3.629   0.959
21600SOL    HW164824   5.250   3.693   0.890
21600SOL    HW264825   5.283   3.623   1.034
21601SOL     OW64826   4.440   2.427   1.708
21601SOL    HW164827   4.459   2.492   1.782
21601SOL    HW264828   4.500   2.347   1.717
21602SOL     OW64829   5.174   3.082   1.633
21602SOL    HW164830   5.165   3.072   1.732
21602SOL    HW264831   5.270   3.075   1.607
21603SOL     OW64832   4.114   3.603   1.560
21603SOL    HW164833   4.023   3.644   1.558
21603SOL    HW264834   4.107   3.509   1.592
21604SOL     OW64835   5.398   2.745   1.254
21604SOL    HW164836   5.371   2.656   1.217
21604SOL    HW264837   5.399   2.813   1.181
21605SOL     OW64838   4.949   2.187   0.449
21605SOL    HW164839   5.014   2.113   0.438
21605SOL    HW264840   4.969   2.237   0.533
21606SOL     OW64841   4.318   2.607   0.652
21606SOL    HW164842   4.368   2.692   0.633
21606SOL    HW264843   4.230   2.609   0.604
21607SOL     OW64844   5.501   2.204   1.642
21607SOL    HW164845   5.484   2.235   1.548
21607SOL    HW264846   5.417   2.167   1.680
21608SOL     OW64847   5.454   2.796   1.517
21608SOL    HW164848   5.492   2.887   1.532
21608SOL    HW264849   5.446   2.779   1.418
21609SOL     OW64850   4.583   3.236   0.016
21609SOL    HW164851   4.537   3.251   0.104
21609SOL    HW264852   4.627   3.321  -0.014
21610SOL     OW64853   4.385   3.652   0.953
21610SOL    HW164854   4.339   3.740   0.940
21610SOL    HW264855   4.484   3.664   0.946
21611SOL     OW64856   4.583   2.818   0.861
21611SOL    HW164857   4.637   2.749   0.909
21611SOL    HW264858   4.551   2.887   0.927
21612SOL     OW64859   4.807   2.846   0.087
21612SOL    HW164860   4.784   2.899   0.005
21612SOL    HW264861   4.888   2.790   0.068
21613SOL     OW64862   5.585   3.431   0.851
21613SOL    HW164863   5.514   3.419   0.781
21613SOL    HW264864   5.586   3.352   0.911
21614SOL     OW64865   3.945   3.176   1.844
21614SOL    HW164866   3.880   3.103   1.823
21614SOL    HW264867   3.949   3.190   1.942
21615SOL     OW64868   3.803   3.102   0.653
21615SOL    HW164869   3.802   3.055   0.741
21615SOL    HW264870   3.885   3.074   0.602
21616SOL     OW64871   4.396   3.253   1.624
21616SOL    HW164872   4.318   3.203   1.662
21616SOL    HW264873   4.393   3.348   1.655
21617SOL     OW64874   5.548   2.054   1.227
21617SOL    HW164875   5.544   1.964   1.271
21617SOL    HW264876   5.551   2.043   1.128
21618SOL     OW64877   4.152   2.286   0.520
21618SOL    HW164878   4.182   2.214   0.458
21618SOL    HW264879   4.113   2.246   0.603
21619SOL     OW64880   5.429   3.349   1.104
21619SOL    HW164881   5.336   3.324   1.077
21619SOL    HW264882   5.455   3.299   1.186
21620SOL     OW64883   4.041   2.409   1.280
21620SOL    HW164884   4.079   2.350   1.352
21620SOL    HW264885   4.081   2.383   1.192
21621SOL     OW64886   4.536   3.448   0.687
21621SOL    HW164887   4.568   3.458   0.593
21621SOL    HW264888   4.457   3.386   0.689
21622SOL     OW64889   5.148   2.076   1.112
21622SOL    HW164890   5.200   2.011   1.167
21622SOL    HW264891   5.099   2.139   1.173
21623SOL     OW64892   4.725   1.896   1.154
21623SOL    HW164893   4.662   1.824   1.123
21623SOL    HW264894   4.818   1.860   1.154
21624SOL     OW64895   4.494   3.192   0.301
21624SOL    HW164896   4.448   3.105   0.318
21624SOL    HW264897   4.585   3.189   0.342
21625SOL     OW64898   5.076   1.914   0.168
21625SOL    HW164899   5.111   1.873   0.084
21625SOL    HW264900   4.986   1.876   0.188
21626SOL     OW64901   5.024   2.315   0.691
21626SOL    HW164902   4.965   2.395   0.695
21626SOL    HW264903   5.039   2.280   0.784
21627SOL     OW64904   5.317   2.083   0.882
21627SOL    HW164905   5.233   2.082   0.936
21627SOL    HW264906   5.319   2.166   0.826
21628SOL     OW64907   3.763   2.939   0.300
21628SOL    HW164908   3.862   2.928   0.291
21628SOL    HW264909   3.723   2.853   0.332
21629SOL     OW64910   4.599   3.508   0.337
21629SOL    HW164911   4.522   3.473   0.283
21629SOL    HW264912   4.567   3.579   0.399
21630SOL     OW64913   3.954   2.490   1.975
21630SOL    HW164914   3.861   2.488   2.012
21630SOL    HW264915   3.955   2.451   1.883
21631SOL     OW64916   3.949   2.137   2.858
21631SOL    HW164917   3.984   2.120   2.950
21631SOL    HW264918   3.861   2.092   2.846
21632SOL     OW64919   3.743   2.230   2.509
21632SOL    HW164920   3.661   2.273   2.548
21632SOL    HW264921   3.715   2.157   2.446
21633SOL     OW64922   4.293   3.137   3.027
21633SOL    HW164923   4.200   3.130   2.990
21633SOL    HW264924   4.304   3.226   3.071
21634SOL     OW64925   5.279   3.373   2.565
21634SOL    HW164926   5.222   3.357   2.646
21634SOL    HW264927   5.220   3.383   2.485
21635SOL     OW64928   4.859   2.565   2.579
21635SOL    HW164929   4.916   2.643   2.554
21635SOL    HW264930   4.799   2.591   2.655
21636SOL     OW64931   5.479   2.469   2.093
21636SOL    HW164932   5.467   2.456   1.994
21636SOL    HW264933   5.449   2.388   2.142
21637SOL     OW64934   4.492   3.006   2.885
21637SOL    HW164935   4.414   3.023   2.945
21637SOL    HW264936   4.526   3.093   2.849
21638SOL     OW64937   4.574   2.660   3.685
21638SOL    HW164938   4.570   2.736   3.750
21638SOL    HW264939   4.596   2.696   3.594
21639SOL     OW64940   4.409   2.874   2.527
21639SOL    HW164941   4.478   2.858   2.597
21639SOL    HW264942   4.336   2.931   2.565
21640SOL     OW64943   4.410   3.023   3.665
21640SOL    HW164944   4.470   3.102   3.679
21640SOL    HW264945   4.324   3.054   3.624
21641SOL     OW64946   4.059   3.297   2.923
21641SOL    HW164947   3.981   3.266   2.870
21641SOL    HW264948   4.117   3.355   2.866
21642SOL     OW64949   5.184   3.367   3.201
21642SOL    HW164950   5.208   3.461   3.227
21642SOL    HW264951   5.168   3.313   3.283
21643SOL     OW64952   4.162   2.254   3.361
21643SOL    HW164953   4.244   2.198   3.370
21643SOL    HW264954   4.081   2.196   3.365
21644SOL     OW64955   5.327   2.309   2.599
21644SOL    HW164956   5.253   2.355   2.549
21644SOL    HW264957   5.378   2.377   2.652
21645SOL     OW64958   3.955   3.575   2.345
21645SOL    HW164959   3.989   3.652   2.399
21645SOL    HW264960   3.999   3.575   2.255
21646SOL     OW64961   4.851   3.203   3.552
21646SOL    HW164962   4.898   3.203   3.640
21646SOL    HW264963   4.803   3.116   3.541
21647SOL     OW64964   3.954   3.296   2.400
21647SOL    HW164965   3.928   3.392   2.400
21647SOL    HW264966   3.883   3.242   2.445
21648SOL     OW64967   3.964   2.953   2.748
21648SOL    HW164968   3.978   2.869   2.800
21648SOL    HW264969   3.909   3.017   2.803
21649SOL     OW64970   4.344   3.648   3.301
21649SOL    HW164971   4.252   3.631   3.336
21649SOL    HW264972   4.372   3.740   3.327
21650SOL     OW64973   4.330   2.826   1.985
21650SOL    HW164974   4.337   2.910   1.931
21650SOL    HW264975   4.376   2.839   2.073
21651SOL     OW64976   5.318   1.976   3.342
21651SOL    HW164977   5.300   2.043   3.270
21651SOL    HW264978   5.315   2.022   3.431
21652SOL     OW64979   3.846   2.505   2.425
21652SOL    HW164980   3.801   2.417   2.442
21652SOL    HW264981   3.845   2.559   2.509
21653SOL     OW64982   5.566   3.629   2.221
21653SOL    HW164983   5.620   3.600   2.301
21653SOL    HW264984   5.596   3.719   2.192
21654SOL     OW64985   3.751   3.458   1.979
21654SOL    HW164986   3.732   3.362   2.000
21654SOL    HW264987   3.718   3.516   2.054
21655SOL     OW64988   5.413   2.784   2.474
21655SOL    HW164989   5.508   2.755   2.482
21655SOL    HW264990   5.405   2.849   2.399
21656SOL     OW64991   5.365   2.970   2.294
21656SOL    HW164992   5.451   2.972   2.242
21656SOL    HW264993   5.379   3.017   2.382
21657SOL     OW64994   3.837   2.599   3.459
21657SOL    HW164995   3.925   2.586   3.504
21657SOL    HW264996   3.824   2.696   3.437
21658SOL     OW64997   4.337   3.227   2.588
21658SOL    HW164998   4.288   3.140   2.597
21658SOL    HW264999   4.314   3.270   2.501
21659SOL     OW65000   5.017   3.090   3.285
21659SOL    HW165001   5.054   3.017   3.227
21659SOL    HW265002   5.069   3.095   3.370
21660SOL     OW65003   4.533   1.866   2.364
21660SOL    HW165004   4.573   1.957   2.355
21660SOL    HW265005   4.433   1.874   2.370
21661SOL     OW65006   3.921   2.838   3.126
21661SOL    HW165007   4.010   2.793   3.112
21661SOL    HW265008   3.848   2.773   3.107
21662SOL     OW65009   5.249   2.861   2.052
21662SOL    HW165010   5.186   2.785   2.065
21662SOL    HW265011   5.297   2.879   2.138
21663SOL     OW65012   4.911   3.654   3.478
21663SOL    HW165013   4.935   3.714   3.402
21663SOL    HW265014   4.918   3.559   3.448
21664SOL     OW65015   4.041   2.113   3.663
21664SOL    HW165016   4.112   2.184   3.669
21664SOL    HW265017   3.953   2.152   3.691
21665SOL     OW65018   5.190   3.279   2.815
21665SOL    HW165019   5.131   3.285   2.895
21665SOL    HW265020   5.175   3.191   2.769
21666SOL     OW65021   5.391   3.576   2.434
21666SOL    HW165022   5.350   3.553   2.346
21666SOL    HW265023   5.373   3.502   2.499
21667SOL     OW65024   4.322   2.591   2.132
21667SOL    HW165025   4.346   2.660   2.064
21667SOL    HW265026   4.244   2.624   2.186
21668SOL     OW65027   5.005   2.207   2.806
21668SOL    HW165028   4.919   2.157   2.793
21668SOL    HW265029   5.067   2.153   2.862
21669SOL     OW65030   5.300   3.524   2.169
21669SOL    HW165031   5.389   3.570   2.172
21669SOL    HW265032   5.279   3.500   2.074
21670SOL     OW65033   4.531   2.467   3.327
21670SOL    HW165034   4.484   2.464   3.416
21670SOL    HW265035   4.480   2.412   3.261
21671SOL     OW65036   5.118   2.331   3.536
21671SOL    HW165037   5.098   2.374   3.624
21671SOL    HW265038   5.196   2.269   3.545
21672SOL     OW65039   4.697   2.752   3.434
21672SOL    HW165040   4.743   2.668   3.405
21672SOL    HW265041   4.641   2.786   3.359
21673SOL     OW65042   4.715   2.272   3.104
21673SOL    HW165043   4.638   2.306   3.158
21673SOL    HW265044   4.681   2.221   3.025
21674SOL     OW65045   4.765   2.563   2.291
21674SOL    HW165046   4.791   2.559   2.387
21674SOL    HW265047   4.680   2.512   2.277
21675SOL     OW65048   3.800   2.673   2.651
21675SOL    HW165049   3.899   2.661   2.660
21675SOL    HW265050   3.776   2.768   2.672
21676SOL     OW65051   3.854   3.683   3.433
21676SOL    HW165052   3.844   3.668   3.532
21676SOL    HW265053   3.768   3.719   3.397
21677SOL     OW65054   4.589   2.210   2.057
21677SOL    HW165055   4.648   2.273   2.008
21677SOL    HW265056   4.608   2.116   2.028
21678SOL     OW65057   5.443   2.447   3.693
21678SOL    HW165058   5.417   2.536   3.657
21678SOL    HW265059   5.441   2.379   3.620
21679SOL     OW65060   5.086   3.006   2.407
21679SOL    HW165061   5.169   2.977   2.359
21679SOL    HW265062   5.037   3.073   2.351
21680SOL     OW65063   4.274   2.058   2.747
21680SOL    HW165064   4.269   2.053   2.847
21680SOL    HW265065   4.276   2.154   2.718
21681SOL     OW65066   4.732   3.318   2.339
21681SOL    HW165067   4.686   3.390   2.287
21681SOL    HW265068   4.728   3.338   2.437
21682SOL     OW65069   4.075   3.663   2.715
21682SOL    HW165070   4.125   3.577   2.721
21682SOL    HW265071   4.140   3.740   2.712
21683SOL     OW65072   5.519   2.928   2.735
21683SOL    HW165073   5.457   2.913   2.659
21683SOL    HW265074   5.467   2.939   2.820
21684SOL     OW65075   4.951   3.412   3.368
21684SOL    HW165076   4.957   3.335   3.432
21684SOL    HW265077   4.899   3.386   3.288
21685SOL     OW65078   4.045   2.805   2.104
21685SOL    HW165079   4.127   2.844   2.062
21685SOL    HW265080   4.018   2.723   2.055
21686SOL     OW65081   5.182   2.597   2.590
21686SOL    HW165082   5.177   2.532   2.665
21686SOL    HW265083   5.262   2.656   2.603
21687SOL     OW65084   4.185   3.128   3.589
21687SOL    HW165085   4.135   3.129   3.503
21687SOL    HW265086   4.122   3.110   3.665
21688SOL     OW65087   4.835   3.638   2.099
21688SOL    HW165088   4.775   3.576   2.149
21688SOL    HW265089   4.866   3.594   2.014
21689SOL     OW65090   3.926   2.147   3.360
21689SOL    HW165091   3.846   2.207   3.347
21689SOL    HW265092   3.916   2.098   3.446
21690SOL     OW65093   5.356   3.239   1.943
21690SOL    HW165094   5.324   3.333   1.933
21690SOL    HW265095   5.280   3.176   1.931
21691SOL     OW65096   4.188   3.605   2.185
21691SOL    HW165097   4.221   3.644   2.271
21691SOL    HW265098   4.264   3.598   2.120
21692SOL     OW65099   5.124   1.969   2.288
21692SOL    HW165100   5.100   1.932   2.198
21692SOL    HW265101   5.223   1.985   2.292
21693SOL     OW65102   3.973   3.647   3.103
21693SOL    HW165103   4.030   3.582   3.153
21693SOL    HW265104   3.957   3.614   3.010
21694SOL     OW65105   4.664   3.560   2.766
21694SOL    HW165106   4.744   3.503   2.787
21694SOL    HW265107   4.615   3.520   2.689
21695SOL     OW65108   4.106   2.562   2.342
21695SOL    HW165109   4.151   2.472   2.339
21695SOL    HW265110   4.012   2.551   2.375
21696SOL     OW65111   5.271   2.084   3.591
21696SOL    HW165112   5.266   2.121   3.683
21696SOL    HW265113   5.199   2.015   3.579
21697SOL     OW65114   4.338   1.984   1.979
21697SOL    HW165115   4.436   1.962   1.986
21697SOL    HW265116   4.307   1.967   1.886
21698SOL     OW65117   4.505   2.126   3.611
21698SOL    HW165118   4.572   2.065   3.654
21698SOL    HW265119   4.432   2.145   3.676
21699SOL     OW65120   4.612   3.376   3.057
21699SOL    HW165121   4.589   3.351   2.963
21699SOL    HW265122   4.673   3.307   3.096
21700SOL     OW65123   5.075   2.452   3.295
21700SOL    HW165124   5.103   2.409   3.380
21700SOL    HW265125   5.100   2.548   3.296
21701SOL     OW65126   4.527   3.264   2.786
21701SOL    HW165127   4.617   3.278   2.744
21701SOL    HW265128   4.456   3.266   2.715
21702SOL     OW65129   4.646   2.365   2.761
21702SOL    HW165130   4.621   2.356   2.665
21702SOL    HW265131   4.694   2.283   2.792
21703SOL     OW65132   4.263   1.926   2.374
21703SOL    HW165133   4.182   1.927   2.432
21703SOL    HW265134   4.266   2.009   2.319
21704SOL     OW65135   5.158   3.050   1.903
21704SOL    HW165136   5.190   2.974   1.960
21704SOL    HW265137   5.066   3.077   1.933
21705SOL     OW65138   4.021   1.897   2.033
21705SOL    HW165139   4.070   1.981   2.012
21705SOL    HW265140   4.083   1.832   2.078
21706SOL     OW65141   4.659   2.098   2.342
21706SOL    HW165142   4.611   2.139   2.264
21706SOL    HW265143   4.758   2.096   2.323
21707SOL     OW65144   4.800   2.545   3.326
21707SOL    HW165145   4.720   2.484   3.329
21707SOL    HW265146   4.881   2.492   3.302
21708SOL     OW65147   4.951   3.432   2.655
21708SOL    HW165148   4.972   3.506   2.590
21708SOL    HW265149   5.019   3.432   2.728
21709SOL     OW65150   4.183   3.014   2.603
21709SOL    HW165151   4.112   2.987   2.668
21709SOL    HW265152   4.157   2.986   2.510
21710SOL     OW65153   4.995   3.659   2.453
21710SOL    HW165154   5.039   3.723   2.389
21710SOL    HW265155   4.945   3.711   2.523
21711SOL     OW65156   4.756   2.411   1.878
21711SOL    HW165157   4.715   2.493   1.839
21711SOL    HW265158   4.820   2.437   1.951
21712SOL     OW65159   3.802   2.418   3.248
21712SOL    HW165160   3.894   2.417   3.207
21712SOL    HW265161   3.796   2.492   3.315
21713SOL     OW65162   4.285   2.084   3.009
21713SOL    HW165163   4.323   2.000   3.046
21713SOL    HW265164   4.197   2.103   3.053
21714SOL     OW65165   4.590   2.316   2.504
21714SOL    HW165166   4.558   2.388   2.442
21714SOL    HW265167   4.614   2.235   2.451
21715SOL     OW65168   4.741   1.901   2.615
21715SOL    HW165169   4.669   1.906   2.546
21715SOL    HW265170   4.717   1.832   2.684
21716SOL     OW65171   5.153   3.035   2.729
21716SOL    HW165172   5.098   2.951   2.722
21716SOL    HW265173   5.179   3.064   2.637
21717SOL     OW65174   5.190   2.452   2.854
21717SOL    HW165175   5.160   2.357   2.861
21717SOL    HW265176   5.263   2.468   2.920
21718SOL     OW65177   5.581   2.695   2.239
21718SOL    HW165178   5.623   2.631   2.303
21718SOL    HW265179   5.543   2.644   2.161
21719SOL     OW65180   4.212   3.247   2.036
21719SOL    HW165181   4.125   3.232   2.083
21719SOL    HW265182   4.195   3.273   1.941
21720SOL     OW65183   5.388   3.142   2.519
21720SOL    HW165184   5.487   3.150   2.533
21720SOL    HW265185   5.343   3.226   2.550
21721SOL     OW65186   5.114   2.437   1.940
21721SOL    HW165187   5.060   2.416   2.021
21721SOL    HW265188   5.205   2.396   1.949
21722SOL     OW65189   4.251   2.118   2.190
21722SOL    HW165190   4.278   2.059   2.115
21722SOL    HW265191   4.251   2.213   2.159
21723SOL     OW65192   5.478   3.085   3.450
21723SOL    HW165193   5.569   3.046   3.437
21723SOL    HW265194   5.486   3.181   3.474
21724SOL     OW65195   4.788   3.209   3.202
21724SOL    HW165196   4.708   3.186   3.257
21724SOL    HW265197   4.871   3.183   3.251
21725SOL     OW65198   5.316   3.491   3.487
21725SOL    HW165199   5.343   3.525   3.397
21725SOL    HW265200   5.395   3.453   3.533
21726SOL     OW65201   4.835   3.057   2.962
21726SOL    HW165202   4.795   3.101   3.043
21726SOL    HW265203   4.794   3.094   2.879
21727SOL     OW65204   5.362   2.961   2.941
21727SOL    HW165205   5.367   3.042   3.000
21727SOL    HW265206   5.276   2.963   2.890
21728SOL     OW65207   4.639   1.951   3.264
21728SOL    HW165208   4.664   1.931   3.169
21728SOL    HW265209   4.711   2.007   3.306
21729SOL     OW65210   4.704   2.978   3.581
21729SOL    HW165211   4.605   2.984   3.591
21729SOL    HW265212   4.727   2.898   3.525
21730SOL     OW65213   4.134   2.675   3.113
21730SOL    HW165214   4.220   2.687   3.163
21730SOL    HW265215   4.092   2.588   3.140
21731SOL     OW65216   4.998   2.248   3.124
21731SOL    HW165217   5.019   2.322   3.188
21731SOL    HW265218   4.909   2.265   3.081
21732SOL     OW65219   3.788   3.426   3.193
21732SOL    HW165220   3.742   3.508   3.159
21732SOL    HW265221   3.886   3.445   3.202
21733SOL     OW65222   4.091   2.962   2.363
21733SOL    HW165223   4.084   3.045   2.307
21733SOL    HW265224   4.095   2.882   2.303
21734SOL     OW65225   4.290   2.399   2.727
21734SOL    HW165226   4.302   2.465   2.653
21734SOL    HW265227   4.336   2.433   2.810
21735SOL     OW65228   4.976   3.210   2.250
21735SOL    HW165229   5.026   3.287   2.290
21735SOL    HW265230   4.881   3.212   2.282
21736SOL     OW65231   4.996   3.307   3.004
21736SOL    HW165232   5.043   3.320   3.091
21736SOL    HW265233   4.930   3.233   3.013
21737SOL     OW65234   5.306   2.501   2.334
21737SOL    HW165235   5.275   2.562   2.407
21737SOL    HW265236   5.356   2.553   2.265
21738SOL     OW65237   4.078   3.372   3.191
21738SOL    HW165238   4.057   3.328   3.104
21738SOL    HW265239   4.175   3.398   3.194
21739SOL     OW65240   4.126   2.613   3.460
21739SOL    HW165241   4.194   2.668   3.413
21739SOL    HW265242   4.166   2.525   3.487
21740SOL     OW65243   5.311   2.641   3.532
21740SOL    HW165244   5.219   2.679   3.527
21740SOL    HW265245   5.371   2.688   3.467
21741SOL     OW65246   4.737   1.967   3.632
21741SOL    HW165247   4.743   2.052   3.580
21741SOL    HW265248   4.769   1.891   3.575
21742SOL     OW65249   4.228   1.912   3.602
21742SOL    HW165250   4.186   1.855   3.532
21742SOL    HW265251   4.162   1.981   3.634
21743SOL     OW65252   4.297   2.732   2.891
21743SOL    HW165253   4.341   2.821   2.882
21743SOL    HW265254   4.234   2.732   2.968
21744SOL     OW65255   5.084   2.724   2.907
21744SOL    HW165256   5.009   2.724   2.841
21744SOL    HW265257   5.121   2.632   2.916
21745SOL     OW65258   4.933   2.387   2.137
21745SOL    HW165259   4.946   2.303   2.191
21745SOL    HW265260   4.904   2.461   2.197
21746SOL     OW65261   4.031   2.075   3.093
21746SOL    HW165262   4.008   2.112   3.183
21746SOL    HW265263   4.001   1.980   3.087
21747SOL     OW65264   3.761   3.172   3.144
21747SOL    HW165265   3.814   3.123   3.212
21747SOL    HW265266   3.783   3.270   3.149
21748SOL     OW65267   4.456   2.496   2.926
21748SOL    HW165268   4.515   2.470   2.850
21748SOL    HW265269   4.428   2.592   2.915
21749SOL     OW65270   5.452   2.797   3.716
21749SOL    HW165271   5.406   2.790   3.627
21749SOL    HW265272   5.390   2.841   3.782
21750SOL     OW65273   4.031   1.925   2.480
21750SOL    HW165274   4.020   2.019   2.513
21750SOL    HW265275   4.026   1.862   2.557
21751SOL     OW65276   5.346   2.229   2.236
21751SOL    HW165277   5.348   2.153   2.300
21751SOL    HW265278   5.298   2.306   2.276
21752SOL     OW65279   4.747   2.628   2.828
21752SOL    HW165280   4.762   2.649   2.924
21752SOL    HW265281   4.717   2.533   2.819
21753SOL     OW65282   4.704   3.435   3.562
21753SOL    HW165283   4.684   3.479   3.474
21753SOL    HW265284   4.743   3.344   3.546
21754SOL     OW65285   5.583   3.380   3.467
21754SOL    HW165286   5.597   3.407   3.372
21754SOL    HW265287   5.666   3.402   3.520
21755SOL     OW65288   4.074   2.760   3.666
21755SOL    HW165289   4.150   2.804   3.714
21755SOL    HW265290   4.109   2.713   3.584
21756SOL     OW65291   5.264   2.136   1.987
21756SOL    HW165292   5.203   2.061   2.010
21756SOL    HW265293   5.286   2.188   2.070
21757SOL     OW65294   5.027   2.700   1.904
21757SOL    HW165295   5.061   2.607   1.919
21757SOL    HW265296   5.045   2.727   1.809
21758SOL     OW65297   4.792   3.195   2.711
21758SOL    HW165298   4.799   3.111   2.656
21758SOL    HW265299   4.854   3.264   2.675
21759SOL     OW65300   4.043   2.672   2.811
21759SOL    HW165301   4.136   2.708   2.816
21759SOL    HW265302   4.037   2.587   2.863
21760SOL     OW65303   4.063   2.371   2.868
21760SOL    HW165304   4.011   2.288   2.851
21760SOL    HW265305   4.140   2.376   2.804
21761SOL     OW65306   4.862   2.242   3.540
21761SOL    HW165307   4.817   2.305   3.604
21761SOL    HW265308   4.955   2.273   3.523
21762SOL     OW65309   4.884   2.069   3.339
21762SOL    HW165310   4.884   2.133   3.416
21762SOL    HW265311   4.912   2.117   3.256
21763SOL     OW65312   3.732   3.188   2.062
21763SOL    HW165313   3.639   3.209   2.031
21763SOL    HW265314   3.742   3.089   2.075
21764SOL     OW65315   3.812   3.663   2.789
21764SOL    HW165316   3.770   3.577   2.762
21764SOL    HW265317   3.906   3.666   2.755
21765SOL     OW65318   4.228   3.430   2.772
21765SOL    HW165319   4.294   3.504   2.781
21765SOL    HW265320   4.272   3.351   2.730
21766SOL     OW65321   4.726   2.658   3.100
21766SOL    HW165322   4.767   2.626   3.186
21766SOL    HW265323   4.630   2.631   3.097
21767SOL     OW65324   3.764   2.406   2.976
21767SOL    HW165325   3.849   2.373   2.935
21767SOL    HW265326   3.777   2.421   3.074
21768SOL     OW65327   3.913   2.382   3.584
21768SOL    HW165328   3.972   2.342   3.514
21768SOL    HW265329   3.855   2.453   3.543
21769SOL     OW65330   5.093   2.812   3.522
21769SOL    HW165331   5.132   2.901   3.542
21769SOL    HW265332   5.103   2.792   3.425
21770SOL     OW65333   4.539   2.434   2.187
21770SOL    HW165334   4.546   2.345   2.141
21770SOL    HW265335   4.445   2.468   2.179
21771SOL     OW65336   5.381   2.466   3.068
21771SOL    HW165337   5.343   2.397   3.130
21771SOL    HW265338   5.463   2.430   3.024
21772SOL     OW65339   3.976   3.426   3.606
21772SOL    HW165340   3.946   3.483   3.682
21772SOL    HW265341   3.969   3.329   3.632
21773SOL     OW65342   4.395   2.326   3.131
21773SOL    HW165343   4.361   2.237   3.101
21773SOL    HW265344   4.421   2.380   3.051
21774SOL     OW65345   4.654   3.540   3.327
21774SOL    HW165346   4.630   3.522   3.232
21774SOL    HW265347   4.684   3.634   3.337
21775SOL     OW65348   4.197   2.362   2.053
21775SOL    HW165349   4.258   2.442   2.057
21775SOL    HW265350   4.102   2.393   2.060
21776SOL     OW65351   3.883   2.999   3.328
21776SOL    HW165352   3.905   2.938   3.404
21776SOL    HW265353   3.893   2.950   3.242
21777SOL     OW65354   5.071   2.921   3.096
21777SOL    HW165355   5.095   2.858   3.022
21777SOL    HW265356   4.981   2.961   3.078
21778SOL     OW65357   5.026   2.717   2.171
21778SOL    HW165358   4.940   2.686   2.213
21778SOL    HW265359   5.022   2.703   2.072
21779SOL     OW65360   5.483   3.609   3.016
21779SOL    HW165361   5.544   3.639   2.943
21779SOL    HW265362   5.445   3.520   2.994
21780SOL     OW65363   4.976   3.593   2.990
21780SOL    HW165364   5.060   3.598   2.936
21780SOL    HW265365   4.953   3.497   3.008
21781SOL     OW65366   3.807   3.120   2.884
21781SOL    HW165367   3.802   3.119   2.984
21781SOL    HW265368   3.724   3.079   2.846
21782SOL     OW65369   4.412   3.524   3.578
21782SOL    HW165370   4.356   3.605   3.587
21782SOL    HW265371   4.464   3.528   3.492
21783SOL     OW65372   5.450   1.997   2.385
21783SOL    HW165373   5.523   1.980   2.318
21783SOL    HW265374   5.419   1.910   2.423
21784SOL     OW65375   5.112   3.435   2.339
21784SOL    HW165376   5.179   3.447   2.265
21784SOL    HW265377   5.072   3.524   2.362
21785SOL     OW65378   3.854   3.656   3.713
21785SOL    HW165379   3.813   3.582   3.766
21785SOL    HW265380   3.918   3.707   3.771
21786SOL     OW65381   5.004   2.789   2.534
21786SOL    HW165382   5.064   2.708   2.536
21786SOL    HW265383   5.044   2.858   2.474
21787SOL     OW65384   4.554   3.135   3.284
21787SOL    HW165385   4.549   3.168   3.379
21787SOL    HW265386   4.468   3.154   3.238
21788SOL     OW65387   4.396   3.478   2.016
21788SOL    HW165388   4.405   3.488   1.917
21788SOL    HW265389   4.356   3.389   2.037
21789SOL     OW65390   5.374   3.582   3.256
21789SOL    HW165391   5.427   3.592   3.172
21789SOL    HW265392   5.347   3.672   3.290
21790SOL     OW65393   5.565   2.037   2.825
21790SOL    HW165394   5.604   1.952   2.789
21790SOL    HW265395   5.467   2.039   2.806
21791SOL     OW65396   3.987   2.188   2.582
21791SOL    HW165397   3.908   2.239   2.548
21791SOL    HW265398   3.978   2.173   2.680
21792SOL     OW65399   4.918   3.474   1.893
21792SOL    HW165400   4.924   3.381   1.930
21792SOL    HW265401   4.859   3.474   1.813
21793SOL     OW65402   4.546   2.864   3.234
21793SOL    HW165403   4.586   2.863   3.142
21793SOL    HW265404   4.556   2.956   3.274
21794SOL     OW65405   4.640   2.772   2.153
21794SOL    HW165406   4.703   2.810   2.085
21794SOL    HW265407   4.680   2.689   2.192
21795SOL     OW65408   5.228   3.469   1.906
21795SOL    HW165409   5.136   3.506   1.913
21795SOL    HW265410   5.266   3.489   1.816
21796SOL     OW65411   4.096   3.150   3.352
21796SOL    HW165412   4.083   3.243   3.318
21796SOL    HW265413   4.012   3.098   3.339
21797SOL     OW65414   5.338   3.154   3.151
21797SOL    HW165415   5.398   3.157   3.231
21797SOL    HW265416   5.263   3.218   3.164
21798SOL     OW65417   4.763   2.960   2.558
21798SOL    HW165418   4.693   2.913   2.612
21798SOL    HW265419   4.822   2.892   2.515
21799SOL     OW65420   4.738   2.098   2.833
21799SOL    HW165421   4.730   2.062   2.740
21799SOL    HW265422   4.736   2.022   2.898
21800SOL     OW65423   4.314   3.349   2.353
21800SOL    HW165424   4.356   3.291   2.283
21800SOL    HW265425   4.270   3.428   2.309
21801SOL     OW65426   5.433   2.247   3.243
21801SOL    HW165427   5.506   2.316   3.247
21801SOL    HW265428   5.461   2.172   3.184
21802SOL     OW65429   3.979   3.210   2.152
21802SOL    HW165430   3.883   3.211   2.125
21802SOL    HW265431   3.991   3.263   2.236
21803SOL     OW65432   4.396   2.065   3.351
21803SOL    HW165433   4.486   2.049   3.311
21803SOL    HW265434   4.404   2.070   3.450
21804SOL     OW65435   3.799   2.207   1.895
21804SOL    HW165436   3.707   2.179   1.866
21804SOL    HW265437   3.830   2.284   1.839
21805SOL     OW65438   5.164   2.718   3.260
21805SOL    HW165439   5.107   2.770   3.197
21805SOL    HW265440   5.260   2.730   3.236
21806SOL     OW65441   3.796   2.028   2.180
21806SOL    HW165442   3.779   2.111   2.126
21806SOL    HW265443   3.886   1.991   2.158
21807SOL     OW65444   4.907   3.197   1.981
21807SOL    HW165445   4.808   3.186   1.983
21807SOL    HW265446   4.941   3.212   2.074
21808SOL     OW65447   4.337   2.704   3.293
21808SOL    HW165448   4.393   2.785   3.276
21808SOL    HW265449   4.396   2.624   3.296
21809SOL     OW65450   5.217   3.629   2.821
21809SOL    HW165451   5.250   3.693   2.752
21809SOL    HW265452   5.283   3.623   2.896
21810SOL     OW65453   4.440   2.427   3.570
21810SOL    HW165454   4.459   2.492   3.644
21810SOL    HW265455   4.500   2.347   3.579
21811SOL     OW65456   5.174   3.082   3.495
21811SOL    HW165457   5.165   3.072   3.594
21811SOL    HW265458   5.270   3.075   3.469
21812SOL     OW65459   4.114   3.603   3.422
21812SOL    HW165460   4.023   3.644   3.420
21812SOL    HW265461   4.107   3.509   3.454
21813SOL     OW65462   5.398   2.745   3.116
21813SOL    HW165463   5.371   2.656   3.079
21813SOL    HW265464   5.399   2.813   3.043
21814SOL     OW65465   4.949   2.187   2.311
21814SOL    HW165466   5.014   2.113   2.300
21814SOL    HW265467   4.969   2.237   2.395
21815SOL     OW65468   4.318   2.607   2.514
21815SOL    HW165469   4.368   2.692   2.495
21815SOL    HW265470   4.230   2.609   2.466
21816SOL     OW65471   5.501   2.204   3.504
21816SOL    HW165472   5.484   2.235   3.410
21816SOL    HW265473   5.417   2.167   3.542
21817SOL     OW65474   5.454   2.796   3.379
21817SOL    HW165475   5.492   2.887   3.394
21817SOL    HW265476   5.446   2.779   3.280
21818SOL     OW65477   4.583   3.236   1.878
21818SOL    HW165478   4.537   3.251   1.966
21818SOL    HW265479   4.627   3.321   1.848
21819SOL     OW65480   4.385   3.652   2.815
21819SOL    HW165481   4.339   3.740   2.802
21819SOL    HW265482   4.484   3.664   2.808
21820SOL     OW65483   4.583   2.818   2.723
21820SOL    HW165484   4.637   2.749   2.771
21820SOL    HW265485   4.551   2.887   2.789
21821SOL     OW65486   4.807   2.846   1.949
21821SOL    HW165487   4.784   2.899   1.867
21821SOL    HW265488   4.888   2.790   1.930
21822SOL     OW65489   5.585   3.431   2.713
21822SOL    HW165490   5.514   3.419   2.643
21822SOL    HW265491   5.586   3.352   2.773
21823SOL     OW65492   3.945   3.176   3.706
21823SOL    HW165493   3.880   3.103   3.685
21823SOL    HW265494   3.949   3.190   3.804
21824SOL     OW65495   3.803   3.102   2.515
21824SOL    HW165496   3.802   3.055   2.603
21824SOL    HW265497   3.885   3.074   2.464
21825SOL     OW65498   4.396   3.253   3.486
21825SOL    HW165499   4.318   3.203   3.524
21825SOL    HW265500   4.393   3.348   3.517
21826SOL     OW65501   5.548   2.054   3.089
21826SOL    HW165502   5.544   1.964   3.133
21826SOL    HW265503   5.551   2.043   2.990
21827SOL     OW65504   4.152   2.286   2.382
21827SOL    HW165505   4.182   2.214   2.320
21827SOL    HW265506   4.113   2.246   2.465
21828SOL     OW65507   5.429   3.349   2.966
21828SOL    HW165508   5.336   3.324   2.939
21828SOL    HW265509   5.455   3.299   3.048
21829SOL     OW65510   4.041   2.409   3.142
21829SOL    HW165511   4.079   2.350   3.214
21829SOL    HW265512   4.081   2.383   3.054
21830SOL     OW65513   4.536   3.448   2.549
21830SOL    HW165514   4.568   3.458   2.455
21830SOL    HW265515   4.457   3.386   2.551
21831SOL     OW65516   5.148   2.076   2.974
21831SOL    HW165517   5.200   2.011   3.029
21831SOL    HW265518   5.099   2.139   3.035
21832SOL     OW65519   4.725   1.896   3.016
21832SOL    HW165520   4.662   1.824   2.985
21832SOL    HW265521   4.818   1.860   3.016
21833SOL     OW65522   4.494   3.192   2.163
21833SOL    HW165523   4.448   3.105   2.180
21833SOL    HW265524   4.585   3.189   2.204
21834SOL     OW65525   4.342   3.429   3.146
21834SOL    HW165526   4.337   3.511   3.203
21834SOL    HW265527   4.431   3.426   3.101
21835SOL     OW65528   5.076   1.914   2.030
21835SOL    HW165529   5.111   1.873   1.946
21835SOL    HW265530   4.986   1.876   2.050
21836SOL     OW65531   5.024   2.315   2.553
21836SOL    HW165532   4.965   2.395   2.557
21836SOL    HW265533   5.039   2.280   2.646
21837SOL     OW65534   5.317   2.083   2.744
21837SOL    HW165535   5.233   2.082   2.798
21837SOL    HW265536   5.319   2.166   2.688
21838SOL     OW65537   3.763   2.939   2.162
21838SOL    HW165538   3.862   2.928   2.153
21838SOL    HW265539   3.723   2.853   2.194
21839SOL     OW65540   4.599   3.508   2.199
21839SOL    HW165541   4.522   3.473   2.145
21839SOL    HW265542   4.567   3.579   2.261
21840SOL     OW65543   3.954   2.490   3.837
21840SOL    HW165544   3.861   2.488   3.874
21840SOL    HW265545   3.955   2.451   3.745
21841SOL     OW65546   3.949   2.137   4.720
21841SOL    HW165547   3.984   2.120   4.812
21841SOL    HW265548   3.861   2.092   4.708
21842SOL     OW65549   3.743   2.230   4.371
21842SOL    HW165550   3.661   2.273   4.410
21842SOL    HW265551   3.715   2.157   4.308
21843SOL     OW65552   4.293   3.137   4.889
21843SOL    HW165553   4.200   3.130   4.852
21843SOL    HW265554   4.304   3.226   4.933
21844SOL     OW65555   5.279   3.373   4.427
21844SOL    HW165556   5.222   3.357   4.508
21844SOL    HW265557   5.220   3.383   4.347
21845SOL     OW65558   4.859   2.565   4.441
21845SOL    HW165559   4.916   2.643   4.416
21845SOL    HW265560   4.799   2.591   4.517
21846SOL     OW65561   5.479   2.469   3.955
21846SOL    HW165562   5.467   2.456   3.856
21846SOL    HW265563   5.449   2.388   4.004
21847SOL     OW65564   4.492   3.006   4.747
21847SOL    HW165565   4.414   3.023   4.807
21847SOL    HW265566   4.526   3.093   4.711
21848SOL     OW65567   4.574   2.660   5.547
21848SOL    HW165568   4.570   2.736   5.612
21848SOL    HW265569   4.596   2.696   5.456
21849SOL     OW65570   4.409   2.874   4.389
21849SOL    HW165571   4.478   2.858   4.459
21849SOL    HW265572   4.336   2.931   4.427
21850SOL     OW65573   4.410   3.023   5.527
21850SOL    HW165574   4.470   3.102   5.541
21850SOL    HW265575   4.324   3.054   5.486
21851SOL     OW65576   4.059   3.297   4.785
21851SOL    HW165577   3.981   3.266   4.732
21851SOL    HW265578   4.117   3.355   4.728
21852SOL     OW65579   5.184   3.367   5.063
21852SOL    HW165580   5.208   3.461   5.089
21852SOL    HW265581   5.168   3.313   5.145
21853SOL     OW65582   4.162   2.254   5.223
21853SOL    HW165583   4.244   2.198   5.232
21853SOL    HW265584   4.081   2.196   5.227
21854SOL     OW65585   5.327   2.309   4.461
21854SOL    HW165586   5.253   2.355   4.411
21854SOL    HW265587   5.378   2.377   4.514
21855SOL     OW65588   4.851   3.203   5.414
21855SOL    HW165589   4.898   3.203   5.502
21855SOL    HW265590   4.803   3.116   5.403
21856SOL     OW65591   3.954   3.296   4.262
21856SOL    HW165592   3.928   3.392   4.262
21856SOL    HW265593   3.883   3.242   4.307
21857SOL     OW65594   3.964   2.953   4.610
21857SOL    HW165595   3.978   2.869   4.662
21857SOL    HW265596   3.909   3.017   4.665
21858SOL     OW65597   4.344   3.648   5.163
21858SOL    HW165598   4.252   3.631   5.198
21858SOL    HW265599   4.372   3.740   5.189
21859SOL     OW65600   4.330   2.826   3.847
21859SOL    HW165601   4.337   2.910   3.793
21859SOL    HW265602   4.376   2.839   3.935
21860SOL     OW65603   5.318   1.976   5.204
21860SOL    HW165604   5.300   2.043   5.132
21860SOL    HW265605   5.315   2.022   5.293
21861SOL     OW65606   3.846   2.505   4.287
21861SOL    HW165607   3.801   2.417   4.304
21861SOL    HW265608   3.845   2.559   4.371
21862SOL     OW65609   5.566   3.629   4.083
21862SOL    HW165610   5.620   3.600   4.163
21862SOL    HW265611   5.596   3.719   4.054
21863SOL     OW65612   3.751   3.458   3.841
21863SOL    HW165613   3.732   3.362   3.862
21863SOL    HW265614   3.718   3.516   3.916
21864SOL     OW65615   5.413   2.784   4.336
21864SOL    HW165616   5.508   2.755   4.344
21864SOL    HW265617   5.405   2.849   4.261
21865SOL     OW65618   3.837   2.599   5.321
21865SOL    HW165619   3.925   2.586   5.366
21865SOL    HW265620   3.824   2.696   5.299
21866SOL     OW65621   4.337   3.227   4.450
21866SOL    HW165622   4.288   3.140   4.459
21866SOL    HW265623   4.314   3.270   4.363
21867SOL     OW65624   5.017   3.090   5.147
21867SOL    HW165625   5.054   3.017   5.089
21867SOL    HW265626   5.069   3.095   5.232
21868SOL     OW65627   4.533   1.866   4.226
21868SOL    HW165628   4.573   1.957   4.217
21868SOL    HW265629   4.433   1.874   4.232
21869SOL     OW65630   3.921   2.838   4.988
21869SOL    HW165631   4.010   2.793   4.974
21869SOL    HW265632   3.848   2.773   4.969
21870SOL     OW65633   5.249   2.861   3.914
21870SOL    HW165634   5.186   2.785   3.927
21870SOL    HW265635   5.297   2.879   4.000
21871SOL     OW65636   4.911   3.654   5.340
21871SOL    HW165637   4.935   3.714   5.264
21871SOL    HW265638   4.918   3.559   5.310
21872SOL     OW65639   4.041   2.113   5.525
21872SOL    HW165640   4.112   2.184   5.531
21872SOL    HW265641   3.953   2.152   5.553
21873SOL     OW65642   5.190   3.279   4.677
21873SOL    HW165643   5.131   3.285   4.757
21873SOL    HW265644   5.175   3.191   4.631
21874SOL     OW65645   5.391   3.576   4.296
21874SOL    HW165646   5.350   3.553   4.208
21874SOL    HW265647   5.373   3.502   4.361
21875SOL     OW65648   4.322   2.591   3.994
21875SOL    HW165649   4.346   2.660   3.926
21875SOL    HW265650   4.244   2.624   4.048
21876SOL     OW65651   5.005   2.207   4.668
21876SOL    HW165652   4.919   2.157   4.655
21876SOL    HW265653   5.067   2.153   4.724
21877SOL     OW65654   5.300   3.524   4.031
21877SOL    HW165655   5.389   3.570   4.034
21877SOL    HW265656   5.279   3.500   3.936
21878SOL     OW65657   4.531   2.467   5.189
21878SOL    HW165658   4.484   2.464   5.278
21878SOL    HW265659   4.480   2.412   5.123
21879SOL     OW65660   5.118   2.331   5.398
21879SOL    HW165661   5.098   2.374   5.486
21879SOL    HW265662   5.196   2.269   5.407
21880SOL     OW65663   4.697   2.752   5.296
21880SOL    HW165664   4.743   2.668   5.267
21880SOL    HW265665   4.641   2.786   5.221
21881SOL     OW65666   4.715   2.272   4.966
21881SOL    HW165667   4.638   2.306   5.020
21881SOL    HW265668   4.681   2.221   4.887
21882SOL     OW65669   4.765   2.563   4.153
21882SOL    HW165670   4.791   2.559   4.249
21882SOL    HW265671   4.680   2.512   4.139
21883SOL     OW65672   3.800   2.673   4.513
21883SOL    HW165673   3.899   2.661   4.522
21883SOL    HW265674   3.776   2.768   4.534
21884SOL     OW65675   3.854   3.683   5.295
21884SOL    HW165676   3.844   3.668   5.394
21884SOL    HW265677   3.768   3.719   5.259
21885SOL     OW65678   4.589   2.210   3.919
21885SOL    HW165679   4.648   2.273   3.870
21885SOL    HW265680   4.608   2.116   3.890
21886SOL     OW65681   5.443   2.447   5.555
21886SOL    HW165682   5.417   2.536   5.519
21886SOL    HW265683   5.441   2.379   5.482
21887SOL     OW65684   5.086   3.006   4.269
21887SOL    HW165685   5.169   2.977   4.221
21887SOL    HW265686   5.037   3.073   4.213
21888SOL     OW65687   4.274   2.058   4.609
21888SOL    HW165688   4.269   2.053   4.709
21888SOL    HW265689   4.276   2.154   4.580
21889SOL     OW65690   4.732   3.318   4.201
21889SOL    HW165691   4.686   3.390   4.149
21889SOL    HW265692   4.728   3.338   4.299
21890SOL     OW65693   4.075   3.663   4.577
21890SOL    HW165694   4.125   3.577   4.583
21890SOL    HW265695   4.140   3.740   4.574
21891SOL     OW65696   5.519   2.928   4.597
21891SOL    HW165697   5.457   2.913   4.521
21891SOL    HW265698   5.467   2.939   4.682
21892SOL     OW65699   4.951   3.412   5.230
21892SOL    HW165700   4.957   3.335   5.294
21892SOL    HW265701   4.899   3.386   5.150
21893SOL     OW65702   4.045   2.805   3.966
21893SOL    HW165703   4.127   2.844   3.924
21893SOL    HW265704   4.018   2.723   3.917
21894SOL     OW65705   5.182   2.597   4.452
21894SOL    HW165706   5.177   2.532   4.527
21894SOL    HW265707   5.262   2.656   4.465
21895SOL     OW65708   4.185   3.128   5.451
21895SOL    HW165709   4.135   3.129   5.365
21895SOL    HW265710   4.122   3.110   5.527
21896SOL     OW65711   4.835   3.638   3.961
21896SOL    HW165712   4.775   3.576   4.011
21896SOL    HW265713   4.866   3.594   3.876
21897SOL     OW65714   3.926   2.147   5.222
21897SOL    HW165715   3.846   2.207   5.209
21897SOL    HW265716   3.916   2.098   5.308
21898SOL     OW65717   5.356   3.239   3.805
21898SOL    HW165718   5.324   3.333   3.795
21898SOL    HW265719   5.280   3.176   3.793
21899SOL     OW65720   4.188   3.605   4.047
21899SOL    HW165721   4.221   3.644   4.133
21899SOL    HW265722   4.264   3.598   3.982
21900SOL     OW65723   5.124   1.969   4.150
21900SOL    HW165724   5.100   1.932   4.060
21900SOL    HW265725   5.223   1.985   4.154
21901SOL     OW65726   3.973   3.647   4.965
21901SOL    HW165727   4.030   3.582   5.015
21901SOL    HW265728   3.957   3.614   4.872
21902SOL     OW65729   4.664   3.560   4.628
21902SOL    HW165730   4.744   3.503   4.649
21902SOL    HW265731   4.615   3.520   4.551
21903SOL     OW65732   4.106   2.562   4.204
21903SOL    HW165733   4.151   2.472   4.201
21903SOL    HW265734   4.012   2.551   4.237
21904SOL     OW65735   5.271   2.084   5.453
21904SOL    HW165736   5.266   2.121   5.545
21904SOL    HW265737   5.199   2.015   5.441
21905SOL     OW65738   4.338   1.984   3.841
21905SOL    HW165739   4.436   1.962   3.848
21905SOL    HW265740   4.307   1.967   3.748
21906SOL     OW65741   4.505   2.126   5.473
21906SOL    HW165742   4.572   2.065   5.516
21906SOL    HW265743   4.432   2.145   5.538
21907SOL     OW65744   4.612   3.376   4.919
21907SOL    HW165745   4.589   3.351   4.825
21907SOL    HW265746   4.673   3.307   4.958
21908SOL     OW65747   5.075   2.452   5.157
21908SOL    HW165748   5.103   2.409   5.242
21908SOL    HW265749   5.100   2.548   5.158
21909SOL     OW65750   4.527   3.264   4.648
21909SOL    HW165751   4.617   3.278   4.606
21909SOL    HW265752   4.456   3.266   4.577
21910SOL     OW65753   4.646   2.365   4.623
21910SOL    HW165754   4.621   2.356   4.527
21910SOL    HW265755   4.694   2.283   4.654
21911SOL     OW65756   4.263   1.926   4.236
21911SOL    HW165757   4.182   1.927   4.294
21911SOL    HW265758   4.266   2.009   4.181
21912SOL     OW65759   5.158   3.050   3.765
21912SOL    HW165760   5.190   2.974   3.822
21912SOL    HW265761   5.066   3.077   3.795
21913SOL     OW65762   4.021   1.897   3.895
21913SOL    HW165763   4.070   1.981   3.874
21913SOL    HW265764   4.083   1.832   3.940
21914SOL     OW65765   4.659   2.098   4.204
21914SOL    HW165766   4.611   2.139   4.126
21914SOL    HW265767   4.758   2.096   4.185
21915SOL     OW65768   4.800   2.545   5.188
21915SOL    HW165769   4.720   2.484   5.191
21915SOL    HW265770   4.881   2.492   5.164
21916SOL     OW65771   4.951   3.432   4.517
21916SOL    HW165772   4.972   3.506   4.452
21916SOL    HW265773   5.019   3.432   4.590
21917SOL     OW65774   4.183   3.014   4.465
21917SOL    HW165775   4.112   2.987   4.530
21917SOL    HW265776   4.157   2.986   4.372
21918SOL     OW65777   4.995   3.659   4.315
21918SOL    HW165778   5.039   3.723   4.251
21918SOL    HW265779   4.945   3.711   4.385
21919SOL     OW65780   4.756   2.411   3.740
21919SOL    HW165781   4.715   2.493   3.701
21919SOL    HW265782   4.820   2.437   3.813
21920SOL     OW65783   3.802   2.418   5.110
21920SOL    HW165784   3.894   2.417   5.069
21920SOL    HW265785   3.796   2.492   5.177
21921SOL     OW65786   4.285   2.084   4.871
21921SOL    HW165787   4.323   2.000   4.908
21921SOL    HW265788   4.197   2.103   4.915
21922SOL     OW65789   4.590   2.316   4.366
21922SOL    HW165790   4.558   2.388   4.304
21922SOL    HW265791   4.614   2.235   4.313
21923SOL     OW65792   4.741   1.901   4.477
21923SOL    HW165793   4.669   1.906   4.408
21923SOL    HW265794   4.717   1.832   4.546
21924SOL     OW65795   5.153   3.035   4.591
21924SOL    HW165796   5.098   2.951   4.584
21924SOL    HW265797   5.179   3.064   4.499
21925SOL     OW65798   5.190   2.452   4.716
21925SOL    HW165799   5.160   2.357   4.723
21925SOL    HW265800   5.263   2.468   4.782
21926SOL     OW65801   5.581   2.695   4.101
21926SOL    HW165802   5.623   2.631   4.165
21926SOL    HW265803   5.543   2.644   4.023
21927SOL     OW65804   4.212   3.247   3.898
21927SOL    HW165805   4.125   3.232   3.945
21927SOL    HW265806   4.195   3.273   3.803
21928SOL     OW65807   5.388   3.142   4.381
21928SOL    HW165808   5.487   3.150   4.395
21928SOL    HW265809   5.343   3.226   4.412
21929SOL     OW65810   5.114   2.437   3.802
21929SOL    HW165811   5.060   2.416   3.883
21929SOL    HW265812   5.205   2.396   3.811
21930SOL     OW65813   4.251   2.118   4.052
21930SOL    HW165814   4.278   2.059   3.977
21930SOL    HW265815   4.251   2.213   4.021
21931SOL     OW65816   5.478   3.085   5.312
21931SOL    HW165817   5.569   3.046   5.299
21931SOL    HW265818   5.486   3.181   5.336
21932SOL     OW65819   4.788   3.209   5.064
21932SOL    HW165820   4.708   3.186   5.119
21932SOL    HW265821   4.871   3.183   5.113
21933SOL     OW65822   5.316   3.491   5.349
21933SOL    HW165823   5.343   3.525   5.259
21933SOL    HW265824   5.395   3.453   5.395
21934SOL     OW65825   4.835   3.057   4.824
21934SOL    HW165826   4.795   3.101   4.905
21934SOL    HW265827   4.794   3.094   4.741
21935SOL     OW65828   5.362   2.961   4.803
21935SOL    HW165829   5.367   3.042   4.862
21935SOL    HW265830   5.276   2.963   4.752
21936SOL     OW65831   4.639   1.951   5.126
21936SOL    HW165832   4.664   1.931   5.031
21936SOL    HW265833   4.711   2.007   5.168
21937SOL     OW65834   4.704   2.978   5.443
21937SOL    HW165835   4.605   2.984   5.453
21937SOL    HW265836   4.727   2.898   5.387
21938SOL     OW65837   4.429   2.912   4.092
21938SOL    HW165838   4.415   2.919   4.191
21938SOL    HW265839   4.513   2.861   4.074
21939SOL     OW65840   4.134   2.675   4.975
21939SOL    HW165841   4.220   2.687   5.025
21939SOL    HW265842   4.092   2.588   5.002
21940SOL     OW65843   4.998   2.248   4.986
21940SOL    HW165844   5.019   2.322   5.050
21940SOL    HW265845   4.909   2.265   4.943
21941SOL     OW65846   3.788   3.426   5.055
21941SOL    HW165847   3.742   3.508   5.021
21941SOL    HW265848   3.886   3.445   5.064
21942SOL     OW65849   4.091   2.962   4.225
21942SOL    HW165850   4.084   3.045   4.169
21942SOL    HW265851   4.095   2.882   4.165
21943SOL     OW65852   4.290   2.399   4.589
21943SOL    HW165853   4.302   2.465   4.515
21943SOL    HW265854   4.336   2.433   4.672
21944SOL     OW65855   4.976   3.210   4.112
21944SOL    HW165856   5.026   3.287   4.152
21944SOL    HW265857   4.881   3.212   4.144
21945SOL     OW65858   4.996   3.307   4.866
21945SOL    HW165859   5.043   3.320   4.953
21945SOL    HW265860   4.930   3.233   4.875
21946SOL     OW65861   5.306   2.501   4.196
21946SOL    HW165862   5.275   2.562   4.269
21946SOL    HW265863   5.356   2.553   4.127
21947SOL     OW65864   4.078   3.372   5.053
21947SOL    HW165865   4.057   3.328   4.966
21947SOL    HW265866   4.175   3.398   5.056
21948SOL     OW65867   4.126   2.613   5.322
21948SOL    HW165868   4.194   2.668   5.275
21948SOL    HW265869   4.166   2.525   5.349
21949SOL     OW65870   5.311   2.641   5.394
21949SOL    HW165871   5.219   2.679   5.389
21949SOL    HW265872   5.371   2.688   5.329
21950SOL     OW65873   4.737   1.967   5.494
21950SOL    HW165874   4.743   2.052   5.442
21950SOL    HW265875   4.769   1.891   5.437
21951SOL     OW65876   4.228   1.912   5.464
21951SOL    HW165877   4.186   1.855   5.394
21951SOL    HW265878   4.162   1.981   5.496
21952SOL     OW65879   4.297   2.732   4.753
21952SOL    HW165880   4.341   2.821   4.744
21952SOL    HW265881   4.234   2.732   4.830
21953SOL     OW65882   5.084   2.724   4.769
21953SOL    HW165883   5.009   2.724   4.703
21953SOL    HW265884   5.121   2.632   4.778
21954SOL     OW65885   4.933   2.387   3.999
21954SOL    HW165886   4.946   2.303   4.053
21954SOL    HW265887   4.904   2.461   4.059
21955SOL     OW65888   4.031   2.075   4.955
21955SOL    HW165889   4.008   2.112   5.045
21955SOL    HW265890   4.001   1.980   4.949
21956SOL     OW65891   3.761   3.172   5.006
21956SOL    HW165892   3.814   3.123   5.074
21956SOL    HW265893   3.783   3.270   5.011
21957SOL     OW65894   4.456   2.496   4.788
21957SOL    HW165895   4.515   2.470   4.712
21957SOL    HW265896   4.428   2.592   4.777
21958SOL     OW65897   5.452   2.797   5.578
21958SOL    HW165898   5.406   2.790   5.489
21958SOL    HW265899   5.390   2.841   5.644
21959SOL     OW65900   4.031   1.925   4.342
21959SOL    HW165901   4.020   2.019   4.375
21959SOL    HW265902   4.026   1.862   4.419
21960SOL     OW65903   5.346   2.229   4.098
21960SOL    HW165904   5.348   2.153   4.162
21960SOL    HW265905   5.298   2.306   4.138
21961SOL     OW65906   4.747   2.628   4.690
21961SOL    HW165907   4.762   2.649   4.786
21961SOL    HW265908   4.717   2.533   4.681
21962SOL     OW65909   4.704   3.435   5.424
21962SOL    HW165910   4.684   3.479   5.336
21962SOL    HW265911   4.743   3.344   5.408
21963SOL     OW65912   5.583   3.380   5.329
21963SOL    HW165913   5.597   3.407   5.234
21963SOL    HW265914   5.666   3.402   5.382
21964SOL     OW65915   4.074   2.760   5.528
21964SOL    HW165916   4.150   2.804   5.576
21964SOL    HW265917   4.109   2.713   5.446
21965SOL     OW65918   5.264   2.136   3.849
21965SOL    HW165919   5.203   2.061   3.872
21965SOL    HW265920   5.286   2.188   3.932
21966SOL     OW65921   5.027   2.700   3.766
21966SOL    HW165922   5.061   2.607   3.781
21966SOL    HW265923   5.045   2.727   3.671
21967SOL     OW65924   4.792   3.195   4.573
21967SOL    HW165925   4.799   3.111   4.518
21967SOL    HW265926   4.854   3.264   4.537
21968SOL     OW65927   4.043   2.672   4.673
21968SOL    HW165928   4.136   2.708   4.678
21968SOL    HW265929   4.037   2.587   4.725
21969SOL     OW65930   4.063   2.371   4.730
21969SOL    HW165931   4.011   2.288   4.713
21969SOL    HW265932   4.140   2.376   4.666
21970SOL     OW65933   4.862   2.242   5.402
21970SOL    HW165934   4.817   2.305   5.466
21970SOL    HW265935   4.955   2.273   5.385
21971SOL     OW65936   3.732   3.188   3.924
21971SOL    HW165937   3.639   3.209   3.893
21971SOL    HW265938   3.742   3.089   3.937
21972SOL     OW65939   3.812   3.663   4.651
21972SOL    HW165940   3.770   3.577   4.624
21972SOL    HW265941   3.906   3.666   4.617
21973SOL     OW65942   4.228   3.430   4.634
21973SOL    HW165943   4.294   3.504   4.643
21973SOL    HW265944   4.272   3.351   4.592
21974SOL     OW65945   4.726   2.658   4.962
21974SOL    HW165946   4.767   2.626   5.048
21974SOL    HW265947   4.630   2.631   4.959
21975SOL     OW65948   3.764   2.406   4.838
21975SOL    HW165949   3.849   2.373   4.797
21975SOL    HW265950   3.777   2.421   4.936
21976SOL     OW65951   3.913   2.382   5.446
21976SOL    HW165952   3.972   2.342   5.376
21976SOL    HW265953   3.855   2.453   5.405
21977SOL     OW65954   5.093   2.812   5.384
21977SOL    HW165955   5.132   2.901   5.404
21977SOL    HW265956   5.103   2.792   5.287
21978SOL     OW65957   4.539   2.434   4.049
21978SOL    HW165958   4.546   2.345   4.003
21978SOL    HW265959   4.445   2.468   4.041
21979SOL     OW65960   5.381   2.466   4.930
21979SOL    HW165961   5.343   2.397   4.992
21979SOL    HW265962   5.463   2.430   4.886
21980SOL     OW65963   3.976   3.426   5.468
21980SOL    HW165964   3.946   3.483   5.544
21980SOL    HW265965   3.969   3.329   5.494
21981SOL     OW65966   4.395   2.326   4.993
21981SOL    HW165967   4.361   2.237   4.963
21981SOL    HW265968   4.421   2.380   4.913
21982SOL     OW65969   4.654   3.540   5.189
21982SOL    HW165970   4.630   3.522   5.094
21982SOL    HW265971   4.684   3.634   5.199
21983SOL     OW65972   4.197   2.362   3.915
21983SOL    HW165973   4.258   2.442   3.919
21983SOL    HW265974   4.102   2.393   3.922
21984SOL     OW65975   3.883   2.999   5.190
21984SOL    HW165976   3.905   2.938   5.266
21984SOL    HW265977   3.893   2.950   5.104
21985SOL     OW65978   5.071   2.921   4.958
21985SOL    HW165979   5.095   2.858   4.884
21985SOL    HW265980   4.981   2.961   4.940
21986SOL     OW65981   5.026   2.717   4.033
21986SOL    HW165982   4.940   2.686   4.075
21986SOL    HW265983   5.022   2.703   3.934
21987SOL     OW65984   5.483   3.609   4.878
21987SOL    HW165985   5.544   3.639   4.805
21987SOL    HW265986   5.445   3.520   4.856
21988SOL     OW65987   4.976   3.593   4.852
21988SOL    HW165988   5.060   3.598   4.798
21988SOL    HW265989   4.953   3.497   4.870
21989SOL     OW65990   3.807   3.120   4.746
21989SOL    HW165991   3.802   3.119   4.846
21989SOL    HW265992   3.724   3.079   4.708
21990SOL     OW65993   4.412   3.524   5.440
21990SOL    HW165994   4.356   3.605   5.449
21990SOL    HW265995   4.464   3.528   5.354
21991SOL     OW65996   5.450   1.997   4.247
21991SOL    HW165997   5.523   1.980   4.180
21991SOL    HW265998   5.419   1.910   4.285
21992SOL     OW65999   5.112   3.435   4.201
21992SOL    HW166000   5.179   3.447   4.127
21992SOL    HW266001   5.072   3.524   4.224
21993SOL     OW66002   3.854   3.656   5.575
21993SOL    HW166003   3.813   3.582   5.628
21993SOL    HW266004   3.918   3.707   5.633
21994SOL     OW66005   5.004   2.789   4.396
21994SOL    HW166006   5.064   2.708   4.398
21994SOL    HW266007   5.044   2.858   4.336
21995SOL     OW66008   4.554   3.135   5.146
21995SOL    HW166009   4.549   3.168   5.241
21995SOL    HW266010   4.468   3.154   5.100
21996SOL     OW66011   4.396   3.478   3.878
21996SOL    HW166012   4.405   3.488   3.779
21996SOL    HW266013   4.356   3.389   3.899
21997SOL     OW66014   5.374   3.582   5.118
21997SOL    HW166015   5.427   3.592   5.034
21997SOL    HW266016   5.347   3.672   5.152
21998SOL     OW66017   5.565   2.037   4.687
21998SOL    HW166018   5.604   1.952   4.651
21998SOL    HW266019   5.467   2.039   4.668
21999SOL     OW66020   3.987   2.188   4.444
21999SOL    HW166021   3.908   2.239   4.410
21999SOL    HW266022   3.978   2.173   4.542
22000SOL     OW66023   4.918   3.474   3.755
22000SOL    HW166024   4.924   3.381   3.792
22000SOL    HW266025   4.859   3.474   3.675
22001SOL     OW66026   4.546   2.864   5.096
22001SOL    HW166027   4.586   2.863   5.004
22001SOL    HW266028   4.556   2.956   5.136
22002SOL     OW66029   4.640   2.772   4.015
22002SOL    HW166030   4.703   2.810   3.947
22002SOL    HW266031   4.680   2.689   4.054
22003SOL     OW66032   5.228   3.469   3.768
22003SOL    HW166033   5.136   3.506   3.775
22003SOL    HW266034   5.266   3.489   3.678
22004SOL     OW66035   4.096   3.150   5.214
22004SOL    HW166036   4.083   3.243   5.180
22004SOL    HW266037   4.012   3.098   5.201
22005SOL     OW66038   5.338   3.154   5.013
22005SOL    HW166039   5.398   3.157   5.093
22005SOL    HW266040   5.263   3.218   5.026
22006SOL     OW66041   4.763   2.960   4.420
22006SOL    HW166042   4.693   2.913   4.474
22006SOL    HW266043   4.822   2.892   4.377
22007SOL     OW66044   4.738   2.098   4.695
22007SOL    HW166045   4.730   2.062   4.602
22007SOL    HW266046   4.736   2.022   4.760
22008SOL     OW66047   4.314   3.349   4.215
22008SOL    HW166048   4.356   3.291   4.145
22008SOL    HW266049   4.270   3.428   4.171
22009SOL     OW66050   5.433   2.247   5.105
22009SOL    HW166051   5.506   2.316   5.109
22009SOL    HW266052   5.461   2.172   5.046
22010SOL     OW66053   3.979   3.210   4.014
22010SOL    HW166054   3.883   3.211   3.987
22010SOL    HW266055   3.991   3.263   4.098
22011SOL     OW66056   3.829   2.875   5.450
22011SOL    HW166057   3.752   2.842   5.504
22011SOL    HW266058   3.914   2.845   5.492
22012SOL     OW66059   4.396   2.065   5.213
22012SOL    HW166060   4.486   2.049   5.173
22012SOL    HW266061   4.404   2.070   5.312
22013SOL     OW66062   3.799   2.207   3.757
22013SOL    HW166063   3.707   2.179   3.728
22013SOL    HW266064   3.830   2.284   3.701
22014SOL     OW66065   5.164   2.718   5.122
22014SOL    HW166066   5.107   2.770   5.059
22014SOL    HW266067   5.260   2.730   5.098
22015SOL     OW66068   3.796   2.028   4.042
22015SOL    HW166069   3.779   2.111   3.988
22015SOL    HW266070   3.886   1.991   4.020
22016SOL     OW66071   4.907   3.197   3.843
22016SOL    HW166072   4.808   3.186   3.845
22016SOL    HW266073   4.941   3.212   3.936
22017SOL     OW66074   4.337   2.704   5.155
22017SOL    HW166075   4.393   2.785   5.138
22017SOL    HW266076   4.396   2.624   5.158
22018SOL     OW66077   5.217   3.629   4.683
22018SOL    HW166078   5.250   3.693   4.614
22018SOL    HW266079   5.283   3.623   4.758
22019SOL     OW66080   4.440   2.427   5.432
22019SOL    HW166081   4.459   2.492   5.506
22019SOL    HW266082   4.500   2.347   5.441
22020SOL     OW66083   5.174   3.082   5.357
22020SOL    HW166084   5.165   3.072   5.456
22020SOL    HW266085   5.270   3.075   5.331
22021SOL     OW66086   4.114   3.603   5.284
22021SOL    HW166087   4.023   3.644   5.282
22021SOL    HW266088   4.107   3.509   5.316
22022SOL     OW66089   5.398   2.745   4.978
22022SOL    HW166090   5.371   2.656   4.941
22022SOL    HW266091   5.399   2.813   4.905
22023SOL     OW66092   4.949   2.187   4.173
22023SOL    HW166093   5.014   2.113   4.162
22023SOL    HW266094   4.969   2.237   4.257
22024SOL     OW66095   4.318   2.607   4.376
22024SOL    HW166096   4.368   2.692   4.357
22024SOL    HW266097   4.230   2.609   4.328
22025SOL     OW66098   5.501   2.204   5.366
22025SOL    HW166099   5.484   2.235   5.272
22025SOL    HW266100   5.417   2.167   5.404
22026SOL     OW66101   5.454   2.796   5.241
22026SOL    HW166102   5.492   2.887   5.256
22026SOL    HW266103   5.446   2.779   5.142
22027SOL     OW66104   4.583   3.236   3.740
22027SOL    HW166105   4.537   3.251   3.828
22027SOL    HW266106   4.627   3.321   3.710
22028SOL     OW66107   4.385   3.652   4.677
22028SOL    HW166108   4.339   3.740   4.664
22028SOL    HW266109   4.484   3.664   4.670
22029SOL     OW66110   4.583   2.818   4.585
22029SOL    HW166111   4.637   2.749   4.633
22029SOL    HW266112   4.551   2.887   4.651
22030SOL     OW66113   4.807   2.846   3.811
22030SOL    HW166114   4.784   2.899   3.729
22030SOL    HW266115   4.888   2.790   3.792
22031SOL     OW66116   5.585   3.431   4.575
22031SOL    HW166117   5.514   3.419   4.505
22031SOL    HW266118   5.586   3.352   4.635
22032SOL     OW66119   3.945   3.176   5.568
22032SOL    HW166120   3.880   3.103   5.547
22032SOL    HW266121   3.949   3.190   5.666
22033SOL     OW66122   3.803   3.102   4.377
22033SOL    HW166123   3.802   3.055   4.465
22033SOL    HW266124   3.885   3.074   4.326
22034SOL     OW66125   4.396   3.253   5.348
22034SOL    HW166126   4.318   3.203   5.386
22034SOL    HW266127   4.393   3.348   5.379
22035SOL     OW66128   5.548   2.054   4.951
22035SOL    HW166129   5.544   1.964   4.995
22035SOL    HW266130   5.551   2.043   4.852
22036SOL     OW66131   4.152   2.286   4.244
22036SOL    HW166132   4.182   2.214   4.182
22036SOL    HW266133   4.113   2.246   4.327
22037SOL     OW66134   5.429   3.349   4.828
22037SOL    HW166135   5.336   3.324   4.801
22037SOL    HW266136   5.455   3.299   4.910
22038SOL     OW66137   4.041   2.409   5.004
22038SOL    HW166138   4.079   2.350   5.076
22038SOL    HW266139   4.081   2.383   4.916
22039SOL     OW66140   4.536   3.448   4.411
22039SOL    HW166141   4.568   3.458   4.317
22039SOL    HW266142   4.457   3.386   4.413
22040SOL     OW66143   5.148   2.076   4.836
22040SOL    HW166144   5.200   2.011   4.891
22040SOL    HW266145   5.099   2.139   4.897
22041SOL     OW66146   4.725   1.896   4.878
22041SOL    HW166147   4.662   1.824   4.847
22041SOL    HW266148   4.818   1.860   4.878
22042SOL     OW66149   4.494   3.192   4.025
22042SOL    HW166150   4.448   3.105   4.042
22042SOL    HW266151   4.585   3.189   4.066
22043SOL     OW66152   4.342   3.429   5.008
22043SOL    HW166153   4.337   3.511   5.065
22043SOL    HW266154   4.431   3.426   4.963
22044SOL     OW66155   5.076   1.914   3.892
22044SOL    HW166156   5.111   1.873   3.808
22044SOL    HW266157   4.986   1.876   3.912
22045SOL     OW66158   5.024   2.315   4.415
22045SOL    HW166159   4.965   2.395   4.419
22045SOL    HW266160   5.039   2.280   4.508
22046SOL     OW66161   5.317   2.083   4.606
22046SOL    HW166162   5.233   2.082   4.660
22046SOL    HW266163   5.319   2.166   4.550
22047SOL     OW66164   3.763   2.939   4.024
22047SOL    HW166165   3.862   2.928   4.015
22047SOL    HW266166   3.723   2.853   4.056
22048SOL     OW66167   4.599   3.508   4.061
22048SOL    HW166168   4.522   3.473   4.007
22048SOL    HW266169   4.567   3.579   4.123
22049SOL     OW66170   3.954   2.490   5.699
22049SOL    HW166171   3.861   2.488   5.736
22049SOL    HW266172   3.955   2.451   5.607
22050SOL     OW66173   3.949   2.137   6.582
22050SOL    HW166174   3.984   2.120   6.674
22050SOL    HW266175   3.861   2.092   6.570
22051SOL     OW66176   3.743   2.230   6.233
22051SOL    HW166177   3.661   2.273   6.272
22051SOL    HW266178   3.715   2.157   6.170
22052SOL     OW66179   4.293   3.137   6.751
22052SOL    HW166180   4.200   3.130   6.714
22052SOL    HW266181   4.304   3.226   6.795
22053SOL     OW66182   5.279   3.373   6.289
22053SOL    HW166183   5.222   3.357   6.370
22053SOL    HW266184   5.220   3.383   6.209
22054SOL     OW66185   4.859   2.565   6.303
22054SOL    HW166186   4.916   2.643   6.278
22054SOL    HW266187   4.799   2.591   6.379
22055SOL     OW66188   5.479   2.469   5.817
22055SOL    HW166189   5.467   2.456   5.718
22055SOL    HW266190   5.449   2.388   5.866
22056SOL     OW66191   4.492   3.006   6.609
22056SOL    HW166192   4.414   3.023   6.669
22056SOL    HW266193   4.526   3.093   6.573
22057SOL     OW66194   4.574   2.660   7.409
22057SOL    HW166195   4.570   2.736   7.474
22057SOL    HW266196   4.596   2.696   7.318
22058SOL     OW66197   4.409   2.874   6.251
22058SOL    HW166198   4.478   2.858   6.321
22058SOL    HW266199   4.336   2.931   6.289
22059SOL     OW66200   4.410   3.023   7.389
22059SOL    HW166201   4.470   3.102   7.403
22059SOL    HW266202   4.324   3.054   7.348
22060SOL     OW66203   4.059   3.297   6.647
22060SOL    HW166204   3.981   3.266   6.594
22060SOL    HW266205   4.117   3.355   6.590
22061SOL     OW66206   5.184   3.367   6.925
22061SOL    HW166207   5.208   3.461   6.951
22061SOL    HW266208   5.168   3.313   7.007
22062SOL     OW66209   4.162   2.254   7.085
22062SOL    HW166210   4.244   2.198   7.094
22062SOL    HW266211   4.081   2.196   7.089
22063SOL     OW66212   5.327   2.309   6.323
22063SOL    HW166213   5.253   2.355   6.273
22063SOL    HW266214   5.378   2.377   6.376
22064SOL     OW66215   3.955   3.575   6.069
22064SOL    HW166216   3.989   3.652   6.123
22064SOL    HW266217   3.999   3.575   5.979
22065SOL     OW66218   4.851   3.203   7.276
22065SOL    HW166219   4.898   3.203   7.364
22065SOL    HW266220   4.803   3.116   7.265
22066SOL     OW66221   3.954   3.296   6.124
22066SOL    HW166222   3.928   3.392   6.124
22066SOL    HW266223   3.883   3.242   6.169
22067SOL     OW66224   3.964   2.953   6.472
22067SOL    HW166225   3.978   2.869   6.524
22067SOL    HW266226   3.909   3.017   6.527
22068SOL     OW66227   4.344   3.648   7.025
22068SOL    HW166228   4.252   3.631   7.060
22068SOL    HW266229   4.372   3.740   7.051
22069SOL     OW66230   4.330   2.826   5.709
22069SOL    HW166231   4.337   2.910   5.655
22069SOL    HW266232   4.376   2.839   5.797
22070SOL     OW66233   5.318   1.976   7.066
22070SOL    HW166234   5.300   2.043   6.994
22070SOL    HW266235   5.315   2.022   7.155
22071SOL     OW66236   3.846   2.505   6.149
22071SOL    HW166237   3.801   2.417   6.166
22071SOL    HW266238   3.845   2.559   6.233
22072SOL     OW66239   5.566   3.629   5.945
22072SOL    HW166240   5.620   3.600   6.025
22072SOL    HW266241   5.596   3.719   5.916
22073SOL     OW66242   3.751   3.458   5.703
22073SOL    HW166243   3.732   3.362   5.724
22073SOL    HW266244   3.718   3.516   5.778
22074SOL     OW66245   5.413   2.784   6.198
22074SOL    HW166246   5.508   2.755   6.206
22074SOL    HW266247   5.405   2.849   6.123
22075SOL     OW66248   5.365   2.970   6.018
22075SOL    HW166249   5.451   2.972   5.966
22075SOL    HW266250   5.379   3.017   6.106
22076SOL     OW66251   4.337   3.227   6.312
22076SOL    HW166252   4.288   3.140   6.321
22076SOL    HW266253   4.314   3.270   6.225
22077SOL     OW66254   5.017   3.090   7.009
22077SOL    HW166255   5.054   3.017   6.951
22077SOL    HW266256   5.069   3.095   7.094
22078SOL     OW66257   4.533   1.866   6.088
22078SOL    HW166258   4.573   1.957   6.079
22078SOL    HW266259   4.433   1.874   6.094
22079SOL     OW66260   3.921   2.838   6.850
22079SOL    HW166261   4.010   2.793   6.836
22079SOL    HW266262   3.848   2.773   6.831
22080SOL     OW66263   5.249   2.861   5.776
22080SOL    HW166264   5.186   2.785   5.789
22080SOL    HW266265   5.297   2.879   5.862
22081SOL     OW66266   4.911   3.654   7.202
22081SOL    HW166267   4.935   3.714   7.126
22081SOL    HW266268   4.918   3.559   7.172
22082SOL     OW66269   4.041   2.113   7.387
22082SOL    HW166270   4.112   2.184   7.393
22082SOL    HW266271   3.953   2.152   7.415
22083SOL     OW66272   5.190   3.279   6.539
22083SOL    HW166273   5.131   3.285   6.619
22083SOL    HW266274   5.175   3.191   6.493
22084SOL     OW66275   5.391   3.576   6.158
22084SOL    HW166276   5.350   3.553   6.070
22084SOL    HW266277   5.373   3.502   6.223
22085SOL     OW66278   4.322   2.591   5.856
22085SOL    HW166279   4.346   2.660   5.788
22085SOL    HW266280   4.244   2.624   5.910
22086SOL     OW66281   5.005   2.207   6.530
22086SOL    HW166282   4.919   2.157   6.517
22086SOL    HW266283   5.067   2.153   6.586
22087SOL     OW66284   5.300   3.524   5.893
22087SOL    HW166285   5.389   3.570   5.896
22087SOL    HW266286   5.279   3.500   5.798
22088SOL     OW66287   4.531   2.467   7.051
22088SOL    HW166288   4.484   2.464   7.140
22088SOL    HW266289   4.480   2.412   6.985
22089SOL     OW66290   5.118   2.331   7.260
22089SOL    HW166291   5.098   2.374   7.348
22089SOL    HW266292   5.196   2.269   7.269
22090SOL     OW66293   4.697   2.752   7.158
22090SOL    HW166294   4.743   2.668   7.129
22090SOL    HW266295   4.641   2.786   7.083
22091SOL     OW66296   4.715   2.272   6.828
22091SOL    HW166297   4.638   2.306   6.882
22091SOL    HW266298   4.681   2.221   6.749
22092SOL     OW66299   4.765   2.563   6.015
22092SOL    HW166300   4.791   2.559   6.111
22092SOL    HW266301   4.680   2.512   6.001
22093SOL     OW66302   3.800   2.673   6.375
22093SOL    HW166303   3.899   2.661   6.384
22093SOL    HW266304   3.776   2.768   6.396
22094SOL     OW66305   3.854   3.683   7.157
22094SOL    HW166306   3.844   3.668   7.256
22094SOL    HW266307   3.768   3.719   7.121
22095SOL     OW66308   4.589   2.210   5.781
22095SOL    HW166309   4.648   2.273   5.732
22095SOL    HW266310   4.608   2.116   5.752
22096SOL     OW66311   5.443   2.447   7.417
22096SOL    HW166312   5.417   2.536   7.381
22096SOL    HW266313   5.441   2.379   7.344
22097SOL     OW66314   5.086   3.006   6.131
22097SOL    HW166315   5.169   2.977   6.083
22097SOL    HW266316   5.037   3.073   6.075
22098SOL     OW66317   4.274   2.058   6.471
22098SOL    HW166318   4.269   2.053   6.571
22098SOL    HW266319   4.276   2.154   6.442
22099SOL     OW66320   4.732   3.318   6.063
22099SOL    HW166321   4.686   3.390   6.011
22099SOL    HW266322   4.728   3.338   6.161
22100SOL     OW66323   4.075   3.663   6.439
22100SOL    HW166324   4.125   3.577   6.445
22100SOL    HW266325   4.140   3.740   6.436
22101SOL     OW66326   5.519   2.928   6.459
22101SOL    HW166327   5.457   2.913   6.383
22101SOL    HW266328   5.467   2.939   6.544
22102SOL     OW66329   4.951   3.412   7.092
22102SOL    HW166330   4.957   3.335   7.156
22102SOL    HW266331   4.899   3.386   7.012
22103SOL     OW66332   4.045   2.805   5.828
22103SOL    HW166333   4.127   2.844   5.786
22103SOL    HW266334   4.018   2.723   5.779
22104SOL     OW66335   5.182   2.597   6.314
22104SOL    HW166336   5.177   2.532   6.389
22104SOL    HW266337   5.262   2.656   6.327
22105SOL     OW66338   4.185   3.128   7.313
22105SOL    HW166339   4.135   3.129   7.227
22105SOL    HW266340   4.122   3.110   7.389
22106SOL     OW66341   4.835   3.638   5.823
22106SOL    HW166342   4.775   3.576   5.873
22106SOL    HW266343   4.866   3.594   5.738
22107SOL     OW66344   3.926   2.147   7.084
22107SOL    HW166345   3.846   2.207   7.071
22107SOL    HW266346   3.916   2.098   7.170
22108SOL     OW66347   5.356   3.239   5.667
22108SOL    HW166348   5.324   3.333   5.657
22108SOL    HW266349   5.280   3.176   5.655
22109SOL     OW66350   4.188   3.605   5.909
22109SOL    HW166351   4.221   3.644   5.995
22109SOL    HW266352   4.264   3.598   5.844
22110SOL     OW66353   5.124   1.969   6.012
22110SOL    HW166354   5.100   1.932   5.922
22110SOL    HW266355   5.223   1.985   6.016
22111SOL     OW66356   3.973   3.647   6.827
22111SOL    HW166357   4.030   3.582   6.877
22111SOL    HW266358   3.957   3.614   6.734
22112SOL     OW66359   4.664   3.560   6.490
22112SOL    HW166360   4.744   3.503   6.511
22112SOL    HW266361   4.615   3.520   6.413
22113SOL     OW66362   4.106   2.562   6.066
22113SOL    HW166363   4.151   2.472   6.063
22113SOL    HW266364   4.012   2.551   6.099
22114SOL     OW66365   5.271   2.084   7.315
22114SOL    HW166366   5.266   2.121   7.407
22114SOL    HW266367   5.199   2.015   7.303
22115SOL     OW66368   4.338   1.984   5.703
22115SOL    HW166369   4.436   1.962   5.710
22115SOL    HW266370   4.307   1.967   5.610
22116SOL     OW66371   4.505   2.126   7.335
22116SOL    HW166372   4.572   2.065   7.378
22116SOL    HW266373   4.432   2.145   7.400
22117SOL     OW66374   4.612   3.376   6.781
22117SOL    HW166375   4.589   3.351   6.687
22117SOL    HW266376   4.673   3.307   6.820
22118SOL     OW66377   5.075   2.452   7.019
22118SOL    HW166378   5.103   2.409   7.104
22118SOL    HW266379   5.100   2.548   7.020
22119SOL     OW66380   4.527   3.264   6.510
22119SOL    HW166381   4.617   3.278   6.468
22119SOL    HW266382   4.456   3.266   6.439
22120SOL     OW66383   4.646   2.365   6.485
22120SOL    HW166384   4.621   2.356   6.389
22120SOL    HW266385   4.694   2.283   6.516
22121SOL     OW66386   4.263   1.926   6.098
22121SOL    HW166387   4.182   1.927   6.156
22121SOL    HW266388   4.266   2.009   6.043
22122SOL     OW66389   5.158   3.050   5.627
22122SOL    HW166390   5.190   2.974   5.684
22122SOL    HW266391   5.066   3.077   5.657
22123SOL     OW66392   4.021   1.897   5.757
22123SOL    HW166393   4.070   1.981   5.736
22123SOL    HW266394   4.083   1.832   5.802
22124SOL     OW66395   4.659   2.098   6.066
22124SOL    HW166396   4.611   2.139   5.988
22124SOL    HW266397   4.758   2.096   6.047
22125SOL     OW66398   4.800   2.545   7.050
22125SOL    HW166399   4.720   2.484   7.053
22125SOL    HW266400   4.881   2.492   7.026
22126SOL     OW66401   4.951   3.432   6.379
22126SOL    HW166402   4.972   3.506   6.314
22126SOL    HW266403   5.019   3.432   6.452
22127SOL     OW66404   4.183   3.014   6.327
22127SOL    HW166405   4.112   2.987   6.392
22127SOL    HW266406   4.157   2.986   6.234
22128SOL     OW66407   4.995   3.659   6.177
22128SOL    HW166408   5.039   3.723   6.113
22128SOL    HW266409   4.945   3.711   6.247
22129SOL     OW66410   4.756   2.411   5.602
22129SOL    HW166411   4.715   2.493   5.563
22129SOL    HW266412   4.820   2.437   5.675
22130SOL     OW66413   3.802   2.418   6.972
22130SOL    HW166414   3.894   2.417   6.931
22130SOL    HW266415   3.796   2.492   7.039
22131SOL     OW66416   4.285   2.084   6.733
22131SOL    HW166417   4.323   2.000   6.770
22131SOL    HW266418   4.197   2.103   6.777
22132SOL     OW66419   4.590   2.316   6.228
22132SOL    HW166420   4.558   2.388   6.166
22132SOL    HW266421   4.614   2.235   6.175
22133SOL     OW66422   4.741   1.901   6.339
22133SOL    HW166423   4.669   1.906   6.270
22133SOL    HW266424   4.717   1.832   6.408
22134SOL     OW66425   5.153   3.035   6.453
22134SOL    HW166426   5.098   2.951   6.446
22134SOL    HW266427   5.179   3.064   6.361
22135SOL     OW66428   5.190   2.452   6.578
22135SOL    HW166429   5.160   2.357   6.585
22135SOL    HW266430   5.263   2.468   6.644
22136SOL     OW66431   5.581   2.695   5.963
22136SOL    HW166432   5.623   2.631   6.027
22136SOL    HW266433   5.543   2.644   5.885
22137SOL     OW66434   4.212   3.247   5.760
22137SOL    HW166435   4.125   3.232   5.807
22137SOL    HW266436   4.195   3.273   5.665
22138SOL     OW66437   5.388   3.142   6.243
22138SOL    HW166438   5.487   3.150   6.257
22138SOL    HW266439   5.343   3.226   6.274
22139SOL     OW66440   5.114   2.437   5.664
22139SOL    HW166441   5.060   2.416   5.745
22139SOL    HW266442   5.205   2.396   5.673
22140SOL     OW66443   4.251   2.118   5.914
22140SOL    HW166444   4.278   2.059   5.839
22140SOL    HW266445   4.251   2.213   5.883
22141SOL     OW66446   5.478   3.085   7.174
22141SOL    HW166447   5.569   3.046   7.161
22141SOL    HW266448   5.486   3.181   7.198
22142SOL     OW66449   4.788   3.209   6.926
22142SOL    HW166450   4.708   3.186   6.981
22142SOL    HW266451   4.871   3.183   6.975
22143SOL     OW66452   5.316   3.491   7.211
22143SOL    HW166453   5.343   3.525   7.121
22143SOL    HW266454   5.395   3.453   7.257
22144SOL     OW66455   4.835   3.057   6.686
22144SOL    HW166456   4.795   3.101   6.767
22144SOL    HW266457   4.794   3.094   6.603
22145SOL     OW66458   5.362   2.961   6.665
22145SOL    HW166459   5.367   3.042   6.724
22145SOL    HW266460   5.276   2.963   6.614
22146SOL     OW66461   4.639   1.951   6.988
22146SOL    HW166462   4.664   1.931   6.893
22146SOL    HW266463   4.711   2.007   7.030
22147SOL     OW66464   4.704   2.978   7.305
22147SOL    HW166465   4.605   2.984   7.315
22147SOL    HW266466   4.727   2.898   7.249
22148SOL     OW66467   4.429   2.912   5.954
22148SOL    HW166468   4.415   2.919   6.053
22148SOL    HW266469   4.513   2.861   5.936
22149SOL     OW66470   4.134   2.675   6.837
22149SOL    HW166471   4.220   2.687   6.887
22149SOL    HW266472   4.092   2.588   6.864
22150SOL     OW66473   4.998   2.248   6.848
22150SOL    HW166474   5.019   2.322   6.912
22150SOL    HW266475   4.909   2.265   6.805
22151SOL     OW66476   3.788   3.426   6.917
22151SOL    HW166477   3.742   3.508   6.883
22151SOL    HW266478   3.886   3.445   6.926
22152SOL     OW66479   4.091   2.962   6.087
22152SOL    HW166480   4.084   3.045   6.031
22152SOL    HW266481   4.095   2.882   6.027
22153SOL     OW66482   4.290   2.399   6.451
22153SOL    HW166483   4.302   2.465   6.377
22153SOL    HW266484   4.336   2.433   6.534
22154SOL     OW66485   4.976   3.210   5.974
22154SOL    HW166486   5.026   3.287   6.014
22154SOL    HW266487   4.881   3.212   6.006
22155SOL     OW66488   4.996   3.307   6.728
22155SOL    HW166489   5.043   3.320   6.815
22155SOL    HW266490   4.930   3.233   6.737
22156SOL     OW66491   5.306   2.501   6.058
22156SOL    HW166492   5.275   2.562   6.131
22156SOL    HW266493   5.356   2.553   5.989
22157SOL     OW66494   4.078   3.372   6.915
22157SOL    HW166495   4.057   3.328   6.828
22157SOL    HW266496   4.175   3.398   6.918
22158SOL     OW66497   4.126   2.613   7.184
22158SOL    HW166498   4.194   2.668   7.137
22158SOL    HW266499   4.166   2.525   7.211
22159SOL     OW66500   5.311   2.641   7.256
22159SOL    HW166501   5.219   2.679   7.251
22159SOL    HW266502   5.371   2.688   7.191
22160SOL     OW66503   4.737   1.967   7.356
22160SOL    HW166504   4.743   2.052   7.304
22160SOL    HW266505   4.769   1.891   7.299
22161SOL     OW66506   4.228   1.912   7.326
22161SOL    HW166507   4.186   1.855   7.256
22161SOL    HW266508   4.162   1.981   7.358
22162SOL     OW66509   4.297   2.732   6.615
22162SOL    HW166510   4.341   2.821   6.606
22162SOL    HW266511   4.234   2.732   6.692
22163SOL     OW66512   5.084   2.724   6.631
22163SOL    HW166513   5.009   2.724   6.565
22163SOL    HW266514   5.121   2.632   6.640
22164SOL     OW66515   4.933   2.387   5.861
22164SOL    HW166516   4.946   2.303   5.915
22164SOL    HW266517   4.904   2.461   5.921
22165SOL     OW66518   4.031   2.075   6.817
22165SOL    HW166519   4.008   2.112   6.907
22165SOL    HW266520   4.001   1.980   6.811
22166SOL     OW66521   3.761   3.172   6.868
22166SOL    HW166522   3.814   3.123   6.936
22166SOL    HW266523   3.783   3.270   6.873
22167SOL     OW66524   4.456   2.496   6.650
22167SOL    HW166525   4.515   2.470   6.574
22167SOL    HW266526   4.428   2.592   6.639
22168SOL     OW66527   5.452   2.797   7.440
22168SOL    HW166528   5.406   2.790   7.351
22168SOL    HW266529   5.390   2.841   7.506
22169SOL     OW66530   4.031   1.925   6.204
22169SOL    HW166531   4.020   2.019   6.237
22169SOL    HW266532   4.026   1.862   6.281
22170SOL     OW66533   5.346   2.229   5.960
22170SOL    HW166534   5.348   2.153   6.024
22170SOL    HW266535   5.298   2.306   6.000
22171SOL     OW66536   4.747   2.628   6.552
22171SOL    HW166537   4.762   2.649   6.648
22171SOL    HW266538   4.717   2.533   6.543
22172SOL     OW66539   4.704   3.435   7.286
22172SOL    HW166540   4.684   3.479   7.198
22172SOL    HW266541   4.743   3.344   7.270
22173SOL     OW66542   5.583   3.380   7.191
22173SOL    HW166543   5.597   3.407   7.096
22173SOL    HW266544   5.666   3.402   7.244
22174SOL     OW66545   4.074   2.760   7.390
22174SOL    HW166546   4.150   2.804   7.438
22174SOL    HW266547   4.109   2.713   7.308
22175SOL     OW66548   5.264   2.136   5.711
22175SOL    HW166549   5.203   2.061   5.734
22175SOL    HW266550   5.286   2.188   5.794
22176SOL     OW66551   5.027   2.700   5.628
22176SOL    HW166552   5.061   2.607   5.643
22176SOL    HW266553   5.045   2.727   5.533
22177SOL     OW66554   4.792   3.195   6.435
22177SOL    HW166555   4.799   3.111   6.380
22177SOL    HW266556   4.854   3.264   6.399
22178SOL     OW66557   4.043   2.672   6.535
22178SOL    HW166558   4.136   2.708   6.540
22178SOL    HW266559   4.037   2.587   6.587
22179SOL     OW66560   4.063   2.371   6.592
22179SOL    HW166561   4.011   2.288   6.575
22179SOL    HW266562   4.140   2.376   6.528
22180SOL     OW66563   4.862   2.242   7.264
22180SOL    HW166564   4.817   2.305   7.328
22180SOL    HW266565   4.955   2.273   7.247
22181SOL     OW66566   4.884   2.069   7.063
22181SOL    HW166567   4.884   2.133   7.140
22181SOL    HW266568   4.912   2.117   6.980
22182SOL     OW66569   3.732   3.188   5.786
22182SOL    HW166570   3.639   3.209   5.755
22182SOL    HW266571   3.742   3.089   5.799
22183SOL     OW66572   3.812   3.663   6.513
22183SOL    HW166573   3.770   3.577   6.486
22183SOL    HW266574   3.906   3.666   6.479
22184SOL     OW66575   4.228   3.430   6.496
22184SOL    HW166576   4.294   3.504   6.505
22184SOL    HW266577   4.272   3.351   6.454
22185SOL     OW66578   4.726   2.658   6.824
22185SOL    HW166579   4.767   2.626   6.910
22185SOL    HW266580   4.630   2.631   6.821
22186SOL     OW66581   3.764   2.406   6.700
22186SOL    HW166582   3.849   2.373   6.659
22186SOL    HW266583   3.777   2.421   6.798
22187SOL     OW66584   3.913   2.382   7.308
22187SOL    HW166585   3.972   2.342   7.238
22187SOL    HW266586   3.855   2.453   7.267
22188SOL     OW66587   5.093   2.812   7.246
22188SOL    HW166588   5.132   2.901   7.266
22188SOL    HW266589   5.103   2.792   7.149
22189SOL     OW66590   4.539   2.434   5.911
22189SOL    HW166591   4.546   2.345   5.865
22189SOL    HW266592   4.445   2.468   5.903
22190SOL     OW66593   5.381   2.466   6.792
22190SOL    HW166594   5.343   2.397   6.854
22190SOL    HW266595   5.463   2.430   6.748
22191SOL     OW66596   3.976   3.426   7.330
22191SOL    HW166597   3.946   3.483   7.406
22191SOL    HW266598   3.969   3.329   7.356
22192SOL     OW66599   4.395   2.326   6.855
22192SOL    HW166600   4.361   2.237   6.825
22192SOL    HW266601   4.421   2.380   6.775
22193SOL     OW66602   4.654   3.540   7.051
22193SOL    HW166603   4.630   3.522   6.956
22193SOL    HW266604   4.684   3.634   7.061
22194SOL     OW66605   4.197   2.362   5.777
22194SOL    HW166606   4.258   2.442   5.781
22194SOL    HW266607   4.102   2.393   5.784
22195SOL     OW66608   3.883   2.999   7.052
22195SOL    HW166609   3.905   2.938   7.128
22195SOL    HW266610   3.893   2.950   6.966
22196SOL     OW66611   5.071   2.921   6.820
22196SOL    HW166612   5.095   2.858   6.746
22196SOL    HW266613   4.981   2.961   6.802
22197SOL     OW66614   5.026   2.717   5.895
22197SOL    HW166615   4.940   2.686   5.937
22197SOL    HW266616   5.022   2.703   5.796
22198SOL     OW66617   5.483   3.609   6.740
22198SOL    HW166618   5.544   3.639   6.667
22198SOL    HW266619   5.445   3.520   6.718
22199SOL     OW66620   4.976   3.593   6.714
22199SOL    HW166621   5.060   3.598   6.660
22199SOL    HW266622   4.953   3.497   6.732
22200SOL     OW66623   3.807   3.120   6.608
22200SOL    HW166624   3.802   3.119   6.708
22200SOL    HW266625   3.724   3.079   6.570
22201SOL     OW66626   4.412   3.524   7.302
22201SOL    HW166627   4.356   3.605   7.311
22201SOL    HW266628   4.464   3.528   7.216
22202SOL     OW66629   5.450   1.997   6.109
22202SOL    HW166630   5.523   1.980   6.042
22202SOL    HW266631   5.419   1.910   6.147
22203SOL     OW66632   5.112   3.435   6.063
22203SOL    HW166633   5.179   3.447   5.989
22203SOL    HW266634   5.072   3.524   6.086
22204SOL     OW66635   3.854   3.656   7.437
22204SOL    HW166636   3.813   3.582   7.490
22204SOL    HW266637   3.918   3.707   7.495
22205SOL     OW66638   5.004   2.789   6.258
22205SOL    HW166639   5.064   2.708   6.260
22205SOL    HW266640   5.044   2.858   6.198
22206SOL     OW66641   4.554   3.135   7.008
22206SOL    HW166642   4.549   3.168   7.103
22206SOL    HW266643   4.468   3.154   6.962
22207SOL     OW66644   4.396   3.478   5.740
22207SOL    HW166645   4.405   3.488   5.641
22207SOL    HW266646   4.356   3.389   5.761
22208SOL     OW66647   5.374   3.582   6.980
22208SOL    HW166648   5.427   3.592   6.896
22208SOL    HW266649   5.347   3.672   7.014
22209SOL     OW66650   5.565   2.037   6.549
22209SOL    HW166651   5.604   1.952   6.513
22209SOL    HW266652   5.467   2.039   6.530
22210SOL     OW66653   3.987   2.188   6.306
22210SOL    HW166654   3.908   2.239   6.272
22210SOL    HW266655   3.978   2.173   6.404
22211SOL     OW66656   4.918   3.474   5.617
22211SOL    HW166657   4.924   3.381   5.654
22211SOL    HW266658   4.859   3.474   5.537
22212SOL     OW66659   4.546   2.864   6.958
22212SOL    HW166660   4.586   2.863   6.866
22212SOL    HW266661   4.556   2.956   6.998
22213SOL     OW66662   4.640   2.772   5.877
22213SOL    HW166663   4.703   2.810   5.809
22213SOL    HW266664   4.680   2.689   5.916
22214SOL     OW66665   5.228   3.469   5.630
22214SOL    HW166666   5.136   3.506   5.637
22214SOL    HW266667   5.266   3.489   5.540
22215SOL     OW66668   4.096   3.150   7.076
22215SOL    HW166669   4.083   3.243   7.042
22215SOL    HW266670   4.012   3.098   7.063
22216SOL     OW66671   5.338   3.154   6.875
22216SOL    HW166672   5.398   3.157   6.955
22216SOL    HW266673   5.263   3.218   6.888
22217SOL     OW66674   4.763   2.960   6.282
22217SOL    HW166675   4.693   2.913   6.336
22217SOL    HW266676   4.822   2.892   6.239
22218SOL     OW66677   4.738   2.098   6.557
22218SOL    HW166678   4.730   2.062   6.464
22218SOL    HW266679   4.736   2.022   6.622
22219SOL     OW66680   4.314   3.349   6.077
22219SOL    HW166681   4.356   3.291   6.007
22219SOL    HW266682   4.270   3.428   6.033
22220SOL     OW66683   5.433   2.247   6.967
22220SOL    HW166684   5.506   2.316   6.971
22220SOL    HW266685   5.461   2.172   6.908
22221SOL     OW66686   3.979   3.210   5.876
22221SOL    HW166687   3.883   3.211   5.849
22221SOL    HW266688   3.991   3.263   5.960
22222SOL     OW66689   3.829   2.875   7.312
22222SOL    HW166690   3.752   2.842   7.366
22222SOL    HW266691   3.914   2.845   7.354
22223SOL     OW66692   4.396   2.065   7.075
22223SOL    HW166693   4.486   2.049   7.035
22223SOL    HW266694   4.404   2.070   7.174
22224SOL     OW66695   3.799   2.207   5.619
22224SOL    HW166696   3.707   2.179   5.590
22224SOL    HW266697   3.830   2.284   5.563
22225SOL     OW66698   5.164   2.718   6.984
22225SOL    HW166699   5.107   2.770   6.921
22225SOL    HW266700   5.260   2.730   6.960
22226SOL     OW66701   3.796   2.028   5.904
22226SOL    HW166702   3.779   2.111   5.850
22226SOL    HW266703   3.886   1.991   5.882
22227SOL     OW66704   4.907   3.197   5.705
22227SOL    HW166705   4.808   3.186   5.707
22227SOL    HW266706   4.941   3.212   5.798
22228SOL     OW66707   4.337   2.704   7.017
22228SOL    HW166708   4.393   2.785   7.000
22228SOL    HW266709   4.396   2.624   7.020
22229SOL     OW66710   5.217   3.629   6.545
22229SOL    HW166711   5.250   3.693   6.476
22229SOL    HW266712   5.283   3.623   6.620
22230SOL     OW66713   4.440   2.427   7.294
22230SOL    HW166714   4.459   2.492   7.368
22230SOL    HW266715   4.500   2.347   7.303
22231SOL     OW66716   5.174   3.082   7.219
22231SOL    HW166717   5.165   3.072   7.318
22231SOL    HW266718   5.270   3.075   7.193
22232SOL     OW66719   4.114   3.603   7.146
22232SOL    HW166720   4.023   3.644   7.144
22232SOL    HW266721   4.107   3.509   7.178
22233SOL     OW66722   5.398   2.745   6.840
22233SOL    HW166723   5.371   2.656   6.803
22233SOL    HW266724   5.399   2.813   6.767
22234SOL     OW66725   4.949   2.187   6.035
22234SOL    HW166726   5.014   2.113   6.024
22234SOL    HW266727   4.969   2.237   6.119
22235SOL     OW66728   4.318   2.607   6.238
22235SOL    HW166729   4.368   2.692   6.219
22235SOL    HW266730   4.230   2.609   6.190
22236SOL     OW66731   5.501   2.204   7.228
22236SOL    HW166732   5.484   2.235   7.134
22236SOL    HW266733   5.417   2.167   7.266
22237SOL     OW66734   5.454   2.796   7.103
22237SOL    HW166735   5.492   2.887   7.118
22237SOL    HW266736   5.446   2.779   7.004
22238SOL     OW66737   4.583   3.236   5.602
22238SOL    HW166738   4.537   3.251   5.690
22238SOL    HW266739   4.627   3.321   5.572
22239SOL     OW66740   4.385   3.652   6.539
22239SOL    HW166741   4.339   3.740   6.526
22239SOL    HW266742   4.484   3.664   6.532
22240SOL     OW66743   4.583   2.818   6.447
22240SOL    HW166744   4.637   2.749   6.495
22240SOL    HW266745   4.551   2.887   6.513
22241SOL     OW66746   4.807   2.846   5.673
22241SOL    HW166747   4.784   2.899   5.591
22241SOL    HW266748   4.888   2.790   5.654
22242SOL     OW66749   5.585   3.431   6.437
22242SOL    HW166750   5.514   3.419   6.367
22242SOL    HW266751   5.586   3.352   6.497
22243SOL     OW66752   3.945   3.176   7.430
22243SOL    HW166753   3.880   3.103   7.409
22243SOL    HW266754   3.949   3.190   7.528
22244SOL     OW66755   3.803   3.102   6.239
22244SOL    HW166756   3.802   3.055   6.327
22244SOL    HW266757   3.885   3.074   6.188
22245SOL     OW66758   4.396   3.253   7.210
22245SOL    HW166759   4.318   3.203   7.248
22245SOL    HW266760   4.393   3.348   7.241
22246SOL     OW66761   5.548   2.054   6.813
22246SOL    HW166762   5.544   1.964   6.857
22246SOL    HW266763   5.551   2.043   6.714
22247SOL     OW66764   4.152   2.286   6.106
22247SOL    HW166765   4.182   2.214   6.044
22247SOL    HW266766   4.113   2.246   6.189
22248SOL     OW66767   5.429   3.349   6.690
22248SOL    HW166768   5.336   3.324   6.663
22248SOL    HW266769   5.455   3.299   6.772
22249SOL     OW66770   4.041   2.409   6.866
22249SOL    HW166771   4.079   2.350   6.938
22249SOL    HW266772   4.081   2.383   6.778
22250SOL     OW66773   4.536   3.448   6.273
22250SOL    HW166774   4.568   3.458   6.179
22250SOL    HW266775   4.457   3.386   6.275
22251SOL     OW66776   5.148   2.076   6.698
22251SOL    HW166777   5.200   2.011   6.753
22251SOL    HW266778   5.099   2.139   6.759
22252SOL     OW66779   4.725   1.896   6.740
22252SOL    HW166780   4.662   1.824   6.709
22252SOL    HW266781   4.818   1.860   6.740
22253SOL     OW66782   4.494   3.192   5.887
22253SOL    HW166783   4.448   3.105   5.904
22253SOL    HW266784   4.585   3.189   5.928
22254SOL     OW66785   4.342   3.429   6.870
22254SOL    HW166786   4.337   3.511   6.927
22254SOL    HW266787   4.431   3.426   6.825
22255SOL     OW66788   5.076   1.914   5.754
22255SOL    HW166789   5.111   1.873   5.670
22255SOL    HW266790   4.986   1.876   5.774
22256SOL     OW66791   5.024   2.315   6.277
22256SOL    HW166792   4.965   2.395   6.281
22256SOL    HW266793   5.039   2.280   6.370
22257SOL     OW66794   5.317   2.083   6.468
22257SOL    HW166795   5.233   2.082   6.522
22257SOL    HW266796   5.319   2.166   6.412
22258SOL     OW66797   3.763   2.939   5.886
22258SOL    HW166798   3.862   2.928   5.877
22258SOL    HW266799   3.723   2.853   5.918
22259SOL     OW66800   4.599   3.508   5.923
22259SOL    HW166801   4.522   3.473   5.869
22259SOL    HW266802   4.567   3.579   5.985
22260SOL     OW66803   3.954   2.490   7.561
22260SOL    HW166804   3.861   2.488   7.598
22260SOL    HW266805   3.955   2.451   7.469
22261SOL     OW66806   3.949   2.137   8.444
22261SOL    HW166807   3.984   2.120   8.536
22261SOL    HW266808   3.861   2.092   8.432
22262SOL     OW66809   3.743   2.230   8.095
22262SOL    HW166810   3.661   2.273   8.134
22262SOL    HW266811   3.715   2.157   8.032
22263SOL     OW66812   4.293   3.137   8.613
22263SOL    HW166813   4.200   3.130   8.576
22263SOL    HW266814   4.304   3.226   8.657
22264SOL     OW66815   5.279   3.373   8.151
22264SOL    HW166816   5.222   3.357   8.232
22264SOL    HW266817   5.220   3.383   8.071
22265SOL     OW66818   4.859   2.565   8.165
22265SOL    HW166819   4.916   2.643   8.140
22265SOL    HW266820   4.799   2.591   8.241
22266SOL     OW66821   5.479   2.469   7.679
22266SOL    HW166822   5.467   2.456   7.580
22266SOL    HW266823   5.449   2.388   7.728
22267SOL     OW66824   4.492   3.006   8.471
22267SOL    HW166825   4.414   3.023   8.531
22267SOL    HW266826   4.526   3.093   8.435
22268SOL     OW66827   4.574   2.660   9.271
22268SOL    HW166828   4.570   2.736   9.336
22268SOL    HW266829   4.596   2.696   9.180
22269SOL     OW66830   4.409   2.874   8.113
22269SOL    HW166831   4.478   2.858   8.183
22269SOL    HW266832   4.336   2.931   8.151
22270SOL     OW66833   4.410   3.023   9.251
22270SOL    HW166834   4.470   3.102   9.265
22270SOL    HW266835   4.324   3.054   9.210
22271SOL     OW66836   4.059   3.297   8.509
22271SOL    HW166837   3.981   3.266   8.456
22271SOL    HW266838   4.117   3.355   8.452
22272SOL     OW66839   5.184   3.367   8.787
22272SOL    HW166840   5.208   3.461   8.813
22272SOL    HW266841   5.168   3.313   8.869
22273SOL     OW66842   4.162   2.254   8.947
22273SOL    HW166843   4.244   2.198   8.956
22273SOL    HW266844   4.081   2.196   8.951
22274SOL     OW66845   5.327   2.309   8.185
22274SOL    HW166846   5.253   2.355   8.135
22274SOL    HW266847   5.378   2.377   8.238
22275SOL     OW66848   3.955   3.575   7.931
22275SOL    HW166849   3.989   3.652   7.985
22275SOL    HW266850   3.999   3.575   7.841
22276SOL     OW66851   4.851   3.203   9.138
22276SOL    HW166852   4.898   3.203   9.226
22276SOL    HW266853   4.803   3.116   9.127
22277SOL     OW66854   3.954   3.296   7.986
22277SOL    HW166855   3.928   3.392   7.986
22277SOL    HW266856   3.883   3.242   8.031
22278SOL     OW66857   3.964   2.953   8.334
22278SOL    HW166858   3.978   2.869   8.386
22278SOL    HW266859   3.909   3.017   8.389
22279SOL     OW66860   4.344   3.648   8.887
22279SOL    HW166861   4.252   3.631   8.922
22279SOL    HW266862   4.372   3.740   8.913
22280SOL     OW66863   4.330   2.826   7.571
22280SOL    HW166864   4.337   2.910   7.517
22280SOL    HW266865   4.376   2.839   7.659
22281SOL     OW66866   5.318   1.976   8.928
22281SOL    HW166867   5.300   2.043   8.856
22281SOL    HW266868   5.315   2.022   9.017
22282SOL     OW66869   3.846   2.505   8.011
22282SOL    HW166870   3.801   2.417   8.028
22282SOL    HW266871   3.845   2.559   8.095
22283SOL     OW66872   5.566   3.629   7.807
22283SOL    HW166873   5.620   3.600   7.887
22283SOL    HW266874   5.596   3.719   7.778
22284SOL     OW66875   3.751   3.458   7.565
22284SOL    HW166876   3.732   3.362   7.586
22284SOL    HW266877   3.718   3.516   7.640
22285SOL     OW66878   5.413   2.784   8.060
22285SOL    HW166879   5.508   2.755   8.068
22285SOL    HW266880   5.405   2.849   7.985
22286SOL     OW66881   5.365   2.970   7.880
22286SOL    HW166882   5.451   2.972   7.828
22286SOL    HW266883   5.379   3.017   7.968
22287SOL     OW66884   4.337   3.227   8.174
22287SOL    HW166885   4.288   3.140   8.183
22287SOL    HW266886   4.314   3.270   8.087
22288SOL     OW66887   5.017   3.090   8.871
22288SOL    HW166888   5.054   3.017   8.813
22288SOL    HW266889   5.069   3.095   8.956
22289SOL     OW66890   4.533   1.866   7.950
22289SOL    HW166891   4.573   1.957   7.941
22289SOL    HW266892   4.433   1.874   7.956
22290SOL     OW66893   3.921   2.838   8.712
22290SOL    HW166894   4.010   2.793   8.698
22290SOL    HW266895   3.848   2.773   8.693
22291SOL     OW66896   5.249   2.861   7.638
22291SOL    HW166897   5.186   2.785   7.651
22291SOL    HW266898   5.297   2.879   7.724
22292SOL     OW66899   4.911   3.654   9.064
22292SOL    HW166900   4.935   3.714   8.988
22292SOL    HW266901   4.918   3.559   9.034
22293SOL     OW66902   4.041   2.113   9.249
22293SOL    HW166903   4.112   2.184   9.255
22293SOL    HW266904   3.953   2.152   9.277
22294SOL     OW66905   5.190   3.279   8.401
22294SOL    HW166906   5.131   3.285   8.481
22294SOL    HW266907   5.175   3.191   8.355
22295SOL     OW66908   5.391   3.576   8.020
22295SOL    HW166909   5.350   3.553   7.932
22295SOL    HW266910   5.373   3.502   8.085
22296SOL     OW66911   4.322   2.591   7.718
22296SOL    HW166912   4.346   2.660   7.650
22296SOL    HW266913   4.244   2.624   7.772
22297SOL     OW66914   5.005   2.207   8.392
22297SOL    HW166915   4.919   2.157   8.379
22297SOL    HW266916   5.067   2.153   8.448
22298SOL     OW66917   5.300   3.524   7.755
22298SOL    HW166918   5.389   3.570   7.758
22298SOL    HW266919   5.279   3.500   7.660
22299SOL     OW66920   4.531   2.467   8.913
22299SOL    HW166921   4.484   2.464   9.002
22299SOL    HW266922   4.480   2.412   8.847
22300SOL     OW66923   5.118   2.331   9.122
22300SOL    HW166924   5.098   2.374   9.210
22300SOL    HW266925   5.196   2.269   9.131
22301SOL     OW66926   4.697   2.752   9.020
22301SOL    HW166927   4.743   2.668   8.991
22301SOL    HW266928   4.641   2.786   8.945
22302SOL     OW66929   4.715   2.272   8.690
22302SOL    HW166930   4.638   2.306   8.744
22302SOL    HW266931   4.681   2.221   8.611
22303SOL     OW66932   4.765   2.563   7.877
22303SOL    HW166933   4.791   2.559   7.973
22303SOL    HW266934   4.680   2.512   7.863
22304SOL     OW66935   3.800   2.673   8.237
22304SOL    HW166936   3.899   2.661   8.246
22304SOL    HW266937   3.776   2.768   8.258
22305SOL     OW66938   3.854   3.683   9.019
22305SOL    HW166939   3.844   3.668   9.118
22305SOL    HW266940   3.768   3.719   8.983
22306SOL     OW66941   4.589   2.210   7.643
22306SOL    HW166942   4.648   2.273   7.594
22306SOL    HW266943   4.608   2.116   7.614
22307SOL     OW66944   5.443   2.447   9.279
22307SOL    HW166945   5.417   2.536   9.243
22307SOL    HW266946   5.441   2.379   9.206
22308SOL     OW66947   5.086   3.006   7.993
22308SOL    HW166948   5.169   2.977   7.945
22308SOL    HW266949   5.037   3.073   7.937
22309SOL     OW66950   4.274   2.058   8.333
22309SOL    HW166951   4.269   2.053   8.433
22309SOL    HW266952   4.276   2.154   8.304
22310SOL     OW66953   4.732   3.318   7.925
22310SOL    HW166954   4.686   3.390   7.873
22310SOL    HW266955   4.728   3.338   8.023
22311SOL     OW66956   4.075   3.663   8.301
22311SOL    HW166957   4.125   3.577   8.307
22311SOL    HW266958   4.140   3.740   8.298
22312SOL     OW66959   5.519   2.928   8.321
22312SOL    HW166960   5.457   2.913   8.245
22312SOL    HW266961   5.467   2.939   8.406
22313SOL     OW66962   4.951   3.412   8.954
22313SOL    HW166963   4.957   3.335   9.018
22313SOL    HW266964   4.899   3.386   8.874
22314SOL     OW66965   4.045   2.805   7.690
22314SOL    HW166966   4.127   2.844   7.648
22314SOL    HW266967   4.018   2.723   7.641
22315SOL     OW66968   5.182   2.597   8.176
22315SOL    HW166969   5.177   2.532   8.251
22315SOL    HW266970   5.262   2.656   8.189
22316SOL     OW66971   4.185   3.128   9.175
22316SOL    HW166972   4.135   3.129   9.089
22316SOL    HW266973   4.122   3.110   9.251
22317SOL     OW66974   4.835   3.638   7.685
22317SOL    HW166975   4.775   3.576   7.735
22317SOL    HW266976   4.866   3.594   7.600
22318SOL     OW66977   3.926   2.147   8.946
22318SOL    HW166978   3.846   2.207   8.933
22318SOL    HW266979   3.916   2.098   9.032
22319SOL     OW66980   5.356   3.239   7.529
22319SOL    HW166981   5.324   3.333   7.519
22319SOL    HW266982   5.280   3.176   7.517
22320SOL     OW66983   4.188   3.605   7.771
22320SOL    HW166984   4.221   3.644   7.857
22320SOL    HW266985   4.264   3.598   7.706
22321SOL     OW66986   5.124   1.969   7.874
22321SOL    HW166987   5.100   1.932   7.784
22321SOL    HW266988   5.223   1.985   7.878
22322SOL     OW66989   3.973   3.647   8.689
22322SOL    HW166990   4.030   3.582   8.739
22322SOL    HW266991   3.957   3.614   8.596
22323SOL     OW66992   4.664   3.560   8.352
22323SOL    HW166993   4.744   3.503   8.373
22323SOL    HW266994   4.615   3.520   8.275
22324SOL     OW66995   4.106   2.562   7.928
22324SOL    HW166996   4.151   2.472   7.925
22324SOL    HW266997   4.012   2.551   7.961
22325SOL     OW66998   5.271   2.084   9.177
22325SOL    HW166999   5.266   2.121   9.269
22325SOL    HW267000   5.199   2.015   9.165
22326SOL     OW67001   4.338   1.984   7.565
22326SOL    HW167002   4.436   1.962   7.572
22326SOL    HW267003   4.307   1.967   7.472
22327SOL     OW67004   4.505   2.126   9.197
22327SOL    HW167005   4.572   2.065   9.240
22327SOL    HW267006   4.432   2.145   9.262
22328SOL     OW67007   4.612   3.376   8.643
22328SOL    HW167008   4.589   3.351   8.549
22328SOL    HW267009   4.673   3.307   8.682
22329SOL     OW67010   5.075   2.452   8.881
22329SOL    HW167011   5.103   2.409   8.966
22329SOL    HW267012   5.100   2.548   8.882
22330SOL     OW67013   4.527   3.264   8.372
22330SOL    HW167014   4.617   3.278   8.330
22330SOL    HW267015   4.456   3.266   8.301
22331SOL     OW67016   4.646   2.365   8.347
22331SOL    HW167017   4.621   2.356   8.251
22331SOL    HW267018   4.694   2.283   8.378
22332SOL     OW67019   4.263   1.926   7.960
22332SOL    HW167020   4.182   1.927   8.018
22332SOL    HW267021   4.266   2.009   7.905
22333SOL     OW67022   5.158   3.050   7.489
22333SOL    HW167023   5.190   2.974   7.546
22333SOL    HW267024   5.066   3.077   7.519
22334SOL     OW67025   4.021   1.897   7.619
22334SOL    HW167026   4.070   1.981   7.598
22334SOL    HW267027   4.083   1.832   7.664
22335SOL     OW67028   4.659   2.098   7.928
22335SOL    HW167029   4.611   2.139   7.850
22335SOL    HW267030   4.758   2.096   7.909
22336SOL     OW67031   4.800   2.545   8.912
22336SOL    HW167032   4.720   2.484   8.915
22336SOL    HW267033   4.881   2.492   8.888
22337SOL     OW67034   4.951   3.432   8.241
22337SOL    HW167035   4.972   3.506   8.176
22337SOL    HW267036   5.019   3.432   8.314
22338SOL     OW67037   4.183   3.014   8.189
22338SOL    HW167038   4.112   2.987   8.254
22338SOL    HW267039   4.157   2.986   8.096
22339SOL     OW67040   4.995   3.659   8.039
22339SOL    HW167041   5.039   3.723   7.975
22339SOL    HW267042   4.945   3.711   8.109
22340SOL     OW67043   4.756   2.411   7.464
22340SOL    HW167044   4.715   2.493   7.425
22340SOL    HW267045   4.820   2.437   7.537
22341SOL     OW67046   3.802   2.418   8.834
22341SOL    HW167047   3.894   2.417   8.793
22341SOL    HW267048   3.796   2.492   8.901
22342SOL     OW67049   4.285   2.084   8.595
22342SOL    HW167050   4.323   2.000   8.632
22342SOL    HW267051   4.197   2.103   8.639
22343SOL     OW67052   4.590   2.316   8.090
22343SOL    HW167053   4.558   2.388   8.028
22343SOL    HW267054   4.614   2.235   8.037
22344SOL     OW67055   4.741   1.901   8.201
22344SOL    HW167056   4.669   1.906   8.132
22344SOL    HW267057   4.717   1.832   8.270
22345SOL     OW67058   5.153   3.035   8.315
22345SOL    HW167059   5.098   2.951   8.308
22345SOL    HW267060   5.179   3.064   8.223
22346SOL     OW67061   5.190   2.452   8.440
22346SOL    HW167062   5.160   2.357   8.447
22346SOL    HW267063   5.263   2.468   8.506
22347SOL     OW67064   5.581   2.695   7.825
22347SOL    HW167065   5.623   2.631   7.889
22347SOL    HW267066   5.543   2.644   7.747
22348SOL     OW67067   4.212   3.247   7.622
22348SOL    HW167068   4.125   3.232   7.669
22348SOL    HW267069   4.195   3.273   7.527
22349SOL     OW67070   5.388   3.142   8.105
22349SOL    HW167071   5.487   3.150   8.119
22349SOL    HW267072   5.343   3.226   8.136
22350SOL     OW67073   5.114   2.437   7.526
22350SOL    HW167074   5.060   2.416   7.607
22350SOL    HW267075   5.205   2.396   7.535
22351SOL     OW67076   4.251   2.118   7.776
22351SOL    HW167077   4.278   2.059   7.701
22351SOL    HW267078   4.251   2.213   7.745
22352SOL     OW67079   5.478   3.085   9.036
22352SOL    HW167080   5.569   3.046   9.023
22352SOL    HW267081   5.486   3.181   9.060
22353SOL     OW67082   4.788   3.209   8.788
22353SOL    HW167083   4.708   3.186   8.843
22353SOL    HW267084   4.871   3.183   8.837
22354SOL     OW67085   5.316   3.491   9.073
22354SOL    HW167086   5.343   3.525   8.983
22354SOL    HW267087   5.395   3.453   9.119
22355SOL     OW67088   4.835   3.057   8.548
22355SOL    HW167089   4.795   3.101   8.629
22355SOL    HW267090   4.794   3.094   8.465
22356SOL     OW67091   5.362   2.961   8.527
22356SOL    HW167092   5.367   3.042   8.586
22356SOL    HW267093   5.276   2.963   8.476
22357SOL     OW67094   4.639   1.951   8.850
22357SOL    HW167095   4.664   1.931   8.755
22357SOL    HW267096   4.711   2.007   8.892
22358SOL     OW67097   4.704   2.978   9.167
22358SOL    HW167098   4.605   2.984   9.177
22358SOL    HW267099   4.727   2.898   9.111
22359SOL     OW67100   4.429   2.912   7.816
22359SOL    HW167101   4.415   2.919   7.915
22359SOL    HW267102   4.513   2.861   7.798
22360SOL     OW67103   4.134   2.675   8.699
22360SOL    HW167104   4.220   2.687   8.749
22360SOL    HW267105   4.092   2.588   8.726
22361SOL     OW67106   4.998   2.248   8.710
22361SOL    HW167107   5.019   2.322   8.774
22361SOL    HW267108   4.909   2.265   8.667
22362SOL     OW67109   3.788   3.426   8.779
22362SOL    HW167110   3.742   3.508   8.745
22362SOL    HW267111   3.886   3.445   8.788
22363SOL     OW67112   4.091   2.962   7.949
22363SOL    HW167113   4.084   3.045   7.893
22363SOL    HW267114   4.095   2.882   7.889
22364SOL     OW67115   4.290   2.399   8.313
22364SOL    HW167116   4.302   2.465   8.239
22364SOL    HW267117   4.336   2.433   8.396
22365SOL     OW67118   4.976   3.210   7.836
22365SOL    HW167119   5.026   3.287   7.876
22365SOL    HW267120   4.881   3.212   7.868
22366SOL     OW67121   4.996   3.307   8.590
22366SOL    HW167122   5.043   3.320   8.677
22366SOL    HW267123   4.930   3.233   8.599
22367SOL     OW67124   5.306   2.501   7.920
22367SOL    HW167125   5.275   2.562   7.993
22367SOL    HW267126   5.356   2.553   7.851
22368SOL     OW67127   4.078   3.372   8.777
22368SOL    HW167128   4.057   3.328   8.690
22368SOL    HW267129   4.175   3.398   8.780
22369SOL     OW67130   4.126   2.613   9.046
22369SOL    HW167131   4.194   2.668   8.999
22369SOL    HW267132   4.166   2.525   9.073
22370SOL     OW67133   5.311   2.641   9.118
22370SOL    HW167134   5.219   2.679   9.113
22370SOL    HW267135   5.371   2.688   9.053
22371SOL     OW67136   4.737   1.967   9.218
22371SOL    HW167137   4.743   2.052   9.166
22371SOL    HW267138   4.769   1.891   9.161
22372SOL     OW67139   4.228   1.912   9.188
22372SOL    HW167140   4.186   1.855   9.118
22372SOL    HW267141   4.162   1.981   9.220
22373SOL     OW67142   4.297   2.732   8.477
22373SOL    HW167143   4.341   2.821   8.468
22373SOL    HW267144   4.234   2.732   8.554
22374SOL     OW67145   5.084   2.724   8.493
22374SOL    HW167146   5.009   2.724   8.427
22374SOL    HW267147   5.121   2.632   8.502
22375SOL     OW67148   4.933   2.387   7.723
22375SOL    HW167149   4.946   2.303   7.777
22375SOL    HW267150   4.904   2.461   7.783
22376SOL     OW67151   4.031   2.075   8.679
22376SOL    HW167152   4.008   2.112   8.769
22376SOL    HW267153   4.001   1.980   8.673
22377SOL     OW67154   3.761   3.172   8.730
22377SOL    HW167155   3.814   3.123   8.798
22377SOL    HW267156   3.783   3.270   8.735
22378SOL     OW67157   4.456   2.496   8.512
22378SOL    HW167158   4.515   2.470   8.436
22378SOL    HW267159   4.428   2.592   8.501
22379SOL     OW67160   5.452   2.797   9.302
22379SOL    HW167161   5.406   2.790   9.213
22379SOL    HW267162   5.390   2.841   9.368
22380SOL     OW67163   4.031   1.925   8.066
22380SOL    HW167164   4.020   2.019   8.099
22380SOL    HW267165   4.026   1.862   8.143
22381SOL     OW67166   5.346   2.229   7.822
22381SOL    HW167167   5.348   2.153   7.886
22381SOL    HW267168   5.298   2.306   7.862
22382SOL     OW67169   4.747   2.628   8.414
22382SOL    HW167170   4.762   2.649   8.510
22382SOL    HW267171   4.717   2.533   8.405
22383SOL     OW67172   4.704   3.435   9.148
22383SOL    HW167173   4.684   3.479   9.060
22383SOL    HW267174   4.743   3.344   9.132
22384SOL     OW67175   5.583   3.380   9.053
22384SOL    HW167176   5.597   3.407   8.958
22384SOL    HW267177   5.666   3.402   9.106
22385SOL     OW67178   4.074   2.760   9.252
22385SOL    HW167179   4.150   2.804   9.300
22385SOL    HW267180   4.109   2.713   9.170
22386SOL     OW67181   5.264   2.136   7.573
22386SOL    HW167182   5.203   2.061   7.596
22386SOL    HW267183   5.286   2.188   7.656
22387SOL     OW67184   5.027   2.700   7.490
22387SOL    HW167185   5.061   2.607   7.505
22387SOL    HW267186   5.045   2.727   7.395
22388SOL     OW67187   4.792   3.195   8.297
22388SOL    HW167188   4.799   3.111   8.242
22388SOL    HW267189   4.854   3.264   8.261
22389SOL     OW67190   4.043   2.672   8.397
22389SOL    HW167191   4.136   2.708   8.402
22389SOL    HW267192   4.037   2.587   8.449
22390SOL     OW67193   4.063   2.371   8.454
22390SOL    HW167194   4.011   2.288   8.437
22390SOL    HW267195   4.140   2.376   8.390
22391SOL     OW67196   4.862   2.242   9.126
22391SOL    HW167197   4.817   2.305   9.190
22391SOL    HW267198   4.955   2.273   9.109
22392SOL     OW67199   4.884   2.069   8.925
22392SOL    HW167200   4.884   2.133   9.002
22392SOL    HW267201   4.912   2.117   8.842
22393SOL     OW67202   3.732   3.188   7.648
22393SOL    HW167203   3.639   3.209   7.617
22393SOL    HW267204   3.742   3.089   7.661
22394SOL     OW67205   3.812   3.663   8.375
22394SOL    HW167206   3.770   3.577   8.348
22394SOL    HW267207   3.906   3.666   8.341
22395SOL     OW67208   4.228   3.430   8.358
22395SOL    HW167209   4.294   3.504   8.367
22395SOL    HW267210   4.272   3.351   8.316
22396SOL     OW67211   4.726   2.658   8.686
22396SOL    HW167212   4.767   2.626   8.772
22396SOL    HW267213   4.630   2.631   8.683
22397SOL     OW67214   3.764   2.406   8.562
22397SOL    HW167215   3.849   2.373   8.521
22397SOL    HW267216   3.777   2.421   8.660
22398SOL     OW67217   3.913   2.382   9.170
22398SOL    HW167218   3.972   2.342   9.100
22398SOL    HW267219   3.855   2.453   9.129
22399SOL     OW67220   5.093   2.812   9.108
22399SOL    HW167221   5.132   2.901   9.128
22399SOL    HW267222   5.103   2.792   9.011
22400SOL     OW67223   5.381   2.466   8.654
22400SOL    HW167224   5.343   2.397   8.716
22400SOL    HW267225   5.463   2.430   8.610
22401SOL     OW67226   3.976   3.426   9.192
22401SOL    HW167227   3.946   3.483   9.268
22401SOL    HW267228   3.969   3.329   9.218
22402SOL     OW67229   4.395   2.326   8.717
22402SOL    HW167230   4.361   2.237   8.687
22402SOL    HW267231   4.421   2.380   8.637
22403SOL     OW67232   4.654   3.540   8.913
22403SOL    HW167233   4.630   3.522   8.818
22403SOL    HW267234   4.684   3.634   8.923
22404SOL     OW67235   4.197   2.362   7.639
22404SOL    HW167236   4.258   2.442   7.643
22404SOL    HW267237   4.102   2.393   7.646
22405SOL     OW67238   3.883   2.999   8.914
22405SOL    HW167239   3.905   2.938   8.990
22405SOL    HW267240   3.893   2.950   8.828
22406SOL     OW67241   5.071   2.921   8.682
22406SOL    HW167242   5.095   2.858   8.608
22406SOL    HW267243   4.981   2.961   8.664
22407SOL     OW67244   5.026   2.717   7.757
22407SOL    HW167245   4.940   2.686   7.799
22407SOL    HW267246   5.022   2.703   7.658
22408SOL     OW67247   5.483   3.609   8.602
22408SOL    HW167248   5.544   3.639   8.529
22408SOL    HW267249   5.445   3.520   8.580
22409SOL     OW67250   4.976   3.593   8.576
22409SOL    HW167251   5.060   3.598   8.522
22409SOL    HW267252   4.953   3.497   8.594
22410SOL     OW67253   3.807   3.120   8.470
22410SOL    HW167254   3.802   3.119   8.570
22410SOL    HW267255   3.724   3.079   8.432
22411SOL     OW67256   4.412   3.524   9.164
22411SOL    HW167257   4.356   3.605   9.173
22411SOL    HW267258   4.464   3.528   9.078
22412SOL     OW67259   5.450   1.997   7.971
22412SOL    HW167260   5.523   1.980   7.904
22412SOL    HW267261   5.419   1.910   8.009
22413SOL     OW67262   5.112   3.435   7.925
22413SOL    HW167263   5.179   3.447   7.851
22413SOL    HW267264   5.072   3.524   7.948
22414SOL     OW67265   3.854   3.656   9.299
22414SOL    HW167266   3.813   3.582   9.352
22414SOL    HW267267   3.918   3.707   9.357
22415SOL     OW67268   5.004   2.789   8.120
22415SOL    HW167269   5.064   2.708   8.122
22415SOL    HW267270   5.044   2.858   8.060
22416SOL     OW67271   4.554   3.135   8.870
22416SOL    HW167272   4.549   3.168   8.965
22416SOL    HW267273   4.468   3.154   8.824
22417SOL     OW67274   4.396   3.478   7.602
22417SOL    HW167275   4.405   3.488   7.503
22417SOL    HW267276   4.356   3.389   7.623
22418SOL     OW67277   5.374   3.582   8.842
22418SOL    HW167278   5.427   3.592   8.758
22418SOL    HW267279   5.347   3.672   8.876
22419SOL     OW67280   5.565   2.037   8.411
22419SOL    HW167281   5.604   1.952   8.375
22419SOL    HW267282   5.467   2.039   8.392
22420SOL     OW67283   3.987   2.188   8.168
22420SOL    HW167284   3.908   2.239   8.134
22420SOL    HW267285   3.978   2.173   8.266
22421SOL     OW67286   4.918   3.474   7.479
22421SOL    HW167287   4.924   3.381   7.516
22421SOL    HW267288   4.859   3.474   7.399
22422SOL     OW67289   4.546   2.864   8.820
22422SOL    HW167290   4.586   2.863   8.728
22422SOL    HW267291   4.556   2.956   8.860
22423SOL     OW67292   4.640   2.772   7.739
22423SOL    HW167293   4.703   2.810   7.671
22423SOL    HW267294   4.680   2.689   7.778
22424SOL     OW67295   5.228   3.469   7.492
22424SOL    HW167296   5.136   3.506   7.499
22424SOL    HW267297   5.266   3.489   7.402
22425SOL     OW67298   4.096   3.150   8.938
22425SOL    HW167299   4.083   3.243   8.904
22425SOL    HW267300   4.012   3.098   8.925
22426SOL     OW67301   5.338   3.154   8.737
22426SOL    HW167302   5.398   3.157   8.817
22426SOL    HW267303   5.263   3.218   8.750
22427SOL     OW67304   4.763   2.960   8.144
22427SOL    HW167305   4.693   2.913   8.198
22427SOL    HW267306   4.822   2.892   8.101
22428SOL     OW67307   4.738   2.098   8.419
22428SOL    HW167308   4.730   2.062   8.326
22428SOL    HW267309   4.736   2.022   8.484
22429SOL     OW67310   4.314   3.349   7.939
22429SOL    HW167311   4.356   3.291   7.869
22429SOL    HW267312   4.270   3.428   7.895
22430SOL     OW67313   5.433   2.247   8.829
22430SOL    HW167314   5.506   2.316   8.833
22430SOL    HW267315   5.461   2.172   8.770
22431SOL     OW67316   3.979   3.210   7.738
22431SOL    HW167317   3.883   3.211   7.711
22431SOL    HW267318   3.991   3.263   7.822
22432SOL     OW67319   3.829   2.875   9.174
22432SOL    HW167320   3.752   2.842   9.228
22432SOL    HW267321   3.914   2.845   9.216
22433SOL     OW67322   4.396   2.065   8.937
22433SOL    HW167323   4.486   2.049   8.897
22433SOL    HW267324   4.404   2.070   9.036
22434SOL     OW67325   3.799   2.207   7.481
22434SOL    HW167326   3.707   2.179   7.452
22434SOL    HW267327   3.830   2.284   7.425
22435SOL     OW67328   5.164   2.718   8.846
22435SOL    HW167329   5.107   2.770   8.783
22435SOL    HW267330   5.260   2.730   8.822
22436SOL     OW67331   3.796   2.028   7.766
22436SOL    HW167332   3.779   2.111   7.712
22436SOL    HW267333   3.886   1.991   7.744
22437SOL     OW67334   4.907   3.197   7.567
22437SOL    HW167335   4.808   3.186   7.569
22437SOL    HW267336   4.941   3.212   7.660
22438SOL     OW67337   4.337   2.704   8.879
22438SOL    HW167338   4.393   2.785   8.862
22438SOL    HW267339   4.396   2.624   8.882
22439SOL     OW67340   5.217   3.629   8.407
22439SOL    HW167341   5.250   3.693   8.338
22439SOL    HW267342   5.283   3.623   8.482
22440SOL     OW67343   4.440   2.427   9.156
22440SOL    HW167344   4.459   2.492   9.230
22440SOL    HW267345   4.500   2.347   9.165
22441SOL     OW67346   5.174   3.082   9.081
22441SOL    HW167347   5.165   3.072   9.180
22441SOL    HW267348   5.270   3.075   9.055
22442SOL     OW67349   4.114   3.603   9.008
22442SOL    HW167350   4.023   3.644   9.006
22442SOL    HW267351   4.107   3.509   9.040
22443SOL     OW67352   5.398   2.745   8.702
22443SOL    HW167353   5.371   2.656   8.665
22443SOL    HW267354   5.399   2.813   8.629
22444SOL     OW67355   4.949   2.187   7.897
22444SOL    HW167356   5.014   2.113   7.886
22444SOL    HW267357   4.969   2.237   7.981
22445SOL     OW67358   4.318   2.607   8.100
22445SOL    HW167359   4.368   2.692   8.081
22445SOL    HW267360   4.230   2.609   8.052
22446SOL     OW67361   5.501   2.204   9.090
22446SOL    HW167362   5.484   2.235   8.996
22446SOL    HW267363   5.417   2.167   9.128
22447SOL     OW67364   5.454   2.796   8.965
22447SOL    HW167365   5.492   2.887   8.980
22447SOL    HW267366   5.446   2.779   8.866
22448SOL     OW67367   4.583   3.236   7.464
22448SOL    HW167368   4.537   3.251   7.552
22448SOL    HW267369   4.627   3.321   7.434
22449SOL     OW67370   4.385   3.652   8.401
22449SOL    HW167371   4.339   3.740   8.388
22449SOL    HW267372   4.484   3.664   8.394
22450SOL     OW67373   4.583   2.818   8.309
22450SOL    HW167374   4.637   2.749   8.357
22450SOL    HW267375   4.551   2.887   8.375
22451SOL     OW67376   4.807   2.846   7.535
22451SOL    HW167377   4.784   2.899   7.453
22451SOL    HW267378   4.888   2.790   7.516
22452SOL     OW67379   5.585   3.431   8.299
22452SOL    HW167380   5.514   3.419   8.229
22452SOL    HW267381   5.586   3.352   8.359
22453SOL     OW67382   3.945   3.176   9.292
22453SOL    HW167383   3.880   3.103   9.271
22453SOL    HW267384   3.949   3.190   9.390
22454SOL     OW67385   3.803   3.102   8.101
22454SOL    HW167386   3.802   3.055   8.189
22454SOL    HW267387   3.885   3.074   8.050
22455SOL     OW67388   4.396   3.253   9.072
22455SOL    HW167389   4.318   3.203   9.110
22455SOL    HW267390   4.393   3.348   9.103
22456SOL     OW67391   5.548   2.054   8.675
22456SOL    HW167392   5.544   1.964   8.719
22456SOL    HW267393   5.551   2.043   8.576
22457SOL     OW67394   4.152   2.286   7.968
22457SOL    HW167395   4.182   2.214   7.906
22457SOL    HW267396   4.113   2.246   8.051
22458SOL     OW67397   5.429   3.349   8.552
22458SOL    HW167398   5.336   3.324   8.525
22458SOL    HW267399   5.455   3.299   8.634
22459SOL     OW67400   4.041   2.409   8.728
22459SOL    HW167401   4.079   2.350   8.800
22459SOL    HW267402   4.081   2.383   8.640
22460SOL     OW67403   4.536   3.448   8.135
22460SOL    HW167404   4.568   3.458   8.041
22460SOL    HW267405   4.457   3.386   8.137
22461SOL     OW67406   5.148   2.076   8.560
22461SOL    HW167407   5.200   2.011   8.615
22461SOL    HW267408   5.099   2.139   8.621
22462SOL     OW67409   4.725   1.896   8.602
22462SOL    HW167410   4.662   1.824   8.571
22462SOL    HW267411   4.818   1.860   8.602
22463SOL     OW67412   4.494   3.192   7.749
22463SOL    HW167413   4.448   3.105   7.766
22463SOL    HW267414   4.585   3.189   7.790
22464SOL     OW67415   4.342   3.429   8.732
22464SOL    HW167416   4.337   3.511   8.789
22464SOL    HW267417   4.431   3.426   8.687
22465SOL     OW67418   5.076   1.914   7.616
22465SOL    HW167419   5.111   1.873   7.532
22465SOL    HW267420   4.986   1.876   7.636
22466SOL     OW67421   5.024   2.315   8.139
22466SOL    HW167422   4.965   2.395   8.143
22466SOL    HW267423   5.039   2.280   8.232
22467SOL     OW67424   5.317   2.083   8.330
22467SOL    HW167425   5.233   2.082   8.384
22467SOL    HW267426   5.319   2.166   8.274
22468SOL     OW67427   3.763   2.939   7.748
22468SOL    HW167428   3.862   2.928   7.739
22468SOL    HW267429   3.723   2.853   7.780
22469SOL     OW67430   4.599   3.508   7.785
22469SOL    HW167431   4.522   3.473   7.731
22469SOL    HW267432   4.567   3.579   7.847
22470SOL     OW67433   3.954   2.490   9.423
22470SOL    HW167434   3.861   2.488   9.460
22470SOL    HW267435   3.955   2.451   9.331
22471SOL     OW67436   3.949   2.137  10.306
22471SOL    HW167437   3.984   2.120  10.398
22471SOL    HW267438   3.861   2.092  10.294
22472SOL     OW67439   3.743   2.230   9.957
22472SOL    HW167440   3.661   2.273   9.996
22472SOL    HW267441   3.715   2.157   9.894
22473SOL     OW67442   4.293   3.137  10.475
22473SOL    HW167443   4.200   3.130  10.438
22473SOL    HW267444   4.304   3.226  10.519
22474SOL     OW67445   5.279   3.373  10.013
22474SOL    HW167446   5.222   3.357  10.094
22474SOL    HW267447   5.220   3.383   9.933
22475SOL     OW67448   4.859   2.565  10.027
22475SOL    HW167449   4.916   2.643  10.002
22475SOL    HW267450   4.799   2.591  10.103
22476SOL     OW67451   5.479   2.469   9.541
22476SOL    HW167452   5.467   2.456   9.442
22476SOL    HW267453   5.449   2.388   9.590
22477SOL     OW67454   4.492   3.006  10.333
22477SOL    HW167455   4.414   3.023  10.393
22477SOL    HW267456   4.526   3.093  10.297
22478SOL     OW67457   4.574   2.660  11.133
22478SOL    HW167458   4.570   2.736  11.198
22478SOL    HW267459   4.596   2.696  11.042
22479SOL     OW67460   4.409   2.874   9.975
22479SOL    HW167461   4.478   2.858  10.045
22479SOL    HW267462   4.336   2.931  10.013
22480SOL     OW67463   4.410   3.023  11.113
22480SOL    HW167464   4.470   3.102  11.127
22480SOL    HW267465   4.324   3.054  11.072
22481SOL     OW67466   4.059   3.297  10.371
22481SOL    HW167467   3.981   3.266  10.318
22481SOL    HW267468   4.117   3.355  10.314
22482SOL     OW67469   5.184   3.367  10.649
22482SOL    HW167470   5.208   3.461  10.675
22482SOL    HW267471   5.168   3.313  10.731
22483SOL     OW67472   4.162   2.254  10.809
22483SOL    HW167473   4.244   2.198  10.818
22483SOL    HW267474   4.081   2.196  10.813
22484SOL     OW67475   5.327   2.309  10.047
22484SOL    HW167476   5.253   2.355   9.997
22484SOL    HW267477   5.378   2.377  10.100
22485SOL     OW67478   3.955   3.575   9.793
22485SOL    HW167479   3.989   3.652   9.847
22485SOL    HW267480   3.999   3.575   9.703
22486SOL     OW67481   4.851   3.203  11.000
22486SOL    HW167482   4.898   3.203  11.088
22486SOL    HW267483   4.803   3.116  10.989
22487SOL     OW67484   3.954   3.296   9.848
22487SOL    HW167485   3.928   3.392   9.848
22487SOL    HW267486   3.883   3.242   9.893
22488SOL     OW67487   3.964   2.953  10.196
22488SOL    HW167488   3.978   2.869  10.248
22488SOL    HW267489   3.909   3.017  10.251
22489SOL     OW67490   4.344   3.648  10.749
22489SOL    HW167491   4.252   3.631  10.784
22489SOL    HW267492   4.372   3.740  10.775
22490SOL     OW67493   4.330   2.826   9.433
22490SOL    HW167494   4.337   2.910   9.379
22490SOL    HW267495   4.376   2.839   9.521
22491SOL     OW67496   5.318   1.976  10.790
22491SOL    HW167497   5.300   2.043  10.718
22491SOL    HW267498   5.315   2.022  10.879
22492SOL     OW67499   3.846   2.505   9.873
22492SOL    HW167500   3.801   2.417   9.890
22492SOL    HW267501   3.845   2.559   9.957
22493SOL     OW67502   5.566   3.629   9.669
22493SOL    HW167503   5.620   3.600   9.749
22493SOL    HW267504   5.596   3.719   9.640
22494SOL     OW67505   3.751   3.458   9.427
22494SOL    HW167506   3.732   3.362   9.448
22494SOL    HW267507   3.718   3.516   9.502
22495SOL     OW67508   5.413   2.784   9.922
22495SOL    HW167509   5.508   2.755   9.930
22495SOL    HW267510   5.405   2.849   9.847
22496SOL     OW67511   5.365   2.970   9.742
22496SOL    HW167512   5.451   2.972   9.690
22496SOL    HW267513   5.379   3.017   9.830
22497SOL     OW67514   3.837   2.599  10.907
22497SOL    HW167515   3.925   2.586  10.952
22497SOL    HW267516   3.824   2.696  10.885
22498SOL     OW67517   4.337   3.227  10.036
22498SOL    HW167518   4.288   3.140  10.045
22498SOL    HW267519   4.314   3.270   9.949
22499SOL     OW67520   5.017   3.090  10.733
22499SOL    HW167521   5.054   3.017  10.675
22499SOL    HW267522   5.069   3.095  10.818
22500SOL     OW67523   4.533   1.866   9.812
22500SOL    HW167524   4.573   1.957   9.803
22500SOL    HW267525   4.433   1.874   9.818
22501SOL     OW67526   3.921   2.838  10.574
22501SOL    HW167527   4.010   2.793  10.560
22501SOL    HW267528   3.848   2.773  10.555
22502SOL     OW67529   5.249   2.861   9.500
22502SOL    HW167530   5.186   2.785   9.513
22502SOL    HW267531   5.297   2.879   9.586
22503SOL     OW67532   4.911   3.654  10.926
22503SOL    HW167533   4.935   3.714  10.850
22503SOL    HW267534   4.918   3.559  10.896
22504SOL     OW67535   4.041   2.113  11.111
22504SOL    HW167536   4.112   2.184  11.117
22504SOL    HW267537   3.953   2.152  11.139
22505SOL     OW67538   5.190   3.279  10.263
22505SOL    HW167539   5.131   3.285  10.343
22505SOL    HW267540   5.175   3.191  10.217
22506SOL     OW67541   5.391   3.576   9.882
22506SOL    HW167542   5.350   3.553   9.794
22506SOL    HW267543   5.373   3.502   9.947
22507SOL     OW67544   4.322   2.591   9.580
22507SOL    HW167545   4.346   2.660   9.512
22507SOL    HW267546   4.244   2.624   9.634
22508SOL     OW67547   5.005   2.207  10.254
22508SOL    HW167548   4.919   2.157  10.241
22508SOL    HW267549   5.067   2.153  10.310
22509SOL     OW67550   5.300   3.524   9.617
22509SOL    HW167551   5.389   3.570   9.620
22509SOL    HW267552   5.279   3.500   9.522
22510SOL     OW67553   4.531   2.467  10.775
22510SOL    HW167554   4.484   2.464  10.864
22510SOL    HW267555   4.480   2.412  10.709
22511SOL     OW67556   5.118   2.331  10.984
22511SOL    HW167557   5.098   2.374  11.072
22511SOL    HW267558   5.196   2.269  10.993
22512SOL     OW67559   4.697   2.752  10.882
22512SOL    HW167560   4.743   2.668  10.853
22512SOL    HW267561   4.641   2.786  10.807
22513SOL     OW67562   4.715   2.272  10.552
22513SOL    HW167563   4.638   2.306  10.606
22513SOL    HW267564   4.681   2.221  10.473
22514SOL     OW67565   4.765   2.563   9.739
22514SOL    HW167566   4.791   2.559   9.835
22514SOL    HW267567   4.680   2.512   9.725
22515SOL     OW67568   3.800   2.673  10.099
22515SOL    HW167569   3.899   2.661  10.108
22515SOL    HW267570   3.776   2.768  10.120
22516SOL     OW67571   3.854   3.683  10.881
22516SOL    HW167572   3.844   3.668  10.980
22516SOL    HW267573   3.768   3.719  10.845
22517SOL     OW67574   4.589   2.210   9.505
22517SOL    HW167575   4.648   2.273   9.456
22517SOL    HW267576   4.608   2.116   9.476
22518SOL     OW67577   5.443   2.447  11.141
22518SOL    HW167578   5.417   2.536  11.105
22518SOL    HW267579   5.441   2.379  11.068
22519SOL     OW67580   5.086   3.006   9.855
22519SOL    HW167581   5.169   2.977   9.807
22519SOL    HW267582   5.037   3.073   9.799
22520SOL     OW67583   4.274   2.058  10.195
22520SOL    HW167584   4.269   2.053  10.295
22520SOL    HW267585   4.276   2.154  10.166
22521SOL     OW67586   4.732   3.318   9.787
22521SOL    HW167587   4.686   3.390   9.735
22521SOL    HW267588   4.728   3.338   9.885
22522SOL     OW67589   4.075   3.663  10.163
22522SOL    HW167590   4.125   3.577  10.169
22522SOL    HW267591   4.140   3.740  10.160
22523SOL     OW67592   5.519   2.928  10.183
22523SOL    HW167593   5.457   2.913  10.107
22523SOL    HW267594   5.467   2.939  10.268
22524SOL     OW67595   4.951   3.412  10.816
22524SOL    HW167596   4.957   3.335  10.880
22524SOL    HW267597   4.899   3.386  10.736
22525SOL     OW67598   4.045   2.805   9.552
22525SOL    HW167599   4.127   2.844   9.510
22525SOL    HW267600   4.018   2.723   9.503
22526SOL     OW67601   5.182   2.597  10.038
22526SOL    HW167602   5.177   2.532  10.113
22526SOL    HW267603   5.262   2.656  10.051
22527SOL     OW67604   4.185   3.128  11.037
22527SOL    HW167605   4.135   3.129  10.951
22527SOL    HW267606   4.122   3.110  11.113
22528SOL     OW67607   4.835   3.638   9.547
22528SOL    HW167608   4.775   3.576   9.597
22528SOL    HW267609   4.866   3.594   9.462
22529SOL     OW67610   3.926   2.147  10.808
22529SOL    HW167611   3.846   2.207  10.795
22529SOL    HW267612   3.916   2.098  10.894
22530SOL     OW67613   5.356   3.239   9.391
22530SOL    HW167614   5.324   3.333   9.381
22530SOL    HW267615   5.280   3.176   9.379
22531SOL     OW67616   4.188   3.605   9.633
22531SOL    HW167617   4.221   3.644   9.719
22531SOL    HW267618   4.264   3.598   9.568
22532SOL     OW67619   5.124   1.969   9.736
22532SOL    HW167620   5.100   1.932   9.646
22532SOL    HW267621   5.223   1.985   9.740
22533SOL     OW67622   3.973   3.647  10.551
22533SOL    HW167623   4.030   3.582  10.601
22533SOL    HW267624   3.957   3.614  10.458
22534SOL     OW67625   4.664   3.560  10.214
22534SOL    HW167626   4.744   3.503  10.235
22534SOL    HW267627   4.615   3.520  10.137
22535SOL     OW67628   4.106   2.562   9.790
22535SOL    HW167629   4.151   2.472   9.787
22535SOL    HW267630   4.012   2.551   9.823
22536SOL     OW67631   5.271   2.084  11.039
22536SOL    HW167632   5.266   2.121  11.131
22536SOL    HW267633   5.199   2.015  11.027
22537SOL     OW67634   4.338   1.984   9.427
22537SOL    HW167635   4.436   1.962   9.434
22537SOL    HW267636   4.307   1.967   9.334
22538SOL     OW67637   4.505   2.126  11.059
22538SOL    HW167638   4.572   2.065  11.102
22538SOL    HW267639   4.432   2.145  11.124
22539SOL     OW67640   4.612   3.376  10.505
22539SOL    HW167641   4.589   3.351  10.411
22539SOL    HW267642   4.673   3.307  10.544
22540SOL     OW67643   5.075   2.452  10.743
22540SOL    HW167644   5.103   2.409  10.828
22540SOL    HW267645   5.100   2.548  10.744
22541SOL     OW67646   4.527   3.264  10.234
22541SOL    HW167647   4.617   3.278  10.192
22541SOL    HW267648   4.456   3.266  10.163
22542SOL     OW67649   4.646   2.365  10.209
22542SOL    HW167650   4.621   2.356  10.113
22542SOL    HW267651   4.694   2.283  10.240
22543SOL     OW67652   4.263   1.926   9.822
22543SOL    HW167653   4.182   1.927   9.880
22543SOL    HW267654   4.266   2.009   9.767
22544SOL     OW67655   5.158   3.050   9.351
22544SOL    HW167656   5.190   2.974   9.408
22544SOL    HW267657   5.066   3.077   9.381
22545SOL     OW67658   4.021   1.897   9.481
22545SOL    HW167659   4.070   1.981   9.460
22545SOL    HW267660   4.083   1.832   9.526
22546SOL     OW67661   4.659   2.098   9.790
22546SOL    HW167662   4.611   2.139   9.712
22546SOL    HW267663   4.758   2.096   9.771
22547SOL     OW67664   4.800   2.545  10.774
22547SOL    HW167665   4.720   2.484  10.777
22547SOL    HW267666   4.881   2.492  10.750
22548SOL     OW67667   4.951   3.432  10.103
22548SOL    HW167668   4.972   3.506  10.038
22548SOL    HW267669   5.019   3.432  10.176
22549SOL     OW67670   4.183   3.014  10.051
22549SOL    HW167671   4.112   2.987  10.116
22549SOL    HW267672   4.157   2.986   9.958
22550SOL     OW67673   4.995   3.659   9.901
22550SOL    HW167674   5.039   3.723   9.837
22550SOL    HW267675   4.945   3.711   9.971
22551SOL     OW67676   4.756   2.411   9.326
22551SOL    HW167677   4.715   2.493   9.287
22551SOL    HW267678   4.820   2.437   9.399
22552SOL     OW67679   3.802   2.418  10.696
22552SOL    HW167680   3.894   2.417  10.655
22552SOL    HW267681   3.796   2.492  10.763
22553SOL     OW67682   4.285   2.084  10.457
22553SOL    HW167683   4.323   2.000  10.494
22553SOL    HW267684   4.197   2.103  10.501
22554SOL     OW67685   4.590   2.316   9.952
22554SOL    HW167686   4.558   2.388   9.890
22554SOL    HW267687   4.614   2.235   9.899
22555SOL     OW67688   4.741   1.901  10.063
22555SOL    HW167689   4.669   1.906   9.994
22555SOL    HW267690   4.717   1.832  10.132
22556SOL     OW67691   5.153   3.035  10.177
22556SOL    HW167692   5.098   2.951  10.170
22556SOL    HW267693   5.179   3.064  10.085
22557SOL     OW67694   5.190   2.452  10.302
22557SOL    HW167695   5.160   2.357  10.309
22557SOL    HW267696   5.263   2.468  10.368
22558SOL     OW67697   5.581   2.695   9.687
22558SOL    HW167698   5.623   2.631   9.751
22558SOL    HW267699   5.543   2.644   9.609
22559SOL     OW67700   4.212   3.247   9.484
22559SOL    HW167701   4.125   3.232   9.531
22559SOL    HW267702   4.195   3.273   9.389
22560SOL     OW67703   5.388   3.142   9.967
22560SOL    HW167704   5.487   3.150   9.981
22560SOL    HW267705   5.343   3.226   9.998
22561SOL     OW67706   5.114   2.437   9.388
22561SOL    HW167707   5.060   2.416   9.469
22561SOL    HW267708   5.205   2.396   9.397
22562SOL     OW67709   4.251   2.118   9.638
22562SOL    HW167710   4.278   2.059   9.563
22562SOL    HW267711   4.251   2.213   9.607
22563SOL     OW67712   5.478   3.085  10.898
22563SOL    HW167713   5.569   3.046  10.885
22563SOL    HW267714   5.486   3.181  10.922
22564SOL     OW67715   4.788   3.209  10.650
22564SOL    HW167716   4.708   3.186  10.705
22564SOL    HW267717   4.871   3.183  10.699
22565SOL     OW67718   5.316   3.491  10.935
22565SOL    HW167719   5.343   3.525  10.845
22565SOL    HW267720   5.395   3.453  10.981
22566SOL     OW67721   4.835   3.057  10.410
22566SOL    HW167722   4.795   3.101  10.491
22566SOL    HW267723   4.794   3.094  10.327
22567SOL     OW67724   5.362   2.961  10.389
22567SOL    HW167725   5.367   3.042  10.448
22567SOL    HW267726   5.276   2.963  10.338
22568SOL     OW67727   4.639   1.951  10.712
22568SOL    HW167728   4.664   1.931  10.617
22568SOL    HW267729   4.711   2.007  10.754
22569SOL     OW67730   4.704   2.978  11.029
22569SOL    HW167731   4.605   2.984  11.039
22569SOL    HW267732   4.727   2.898  10.973
22570SOL     OW67733   4.429   2.912   9.678
22570SOL    HW167734   4.415   2.919   9.777
22570SOL    HW267735   4.513   2.861   9.660
22571SOL     OW67736   4.134   2.675  10.561
22571SOL    HW167737   4.220   2.687  10.611
22571SOL    HW267738   4.092   2.588  10.588
22572SOL     OW67739   4.998   2.248  10.572
22572SOL    HW167740   5.019   2.322  10.636
22572SOL    HW267741   4.909   2.265  10.529
22573SOL     OW67742   3.788   3.426  10.641
22573SOL    HW167743   3.742   3.508  10.607
22573SOL    HW267744   3.886   3.445  10.650
22574SOL     OW67745   4.091   2.962   9.811
22574SOL    HW167746   4.084   3.045   9.755
22574SOL    HW267747   4.095   2.882   9.751
22575SOL     OW67748   4.290   2.399  10.175
22575SOL    HW167749   4.302   2.465  10.101
22575SOL    HW267750   4.336   2.433  10.258
22576SOL     OW67751   4.976   3.210   9.698
22576SOL    HW167752   5.026   3.287   9.738
22576SOL    HW267753   4.881   3.212   9.730
22577SOL     OW67754   4.996   3.307  10.452
22577SOL    HW167755   5.043   3.320  10.539
22577SOL    HW267756   4.930   3.233  10.461
22578SOL     OW67757   5.306   2.501   9.782
22578SOL    HW167758   5.275   2.562   9.855
22578SOL    HW267759   5.356   2.553   9.713
22579SOL     OW67760   4.078   3.372  10.639
22579SOL    HW167761   4.057   3.328  10.552
22579SOL    HW267762   4.175   3.398  10.642
22580SOL     OW67763   4.126   2.613  10.908
22580SOL    HW167764   4.194   2.668  10.861
22580SOL    HW267765   4.166   2.525  10.935
22581SOL     OW67766   5.311   2.641  10.980
22581SOL    HW167767   5.219   2.679  10.975
22581SOL    HW267768   5.371   2.688  10.915
22582SOL     OW67769   4.737   1.967  11.080
22582SOL    HW167770   4.743   2.052  11.028
22582SOL    HW267771   4.769   1.891  11.023
22583SOL     OW67772   4.228   1.912  11.050
22583SOL    HW167773   4.186   1.855  10.980
22583SOL    HW267774   4.162   1.981  11.082
22584SOL     OW67775   4.297   2.732  10.339
22584SOL    HW167776   4.341   2.821  10.330
22584SOL    HW267777   4.234   2.732  10.416
22585SOL     OW67778   5.084   2.724  10.355
22585SOL    HW167779   5.009   2.724  10.289
22585SOL    HW267780   5.121   2.632  10.364
22586SOL     OW67781   4.933   2.387   9.585
22586SOL    HW167782   4.946   2.303   9.639
22586SOL    HW267783   4.904   2.461   9.645
22587SOL     OW67784   4.031   2.075  10.541
22587SOL    HW167785   4.008   2.112  10.631
22587SOL    HW267786   4.001   1.980  10.535
22588SOL     OW67787   3.761   3.172  10.592
22588SOL    HW167788   3.814   3.123  10.660
22588SOL    HW267789   3.783   3.270  10.597
22589SOL     OW67790   4.456   2.496  10.374
22589SOL    HW167791   4.515   2.470  10.298
22589SOL    HW267792   4.428   2.592  10.363
22590SOL     OW67793   5.452   2.797  11.164
22590SOL    HW167794   5.406   2.790  11.075
22590SOL    HW267795   5.390   2.841  11.230
22591SOL     OW67796   4.031   1.925   9.928
22591SOL    HW167797   4.020   2.019   9.961
22591SOL    HW267798   4.026   1.862  10.005
22592SOL     OW67799   5.346   2.229   9.684
22592SOL    HW167800   5.348   2.153   9.748
22592SOL    HW267801   5.298   2.306   9.724
22593SOL     OW67802   4.747   2.628  10.276
22593SOL    HW167803   4.762   2.649  10.372
22593SOL    HW267804   4.717   2.533  10.267
22594SOL     OW67805   4.704   3.435  11.010
22594SOL    HW167806   4.684   3.479  10.922
22594SOL    HW267807   4.743   3.344  10.994
22595SOL     OW67808   5.583   3.380  10.915
22595SOL    HW167809   5.597   3.407  10.820
22595SOL    HW267810   5.666   3.402  10.968
22596SOL     OW67811   4.074   2.760  11.114
22596SOL    HW167812   4.150   2.804  11.162
22596SOL    HW267813   4.109   2.713  11.032
22597SOL     OW67814   5.264   2.136   9.435
22597SOL    HW167815   5.203   2.061   9.458
22597SOL    HW267816   5.286   2.188   9.518
22598SOL     OW67817   5.027   2.700   9.352
22598SOL    HW167818   5.061   2.607   9.367
22598SOL    HW267819   5.045   2.727   9.257
22599SOL     OW67820   4.792   3.195  10.159
22599SOL    HW167821   4.799   3.111  10.104
22599SOL    HW267822   4.854   3.264  10.123
22600SOL     OW67823   4.043   2.672  10.259
22600SOL    HW167824   4.136   2.708  10.264
22600SOL    HW267825   4.037   2.587  10.311
22601SOL     OW67826   4.063   2.371  10.316
22601SOL    HW167827   4.011   2.288  10.299
22601SOL    HW267828   4.140   2.376  10.252
22602SOL     OW67829   4.862   2.242  10.988
22602SOL    HW167830   4.817   2.305  11.052
22602SOL    HW267831   4.955   2.273  10.971
22603SOL     OW67832   4.884   2.069  10.787
22603SOL    HW167833   4.884   2.133  10.864
22603SOL    HW267834   4.912   2.117  10.704
22604SOL     OW67835   3.732   3.188   9.510
22604SOL    HW167836   3.639   3.209   9.479
22604SOL    HW267837   3.742   3.089   9.523
22605SOL     OW67838   3.812   3.663  10.237
22605SOL    HW167839   3.770   3.577  10.210
22605SOL    HW267840   3.906   3.666  10.203
22606SOL     OW67841   4.228   3.430  10.220
22606SOL    HW167842   4.294   3.504  10.229
22606SOL    HW267843   4.272   3.351  10.178
22607SOL     OW67844   4.726   2.658  10.548
22607SOL    HW167845   4.767   2.626  10.634
22607SOL    HW267846   4.630   2.631  10.545
22608SOL     OW67847   3.764   2.406  10.424
22608SOL    HW167848   3.849   2.373  10.383
22608SOL    HW267849   3.777   2.421  10.522
22609SOL     OW67850   3.913   2.382  11.032
22609SOL    HW167851   3.972   2.342  10.962
22609SOL    HW267852   3.855   2.453  10.991
22610SOL     OW67853   5.093   2.812  10.970
22610SOL    HW167854   5.132   2.901  10.990
22610SOL    HW267855   5.103   2.792  10.873
22611SOL     OW67856   4.539   2.434   9.635
22611SOL    HW167857   4.546   2.345   9.589
22611SOL    HW267858   4.445   2.468   9.627
22612SOL     OW67859   5.381   2.466  10.516
22612SOL    HW167860   5.343   2.397  10.578
22612SOL    HW267861   5.463   2.430  10.472
22613SOL     OW67862   3.976   3.426  11.054
22613SOL    HW167863   3.946   3.483  11.130
22613SOL    HW267864   3.969   3.329  11.080
22614SOL     OW67865   4.395   2.326  10.579
22614SOL    HW167866   4.361   2.237  10.549
22614SOL    HW267867   4.421   2.380  10.499
22615SOL     OW67868   4.654   3.540  10.775
22615SOL    HW167869   4.630   3.522  10.680
22615SOL    HW267870   4.684   3.634  10.785
22616SOL     OW67871   4.197   2.362   9.501
22616SOL    HW167872   4.258   2.442   9.505
22616SOL    HW267873   4.102   2.393   9.508
22617SOL     OW67874   3.883   2.999  10.776
22617SOL    HW167875   3.905   2.938  10.852
22617SOL    HW267876   3.893   2.950  10.690
22618SOL     OW67877   5.071   2.921  10.544
22618SOL    HW167878   5.095   2.858  10.470
22618SOL    HW267879   4.981   2.961  10.526
22619SOL     OW67880   5.026   2.717   9.619
22619SOL    HW167881   4.940   2.686   9.661
22619SOL    HW267882   5.022   2.703   9.520
22620SOL     OW67883   5.483   3.609  10.464
22620SOL    HW167884   5.544   3.639  10.391
22620SOL    HW267885   5.445   3.520  10.442
22621SOL     OW67886   4.976   3.593  10.438
22621SOL    HW167887   5.060   3.598  10.384
22621SOL    HW267888   4.953   3.497  10.456
22622SOL     OW67889   3.807   3.120  10.332
22622SOL    HW167890   3.802   3.119  10.432
22622SOL    HW267891   3.724   3.079  10.294
22623SOL     OW67892   4.412   3.524  11.026
22623SOL    HW167893   4.356   3.605  11.035
22623SOL    HW267894   4.464   3.528  10.940
22624SOL     OW67895   5.450   1.997   9.833
22624SOL    HW167896   5.523   1.980   9.766
22624SOL    HW267897   5.419   1.910   9.871
22625SOL     OW67898   5.112   3.435   9.787
22625SOL    HW167899   5.179   3.447   9.713
22625SOL    HW267900   5.072   3.524   9.810
22626SOL     OW67901   3.854   3.656  11.161
22626SOL    HW167902   3.813   3.582  11.214
22626SOL    HW267903   3.918   3.707  11.219
22627SOL     OW67904   5.004   2.789   9.982
22627SOL    HW167905   5.064   2.708   9.984
22627SOL    HW267906   5.044   2.858   9.922
22628SOL     OW67907   4.554   3.135  10.732
22628SOL    HW167908   4.549   3.168  10.827
22628SOL    HW267909   4.468   3.154  10.686
22629SOL     OW67910   4.396   3.478   9.464
22629SOL    HW167911   4.405   3.488   9.365
22629SOL    HW267912   4.356   3.389   9.485
22630SOL     OW67913   5.374   3.582  10.704
22630SOL    HW167914   5.427   3.592  10.620
22630SOL    HW267915   5.347   3.672  10.738
22631SOL     OW67916   5.565   2.037  10.273
22631SOL    HW167917   5.604   1.952  10.237
22631SOL    HW267918   5.467   2.039  10.254
22632SOL     OW67919   3.987   2.188  10.030
22632SOL    HW167920   3.908   2.239   9.996
22632SOL    HW267921   3.978   2.173  10.128
22633SOL     OW67922   4.918   3.474   9.341
22633SOL    HW167923   4.924   3.381   9.378
22633SOL    HW267924   4.859   3.474   9.261
22634SOL     OW67925   4.546   2.864  10.682
22634SOL    HW167926   4.586   2.863  10.590
22634SOL    HW267927   4.556   2.956  10.722
22635SOL     OW67928   4.640   2.772   9.601
22635SOL    HW167929   4.703   2.810   9.533
22635SOL    HW267930   4.680   2.689   9.640
22636SOL     OW67931   5.228   3.469   9.354
22636SOL    HW167932   5.136   3.506   9.361
22636SOL    HW267933   5.266   3.489   9.264
22637SOL     OW67934   4.096   3.150  10.800
22637SOL    HW167935   4.083   3.243  10.766
22637SOL    HW267936   4.012   3.098  10.787
22638SOL     OW67937   5.338   3.154  10.599
22638SOL    HW167938   5.398   3.157  10.679
22638SOL    HW267939   5.263   3.218  10.612
22639SOL     OW67940   4.763   2.960  10.006
22639SOL    HW167941   4.693   2.913  10.060
22639SOL    HW267942   4.822   2.892   9.963
22640SOL     OW67943   4.738   2.098  10.281
22640SOL    HW167944   4.730   2.062  10.188
22640SOL    HW267945   4.736   2.022  10.346
22641SOL     OW67946   4.314   3.349   9.801
22641SOL    HW167947   4.356   3.291   9.731
22641SOL    HW267948   4.270   3.428   9.757
22642SOL     OW67949   5.433   2.247  10.691
22642SOL    HW167950   5.506   2.316  10.695
22642SOL    HW267951   5.461   2.172  10.632
22643SOL     OW67952   3.979   3.210   9.600
22643SOL    HW167953   3.883   3.211   9.573
22643SOL    HW267954   3.991   3.263   9.684
22644SOL     OW67955   3.829   2.875  11.036
22644SOL    HW167956   3.752   2.842  11.090
22644SOL    HW267957   3.914   2.845  11.078
22645SOL     OW67958   4.396   2.065  10.799
22645SOL    HW167959   4.486   2.049  10.759
22645SOL    HW267960   4.404   2.070  10.898
22646SOL     OW67961   3.799   2.207   9.343
22646SOL    HW167962   3.707   2.179   9.314
22646SOL    HW267963   3.830   2.284   9.287
22647SOL     OW67964   5.164   2.718  10.708
22647SOL    HW167965   5.107   2.770  10.645
22647SOL    HW267966   5.260   2.730  10.684
22648SOL     OW67967   3.796   2.028   9.628
22648SOL    HW167968   3.779   2.111   9.574
22648SOL    HW267969   3.886   1.991   9.606
22649SOL     OW67970   4.907   3.197   9.429
22649SOL    HW167971   4.808   3.186   9.431
22649SOL    HW267972   4.941   3.212   9.522
22650SOL     OW67973   4.337   2.704  10.741
22650SOL    HW167974   4.393   2.785  10.724
22650SOL    HW267975   4.396   2.624  10.744
22651SOL     OW67976   5.217   3.629  10.269
22651SOL    HW167977   5.250   3.693  10.200
22651SOL    HW267978   5.283   3.623  10.344
22652SOL     OW67979   4.440   2.427  11.018
22652SOL    HW167980   4.459   2.492  11.092
22652SOL    HW267981   4.500   2.347  11.027
22653SOL     OW67982   5.174   3.082  10.943
22653SOL    HW167983   5.165   3.072  11.042
22653SOL    HW267984   5.270   3.075  10.917
22654SOL     OW67985   4.114   3.603  10.870
22654SOL    HW167986   4.023   3.644  10.868
22654SOL    HW267987   4.107   3.509  10.902
22655SOL     OW67988   5.398   2.745  10.564
22655SOL    HW167989   5.371   2.656  10.527
22655SOL    HW267990   5.399   2.813  10.491
22656SOL     OW67991   4.949   2.187   9.759
22656SOL    HW167992   5.014   2.113   9.748
22656SOL    HW267993   4.969   2.237   9.843
22657SOL     OW67994   4.318   2.607   9.962
22657SOL    HW167995   4.368   2.692   9.943
22657SOL    HW267996   4.230   2.609   9.914
22658SOL     OW67997   5.501   2.204  10.952
22658SOL    HW167998   5.484   2.235  10.858
22658SOL    HW267999   5.417   2.167  10.990
22659SOL     OW68000   5.454   2.796  10.827
22659SOL    HW168001   5.492   2.887  10.842
22659SOL    HW268002   5.446   2.779  10.728
22660SOL     OW68003   4.583   3.236   9.326
22660SOL    HW168004   4.537   3.251   9.414
22660SOL    HW268005   4.627   3.321   9.296
22661SOL     OW68006   4.385   3.652  10.263
22661SOL    HW168007   4.339   3.740  10.250
22661SOL    HW268008   4.484   3.664  10.256
22662SOL     OW68009   4.583   2.818  10.171
22662SOL    HW168010   4.637   2.749  10.219
22662SOL    HW268011   4.551   2.887  10.237
22663SOL     OW68012   4.807   2.846   9.397
22663SOL    HW168013   4.784   2.899   9.315
22663SOL    HW268014   4.888   2.790   9.378
22664SOL     OW68015   5.585   3.431  10.161
22664SOL    HW168016   5.514   3.419  10.091
22664SOL    HW268017   5.586   3.352  10.221
22665SOL     OW68018   3.945   3.176  11.154
22665SOL    HW168019   3.880   3.103  11.133
22665SOL    HW268020   3.949   3.190  11.252
22666SOL     OW68021   3.803   3.102   9.963
22666SOL    HW168022   3.802   3.055  10.051
22666SOL    HW268023   3.885   3.074   9.912
22667SOL     OW68024   4.396   3.253  10.934
22667SOL    HW168025   4.318   3.203  10.972
22667SOL    HW268026   4.393   3.348  10.965
22668SOL     OW68027   5.548   2.054  10.537
22668SOL    HW168028   5.544   1.964  10.581
22668SOL    HW268029   5.551   2.043  10.438
22669SOL     OW68030   4.152   2.286   9.830
22669SOL    HW168031   4.182   2.214   9.768
22669SOL    HW268032   4.113   2.246   9.913
22670SOL     OW68033   5.429   3.349  10.414
22670SOL    HW168034   5.336   3.324  10.387
22670SOL    HW268035   5.455   3.299  10.496
22671SOL     OW68036   4.041   2.409  10.590
22671SOL    HW168037   4.079   2.350  10.662
22671SOL    HW268038   4.081   2.383  10.502
22672SOL     OW68039   4.536   3.448   9.997
22672SOL    HW168040   4.568   3.458   9.903
22672SOL    HW268041   4.457   3.386   9.999
22673SOL     OW68042   5.148   2.076  10.422
22673SOL    HW168043   5.200   2.011  10.477
22673SOL    HW268044   5.099   2.139  10.483
22674SOL     OW68045   4.725   1.896  10.464
22674SOL    HW168046   4.662   1.824  10.433
22674SOL    HW268047   4.818   1.860  10.464
22675SOL     OW68048   4.494   3.192   9.611
22675SOL    HW168049   4.448   3.105   9.628
22675SOL    HW268050   4.585   3.189   9.652
22676SOL     OW68051   4.342   3.429  10.594
22676SOL    HW168052   4.337   3.511  10.651
22676SOL    HW268053   4.431   3.426  10.549
22677SOL     OW68054   5.076   1.914   9.478
22677SOL    HW168055   5.111   1.873   9.394
22677SOL    HW268056   4.986   1.876   9.498
22678SOL     OW68057   5.024   2.315  10.001
22678SOL    HW168058   4.965   2.395  10.005
22678SOL    HW268059   5.039   2.280  10.094
22679SOL     OW68060   5.317   2.083  10.192
22679SOL    HW168061   5.233   2.082  10.246
22679SOL    HW268062   5.319   2.166  10.136
22680SOL     OW68063   3.763   2.939   9.610
22680SOL    HW168064   3.862   2.928   9.601
22680SOL    HW268065   3.723   2.853   9.642
22681SOL     OW68066   4.599   3.508   9.647
22681SOL    HW168067   4.522   3.473   9.593
22681SOL    HW268068   4.567   3.579   9.709
22682SOL     OW68069   3.954   2.490  11.285
22682SOL    HW168070   3.861   2.488  11.322
22682SOL    HW268071   3.955   2.451  11.193
22683SOL     OW68072   3.949   2.137  12.168
22683SOL    HW168073   3.984   2.120  12.260
22683SOL    HW268074   3.861   2.092  12.156
22684SOL     OW68075   3.743   2.230  11.819
22684SOL    HW168076   3.661   2.273  11.858
22684SOL    HW268077   3.715   2.157  11.756
22685SOL     OW68078   4.293   3.137  12.337
22685SOL    HW168079   4.200   3.130  12.300
22685SOL    HW268080   4.304   3.226  12.381
22686SOL     OW68081   5.279   3.373  11.875
22686SOL    HW168082   5.222   3.357  11.956
22686SOL    HW268083   5.220   3.383  11.795
22687SOL     OW68084   4.859   2.565  11.889
22687SOL    HW168085   4.916   2.643  11.864
22687SOL    HW268086   4.799   2.591  11.965
22688SOL     OW68087   5.479   2.469  11.403
22688SOL    HW168088   5.467   2.456  11.304
22688SOL    HW268089   5.449   2.388  11.452
22689SOL     OW68090   4.492   3.006  12.195
22689SOL    HW168091   4.414   3.023  12.255
22689SOL    HW268092   4.526   3.093  12.159
22690SOL     OW68093   4.409   2.874  11.837
22690SOL    HW168094   4.478   2.858  11.907
22690SOL    HW268095   4.336   2.931  11.875
22691SOL     OW68096   4.059   3.297  12.233
22691SOL    HW168097   3.981   3.266  12.180
22691SOL    HW268098   4.117   3.355  12.176
22692SOL     OW68099   5.184   3.367  12.511
22692SOL    HW168100   5.208   3.461  12.537
22692SOL    HW268101   5.168   3.313  12.593
22693SOL     OW68102   4.162   2.254  12.671
22693SOL    HW168103   4.244   2.198  12.680
22693SOL    HW268104   4.081   2.196  12.675
22694SOL     OW68105   5.327   2.309  11.909
22694SOL    HW168106   5.253   2.355  11.859
22694SOL    HW268107   5.378   2.377  11.962
22695SOL     OW68108   3.955   3.575  11.655
22695SOL    HW168109   3.989   3.652  11.709
22695SOL    HW268110   3.999   3.575  11.565
22696SOL     OW68111   3.954   3.296  11.710
22696SOL    HW168112   3.928   3.392  11.710
22696SOL    HW268113   3.883   3.242  11.755
22697SOL     OW68114   3.964   2.953  12.058
22697SOL    HW168115   3.978   2.869  12.110
22697SOL    HW268116   3.909   3.017  12.113
22698SOL     OW68117   4.344   3.648  12.611
22698SOL    HW168118   4.252   3.631  12.646
22698SOL    HW268119   4.372   3.740  12.637
22699SOL     OW68120   4.330   2.826  11.295
22699SOL    HW168121   4.337   2.910  11.241
22699SOL    HW268122   4.376   2.839  11.383
22700SOL     OW68123   5.318   1.976  12.652
22700SOL    HW168124   5.300   2.043  12.580
22700SOL    HW268125   5.315   2.022  12.741
22701SOL     OW68126   3.846   2.505  11.735
22701SOL    HW168127   3.801   2.417  11.752
22701SOL    HW268128   3.845   2.559  11.819
22702SOL     OW68129   5.566   3.629  11.531
22702SOL    HW168130   5.620   3.600  11.611
22702SOL    HW268131   5.596   3.719  11.502
22703SOL     OW68132   3.751   3.458  11.289
22703SOL    HW168133   3.732   3.362  11.310
22703SOL    HW268134   3.718   3.516  11.364
22704SOL     OW68135   5.413   2.784  11.784
22704SOL    HW168136   5.508   2.755  11.792
22704SOL    HW268137   5.405   2.849  11.709
22705SOL     OW68138   5.365   2.970  11.604
22705SOL    HW168139   5.451   2.972  11.552
22705SOL    HW268140   5.379   3.017  11.692
22706SOL     OW68141   3.837   2.599  12.769
22706SOL    HW168142   3.925   2.586  12.814
22706SOL    HW268143   3.824   2.696  12.747
22707SOL     OW68144   4.337   3.227  11.898
22707SOL    HW168145   4.288   3.140  11.907
22707SOL    HW268146   4.314   3.270  11.811
22708SOL     OW68147   5.017   3.090  12.595
22708SOL    HW168148   5.054   3.017  12.537
22708SOL    HW268149   5.069   3.095  12.680
22709SOL     OW68150   4.533   1.866  11.674
22709SOL    HW168151   4.573   1.957  11.665
22709SOL    HW268152   4.433   1.874  11.680
22710SOL     OW68153   3.921   2.838  12.436
22710SOL    HW168154   4.010   2.793  12.422
22710SOL    HW268155   3.848   2.773  12.417
22711SOL     OW68156   5.249   2.861  11.362
22711SOL    HW168157   5.186   2.785  11.375
22711SOL    HW268158   5.297   2.879  11.448
22712SOL     OW68159   5.190   3.279  12.125
22712SOL    HW168160   5.131   3.285  12.205
22712SOL    HW268161   5.175   3.191  12.079
22713SOL     OW68162   5.391   3.576  11.744
22713SOL    HW168163   5.350   3.553  11.656
22713SOL    HW268164   5.373   3.502  11.809
22714SOL     OW68165   4.322   2.591  11.442
22714SOL    HW168166   4.346   2.660  11.374
22714SOL    HW268167   4.244   2.624  11.496
22715SOL     OW68168   5.005   2.207  12.116
22715SOL    HW168169   4.919   2.157  12.103
22715SOL    HW268170   5.067   2.153  12.172
22716SOL     OW68171   5.300   3.524  11.479
22716SOL    HW168172   5.389   3.570  11.482
22716SOL    HW268173   5.279   3.500  11.384
22717SOL     OW68174   4.531   2.467  12.637
22717SOL    HW168175   4.484   2.464  12.726
22717SOL    HW268176   4.480   2.412  12.571
22718SOL     OW68177   4.697   2.752  12.744
22718SOL    HW168178   4.743   2.668  12.715
22718SOL    HW268179   4.641   2.786  12.669
22719SOL     OW68180   4.715   2.272  12.414
22719SOL    HW168181   4.638   2.306  12.468
22719SOL    HW268182   4.681   2.221  12.335
22720SOL     OW68183   4.765   2.563  11.601
22720SOL    HW168184   4.791   2.559  11.697
22720SOL    HW268185   4.680   2.512  11.587
22721SOL     OW68186   3.800   2.673  11.961
22721SOL    HW168187   3.899   2.661  11.970
22721SOL    HW268188   3.776   2.768  11.982
22722SOL     OW68189   3.854   3.683  12.743
22722SOL    HW168190   3.844   3.668  12.842
22722SOL    HW268191   3.768   3.719  12.707
22723SOL     OW68192   4.589   2.210  11.367
22723SOL    HW168193   4.648   2.273  11.318
22723SOL    HW268194   4.608   2.116  11.338
22724SOL     OW68195   5.086   3.006  11.717
22724SOL    HW168196   5.169   2.977  11.669
22724SOL    HW268197   5.037   3.073  11.661
22725SOL     OW68198   4.274   2.058  12.057
22725SOL    HW168199   4.269   2.053  12.157
22725SOL    HW268200   4.276   2.154  12.028
22726SOL     OW68201   4.732   3.318  11.649
22726SOL    HW168202   4.686   3.390  11.597
22726SOL    HW268203   4.728   3.338  11.747
22727SOL     OW68204   4.075   3.663  12.025
22727SOL    HW168205   4.125   3.577  12.031
22727SOL    HW268206   4.140   3.740  12.022
22728SOL     OW68207   5.519   2.928  12.045
22728SOL    HW168208   5.457   2.913  11.969
22728SOL    HW268209   5.467   2.939  12.130
22729SOL     OW68210   4.951   3.412  12.678
22729SOL    HW168211   4.957   3.335  12.742
22729SOL    HW268212   4.899   3.386  12.598
22730SOL     OW68213   4.045   2.805  11.414
22730SOL    HW168214   4.127   2.844  11.372
22730SOL    HW268215   4.018   2.723  11.365
22731SOL     OW68216   5.182   2.597  11.900
22731SOL    HW168217   5.177   2.532  11.975
22731SOL    HW268218   5.262   2.656  11.913
22732SOL     OW68219   4.835   3.638  11.409
22732SOL    HW168220   4.775   3.576  11.459
22732SOL    HW268221   4.866   3.594  11.324
22733SOL     OW68222   3.926   2.147  12.670
22733SOL    HW168223   3.846   2.207  12.657
22733SOL    HW268224   3.916   2.098  12.756
22734SOL     OW68225   5.356   3.239  11.253
22734SOL    HW168226   5.324   3.333  11.243
22734SOL    HW268227   5.280   3.176  11.241
22735SOL     OW68228   4.188   3.605  11.495
22735SOL    HW168229   4.221   3.644  11.581
22735SOL    HW268230   4.264   3.598  11.430
22736SOL     OW68231   5.124   1.969  11.598
22736SOL    HW168232   5.100   1.932  11.508
22736SOL    HW268233   5.223   1.985  11.602
22737SOL     OW68234   3.973   3.647  12.413
22737SOL    HW168235   4.030   3.582  12.463
22737SOL    HW268236   3.957   3.614  12.320
22738SOL     OW68237   4.664   3.560  12.076
22738SOL    HW168238   4.744   3.503  12.097
22738SOL    HW268239   4.615   3.520  11.999
22739SOL     OW68240   4.106   2.562  11.652
22739SOL    HW168241   4.151   2.472  11.649
22739SOL    HW268242   4.012   2.551  11.685
22740SOL     OW68243   4.338   1.984  11.289
22740SOL    HW168244   4.436   1.962  11.296
22740SOL    HW268245   4.307   1.967  11.196
22741SOL     OW68246   4.612   3.376  12.367
22741SOL    HW168247   4.589   3.351  12.273
22741SOL    HW268248   4.673   3.307  12.406
22742SOL     OW68249   5.075   2.452  12.605
22742SOL    HW168250   5.103   2.409  12.690
22742SOL    HW268251   5.100   2.548  12.606
22743SOL     OW68252   4.527   3.264  12.096
22743SOL    HW168253   4.617   3.278  12.054
22743SOL    HW268254   4.456   3.266  12.025
22744SOL     OW68255   4.646   2.365  12.071
22744SOL    HW168256   4.621   2.356  11.975
22744SOL    HW268257   4.694   2.283  12.102
22745SOL     OW68258   4.263   1.926  11.684
22745SOL    HW168259   4.182   1.927  11.742
22745SOL    HW268260   4.266   2.009  11.629
22746SOL     OW68261   5.158   3.050  11.213
22746SOL    HW168262   5.190   2.974  11.270
22746SOL    HW268263   5.066   3.077  11.243
22747SOL     OW68264   4.021   1.897  11.343
22747SOL    HW168265   4.070   1.981  11.322
22747SOL    HW268266   4.083   1.832  11.388
22748SOL     OW68267   4.659   2.098  11.652
22748SOL    HW168268   4.611   2.139  11.574
22748SOL    HW268269   4.758   2.096  11.633
22749SOL     OW68270   4.800   2.545  12.636
22749SOL    HW168271   4.720   2.484  12.639
22749SOL    HW268272   4.881   2.492  12.612
22750SOL     OW68273   4.183   3.014  11.913
22750SOL    HW168274   4.112   2.987  11.978
22750SOL    HW268275   4.157   2.986  11.820
22751SOL     OW68276   4.995   3.659  11.763
22751SOL    HW168277   5.039   3.723  11.699
22751SOL    HW268278   4.945   3.711  11.833
22752SOL     OW68279   4.756   2.411  11.188
22752SOL    HW168280   4.715   2.493  11.149
22752SOL    HW268281   4.820   2.437  11.261
22753SOL     OW68282   3.802   2.418  12.558
22753SOL    HW168283   3.894   2.417  12.517
22753SOL    HW268284   3.796   2.492  12.625
22754SOL     OW68285   4.285   2.084  12.319
22754SOL    HW168286   4.323   2.000  12.356
22754SOL    HW268287   4.197   2.103  12.363
22755SOL     OW68288   4.590   2.316  11.814
22755SOL    HW168289   4.558   2.388  11.752
22755SOL    HW268290   4.614   2.235  11.761
22756SOL     OW68291   4.741   1.901  11.925
22756SOL    HW168292   4.669   1.906  11.856
22756SOL    HW268293   4.717   1.832  11.994
22757SOL     OW68294   5.153   3.035  12.039
22757SOL    HW168295   5.098   2.951  12.032
22757SOL    HW268296   5.179   3.064  11.947
22758SOL     OW68297   5.190   2.452  12.164
22758SOL    HW168298   5.160   2.357  12.171
22758SOL    HW268299   5.263   2.468  12.230
22759SOL     OW68300   5.581   2.695  11.549
22759SOL    HW168301   5.623   2.631  11.613
22759SOL    HW268302   5.543   2.644  11.471
22760SOL     OW68303   4.212   3.247  11.346
22760SOL    HW168304   4.125   3.232  11.393
22760SOL    HW268305   4.195   3.273  11.251
22761SOL     OW68306   5.388   3.142  11.829
22761SOL    HW168307   5.487   3.150  11.843
22761SOL    HW268308   5.343   3.226  11.860
22762SOL     OW68309   5.114   2.437  11.250
22762SOL    HW168310   5.060   2.416  11.331
22762SOL    HW268311   5.205   2.396  11.259
22763SOL     OW68312   4.251   2.118  11.500
22763SOL    HW168313   4.278   2.059  11.425
22763SOL    HW268314   4.251   2.213  11.469
22764SOL     OW68315   5.478   3.085  12.760
22764SOL    HW168316   5.569   3.046  12.747
22764SOL    HW268317   5.486   3.181  12.784
22765SOL     OW68318   4.788   3.209  12.512
22765SOL    HW168319   4.708   3.186  12.567
22765SOL    HW268320   4.871   3.183  12.561
22766SOL     OW68321   4.835   3.057  12.272
22766SOL    HW168322   4.795   3.101  12.353
22766SOL    HW268323   4.794   3.094  12.189
22767SOL     OW68324   5.362   2.961  12.251
22767SOL    HW168325   5.367   3.042  12.310
22767SOL    HW268326   5.276   2.963  12.200
22768SOL     OW68327   4.639   1.951  12.574
22768SOL    HW168328   4.664   1.931  12.479
22768SOL    HW268329   4.711   2.007  12.616
22769SOL     OW68330   4.429   2.912  11.540
22769SOL    HW168331   4.415   2.919  11.639
22769SOL    HW268332   4.513   2.861  11.522
22770SOL     OW68333   4.134   2.675  12.423
22770SOL    HW168334   4.220   2.687  12.473
22770SOL    HW268335   4.092   2.588  12.450
22771SOL     OW68336   4.998   2.248  12.434
22771SOL    HW168337   5.019   2.322  12.498
22771SOL    HW268338   4.909   2.265  12.391
22772SOL     OW68339   3.788   3.426  12.503
22772SOL    HW168340   3.742   3.508  12.469
22772SOL    HW268341   3.886   3.445  12.512
22773SOL     OW68342   4.091   2.962  11.673
22773SOL    HW168343   4.084   3.045  11.617
22773SOL    HW268344   4.095   2.882  11.613
22774SOL     OW68345   4.290   2.399  12.037
22774SOL    HW168346   4.302   2.465  11.963
22774SOL    HW268347   4.336   2.433  12.120
22775SOL     OW68348   4.976   3.210  11.560
22775SOL    HW168349   5.026   3.287  11.600
22775SOL    HW268350   4.881   3.212  11.592
22776SOL     OW68351   4.996   3.307  12.314
22776SOL    HW168352   5.043   3.320  12.401
22776SOL    HW268353   4.930   3.233  12.323
22777SOL     OW68354   5.306   2.501  11.644
22777SOL    HW168355   5.275   2.562  11.717
22777SOL    HW268356   5.356   2.553  11.575
22778SOL     OW68357   4.078   3.372  12.501
22778SOL    HW168358   4.057   3.328  12.414
22778SOL    HW268359   4.175   3.398  12.504
22779SOL     OW68360   4.126   2.613  12.770
22779SOL    HW168361   4.194   2.668  12.723
22779SOL    HW268362   4.166   2.525  12.797
22780SOL     OW68363   5.311   2.641  12.842
22780SOL    HW168364   5.219   2.679  12.837
22780SOL    HW268365   5.371   2.688  12.777
22781SOL     OW68366   4.297   2.732  12.201
22781SOL    HW168367   4.341   2.821  12.192
22781SOL    HW268368   4.234   2.732  12.278
22782SOL     OW68369   5.084   2.724  12.217
22782SOL    HW168370   5.009   2.724  12.151
22782SOL    HW268371   5.121   2.632  12.226
22783SOL     OW68372   4.933   2.387  11.447
22783SOL    HW168373   4.946   2.303  11.501
22783SOL    HW268374   4.904   2.461  11.507
22784SOL     OW68375   4.031   2.075  12.403
22784SOL    HW168376   4.008   2.112  12.493
22784SOL    HW268377   4.001   1.980  12.397
22785SOL     OW68378   3.761   3.172  12.454
22785SOL    HW168379   3.814   3.123  12.522
22785SOL    HW268380   3.783   3.270  12.459
22786SOL     OW68381   4.456   2.496  12.236
22786SOL    HW168382   4.515   2.470  12.160
22786SOL    HW268383   4.428   2.592  12.225
22787SOL     OW68384   4.031   1.925  11.790
22787SOL    HW168385   4.020   2.019  11.823
22787SOL    HW268386   4.026   1.862  11.867
22788SOL     OW68387   5.346   2.229  11.546
22788SOL    HW168388   5.348   2.153  11.610
22788SOL    HW268389   5.298   2.306  11.586
22789SOL     OW68390   4.747   2.628  12.138
22789SOL    HW168391   4.762   2.649  12.234
22789SOL    HW268392   4.717   2.533  12.129
22790SOL     OW68393   5.264   2.136  11.297
22790SOL    HW168394   5.203   2.061  11.320
22790SOL    HW268395   5.286   2.188  11.380
22791SOL     OW68396   5.027   2.700  11.214
22791SOL    HW168397   5.061   2.607  11.229
22791SOL    HW268398   5.045   2.727  11.119
22792SOL     OW68399   4.792   3.195  12.021
22792SOL    HW168400   4.799   3.111  11.966
22792SOL    HW268401   4.854   3.264  11.985
22793SOL     OW68402   4.043   2.672  12.121
22793SOL    HW168403   4.136   2.708  12.126
22793SOL    HW268404   4.037   2.587  12.173
22794SOL     OW68405   4.063   2.371  12.178
22794SOL    HW168406   4.011   2.288  12.161
22794SOL    HW268407   4.140   2.376  12.114
22795SOL     OW68408   4.884   2.069  12.649
22795SOL    HW168409   4.884   2.133  12.726
22795SOL    HW268410   4.912   2.117  12.566
22796SOL     OW68411   3.732   3.188  11.372
22796SOL    HW168412   3.639   3.209  11.341
22796SOL    HW268413   3.742   3.089  11.385
22797SOL     OW68414   3.812   3.663  12.099
22797SOL    HW168415   3.770   3.577  12.072
22797SOL    HW268416   3.906   3.666  12.065
22798SOL     OW68417   4.228   3.430  12.082
22798SOL    HW168418   4.294   3.504  12.091
22798SOL    HW268419   4.272   3.351  12.040
22799SOL     OW68420   4.726   2.658  12.410
22799SOL    HW168421   4.767   2.626  12.496
22799SOL    HW268422   4.630   2.631  12.407
22800SOL     OW68423   3.764   2.406  12.286
22800SOL    HW168424   3.849   2.373  12.245
22800SOL    HW268425   3.777   2.421  12.384
22801SOL     OW68426   4.539   2.434  11.497
22801SOL    HW168427   4.546   2.345  11.451
22801SOL    HW268428   4.445   2.468  11.489
22802SOL     OW68429   5.381   2.466  12.378
22802SOL    HW168430   5.343   2.397  12.440
22802SOL    HW268431   5.463   2.430  12.334
22803SOL     OW68432   3.976   3.426  12.916
22803SOL    HW168433   3.946   3.483  12.992
22803SOL    HW268434   3.969   3.329  12.942
22804SOL     OW68435   4.395   2.326  12.441
22804SOL    HW168436   4.361   2.237  12.411
22804SOL    HW268437   4.421   2.380  12.361
22805SOL     OW68438   4.654   3.540  12.637
22805SOL    HW168439   4.630   3.522  12.542
22805SOL    HW268440   4.684   3.634  12.647
22806SOL     OW68441   4.197   2.362  11.363
22806SOL    HW168442   4.258   2.442  11.367
22806SOL    HW268443   4.102   2.393  11.370
22807SOL     OW68444   3.883   2.999  12.638
22807SOL    HW168445   3.905   2.938  12.714
22807SOL    HW268446   3.893   2.950  12.552
22808SOL     OW68447   5.071   2.921  12.406
22808SOL    HW168448   5.095   2.858  12.332
22808SOL    HW268449   4.981   2.961  12.388
22809SOL     OW68450   5.026   2.717  11.481
22809SOL    HW168451   4.940   2.686  11.523
22809SOL    HW268452   5.022   2.703  11.382
22810SOL     OW68453   5.483   3.609  12.326
22810SOL    HW168454   5.544   3.639  12.253
22810SOL    HW268455   5.445   3.520  12.304
22811SOL     OW68456   4.976   3.593  12.300
22811SOL    HW168457   5.060   3.598  12.246
22811SOL    HW268458   4.953   3.497  12.318
22812SOL     OW68459   3.807   3.120  12.194
22812SOL    HW168460   3.802   3.119  12.294
22812SOL    HW268461   3.724   3.079  12.156
22813SOL     OW68462   5.450   1.997  11.695
22813SOL    HW168463   5.523   1.980  11.628
22813SOL    HW268464   5.419   1.910  11.733
22814SOL     OW68465   5.112   3.435  11.649
22814SOL    HW168466   5.179   3.447  11.575
22814SOL    HW268467   5.072   3.524  11.672
22815SOL     OW68468   5.004   2.789  11.844
22815SOL    HW168469   5.064   2.708  11.846
22815SOL    HW268470   5.044   2.858  11.784
22816SOL     OW68471   4.554   3.135  12.594
22816SOL    HW168472   4.549   3.168  12.689
22816SOL    HW268473   4.468   3.154  12.548
22817SOL     OW68474   4.396   3.478  11.326
22817SOL    HW168475   4.405   3.488  11.227
22817SOL    HW268476   4.356   3.389  11.347
22818SOL     OW68477   5.374   3.582  12.566
22818SOL    HW168478   5.427   3.592  12.482
22818SOL    HW268479   5.347   3.672  12.600
22819SOL     OW68480   5.565   2.037  12.135
22819SOL    HW168481   5.604   1.952  12.099
22819SOL    HW268482   5.467   2.039  12.116
22820SOL     OW68483   3.987   2.188  11.892
22820SOL    HW168484   3.908   2.239  11.858
22820SOL    HW268485   3.978   2.173  11.990
22821SOL     OW68486   4.918   3.474  11.203
22821SOL    HW168487   4.924   3.381  11.240
22821SOL    HW268488   4.859   3.474  11.123
22822SOL     OW68489   4.546   2.864  12.544
22822SOL    HW168490   4.586   2.863  12.452
22822SOL    HW268491   4.556   2.956  12.584
22823SOL     OW68492   4.640   2.772  11.463
22823SOL    HW168493   4.703   2.810  11.395
22823SOL    HW268494   4.680   2.689  11.502
22824SOL     OW68495   5.228   3.469  11.216
22824SOL    HW168496   5.136   3.506  11.223
22824SOL    HW268497   5.266   3.489  11.126
22825SOL     OW68498   4.096   3.150  12.662
22825SOL    HW168499   4.083   3.243  12.628
22825SOL    HW268500   4.012   3.098  12.649
22826SOL     OW68501   5.338   3.154  12.461
22826SOL    HW168502   5.398   3.157  12.541
22826SOL    HW268503   5.263   3.218  12.474
22827SOL     OW68504   4.763   2.960  11.868
22827SOL    HW168505   4.693   2.913  11.922
22827SOL    HW268506   4.822   2.892  11.825
22828SOL     OW68507   4.738   2.098  12.143
22828SOL    HW168508   4.730   2.062  12.050
22828SOL    HW268509   4.736   2.022  12.208
22829SOL     OW68510   4.314   3.349  11.663
22829SOL    HW168511   4.356   3.291  11.593
22829SOL    HW268512   4.270   3.428  11.619
22830SOL     OW68513   5.433   2.247  12.553
22830SOL    HW168514   5.506   2.316  12.557
22830SOL    HW268515   5.461   2.172  12.494
22831SOL     OW68516   3.979   3.210  11.462
22831SOL    HW168517   3.883   3.211  11.435
22831SOL    HW268518   3.991   3.263  11.546
22832SOL     OW68519   3.829   2.875  12.898
22832SOL    HW168520   3.752   2.842  12.952
22832SOL    HW268521   3.914   2.845  12.940
22833SOL     OW68522   4.396   2.065  12.661
22833SOL    HW168523   4.486   2.049  12.621
22833SOL    HW268524   4.404   2.070  12.760
22834SOL     OW68525   3.799   2.207  11.205
22834SOL    HW168526   3.707   2.179  11.176
22834SOL    HW268527   3.830   2.284  11.149
22835SOL     OW68528   5.164   2.718  12.570
22835SOL    HW168529   5.107   2.770  12.507
22835SOL    HW268530   5.260   2.730  12.546
22836SOL     OW68531   3.796   2.028  11.490
22836SOL    HW168532   3.779   2.111  11.436
22836SOL    HW268533   3.886   1.991  11.468
22837SOL     OW68534   4.907   3.197  11.291
22837SOL    HW168535   4.808   3.186  11.293
22837SOL    HW268536   4.941   3.212  11.384
22838SOL     OW68537   4.337   2.704  12.603
22838SOL    HW168538   4.393   2.785  12.586
22838SOL    HW268539   4.396   2.624  12.606
22839SOL     OW68540   5.217   3.629  12.131
22839SOL    HW168541   5.250   3.693  12.062
22839SOL    HW268542   5.283   3.623  12.206
22840SOL     OW68543   4.440   2.427  12.880
22840SOL    HW168544   4.459   2.492  12.954
22840SOL    HW268545   4.500   2.347  12.889
22841SOL     OW68546   4.114   3.603  12.732
22841SOL    HW168547   4.023   3.644  12.730
22841SOL    HW268548   4.107   3.509  12.764
22842SOL     OW68549   5.398   2.745  12.426
22842SOL    HW168550   5.371   2.656  12.389
22842SOL    HW268551   5.399   2.813  12.353
22843SOL     OW68552   4.949   2.187  11.621
22843SOL    HW168553   5.014   2.113  11.610
22843SOL    HW268554   4.969   2.237  11.705
22844SOL     OW68555   4.318   2.607  11.824
22844SOL    HW168556   4.368   2.692  11.805
22844SOL    HW268557   4.230   2.609  11.776
22845SOL     OW68558   5.501   2.204  12.814
22845SOL    HW168559   5.484   2.235  12.720
22845SOL    HW268560   5.417   2.167  12.852
22846SOL     OW68561   5.454   2.796  12.689
22846SOL    HW168562   5.492   2.887  12.704
22846SOL    HW268563   5.446   2.779  12.590
22847SOL     OW68564   4.583   3.236  11.188
22847SOL    HW168565   4.537   3.251  11.276
22847SOL    HW268566   4.627   3.321  11.158
22848SOL     OW68567   4.385   3.652  12.125
22848SOL    HW168568   4.339   3.740  12.112
22848SOL    HW268569   4.484   3.664  12.118
22849SOL     OW68570   4.583   2.818  12.033
22849SOL    HW168571   4.637   2.749  12.081
22849SOL    HW268572   4.551   2.887  12.099
22850SOL     OW68573   4.807   2.846  11.259
22850SOL    HW168574   4.784   2.899  11.177
22850SOL    HW268575   4.888   2.790  11.240
22851SOL     OW68576   5.585   3.431  12.023
22851SOL    HW168577   5.514   3.419  11.953
22851SOL    HW268578   5.586   3.352  12.083
22852SOL     OW68579   3.803   3.102  11.825
22852SOL    HW168580   3.802   3.055  11.913
22852SOL    HW268581   3.885   3.074  11.774
22853SOL     OW68582   4.396   3.253  12.796
22853SOL    HW168583   4.318   3.203  12.834
22853SOL    HW268584   4.393   3.348  12.827
22854SOL     OW68585   5.548   2.054  12.399
22854SOL    HW168586   5.544   1.964  12.443
22854SOL    HW268587   5.551   2.043  12.300
22855SOL     OW68588   4.152   2.286  11.692
22855SOL    HW168589   4.182   2.214  11.630
22855SOL    HW268590   4.113   2.246  11.775
22856SOL     OW68591   5.429   3.349  12.276
22856SOL    HW168592   5.336   3.324  12.249
22856SOL    HW268593   5.455   3.299  12.358
22857SOL     OW68594   4.041   2.409  12.452
22857SOL    HW168595   4.079   2.350  12.524
22857SOL    HW268596   4.081   2.383  12.364
22858SOL     OW68597   4.536   3.448  11.859
22858SOL    HW168598   4.568   3.458  11.765
22858SOL    HW268599   4.457   3.386  11.861
22859SOL     OW68600   5.148   2.076  12.284
22859SOL    HW168601   5.200   2.011  12.339
22859SOL    HW268602   5.099   2.139  12.345
22860SOL     OW68603   4.725   1.896  12.326
22860SOL    HW168604   4.662   1.824  12.295
22860SOL    HW268605   4.818   1.860  12.326
22861SOL     OW68606   4.494   3.192  11.473
22861SOL    HW168607   4.448   3.105  11.490
22861SOL    HW268608   4.585   3.189  11.514
22862SOL     OW68609   4.342   3.429  12.456
22862SOL    HW168610   4.337   3.511  12.513
22862SOL    HW268611   4.431   3.426  12.411
22863SOL     OW68612   5.076   1.914  11.340
22863SOL    HW168613   5.111   1.873  11.256
22863SOL    HW268614   4.986   1.876  11.360
22864SOL     OW68615   5.024   2.315  11.863
22864SOL    HW168616   4.965   2.395  11.867
22864SOL    HW268617   5.039   2.280  11.956
22865SOL     OW68618   5.317   2.083  12.054
22865SOL    HW168619   5.233   2.082  12.108
22865SOL    HW268620   5.319   2.166  11.998
22866SOL     OW68621   3.763   2.939  11.472
22866SOL    HW168622   3.862   2.928  11.463
22866SOL    HW268623   3.723   2.853  11.504
22867SOL     OW68624   4.599   3.508  11.509
22867SOL    HW168625   4.522   3.473  11.455
22867SOL    HW268626   4.567   3.579  11.571
22868SOL     OW68627   3.949   3.999   0.996
22868SOL    HW168628   3.984   3.982   1.088
22868SOL    HW268629   3.861   3.954   0.984
22869SOL     OW68630   3.743   4.092   0.647
22869SOL    HW168631   3.661   4.135   0.686
22869SOL    HW268632   3.715   4.019   0.584
22870SOL     OW68633   4.293   4.999   1.165
22870SOL    HW168634   4.200   4.992   1.128
22870SOL    HW268635   4.304   5.088   1.209
22871SOL     OW68636   5.279   5.235   0.703
22871SOL    HW168637   5.222   5.219   0.784
22871SOL    HW268638   5.220   5.245   0.623
22872SOL     OW68639   4.859   4.427   0.717
22872SOL    HW168640   4.916   4.505   0.692
22872SOL    HW268641   4.799   4.453   0.793
22873SOL     OW68642   5.479   4.331   0.231
22873SOL    HW168643   5.467   4.318   0.132
22873SOL    HW268644   5.449   4.250   0.280
22874SOL     OW68645   4.492   4.868   1.023
22874SOL    HW168646   4.414   4.885   1.083
22874SOL    HW268647   4.526   4.955   0.987
22875SOL     OW68648   4.574   4.522   1.823
22875SOL    HW168649   4.570   4.598   1.888
22875SOL    HW268650   4.596   4.558   1.732
22876SOL     OW68651   4.409   4.736   0.665
22876SOL    HW168652   4.478   4.720   0.735
22876SOL    HW268653   4.336   4.793   0.703
22877SOL     OW68654   4.410   4.885   1.803
22877SOL    HW168655   4.470   4.964   1.817
22877SOL    HW268656   4.324   4.916   1.762
22878SOL     OW68657   4.059   5.159   1.061
22878SOL    HW168658   3.981   5.128   1.008
22878SOL    HW268659   4.117   5.217   1.004
22879SOL     OW68660   5.184   5.229   1.339
22879SOL    HW168661   5.208   5.323   1.365
22879SOL    HW268662   5.168   5.175   1.421
22880SOL     OW68663   4.162   4.116   1.499
22880SOL    HW168664   4.244   4.060   1.508
22880SOL    HW268665   4.081   4.058   1.503
22881SOL     OW68666   5.327   4.171   0.737
22881SOL    HW168667   5.253   4.217   0.687
22881SOL    HW268668   5.378   4.239   0.790
22882SOL     OW68669   3.955   5.437   0.483
22882SOL    HW168670   3.989   5.514   0.537
22882SOL    HW268671   3.999   5.437   0.393
22883SOL     OW68672   4.851   5.065   1.690
22883SOL    HW168673   4.898   5.065   1.778
22883SOL    HW268674   4.803   4.978   1.679
22884SOL     OW68675   3.954   5.158   0.538
22884SOL    HW168676   3.928   5.254   0.538
22884SOL    HW268677   3.883   5.104   0.583
22885SOL     OW68678   3.964   4.815   0.886
22885SOL    HW168679   3.978   4.731   0.938
22885SOL    HW268680   3.909   4.879   0.941
22886SOL     OW68681   4.344   5.510   1.439
22886SOL    HW168682   4.252   5.493   1.474
22886SOL    HW268683   4.372   5.602   1.465
22887SOL     OW68684   4.330   4.688   0.123
22887SOL    HW168685   4.337   4.772   0.069
22887SOL    HW268686   4.376   4.701   0.211
22888SOL     OW68687   5.318   3.838   1.480
22888SOL    HW168688   5.300   3.905   1.408
22888SOL    HW268689   5.315   3.884   1.569
22889SOL     OW68690   3.846   4.367   0.563
22889SOL    HW168691   3.801   4.279   0.580
22889SOL    HW268692   3.845   4.421   0.647
22890SOL     OW68693   5.566   5.491   0.359
22890SOL    HW168694   5.620   5.462   0.439
22890SOL    HW268695   5.596   5.581   0.330
22891SOL     OW68696   3.751   5.320   0.117
22891SOL    HW168697   3.732   5.224   0.138
22891SOL    HW268698   3.718   5.378   0.192
22892SOL     OW68699   5.413   4.646   0.612
22892SOL    HW168700   5.508   4.617   0.620
22892SOL    HW268701   5.405   4.711   0.537
22893SOL     OW68702   5.365   4.832   0.432
22893SOL    HW168703   5.451   4.834   0.380
22893SOL    HW268704   5.379   4.879   0.520
22894SOL     OW68705   3.837   4.461   1.597
22894SOL    HW168706   3.925   4.448   1.642
22894SOL    HW268707   3.824   4.558   1.575
22895SOL     OW68708   4.337   5.089   0.726
22895SOL    HW168709   4.288   5.002   0.735
22895SOL    HW268710   4.314   5.132   0.639
22896SOL     OW68711   5.017   4.952   1.423
22896SOL    HW168712   5.054   4.879   1.365
22896SOL    HW268713   5.069   4.957   1.508
22897SOL     OW68714   4.533   3.728   0.502
22897SOL    HW168715   4.573   3.819   0.493
22897SOL    HW268716   4.433   3.736   0.508
22898SOL     OW68717   3.921   4.700   1.264
22898SOL    HW168718   4.010   4.655   1.250
22898SOL    HW268719   3.848   4.635   1.245
22899SOL     OW68720   5.249   4.723   0.190
22899SOL    HW168721   5.186   4.647   0.203
22899SOL    HW268722   5.297   4.741   0.276
22900SOL     OW68723   4.911   5.516   1.616
22900SOL    HW168724   4.935   5.576   1.540
22900SOL    HW268725   4.918   5.421   1.586
22901SOL     OW68726   4.041   3.975   1.801
22901SOL    HW168727   4.112   4.046   1.807
22901SOL    HW268728   3.953   4.014   1.829
22902SOL     OW68729   5.190   5.141   0.953
22902SOL    HW168730   5.131   5.147   1.033
22902SOL    HW268731   5.175   5.053   0.907
22903SOL     OW68732   5.391   5.438   0.572
22903SOL    HW168733   5.350   5.415   0.484
22903SOL    HW268734   5.373   5.364   0.637
22904SOL     OW68735   4.322   4.453   0.270
22904SOL    HW168736   4.346   4.522   0.202
22904SOL    HW268737   4.244   4.486   0.324
22905SOL     OW68738   5.005   4.069   0.944
22905SOL    HW168739   4.919   4.019   0.931
22905SOL    HW268740   5.067   4.015   1.000
22906SOL     OW68741   5.300   5.386   0.307
22906SOL    HW168742   5.389   5.432   0.310
22906SOL    HW268743   5.279   5.362   0.212
22907SOL     OW68744   4.531   4.329   1.465
22907SOL    HW168745   4.484   4.326   1.554
22907SOL    HW268746   4.480   4.274   1.399
22908SOL     OW68747   5.118   4.193   1.674
22908SOL    HW168748   5.098   4.236   1.762
22908SOL    HW268749   5.196   4.131   1.683
22909SOL     OW68750   4.697   4.614   1.572
22909SOL    HW168751   4.743   4.530   1.543
22909SOL    HW268752   4.641   4.648   1.497
22910SOL     OW68753   4.715   4.134   1.242
22910SOL    HW168754   4.638   4.168   1.296
22910SOL    HW268755   4.681   4.083   1.163
22911SOL     OW68756   4.765   4.425   0.429
22911SOL    HW168757   4.791   4.421   0.525
22911SOL    HW268758   4.680   4.374   0.415
22912SOL     OW68759   3.800   4.535   0.789
22912SOL    HW168760   3.899   4.523   0.798
22912SOL    HW268761   3.776   4.630   0.810
22913SOL     OW68762   3.854   5.545   1.571
22913SOL    HW168763   3.844   5.530   1.670
22913SOL    HW268764   3.768   5.581   1.535
22914SOL     OW68765   4.589   4.072   0.195
22914SOL    HW168766   4.648   4.135   0.146
22914SOL    HW268767   4.608   3.978   0.166
22915SOL     OW68768   5.443   4.309   1.831
22915SOL    HW168769   5.417   4.398   1.795
22915SOL    HW268770   5.441   4.241   1.758
22916SOL     OW68771   5.086   4.868   0.545
22916SOL    HW168772   5.169   4.839   0.497
22916SOL    HW268773   5.037   4.935   0.489
22917SOL     OW68774   4.274   3.920   0.885
22917SOL    HW168775   4.269   3.915   0.985
22917SOL    HW268776   4.276   4.016   0.856
22918SOL     OW68777   4.732   5.180   0.477
22918SOL    HW168778   4.686   5.252   0.425
22918SOL    HW268779   4.728   5.200   0.575
22919SOL     OW68780   4.075   5.525   0.853
22919SOL    HW168781   4.125   5.439   0.859
22919SOL    HW268782   4.140   5.602   0.850
22920SOL     OW68783   5.519   4.790   0.873
22920SOL    HW168784   5.457   4.775   0.797
22920SOL    HW268785   5.467   4.801   0.958
22921SOL     OW68786   4.951   5.274   1.506
22921SOL    HW168787   4.957   5.197   1.570
22921SOL    HW268788   4.899   5.248   1.426
22922SOL     OW68789   4.045   4.667   0.242
22922SOL    HW168790   4.127   4.706   0.200
22922SOL    HW268791   4.018   4.585   0.193
22923SOL     OW68792   5.182   4.459   0.728
22923SOL    HW168793   5.177   4.394   0.803
22923SOL    HW268794   5.262   4.518   0.741
22924SOL     OW68795   4.185   4.990   1.727
22924SOL    HW168796   4.135   4.991   1.641
22924SOL    HW268797   4.122   4.972   1.803
22925SOL     OW68798   4.835   5.500   0.237
22925SOL    HW168799   4.775   5.438   0.287
22925SOL    HW268800   4.866   5.456   0.152
22926SOL     OW68801   3.926   4.009   1.498
22926SOL    HW168802   3.846   4.069   1.485
22926SOL    HW268803   3.916   3.960   1.584
22927SOL     OW68804   5.356   5.101   0.081
22927SOL    HW168805   5.324   5.195   0.071
22927SOL    HW268806   5.280   5.038   0.069
22928SOL     OW68807   4.188   5.467   0.323
22928SOL    HW168808   4.221   5.506   0.409
22928SOL    HW268809   4.264   5.460   0.258
22929SOL     OW68810   5.124   3.831   0.426
22929SOL    HW168811   5.100   3.794   0.336
22929SOL    HW268812   5.223   3.847   0.430
22930SOL     OW68813   3.973   5.509   1.241
22930SOL    HW168814   4.030   5.444   1.291
22930SOL    HW268815   3.957   5.476   1.148
22931SOL     OW68816   4.664   5.422   0.904
22931SOL    HW168817   4.744   5.365   0.925
22931SOL    HW268818   4.615   5.382   0.827
22932SOL     OW68819   4.106   4.424   0.480
22932SOL    HW168820   4.151   4.334   0.477
22932SOL    HW268821   4.012   4.413   0.513
22933SOL     OW68822   5.271   3.946   1.729
22933SOL    HW168823   5.266   3.983   1.821
22933SOL    HW268824   5.199   3.877   1.717
22934SOL     OW68825   4.505   3.988   1.749
22934SOL    HW168826   4.572   3.927   1.792
22934SOL    HW268827   4.432   4.007   1.814
22935SOL     OW68828   4.612   5.238   1.195
22935SOL    HW168829   4.589   5.213   1.101
22935SOL    HW268830   4.673   5.169   1.234
22936SOL     OW68831   5.075   4.314   1.433
22936SOL    HW168832   5.103   4.271   1.518
22936SOL    HW268833   5.100   4.410   1.434
22937SOL     OW68834   4.527   5.126   0.924
22937SOL    HW168835   4.617   5.140   0.882
22937SOL    HW268836   4.456   5.128   0.853
22938SOL     OW68837   4.646   4.227   0.899
22938SOL    HW168838   4.621   4.218   0.803
22938SOL    HW268839   4.694   4.145   0.930
22939SOL     OW68840   4.263   3.788   0.512
22939SOL    HW168841   4.182   3.789   0.570
22939SOL    HW268842   4.266   3.871   0.457
22940SOL     OW68843   5.158   4.912   0.041
22940SOL    HW168844   5.190   4.836   0.098
22940SOL    HW268845   5.066   4.939   0.071
22941SOL     OW68846   4.021   3.759   0.171
22941SOL    HW168847   4.070   3.843   0.150
22941SOL    HW268848   4.083   3.694   0.216
22942SOL     OW68849   4.659   3.960   0.480
22942SOL    HW168850   4.611   4.001   0.402
22942SOL    HW268851   4.758   3.958   0.461
22943SOL     OW68852   4.800   4.407   1.464
22943SOL    HW168853   4.720   4.346   1.467
22943SOL    HW268854   4.881   4.354   1.440
22944SOL     OW68855   4.951   5.294   0.793
22944SOL    HW168856   4.972   5.368   0.728
22944SOL    HW268857   5.019   5.294   0.866
22945SOL     OW68858   4.183   4.876   0.741
22945SOL    HW168859   4.112   4.849   0.806
22945SOL    HW268860   4.157   4.848   0.648
22946SOL     OW68861   4.995   5.521   0.591
22946SOL    HW168862   5.039   5.585   0.527
22946SOL    HW268863   4.945   5.573   0.661
22947SOL     OW68864   4.756   4.273   0.016
22947SOL    HW168865   4.715   4.355  -0.023
22947SOL    HW268866   4.820   4.299   0.089
22948SOL     OW68867   3.802   4.280   1.386
22948SOL    HW168868   3.894   4.279   1.345
22948SOL    HW268869   3.796   4.354   1.453
22949SOL     OW68870   4.285   3.946   1.147
22949SOL    HW168871   4.323   3.862   1.184
22949SOL    HW268872   4.197   3.965   1.191
22950SOL     OW68873   4.590   4.178   0.642
22950SOL    HW168874   4.558   4.250   0.580
22950SOL    HW268875   4.614   4.097   0.589
22951SOL     OW68876   4.741   3.763   0.753
22951SOL    HW168877   4.669   3.768   0.684
22951SOL    HW268878   4.717   3.694   0.822
22952SOL     OW68879   5.153   4.897   0.867
22952SOL    HW168880   5.098   4.813   0.860
22952SOL    HW268881   5.179   4.926   0.775
22953SOL     OW68882   5.190   4.314   0.992
22953SOL    HW168883   5.160   4.219   0.999
22953SOL    HW268884   5.263   4.330   1.058
22954SOL     OW68885   5.581   4.557   0.377
22954SOL    HW168886   5.623   4.493   0.441
22954SOL    HW268887   5.543   4.506   0.299
22955SOL     OW68888   4.212   5.109   0.174
22955SOL    HW168889   4.125   5.094   0.221
22955SOL    HW268890   4.195   5.135   0.079
22956SOL     OW68891   5.388   5.004   0.657
22956SOL    HW168892   5.487   5.012   0.671
22956SOL    HW268893   5.343   5.088   0.688
22957SOL     OW68894   5.114   4.299   0.078
22957SOL    HW168895   5.060   4.278   0.159
22957SOL    HW268896   5.205   4.258   0.087
22958SOL     OW68897   4.251   3.980   0.328
22958SOL    HW168898   4.278   3.921   0.253
22958SOL    HW268899   4.251   4.075   0.297
22959SOL     OW68900   5.478   4.947   1.588
22959SOL    HW168901   5.569   4.908   1.575
22959SOL    HW268902   5.486   5.043   1.612
22960SOL     OW68903   4.788   5.071   1.340
22960SOL    HW168904   4.708   5.048   1.395
22960SOL    HW268905   4.871   5.045   1.389
22961SOL     OW68906   5.316   5.353   1.625
22961SOL    HW168907   5.343   5.387   1.535
22961SOL    HW268908   5.395   5.315   1.671
22962SOL     OW68909   4.835   4.919   1.100
22962SOL    HW168910   4.795   4.963   1.181
22962SOL    HW268911   4.794   4.956   1.017
22963SOL     OW68912   5.362   4.823   1.079
22963SOL    HW168913   5.367   4.904   1.138
22963SOL    HW268914   5.276   4.825   1.028
22964SOL     OW68915   4.639   3.813   1.402
22964SOL    HW168916   4.664   3.793   1.307
22964SOL    HW268917   4.711   3.869   1.444
22965SOL     OW68918   4.704   4.840   1.719
22965SOL    HW168919   4.605   4.846   1.729
22965SOL    HW268920   4.727   4.760   1.663
22966SOL     OW68921   4.429   4.774   0.368
22966SOL    HW168922   4.415   4.781   0.467
22966SOL    HW268923   4.513   4.723   0.350
22967SOL     OW68924   4.134   4.537   1.251
22967SOL    HW168925   4.220   4.549   1.301
22967SOL    HW268926   4.092   4.450   1.278
22968SOL     OW68927   4.998   4.110   1.262
22968SOL    HW168928   5.019   4.184   1.326
22968SOL    HW268929   4.909   4.127   1.219
22969SOL     OW68930   3.788   5.288   1.331
22969SOL    HW168931   3.742   5.370   1.297
22969SOL    HW268932   3.886   5.307   1.340
22970SOL     OW68933   4.091   4.824   0.501
22970SOL    HW168934   4.084   4.907   0.445
22970SOL    HW268935   4.095   4.744   0.441
22971SOL     OW68936   4.290   4.261   0.865
22971SOL    HW168937   4.302   4.327   0.791
22971SOL    HW268938   4.336   4.295   0.948
22972SOL     OW68939   4.976   5.072   0.388
22972SOL    HW168940   5.026   5.149   0.428
22972SOL    HW268941   4.881   5.074   0.420
22973SOL     OW68942   4.996   5.169   1.142
22973SOL    HW168943   5.043   5.182   1.229
22973SOL    HW268944   4.930   5.095   1.151
22974SOL     OW68945   5.306   4.363   0.472
22974SOL    HW168946   5.275   4.424   0.545
22974SOL    HW268947   5.356   4.415   0.403
22975SOL     OW68948   4.078   5.234   1.329
22975SOL    HW168949   4.057   5.190   1.242
22975SOL    HW268950   4.175   5.260   1.332
22976SOL     OW68951   4.126   4.475   1.598
22976SOL    HW168952   4.194   4.530   1.551
22976SOL    HW268953   4.166   4.387   1.625
22977SOL     OW68954   5.311   4.503   1.670
22977SOL    HW168955   5.219   4.541   1.665
22977SOL    HW268956   5.371   4.550   1.605
22978SOL     OW68957   4.737   3.829   1.770
22978SOL    HW168958   4.743   3.914   1.718
22978SOL    HW268959   4.769   3.753   1.713
22979SOL     OW68960   4.228   3.774   1.740
22979SOL    HW168961   4.186   3.717   1.670
22979SOL    HW268962   4.162   3.843   1.772
22980SOL     OW68963   4.297   4.594   1.029
22980SOL    HW168964   4.341   4.683   1.020
22980SOL    HW268965   4.234   4.594   1.106
22981SOL     OW68966   5.084   4.586   1.045
22981SOL    HW168967   5.009   4.586   0.979
22981SOL    HW268968   5.121   4.494   1.054
22982SOL     OW68969   4.933   4.249   0.275
22982SOL    HW168970   4.946   4.165   0.329
22982SOL    HW268971   4.904   4.323   0.335
22983SOL     OW68972   4.031   3.937   1.231
22983SOL    HW168973   4.008   3.974   1.321
22983SOL    HW268974   4.001   3.842   1.225
22984SOL     OW68975   3.761   5.034   1.282
22984SOL    HW168976   3.814   4.985   1.350
22984SOL    HW268977   3.783   5.132   1.287
22985SOL     OW68978   4.456   4.358   1.064
22985SOL    HW168979   4.515   4.332   0.988
22985SOL    HW268980   4.428   4.454   1.053
22986SOL     OW68981   5.452   4.659   1.854
22986SOL    HW168982   5.406   4.652   1.765
22986SOL    HW268983   5.390   4.703   1.920
22987SOL     OW68984   4.031   3.787   0.618
22987SOL    HW168985   4.020   3.881   0.651
22987SOL    HW268986   4.026   3.724   0.695
22988SOL     OW68987   5.346   4.091   0.374
22988SOL    HW168988   5.348   4.015   0.438
22988SOL    HW268989   5.298   4.168   0.414
22989SOL     OW68990   4.747   4.490   0.966
22989SOL    HW168991   4.762   4.511   1.062
22989SOL    HW268992   4.717   4.395   0.957
22990SOL     OW68993   4.704   5.297   1.700
22990SOL    HW168994   4.684   5.341   1.612
22990SOL    HW268995   4.743   5.206   1.684
22991SOL     OW68996   5.583   5.242   1.605
22991SOL    HW168997   5.597   5.269   1.510
22991SOL    HW268998   5.666   5.264   1.658
22992SOL     OW68999   4.074   4.622   1.804
22992SOL    HW169000   4.150   4.666   1.852
22992SOL    HW269001   4.109   4.575   1.722
22993SOL     OW69002   5.264   3.998   0.125
22993SOL    HW169003   5.203   3.923   0.148
22993SOL    HW269004   5.286   4.050   0.208
22994SOL     OW69005   5.027   4.562   0.042
22994SOL    HW169006   5.061   4.469   0.057
22994SOL    HW269007   5.045   4.589  -0.053
22995SOL     OW69008   4.792   5.057   0.849
22995SOL    HW169009   4.799   4.973   0.794
22995SOL    HW269010   4.854   5.126   0.813
22996SOL     OW69011   4.043   4.534   0.949
22996SOL    HW169012   4.136   4.570   0.954
22996SOL    HW269013   4.037   4.449   1.001
22997SOL     OW69014   4.063   4.233   1.006
22997SOL    HW169015   4.011   4.150   0.989
22997SOL    HW269016   4.140   4.238   0.942
22998SOL     OW69017   4.862   4.104   1.678
22998SOL    HW169018   4.817   4.167   1.742
22998SOL    HW269019   4.955   4.135   1.661
22999SOL     OW69020   4.884   3.931   1.477
22999SOL    HW169021   4.884   3.995   1.554
22999SOL    HW269022   4.912   3.979   1.394
23000SOL     OW69023   3.732   5.050   0.200
23000SOL    HW169024   3.639   5.071   0.169
23000SOL    HW269025   3.742   4.951   0.213
23001SOL     OW69026   3.812   5.525   0.927
23001SOL    HW169027   3.770   5.439   0.900
23001SOL    HW269028   3.906   5.528   0.893
23002SOL     OW69029   4.228   5.292   0.910
23002SOL    HW169030   4.294   5.366   0.919
23002SOL    HW269031   4.272   5.213   0.868
23003SOL     OW69032   4.726   4.520   1.238
23003SOL    HW169033   4.767   4.488   1.324
23003SOL    HW269034   4.630   4.493   1.235
23004SOL     OW69035   3.764   4.268   1.114
23004SOL    HW169036   3.849   4.235   1.073
23004SOL    HW269037   3.777   4.283   1.212
23005SOL     OW69038   3.913   4.244   1.722
23005SOL    HW169039   3.972   4.204   1.652
23005SOL    HW269040   3.855   4.315   1.681
23006SOL     OW69041   5.093   4.674   1.660
23006SOL    HW169042   5.132   4.763   1.680
23006SOL    HW269043   5.103   4.654   1.563
23007SOL     OW69044   4.539   4.296   0.325
23007SOL    HW169045   4.546   4.207   0.279
23007SOL    HW269046   4.445   4.330   0.317
23008SOL     OW69047   5.381   4.328   1.206
23008SOL    HW169048   5.343   4.259   1.268
23008SOL    HW269049   5.463   4.292   1.162
23009SOL     OW69050   3.976   5.288   1.744
23009SOL    HW169051   3.946   5.345   1.820
23009SOL    HW269052   3.969   5.191   1.770
23010SOL     OW69053   4.395   4.188   1.269
23010SOL    HW169054   4.361   4.099   1.239
23010SOL    HW269055   4.421   4.242   1.189
23011SOL     OW69056   4.654   5.402   1.465
23011SOL    HW169057   4.630   5.384   1.370
23011SOL    HW269058   4.684   5.496   1.475
23012SOL     OW69059   4.197   4.224   0.191
23012SOL    HW169060   4.258   4.304   0.195
23012SOL    HW269061   4.102   4.255   0.198
23013SOL     OW69062   3.883   4.861   1.466
23013SOL    HW169063   3.905   4.800   1.542
23013SOL    HW269064   3.893   4.812   1.380
23014SOL     OW69065   5.071   4.783   1.234
23014SOL    HW169066   5.095   4.720   1.160
23014SOL    HW269067   4.981   4.823   1.216
23015SOL     OW69068   5.026   4.579   0.309
23015SOL    HW169069   4.940   4.548   0.351
23015SOL    HW269070   5.022   4.565   0.210
23016SOL     OW69071   5.483   5.471   1.154
23016SOL    HW169072   5.544   5.501   1.081
23016SOL    HW269073   5.445   5.382   1.132
23017SOL     OW69074   4.976   5.455   1.128
23017SOL    HW169075   5.060   5.460   1.074
23017SOL    HW269076   4.953   5.359   1.146
23018SOL     OW69077   3.807   4.982   1.022
23018SOL    HW169078   3.802   4.981   1.122
23018SOL    HW269079   3.724   4.941   0.984
23019SOL     OW69080   4.412   5.386   1.716
23019SOL    HW169081   4.356   5.467   1.725
23019SOL    HW269082   4.464   5.390   1.630
23020SOL     OW69083   4.627   3.810   0.133
23020SOL    HW169084   4.678   3.811   0.047
23020SOL    HW269085   4.683   3.768   0.204
23021SOL     OW69086   5.450   3.859   0.523
23021SOL    HW169087   5.523   3.842   0.456
23021SOL    HW269088   5.419   3.772   0.561
23022SOL     OW69089   5.112   5.297   0.477
23022SOL    HW169090   5.179   5.309   0.403
23022SOL    HW269091   5.072   5.386   0.500
23023SOL     OW69092   3.854   5.518   1.851
23023SOL    HW169093   3.813   5.444   1.904
23023SOL    HW269094   3.918   5.569   1.909
23024SOL     OW69095   5.004   4.651   0.672
23024SOL    HW169096   5.064   4.570   0.674
23024SOL    HW269097   5.044   4.720   0.612
23025SOL     OW69098   4.554   4.997   1.422
23025SOL    HW169099   4.549   5.030   1.517
23025SOL    HW269100   4.468   5.016   1.376
23026SOL     OW69101   4.396   5.340   0.154
23026SOL    HW169102   4.405   5.350   0.055
23026SOL    HW269103   4.356   5.251   0.175
23027SOL     OW69104   5.374   5.444   1.394
23027SOL    HW169105   5.427   5.454   1.310
23027SOL    HW269106   5.347   5.534   1.428
23028SOL     OW69107   5.565   3.899   0.963
23028SOL    HW169108   5.604   3.814   0.927
23028SOL    HW269109   5.467   3.901   0.944
23029SOL     OW69110   3.987   4.050   0.720
23029SOL    HW169111   3.908   4.101   0.686
23029SOL    HW269112   3.978   4.035   0.818
23030SOL     OW69113   4.918   5.336   0.031
23030SOL    HW169114   4.924   5.243   0.068
23030SOL    HW269115   4.859   5.336  -0.049
23031SOL     OW69116   4.546   4.726   1.372
23031SOL    HW169117   4.586   4.725   1.280
23031SOL    HW269118   4.556   4.818   1.412
23032SOL     OW69119   4.640   4.634   0.291
23032SOL    HW169120   4.703   4.672   0.223
23032SOL    HW269121   4.680   4.551   0.330
23033SOL     OW69122   5.228   5.331   0.044
23033SOL    HW169123   5.136   5.368   0.051
23033SOL    HW269124   5.266   5.351  -0.046
23034SOL     OW69125   4.096   5.012   1.490
23034SOL    HW169126   4.083   5.105   1.456
23034SOL    HW269127   4.012   4.960   1.477
23035SOL     OW69128   5.338   5.016   1.289
23035SOL    HW169129   5.398   5.019   1.369
23035SOL    HW269130   5.263   5.080   1.302
23036SOL     OW69131   4.763   4.822   0.696
23036SOL    HW169132   4.693   4.775   0.750
23036SOL    HW269133   4.822   4.754   0.653
23037SOL     OW69134   4.738   3.960   0.971
23037SOL    HW169135   4.730   3.924   0.878
23037SOL    HW269136   4.736   3.884   1.036
23038SOL     OW69137   4.314   5.211   0.491
23038SOL    HW169138   4.356   5.153   0.421
23038SOL    HW269139   4.270   5.290   0.447
23039SOL     OW69140   5.433   4.109   1.381
23039SOL    HW169141   5.506   4.178   1.385
23039SOL    HW269142   5.461   4.034   1.322
23040SOL     OW69143   3.979   5.072   0.290
23040SOL    HW169144   3.883   5.073   0.263
23040SOL    HW269145   3.991   5.125   0.374
23041SOL     OW69146   3.829   4.737   1.726
23041SOL    HW169147   3.752   4.704   1.780
23041SOL    HW269148   3.914   4.707   1.768
23042SOL     OW69149   4.396   3.927   1.489
23042SOL    HW169150   4.486   3.911   1.449
23042SOL    HW269151   4.404   3.932   1.588
23043SOL     OW69152   5.164   4.580   1.398
23043SOL    HW169153   5.107   4.632   1.335
23043SOL    HW269154   5.260   4.592   1.374
23044SOL     OW69155   3.796   3.890   0.318
23044SOL    HW169156   3.779   3.973   0.264
23044SOL    HW269157   3.886   3.853   0.296
23045SOL     OW69158   4.907   5.059   0.119
23045SOL    HW169159   4.808   5.048   0.121
23045SOL    HW269160   4.941   5.074   0.212
23046SOL     OW69161   4.337   4.566   1.431
23046SOL    HW169162   4.393   4.647   1.414
23046SOL    HW269163   4.396   4.486   1.434
23047SOL     OW69164   5.217   5.491   0.959
23047SOL    HW169165   5.250   5.555   0.890
23047SOL    HW269166   5.283   5.485   1.034
23048SOL     OW69167   4.440   4.289   1.708
23048SOL    HW169168   4.459   4.354   1.782
23048SOL    HW269169   4.500   4.209   1.717
23049SOL     OW69170   5.174   4.944   1.633
23049SOL    HW169171   5.165   4.934   1.732
23049SOL    HW269172   5.270   4.937   1.607
23050SOL     OW69173   4.114   5.465   1.560
23050SOL    HW169174   4.023   5.506   1.558
23050SOL    HW269175   4.107   5.371   1.592
23051SOL     OW69176   5.398   4.607   1.254
23051SOL    HW169177   5.371   4.518   1.217
23051SOL    HW269178   5.399   4.675   1.181
23052SOL     OW69179   4.949   4.049   0.449
23052SOL    HW169180   5.014   3.975   0.438
23052SOL    HW269181   4.969   4.099   0.533
23053SOL     OW69182   4.318   4.469   0.652
23053SOL    HW169183   4.368   4.554   0.633
23053SOL    HW269184   4.230   4.471   0.604
23054SOL     OW69185   5.501   4.066   1.642
23054SOL    HW169186   5.484   4.097   1.548
23054SOL    HW269187   5.417   4.029   1.680
23055SOL     OW69188   5.454   4.658   1.517
23055SOL    HW169189   5.492   4.749   1.532
23055SOL    HW269190   5.446   4.641   1.418
23056SOL     OW69191   4.583   5.098   0.016
23056SOL    HW169192   4.537   5.113   0.104
23056SOL    HW269193   4.627   5.183  -0.014
23057SOL     OW69194   4.385   5.514   0.953
23057SOL    HW169195   4.339   5.602   0.940
23057SOL    HW269196   4.484   5.526   0.946
23058SOL     OW69197   4.583   4.680   0.861
23058SOL    HW169198   4.637   4.611   0.909
23058SOL    HW269199   4.551   4.749   0.927
23059SOL     OW69200   4.807   4.708   0.087
23059SOL    HW169201   4.784   4.761   0.005
23059SOL    HW269202   4.888   4.652   0.068
23060SOL     OW69203   5.585   5.293   0.851
23060SOL    HW169204   5.514   5.281   0.781
23060SOL    HW269205   5.586   5.214   0.911
23061SOL     OW69206   3.945   5.038   1.844
23061SOL    HW169207   3.880   4.965   1.823
23061SOL    HW269208   3.949   5.052   1.942
23062SOL     OW69209   3.803   4.964   0.653
23062SOL    HW169210   3.802   4.917   0.741
23062SOL    HW269211   3.885   4.936   0.602
23063SOL     OW69212   4.396   5.115   1.624
23063SOL    HW169213   4.318   5.065   1.662
23063SOL    HW269214   4.393   5.210   1.655
23064SOL     OW69215   5.548   3.916   1.227
23064SOL    HW169216   5.544   3.826   1.271
23064SOL    HW269217   5.551   3.905   1.128
23065SOL     OW69218   4.152   4.148   0.520
23065SOL    HW169219   4.182   4.076   0.458
23065SOL    HW269220   4.113   4.108   0.603
23066SOL     OW69221   5.429   5.211   1.104
23066SOL    HW169222   5.336   5.186   1.077
23066SOL    HW269223   5.455   5.161   1.186
23067SOL     OW69224   4.041   4.271   1.280
23067SOL    HW169225   4.079   4.212   1.352
23067SOL    HW269226   4.081   4.245   1.192
23068SOL     OW69227   4.536   5.310   0.687
23068SOL    HW169228   4.568   5.320   0.593
23068SOL    HW269229   4.457   5.248   0.689
23069SOL     OW69230   5.148   3.938   1.112
23069SOL    HW169231   5.200   3.873   1.167
23069SOL    HW269232   5.099   4.001   1.173
23070SOL     OW69233   4.725   3.758   1.154
23070SOL    HW169234   4.662   3.686   1.123
23070SOL    HW269235   4.818   3.722   1.154
23071SOL     OW69236   4.494   5.054   0.301
23071SOL    HW169237   4.448   4.967   0.318
23071SOL    HW269238   4.585   5.051   0.342
23072SOL     OW69239   4.342   5.291   1.284
23072SOL    HW169240   4.337   5.373   1.341
23072SOL    HW269241   4.431   5.288   1.239
23073SOL     OW69242   5.076   3.776   0.168
23073SOL    HW169243   5.111   3.735   0.084
23073SOL    HW269244   4.986   3.738   0.188
23074SOL     OW69245   5.024   4.177   0.691
23074SOL    HW169246   4.965   4.257   0.695
23074SOL    HW269247   5.039   4.142   0.784
23075SOL     OW69248   5.317   3.945   0.882
23075SOL    HW169249   5.233   3.944   0.936
23075SOL    HW269250   5.319   4.028   0.826
23076SOL     OW69251   3.763   4.801   0.300
23076SOL    HW169252   3.862   4.790   0.291
23076SOL    HW269253   3.723   4.715   0.332
23077SOL     OW69254   4.599   5.370   0.337
23077SOL    HW169255   4.522   5.335   0.283
23077SOL    HW269256   4.567   5.441   0.399
23078SOL     OW69257   3.954   4.352   1.975
23078SOL    HW169258   3.861   4.350   2.012
23078SOL    HW269259   3.955   4.313   1.883
23079SOL     OW69260   3.949   3.999   2.858
23079SOL    HW169261   3.984   3.982   2.950
23079SOL    HW269262   3.861   3.954   2.846
23080SOL     OW69263   3.743   4.092   2.509
23080SOL    HW169264   3.661   4.135   2.548
23080SOL    HW269265   3.715   4.019   2.446
23081SOL     OW69266   4.293   4.999   3.027
23081SOL    HW169267   4.200   4.992   2.990
23081SOL    HW269268   4.304   5.088   3.071
23082SOL     OW69269   5.279   5.235   2.565
23082SOL    HW169270   5.222   5.219   2.646
23082SOL    HW269271   5.220   5.245   2.485
23083SOL     OW69272   4.859   4.427   2.579
23083SOL    HW169273   4.916   4.505   2.554
23083SOL    HW269274   4.799   4.453   2.655
23084SOL     OW69275   5.479   4.331   2.093
23084SOL    HW169276   5.467   4.318   1.994
23084SOL    HW269277   5.449   4.250   2.142
23085SOL     OW69278   4.492   4.868   2.885
23085SOL    HW169279   4.414   4.885   2.945
23085SOL    HW269280   4.526   4.955   2.849
23086SOL     OW69281   4.574   4.522   3.685
23086SOL    HW169282   4.570   4.598   3.750
23086SOL    HW269283   4.596   4.558   3.594
23087SOL     OW69284   4.409   4.736   2.527
23087SOL    HW169285   4.478   4.720   2.597
23087SOL    HW269286   4.336   4.793   2.565
23088SOL     OW69287   4.410   4.885   3.665
23088SOL    HW169288   4.470   4.964   3.679
23088SOL    HW269289   4.324   4.916   3.624
23089SOL     OW69290   4.059   5.159   2.923
23089SOL    HW169291   3.981   5.128   2.870
23089SOL    HW269292   4.117   5.217   2.866
23090SOL     OW69293   5.184   5.229   3.201
23090SOL    HW169294   5.208   5.323   3.227
23090SOL    HW269295   5.168   5.175   3.283
23091SOL     OW69296   4.162   4.116   3.361
23091SOL    HW169297   4.244   4.060   3.370
23091SOL    HW269298   4.081   4.058   3.365
23092SOL     OW69299   5.327   4.171   2.599
23092SOL    HW169300   5.253   4.217   2.549
23092SOL    HW269301   5.378   4.239   2.652
23093SOL     OW69302   3.955   5.437   2.345
23093SOL    HW169303   3.989   5.514   2.399
23093SOL    HW269304   3.999   5.437   2.255
23094SOL     OW69305   4.851   5.065   3.552
23094SOL    HW169306   4.898   5.065   3.640
23094SOL    HW269307   4.803   4.978   3.541
23095SOL     OW69308   3.954   5.158   2.400
23095SOL    HW169309   3.928   5.254   2.400
23095SOL    HW269310   3.883   5.104   2.445
23096SOL     OW69311   3.964   4.815   2.748
23096SOL    HW169312   3.978   4.731   2.800
23096SOL    HW269313   3.909   4.879   2.803
23097SOL     OW69314   4.344   5.510   3.301
23097SOL    HW169315   4.252   5.493   3.336
23097SOL    HW269316   4.372   5.602   3.327
23098SOL     OW69317   4.330   4.688   1.985
23098SOL    HW169318   4.337   4.772   1.931
23098SOL    HW269319   4.376   4.701   2.073
23099SOL     OW69320   5.318   3.838   3.342
23099SOL    HW169321   5.300   3.905   3.270
23099SOL    HW269322   5.315   3.884   3.431
23100SOL     OW69323   3.846   4.367   2.425
23100SOL    HW169324   3.801   4.279   2.442
23100SOL    HW269325   3.845   4.421   2.509
23101SOL     OW69326   5.566   5.491   2.221
23101SOL    HW169327   5.620   5.462   2.301
23101SOL    HW269328   5.596   5.581   2.192
23102SOL     OW69329   3.751   5.320   1.979
23102SOL    HW169330   3.732   5.224   2.000
23102SOL    HW269331   3.718   5.378   2.054
23103SOL     OW69332   5.413   4.646   2.474
23103SOL    HW169333   5.508   4.617   2.482
23103SOL    HW269334   5.405   4.711   2.399
23104SOL     OW69335   5.365   4.832   2.294
23104SOL    HW169336   5.451   4.834   2.242
23104SOL    HW269337   5.379   4.879   2.382
23105SOL     OW69338   3.837   4.461   3.459
23105SOL    HW169339   3.925   4.448   3.504
23105SOL    HW269340   3.824   4.558   3.437
23106SOL     OW69341   4.337   5.089   2.588
23106SOL    HW169342   4.288   5.002   2.597
23106SOL    HW269343   4.314   5.132   2.501
23107SOL     OW69344   5.017   4.952   3.285
23107SOL    HW169345   5.054   4.879   3.227
23107SOL    HW269346   5.069   4.957   3.370
23108SOL     OW69347   4.533   3.728   2.364
23108SOL    HW169348   4.573   3.819   2.355
23108SOL    HW269349   4.433   3.736   2.370
23109SOL     OW69350   3.921   4.700   3.126
23109SOL    HW169351   4.010   4.655   3.112
23109SOL    HW269352   3.848   4.635   3.107
23110SOL     OW69353   5.249   4.723   2.052
23110SOL    HW169354   5.186   4.647   2.065
23110SOL    HW269355   5.297   4.741   2.138
23111SOL     OW69356   4.911   5.516   3.478
23111SOL    HW169357   4.935   5.576   3.402
23111SOL    HW269358   4.918   5.421   3.448
23112SOL     OW69359   4.041   3.975   3.663
23112SOL    HW169360   4.112   4.046   3.669
23112SOL    HW269361   3.953   4.014   3.691
23113SOL     OW69362   5.190   5.141   2.815
23113SOL    HW169363   5.131   5.147   2.895
23113SOL    HW269364   5.175   5.053   2.769
23114SOL     OW69365   5.391   5.438   2.434
23114SOL    HW169366   5.350   5.415   2.346
23114SOL    HW269367   5.373   5.364   2.499
23115SOL     OW69368   4.322   4.453   2.132
23115SOL    HW169369   4.346   4.522   2.064
23115SOL    HW269370   4.244   4.486   2.186
23116SOL     OW69371   5.005   4.069   2.806
23116SOL    HW169372   4.919   4.019   2.793
23116SOL    HW269373   5.067   4.015   2.862
23117SOL     OW69374   5.300   5.386   2.169
23117SOL    HW169375   5.389   5.432   2.172
23117SOL    HW269376   5.279   5.362   2.074
23118SOL     OW69377   4.531   4.329   3.327
23118SOL    HW169378   4.484   4.326   3.416
23118SOL    HW269379   4.480   4.274   3.261
23119SOL     OW69380   5.118   4.193   3.536
23119SOL    HW169381   5.098   4.236   3.624
23119SOL    HW269382   5.196   4.131   3.545
23120SOL     OW69383   4.697   4.614   3.434
23120SOL    HW169384   4.743   4.530   3.405
23120SOL    HW269385   4.641   4.648   3.359
23121SOL     OW69386   4.715   4.134   3.104
23121SOL    HW169387   4.638   4.168   3.158
23121SOL    HW269388   4.681   4.083   3.025
23122SOL     OW69389   4.765   4.425   2.291
23122SOL    HW169390   4.791   4.421   2.387
23122SOL    HW269391   4.680   4.374   2.277
23123SOL     OW69392   3.800   4.535   2.651
23123SOL    HW169393   3.899   4.523   2.660
23123SOL    HW269394   3.776   4.630   2.672
23124SOL     OW69395   3.854   5.545   3.433
23124SOL    HW169396   3.844   5.530   3.532
23124SOL    HW269397   3.768   5.581   3.397
23125SOL     OW69398   4.589   4.072   2.057
23125SOL    HW169399   4.648   4.135   2.008
23125SOL    HW269400   4.608   3.978   2.028
23126SOL     OW69401   5.443   4.309   3.693
23126SOL    HW169402   5.417   4.398   3.657
23126SOL    HW269403   5.441   4.241   3.620
23127SOL     OW69404   5.086   4.868   2.407
23127SOL    HW169405   5.169   4.839   2.359
23127SOL    HW269406   5.037   4.935   2.351
23128SOL     OW69407   4.274   3.920   2.747
23128SOL    HW169408   4.269   3.915   2.847
23128SOL    HW269409   4.276   4.016   2.718
23129SOL     OW69410   4.732   5.180   2.339
23129SOL    HW169411   4.686   5.252   2.287
23129SOL    HW269412   4.728   5.200   2.437
23130SOL     OW69413   4.075   5.525   2.715
23130SOL    HW169414   4.125   5.439   2.721
23130SOL    HW269415   4.140   5.602   2.712
23131SOL     OW69416   5.519   4.790   2.735
23131SOL    HW169417   5.457   4.775   2.659
23131SOL    HW269418   5.467   4.801   2.820
23132SOL     OW69419   4.951   5.274   3.368
23132SOL    HW169420   4.957   5.197   3.432
23132SOL    HW269421   4.899   5.248   3.288
23133SOL     OW69422   4.045   4.667   2.104
23133SOL    HW169423   4.127   4.706   2.062
23133SOL    HW269424   4.018   4.585   2.055
23134SOL     OW69425   5.182   4.459   2.590
23134SOL    HW169426   5.177   4.394   2.665
23134SOL    HW269427   5.262   4.518   2.603
23135SOL     OW69428   4.185   4.990   3.589
23135SOL    HW169429   4.135   4.991   3.503
23135SOL    HW269430   4.122   4.972   3.665
23136SOL     OW69431   4.835   5.500   2.099
23136SOL    HW169432   4.775   5.438   2.149
23136SOL    HW269433   4.866   5.456   2.014
23137SOL     OW69434   3.926   4.009   3.360
23137SOL    HW169435   3.846   4.069   3.347
23137SOL    HW269436   3.916   3.960   3.446
23138SOL     OW69437   5.356   5.101   1.943
23138SOL    HW169438   5.324   5.195   1.933
23138SOL    HW269439   5.280   5.038   1.931
23139SOL     OW69440   4.188   5.467   2.185
23139SOL    HW169441   4.221   5.506   2.271
23139SOL    HW269442   4.264   5.460   2.120
23140SOL     OW69443   5.124   3.831   2.288
23140SOL    HW169444   5.100   3.794   2.198
23140SOL    HW269445   5.223   3.847   2.292
23141SOL     OW69446   3.973   5.509   3.103
23141SOL    HW169447   4.030   5.444   3.153
23141SOL    HW269448   3.957   5.476   3.010
23142SOL     OW69449   4.664   5.422   2.766
23142SOL    HW169450   4.744   5.365   2.787
23142SOL    HW269451   4.615   5.382   2.689
23143SOL     OW69452   4.106   4.424   2.342
23143SOL    HW169453   4.151   4.334   2.339
23143SOL    HW269454   4.012   4.413   2.375
23144SOL     OW69455   5.271   3.946   3.591
23144SOL    HW169456   5.266   3.983   3.683
23144SOL    HW269457   5.199   3.877   3.579
23145SOL     OW69458   4.338   3.846   1.979
23145SOL    HW169459   4.436   3.824   1.986
23145SOL    HW269460   4.307   3.829   1.886
23146SOL     OW69461   4.505   3.988   3.611
23146SOL    HW169462   4.572   3.927   3.654
23146SOL    HW269463   4.432   4.007   3.676
23147SOL     OW69464   4.612   5.238   3.057
23147SOL    HW169465   4.589   5.213   2.963
23147SOL    HW269466   4.673   5.169   3.096
23148SOL     OW69467   5.075   4.314   3.295
23148SOL    HW169468   5.103   4.271   3.380
23148SOL    HW269469   5.100   4.410   3.296
23149SOL     OW69470   4.527   5.126   2.786
23149SOL    HW169471   4.617   5.140   2.744
23149SOL    HW269472   4.456   5.128   2.715
23150SOL     OW69473   4.646   4.227   2.761
23150SOL    HW169474   4.621   4.218   2.665
23150SOL    HW269475   4.694   4.145   2.792
23151SOL     OW69476   4.263   3.788   2.374
23151SOL    HW169477   4.182   3.789   2.432
23151SOL    HW269478   4.266   3.871   2.319
23152SOL     OW69479   5.158   4.912   1.903
23152SOL    HW169480   5.190   4.836   1.960
23152SOL    HW269481   5.066   4.939   1.933
23153SOL     OW69482   4.021   3.759   2.033
23153SOL    HW169483   4.070   3.843   2.012
23153SOL    HW269484   4.083   3.694   2.078
23154SOL     OW69485   4.659   3.960   2.342
23154SOL    HW169486   4.611   4.001   2.264
23154SOL    HW269487   4.758   3.958   2.323
23155SOL     OW69488   4.800   4.407   3.326
23155SOL    HW169489   4.720   4.346   3.329
23155SOL    HW269490   4.881   4.354   3.302
23156SOL     OW69491   4.951   5.294   2.655
23156SOL    HW169492   4.972   5.368   2.590
23156SOL    HW269493   5.019   5.294   2.728
23157SOL     OW69494   4.183   4.876   2.603
23157SOL    HW169495   4.112   4.849   2.668
23157SOL    HW269496   4.157   4.848   2.510
23158SOL     OW69497   4.995   5.521   2.453
23158SOL    HW169498   5.039   5.585   2.389
23158SOL    HW269499   4.945   5.573   2.523
23159SOL     OW69500   4.756   4.273   1.878
23159SOL    HW169501   4.715   4.355   1.839
23159SOL    HW269502   4.820   4.299   1.951
23160SOL     OW69503   3.802   4.280   3.248
23160SOL    HW169504   3.894   4.279   3.207
23160SOL    HW269505   3.796   4.354   3.315
23161SOL     OW69506   4.285   3.946   3.009
23161SOL    HW169507   4.323   3.862   3.046
23161SOL    HW269508   4.197   3.965   3.053
23162SOL     OW69509   4.590   4.178   2.504
23162SOL    HW169510   4.558   4.250   2.442
23162SOL    HW269511   4.614   4.097   2.451
23163SOL     OW69512   4.741   3.763   2.615
23163SOL    HW169513   4.669   3.768   2.546
23163SOL    HW269514   4.717   3.694   2.684
23164SOL     OW69515   5.153   4.897   2.729
23164SOL    HW169516   5.098   4.813   2.722
23164SOL    HW269517   5.179   4.926   2.637
23165SOL     OW69518   5.190   4.314   2.854
23165SOL    HW169519   5.160   4.219   2.861
23165SOL    HW269520   5.263   4.330   2.920
23166SOL     OW69521   5.581   4.557   2.239
23166SOL    HW169522   5.623   4.493   2.303
23166SOL    HW269523   5.543   4.506   2.161
23167SOL     OW69524   4.212   5.109   2.036
23167SOL    HW169525   4.125   5.094   2.083
23167SOL    HW269526   4.195   5.135   1.941
23168SOL     OW69527   5.388   5.004   2.519
23168SOL    HW169528   5.487   5.012   2.533
23168SOL    HW269529   5.343   5.088   2.550
23169SOL     OW69530   5.114   4.299   1.940
23169SOL    HW169531   5.060   4.278   2.021
23169SOL    HW269532   5.205   4.258   1.949
23170SOL     OW69533   4.251   3.980   2.190
23170SOL    HW169534   4.278   3.921   2.115
23170SOL    HW269535   4.251   4.075   2.159
23171SOL     OW69536   5.478   4.947   3.450
23171SOL    HW169537   5.569   4.908   3.437
23171SOL    HW269538   5.486   5.043   3.474
23172SOL     OW69539   4.788   5.071   3.202
23172SOL    HW169540   4.708   5.048   3.257
23172SOL    HW269541   4.871   5.045   3.251
23173SOL     OW69542   5.316   5.353   3.487
23173SOL    HW169543   5.343   5.387   3.397
23173SOL    HW269544   5.395   5.315   3.533
23174SOL     OW69545   4.835   4.919   2.962
23174SOL    HW169546   4.795   4.963   3.043
23174SOL    HW269547   4.794   4.956   2.879
23175SOL     OW69548   5.362   4.823   2.941
23175SOL    HW169549   5.367   4.904   3.000
23175SOL    HW269550   5.276   4.825   2.890
23176SOL     OW69551   4.639   3.813   3.264
23176SOL    HW169552   4.664   3.793   3.169
23176SOL    HW269553   4.711   3.869   3.306
23177SOL     OW69554   4.704   4.840   3.581
23177SOL    HW169555   4.605   4.846   3.591
23177SOL    HW269556   4.727   4.760   3.525
23178SOL     OW69557   4.429   4.774   2.230
23178SOL    HW169558   4.415   4.781   2.329
23178SOL    HW269559   4.513   4.723   2.212
23179SOL     OW69560   4.134   4.537   3.113
23179SOL    HW169561   4.220   4.549   3.163
23179SOL    HW269562   4.092   4.450   3.140
23180SOL     OW69563   4.998   4.110   3.124
23180SOL    HW169564   5.019   4.184   3.188
23180SOL    HW269565   4.909   4.127   3.081
23181SOL     OW69566   3.788   5.288   3.193
23181SOL    HW169567   3.742   5.370   3.159
23181SOL    HW269568   3.886   5.307   3.202
23182SOL     OW69569   4.091   4.824   2.363
23182SOL    HW169570   4.084   4.907   2.307
23182SOL    HW269571   4.095   4.744   2.303
23183SOL     OW69572   4.290   4.261   2.727
23183SOL    HW169573   4.302   4.327   2.653
23183SOL    HW269574   4.336   4.295   2.810
23184SOL     OW69575   4.976   5.072   2.250
23184SOL    HW169576   5.026   5.149   2.290
23184SOL    HW269577   4.881   5.074   2.282
23185SOL     OW69578   4.996   5.169   3.004
23185SOL    HW169579   5.043   5.182   3.091
23185SOL    HW269580   4.930   5.095   3.013
23186SOL     OW69581   5.306   4.363   2.334
23186SOL    HW169582   5.275   4.424   2.407
23186SOL    HW269583   5.356   4.415   2.265
23187SOL     OW69584   4.078   5.234   3.191
23187SOL    HW169585   4.057   5.190   3.104
23187SOL    HW269586   4.175   5.260   3.194
23188SOL     OW69587   4.126   4.475   3.460
23188SOL    HW169588   4.194   4.530   3.413
23188SOL    HW269589   4.166   4.387   3.487
23189SOL     OW69590   5.311   4.503   3.532
23189SOL    HW169591   5.219   4.541   3.527
23189SOL    HW269592   5.371   4.550   3.467
23190SOL     OW69593   4.737   3.829   3.632
23190SOL    HW169594   4.743   3.914   3.580
23190SOL    HW269595   4.769   3.753   3.575
23191SOL     OW69596   4.228   3.774   3.602
23191SOL    HW169597   4.186   3.717   3.532
23191SOL    HW269598   4.162   3.843   3.634
23192SOL     OW69599   4.297   4.594   2.891
23192SOL    HW169600   4.341   4.683   2.882
23192SOL    HW269601   4.234   4.594   2.968
23193SOL     OW69602   5.084   4.586   2.907
23193SOL    HW169603   5.009   4.586   2.841
23193SOL    HW269604   5.121   4.494   2.916
23194SOL     OW69605   4.933   4.249   2.137
23194SOL    HW169606   4.946   4.165   2.191
23194SOL    HW269607   4.904   4.323   2.197
23195SOL     OW69608   4.031   3.937   3.093
23195SOL    HW169609   4.008   3.974   3.183
23195SOL    HW269610   4.001   3.842   3.087
23196SOL     OW69611   3.761   5.034   3.144
23196SOL    HW169612   3.814   4.985   3.212
23196SOL    HW269613   3.783   5.132   3.149
23197SOL     OW69614   4.456   4.358   2.926
23197SOL    HW169615   4.515   4.332   2.850
23197SOL    HW269616   4.428   4.454   2.915
23198SOL     OW69617   5.452   4.659   3.716
23198SOL    HW169618   5.406   4.652   3.627
23198SOL    HW269619   5.390   4.703   3.782
23199SOL     OW69620   4.031   3.787   2.480
23199SOL    HW169621   4.020   3.881   2.513
23199SOL    HW269622   4.026   3.724   2.557
23200SOL     OW69623   5.346   4.091   2.236
23200SOL    HW169624   5.348   4.015   2.300
23200SOL    HW269625   5.298   4.168   2.276
23201SOL     OW69626   4.747   4.490   2.828
23201SOL    HW169627   4.762   4.511   2.924
23201SOL    HW269628   4.717   4.395   2.819
23202SOL     OW69629   4.704   5.297   3.562
23202SOL    HW169630   4.684   5.341   3.474
23202SOL    HW269631   4.743   5.206   3.546
23203SOL     OW69632   5.583   5.242   3.467
23203SOL    HW169633   5.597   5.269   3.372
23203SOL    HW269634   5.666   5.264   3.520
23204SOL     OW69635   4.074   4.622   3.666
23204SOL    HW169636   4.150   4.666   3.714
23204SOL    HW269637   4.109   4.575   3.584
23205SOL     OW69638   5.264   3.998   1.987
23205SOL    HW169639   5.203   3.923   2.010
23205SOL    HW269640   5.286   4.050   2.070
23206SOL     OW69641   5.027   4.562   1.904
23206SOL    HW169642   5.061   4.469   1.919
23206SOL    HW269643   5.045   4.589   1.809
23207SOL     OW69644   4.792   5.057   2.711
23207SOL    HW169645   4.799   4.973   2.656
23207SOL    HW269646   4.854   5.126   2.675
23208SOL     OW69647   4.043   4.534   2.811
23208SOL    HW169648   4.136   4.570   2.816
23208SOL    HW269649   4.037   4.449   2.863
23209SOL     OW69650   4.063   4.233   2.868
23209SOL    HW169651   4.011   4.150   2.851
23209SOL    HW269652   4.140   4.238   2.804
23210SOL     OW69653   4.862   4.104   3.540
23210SOL    HW169654   4.817   4.167   3.604
23210SOL    HW269655   4.955   4.135   3.523
23211SOL     OW69656   4.884   3.931   3.339
23211SOL    HW169657   4.884   3.995   3.416
23211SOL    HW269658   4.912   3.979   3.256
23212SOL     OW69659   3.732   5.050   2.062
23212SOL    HW169660   3.639   5.071   2.031
23212SOL    HW269661   3.742   4.951   2.075
23213SOL     OW69662   3.812   5.525   2.789
23213SOL    HW169663   3.770   5.439   2.762
23213SOL    HW269664   3.906   5.528   2.755
23214SOL     OW69665   4.228   5.292   2.772
23214SOL    HW169666   4.294   5.366   2.781
23214SOL    HW269667   4.272   5.213   2.730
23215SOL     OW69668   4.726   4.520   3.100
23215SOL    HW169669   4.767   4.488   3.186
23215SOL    HW269670   4.630   4.493   3.097
23216SOL     OW69671   3.764   4.268   2.976
23216SOL    HW169672   3.849   4.235   2.935
23216SOL    HW269673   3.777   4.283   3.074
23217SOL     OW69674   3.913   4.244   3.584
23217SOL    HW169675   3.972   4.204   3.514
23217SOL    HW269676   3.855   4.315   3.543
23218SOL     OW69677   5.093   4.674   3.522
23218SOL    HW169678   5.132   4.763   3.542
23218SOL    HW269679   5.103   4.654   3.425
23219SOL     OW69680   4.539   4.296   2.187
23219SOL    HW169681   4.546   4.207   2.141
23219SOL    HW269682   4.445   4.330   2.179
23220SOL     OW69683   5.381   4.328   3.068
23220SOL    HW169684   5.343   4.259   3.130
23220SOL    HW269685   5.463   4.292   3.024
23221SOL     OW69686   3.976   5.288   3.606
23221SOL    HW169687   3.946   5.345   3.682
23221SOL    HW269688   3.969   5.191   3.632
23222SOL     OW69689   4.395   4.188   3.131
23222SOL    HW169690   4.361   4.099   3.101
23222SOL    HW269691   4.421   4.242   3.051
23223SOL     OW69692   4.654   5.402   3.327
23223SOL    HW169693   4.630   5.384   3.232
23223SOL    HW269694   4.684   5.496   3.337
23224SOL     OW69695   4.197   4.224   2.053
23224SOL    HW169696   4.258   4.304   2.057
23224SOL    HW269697   4.102   4.255   2.060
23225SOL     OW69698   3.883   4.861   3.328
23225SOL    HW169699   3.905   4.800   3.404
23225SOL    HW269700   3.893   4.812   3.242
23226SOL     OW69701   5.071   4.783   3.096
23226SOL    HW169702   5.095   4.720   3.022
23226SOL    HW269703   4.981   4.823   3.078
23227SOL     OW69704   5.026   4.579   2.171
23227SOL    HW169705   4.940   4.548   2.213
23227SOL    HW269706   5.022   4.565   2.072
23228SOL     OW69707   5.483   5.471   3.016
23228SOL    HW169708   5.544   5.501   2.943
23228SOL    HW269709   5.445   5.382   2.994
23229SOL     OW69710   4.976   5.455   2.990
23229SOL    HW169711   5.060   5.460   2.936
23229SOL    HW269712   4.953   5.359   3.008
23230SOL     OW69713   3.807   4.982   2.884
23230SOL    HW169714   3.802   4.981   2.984
23230SOL    HW269715   3.724   4.941   2.846
23231SOL     OW69716   4.412   5.386   3.578
23231SOL    HW169717   4.356   5.467   3.587
23231SOL    HW269718   4.464   5.390   3.492
23232SOL     OW69719   5.450   3.859   2.385
23232SOL    HW169720   5.523   3.842   2.318
23232SOL    HW269721   5.419   3.772   2.423
23233SOL     OW69722   5.112   5.297   2.339
23233SOL    HW169723   5.179   5.309   2.265
23233SOL    HW269724   5.072   5.386   2.362
23234SOL     OW69725   3.854   5.518   3.713
23234SOL    HW169726   3.813   5.444   3.766
23234SOL    HW269727   3.918   5.569   3.771
23235SOL     OW69728   5.004   4.651   2.534
23235SOL    HW169729   5.064   4.570   2.536
23235SOL    HW269730   5.044   4.720   2.474
23236SOL     OW69731   4.554   4.997   3.284
23236SOL    HW169732   4.549   5.030   3.379
23236SOL    HW269733   4.468   5.016   3.238
23237SOL     OW69734   4.396   5.340   2.016
23237SOL    HW169735   4.405   5.350   1.917
23237SOL    HW269736   4.356   5.251   2.037
23238SOL     OW69737   5.374   5.444   3.256
23238SOL    HW169738   5.427   5.454   3.172
23238SOL    HW269739   5.347   5.534   3.290
23239SOL     OW69740   5.565   3.899   2.825
23239SOL    HW169741   5.604   3.814   2.789
23239SOL    HW269742   5.467   3.901   2.806
23240SOL     OW69743   3.987   4.050   2.582
23240SOL    HW169744   3.908   4.101   2.548
23240SOL    HW269745   3.978   4.035   2.680
23241SOL     OW69746   4.918   5.336   1.893
23241SOL    HW169747   4.924   5.243   1.930
23241SOL    HW269748   4.859   5.336   1.813
23242SOL     OW69749   4.546   4.726   3.234
23242SOL    HW169750   4.586   4.725   3.142
23242SOL    HW269751   4.556   4.818   3.274
23243SOL     OW69752   4.640   4.634   2.153
23243SOL    HW169753   4.703   4.672   2.085
23243SOL    HW269754   4.680   4.551   2.192
23244SOL     OW69755   5.228   5.331   1.906
23244SOL    HW169756   5.136   5.368   1.913
23244SOL    HW269757   5.266   5.351   1.816
23245SOL     OW69758   4.096   5.012   3.352
23245SOL    HW169759   4.083   5.105   3.318
23245SOL    HW269760   4.012   4.960   3.339
23246SOL     OW69761   5.338   5.016   3.151
23246SOL    HW169762   5.398   5.019   3.231
23246SOL    HW269763   5.263   5.080   3.164
23247SOL     OW69764   4.763   4.822   2.558
23247SOL    HW169765   4.693   4.775   2.612
23247SOL    HW269766   4.822   4.754   2.515
23248SOL     OW69767   4.738   3.960   2.833
23248SOL    HW169768   4.730   3.924   2.740
23248SOL    HW269769   4.736   3.884   2.898
23249SOL     OW69770   4.314   5.211   2.353
23249SOL    HW169771   4.356   5.153   2.283
23249SOL    HW269772   4.270   5.290   2.309
23250SOL     OW69773   5.433   4.109   3.243
23250SOL    HW169774   5.506   4.178   3.247
23250SOL    HW269775   5.461   4.034   3.184
23251SOL     OW69776   3.979   5.072   2.152
23251SOL    HW169777   3.883   5.073   2.125
23251SOL    HW269778   3.991   5.125   2.236
23252SOL     OW69779   3.829   4.737   3.588
23252SOL    HW169780   3.752   4.704   3.642
23252SOL    HW269781   3.914   4.707   3.630
23253SOL     OW69782   4.396   3.927   3.351
23253SOL    HW169783   4.486   3.911   3.311
23253SOL    HW269784   4.404   3.932   3.450
23254SOL     OW69785   3.799   4.069   1.895
23254SOL    HW169786   3.707   4.041   1.866
23254SOL    HW269787   3.830   4.146   1.839
23255SOL     OW69788   5.164   4.580   3.260
23255SOL    HW169789   5.107   4.632   3.197
23255SOL    HW269790   5.260   4.592   3.236
23256SOL     OW69791   3.796   3.890   2.180
23256SOL    HW169792   3.779   3.973   2.126
23256SOL    HW269793   3.886   3.853   2.158
23257SOL     OW69794   4.907   5.059   1.981
23257SOL    HW169795   4.808   5.048   1.983
23257SOL    HW269796   4.941   5.074   2.074
23258SOL     OW69797   4.337   4.566   3.293
23258SOL    HW169798   4.393   4.647   3.276
23258SOL    HW269799   4.396   4.486   3.296
23259SOL     OW69800   5.217   5.491   2.821
23259SOL    HW169801   5.250   5.555   2.752
23259SOL    HW269802   5.283   5.485   2.896
23260SOL     OW69803   4.440   4.289   3.570
23260SOL    HW169804   4.459   4.354   3.644
23260SOL    HW269805   4.500   4.209   3.579
23261SOL     OW69806   5.174   4.944   3.495
23261SOL    HW169807   5.165   4.934   3.594
23261SOL    HW269808   5.270   4.937   3.469
23262SOL     OW69809   4.114   5.465   3.422
23262SOL    HW169810   4.023   5.506   3.420
23262SOL    HW269811   4.107   5.371   3.454
23263SOL     OW69812   5.398   4.607   3.116
23263SOL    HW169813   5.371   4.518   3.079
23263SOL    HW269814   5.399   4.675   3.043
23264SOL     OW69815   4.949   4.049   2.311
23264SOL    HW169816   5.014   3.975   2.300
23264SOL    HW269817   4.969   4.099   2.395
23265SOL     OW69818   4.318   4.469   2.514
23265SOL    HW169819   4.368   4.554   2.495
23265SOL    HW269820   4.230   4.471   2.466
23266SOL     OW69821   5.501   4.066   3.504
23266SOL    HW169822   5.484   4.097   3.410
23266SOL    HW269823   5.417   4.029   3.542
23267SOL     OW69824   5.454   4.658   3.379
23267SOL    HW169825   5.492   4.749   3.394
23267SOL    HW269826   5.446   4.641   3.280
23268SOL     OW69827   4.583   5.098   1.878
23268SOL    HW169828   4.537   5.113   1.966
23268SOL    HW269829   4.627   5.183   1.848
23269SOL     OW69830   4.385   5.514   2.815
23269SOL    HW169831   4.339   5.602   2.802
23269SOL    HW269832   4.484   5.526   2.808
23270SOL     OW69833   4.583   4.680   2.723
23270SOL    HW169834   4.637   4.611   2.771
23270SOL    HW269835   4.551   4.749   2.789
23271SOL     OW69836   4.807   4.708   1.949
23271SOL    HW169837   4.784   4.761   1.867
23271SOL    HW269838   4.888   4.652   1.930
23272SOL     OW69839   5.585   5.293   2.713
23272SOL    HW169840   5.514   5.281   2.643
23272SOL    HW269841   5.586   5.214   2.773
23273SOL     OW69842   3.945   5.038   3.706
23273SOL    HW169843   3.880   4.965   3.685
23273SOL    HW269844   3.949   5.052   3.804
23274SOL     OW69845   3.803   4.964   2.515
23274SOL    HW169846   3.802   4.917   2.603
23274SOL    HW269847   3.885   4.936   2.464
23275SOL     OW69848   4.396   5.115   3.486
23275SOL    HW169849   4.318   5.065   3.524
23275SOL    HW269850   4.393   5.210   3.517
23276SOL     OW69851   5.548   3.916   3.089
23276SOL    HW169852   5.544   3.826   3.133
23276SOL    HW269853   5.551   3.905   2.990
23277SOL     OW69854   4.152   4.148   2.382
23277SOL    HW169855   4.182   4.076   2.320
23277SOL    HW269856   4.113   4.108   2.465
23278SOL     OW69857   5.429   5.211   2.966
23278SOL    HW169858   5.336   5.186   2.939
23278SOL    HW269859   5.455   5.161   3.048
23279SOL     OW69860   4.041   4.271   3.142
23279SOL    HW169861   4.079   4.212   3.214
23279SOL    HW269862   4.081   4.245   3.054
23280SOL     OW69863   4.536   5.310   2.549
23280SOL    HW169864   4.568   5.320   2.455
23280SOL    HW269865   4.457   5.248   2.551
23281SOL     OW69866   5.148   3.938   2.974
23281SOL    HW169867   5.200   3.873   3.029
23281SOL    HW269868   5.099   4.001   3.035
23282SOL     OW69869   4.725   3.758   3.016
23282SOL    HW169870   4.662   3.686   2.985
23282SOL    HW269871   4.818   3.722   3.016
23283SOL     OW69872   4.494   5.054   2.163
23283SOL    HW169873   4.448   4.967   2.180
23283SOL    HW269874   4.585   5.051   2.204
23284SOL     OW69875   4.342   5.291   3.146
23284SOL    HW169876   4.337   5.373   3.203
23284SOL    HW269877   4.431   5.288   3.101
23285SOL     OW69878   5.076   3.776   2.030
23285SOL    HW169879   5.111   3.735   1.946
23285SOL    HW269880   4.986   3.738   2.050
23286SOL     OW69881   5.024   4.177   2.553
23286SOL    HW169882   4.965   4.257   2.557
23286SOL    HW269883   5.039   4.142   2.646
23287SOL     OW69884   5.317   3.945   2.744
23287SOL    HW169885   5.233   3.944   2.798
23287SOL    HW269886   5.319   4.028   2.688
23288SOL     OW69887   3.763   4.801   2.162
23288SOL    HW169888   3.862   4.790   2.153
23288SOL    HW269889   3.723   4.715   2.194
23289SOL     OW69890   4.599   5.370   2.199
23289SOL    HW169891   4.522   5.335   2.145
23289SOL    HW269892   4.567   5.441   2.261
23290SOL     OW69893   3.954   4.352   3.837
23290SOL    HW169894   3.861   4.350   3.874
23290SOL    HW269895   3.955   4.313   3.745
23291SOL     OW69896   3.949   3.999   4.720
23291SOL    HW169897   3.984   3.982   4.812
23291SOL    HW269898   3.861   3.954   4.708
23292SOL     OW69899   3.743   4.092   4.371
23292SOL    HW169900   3.661   4.135   4.410
23292SOL    HW269901   3.715   4.019   4.308
23293SOL     OW69902   4.293   4.999   4.889
23293SOL    HW169903   4.200   4.992   4.852
23293SOL    HW269904   4.304   5.088   4.933
23294SOL     OW69905   5.279   5.235   4.427
23294SOL    HW169906   5.222   5.219   4.508
23294SOL    HW269907   5.220   5.245   4.347
23295SOL     OW69908   4.859   4.427   4.441
23295SOL    HW169909   4.916   4.505   4.416
23295SOL    HW269910   4.799   4.453   4.517
23296SOL     OW69911   5.479   4.331   3.955
23296SOL    HW169912   5.467   4.318   3.856
23296SOL    HW269913   5.449   4.250   4.004
23297SOL     OW69914   4.492   4.868   4.747
23297SOL    HW169915   4.414   4.885   4.807
23297SOL    HW269916   4.526   4.955   4.711
23298SOL     OW69917   4.574   4.522   5.547
23298SOL    HW169918   4.570   4.598   5.612
23298SOL    HW269919   4.596   4.558   5.456
23299SOL     OW69920   4.409   4.736   4.389
23299SOL    HW169921   4.478   4.720   4.459
23299SOL    HW269922   4.336   4.793   4.427
23300SOL     OW69923   4.410   4.885   5.527
23300SOL    HW169924   4.470   4.964   5.541
23300SOL    HW269925   4.324   4.916   5.486
23301SOL     OW69926   4.059   5.159   4.785
23301SOL    HW169927   3.981   5.128   4.732
23301SOL    HW269928   4.117   5.217   4.728
23302SOL     OW69929   5.184   5.229   5.063
23302SOL    HW169930   5.208   5.323   5.089
23302SOL    HW269931   5.168   5.175   5.145
23303SOL     OW69932   4.162   4.116   5.223
23303SOL    HW169933   4.244   4.060   5.232
23303SOL    HW269934   4.081   4.058   5.227
23304SOL     OW69935   5.327   4.171   4.461
23304SOL    HW169936   5.253   4.217   4.411
23304SOL    HW269937   5.378   4.239   4.514
23305SOL     OW69938   3.955   5.437   4.207
23305SOL    HW169939   3.989   5.514   4.261
23305SOL    HW269940   3.999   5.437   4.117
23306SOL     OW69941   4.851   5.065   5.414
23306SOL    HW169942   4.898   5.065   5.502
23306SOL    HW269943   4.803   4.978   5.403
23307SOL     OW69944   3.954   5.158   4.262
23307SOL    HW169945   3.928   5.254   4.262
23307SOL    HW269946   3.883   5.104   4.307
23308SOL     OW69947   3.964   4.815   4.610
23308SOL    HW169948   3.978   4.731   4.662
23308SOL    HW269949   3.909   4.879   4.665
23309SOL     OW69950   4.344   5.510   5.163
23309SOL    HW169951   4.252   5.493   5.198
23309SOL    HW269952   4.372   5.602   5.189
23310SOL     OW69953   4.330   4.688   3.847
23310SOL    HW169954   4.337   4.772   3.793
23310SOL    HW269955   4.376   4.701   3.935
23311SOL     OW69956   5.318   3.838   5.204
23311SOL    HW169957   5.300   3.905   5.132
23311SOL    HW269958   5.315   3.884   5.293
23312SOL     OW69959   3.846   4.367   4.287
23312SOL    HW169960   3.801   4.279   4.304
23312SOL    HW269961   3.845   4.421   4.371
23313SOL     OW69962   5.566   5.491   4.083
23313SOL    HW169963   5.620   5.462   4.163
23313SOL    HW269964   5.596   5.581   4.054
23314SOL     OW69965   3.751   5.320   3.841
23314SOL    HW169966   3.732   5.224   3.862
23314SOL    HW269967   3.718   5.378   3.916
23315SOL     OW69968   5.413   4.646   4.336
23315SOL    HW169969   5.508   4.617   4.344
23315SOL    HW269970   5.405   4.711   4.261
23316SOL     OW69971   5.365   4.832   4.156
23316SOL    HW169972   5.451   4.834   4.104
23316SOL    HW269973   5.379   4.879   4.244
23317SOL     OW69974   3.837   4.461   5.321
23317SOL    HW169975   3.925   4.448   5.366
23317SOL    HW269976   3.824   4.558   5.299
23318SOL     OW69977   4.337   5.089   4.450
23318SOL    HW169978   4.288   5.002   4.459
23318SOL    HW269979   4.314   5.132   4.363
23319SOL     OW69980   5.017   4.952   5.147
23319SOL    HW169981   5.054   4.879   5.089
23319SOL    HW269982   5.069   4.957   5.232
23320SOL     OW69983   4.533   3.728   4.226
23320SOL    HW169984   4.573   3.819   4.217
23320SOL    HW269985   4.433   3.736   4.232
23321SOL     OW69986   3.921   4.700   4.988
23321SOL    HW169987   4.010   4.655   4.974
23321SOL    HW269988   3.848   4.635   4.969
23322SOL     OW69989   5.249   4.723   3.914
23322SOL    HW169990   5.186   4.647   3.927
23322SOL    HW269991   5.297   4.741   4.000
23323SOL     OW69992   4.911   5.516   5.340
23323SOL    HW169993   4.935   5.576   5.264
23323SOL    HW269994   4.918   5.421   5.310
23324SOL     OW69995   4.041   3.975   5.525
23324SOL    HW169996   4.112   4.046   5.531
23324SOL    HW269997   3.953   4.014   5.553
23325SOL     OW69998   5.190   5.141   4.677
23325SOL    HW169999   5.131   5.147   4.757
23325SOL    HW270000   5.175   5.053   4.631
23326SOL     OW70001   5.391   5.438   4.296
23326SOL    HW170002   5.350   5.415   4.208
23326SOL    HW270003   5.373   5.364   4.361
23327SOL     OW70004   4.322   4.453   3.994
23327SOL    HW170005   4.346   4.522   3.926
23327SOL    HW270006   4.244   4.486   4.048
23328SOL     OW70007   5.005   4.069   4.668
23328SOL    HW170008   4.919   4.019   4.655
23328SOL    HW270009   5.067   4.015   4.724
23329SOL     OW70010   5.300   5.386   4.031
23329SOL    HW170011   5.389   5.432   4.034
23329SOL    HW270012   5.279   5.362   3.936
23330SOL     OW70013   4.531   4.329   5.189
23330SOL    HW170014   4.484   4.326   5.278
23330SOL    HW270015   4.480   4.274   5.123
23331SOL     OW70016   5.118   4.193   5.398
23331SOL    HW170017   5.098   4.236   5.486
23331SOL    HW270018   5.196   4.131   5.407
23332SOL     OW70019   4.697   4.614   5.296
23332SOL    HW170020   4.743   4.530   5.267
23332SOL    HW270021   4.641   4.648   5.221
23333SOL     OW70022   4.715   4.134   4.966
23333SOL    HW170023   4.638   4.168   5.020
23333SOL    HW270024   4.681   4.083   4.887
23334SOL     OW70025   4.765   4.425   4.153
23334SOL    HW170026   4.791   4.421   4.249
23334SOL    HW270027   4.680   4.374   4.139
23335SOL     OW70028   3.800   4.535   4.513
23335SOL    HW170029   3.899   4.523   4.522
23335SOL    HW270030   3.776   4.630   4.534
23336SOL     OW70031   3.854   5.545   5.295
23336SOL    HW170032   3.844   5.530   5.394
23336SOL    HW270033   3.768   5.581   5.259
23337SOL     OW70034   4.589   4.072   3.919
23337SOL    HW170035   4.648   4.135   3.870
23337SOL    HW270036   4.608   3.978   3.890
23338SOL     OW70037   5.443   4.309   5.555
23338SOL    HW170038   5.417   4.398   5.519
23338SOL    HW270039   5.441   4.241   5.482
23339SOL     OW70040   5.086   4.868   4.269
23339SOL    HW170041   5.169   4.839   4.221
23339SOL    HW270042   5.037   4.935   4.213
23340SOL     OW70043   4.274   3.920   4.609
23340SOL    HW170044   4.269   3.915   4.709
23340SOL    HW270045   4.276   4.016   4.580
23341SOL     OW70046   4.732   5.180   4.201
23341SOL    HW170047   4.686   5.252   4.149
23341SOL    HW270048   4.728   5.200   4.299
23342SOL     OW70049   4.075   5.525   4.577
23342SOL    HW170050   4.125   5.439   4.583
23342SOL    HW270051   4.140   5.602   4.574
23343SOL     OW70052   5.519   4.790   4.597
23343SOL    HW170053   5.457   4.775   4.521
23343SOL    HW270054   5.467   4.801   4.682
23344SOL     OW70055   4.951   5.274   5.230
23344SOL    HW170056   4.957   5.197   5.294
23344SOL    HW270057   4.899   5.248   5.150
23345SOL     OW70058   4.045   4.667   3.966
23345SOL    HW170059   4.127   4.706   3.924
23345SOL    HW270060   4.018   4.585   3.917
23346SOL     OW70061   5.182   4.459   4.452
23346SOL    HW170062   5.177   4.394   4.527
23346SOL    HW270063   5.262   4.518   4.465
23347SOL     OW70064   4.185   4.990   5.451
23347SOL    HW170065   4.135   4.991   5.365
23347SOL    HW270066   4.122   4.972   5.527
23348SOL     OW70067   4.835   5.500   3.961
23348SOL    HW170068   4.775   5.438   4.011
23348SOL    HW270069   4.866   5.456   3.876
23349SOL     OW70070   3.926   4.009   5.222
23349SOL    HW170071   3.846   4.069   5.209
23349SOL    HW270072   3.916   3.960   5.308
23350SOL     OW70073   5.356   5.101   3.805
23350SOL    HW170074   5.324   5.195   3.795
23350SOL    HW270075   5.280   5.038   3.793
23351SOL     OW70076   4.188   5.467   4.047
23351SOL    HW170077   4.221   5.506   4.133
23351SOL    HW270078   4.264   5.460   3.982
23352SOL     OW70079   5.124   3.831   4.150
23352SOL    HW170080   5.100   3.794   4.060
23352SOL    HW270081   5.223   3.847   4.154
23353SOL     OW70082   3.973   5.509   4.965
23353SOL    HW170083   4.030   5.444   5.015
23353SOL    HW270084   3.957   5.476   4.872
23354SOL     OW70085   4.664   5.422   4.628
23354SOL    HW170086   4.744   5.365   4.649
23354SOL    HW270087   4.615   5.382   4.551
23355SOL     OW70088   4.106   4.424   4.204
23355SOL    HW170089   4.151   4.334   4.201
23355SOL    HW270090   4.012   4.413   4.237
23356SOL     OW70091   5.271   3.946   5.453
23356SOL    HW170092   5.266   3.983   5.545
23356SOL    HW270093   5.199   3.877   5.441
23357SOL     OW70094   4.338   3.846   3.841
23357SOL    HW170095   4.436   3.824   3.848
23357SOL    HW270096   4.307   3.829   3.748
23358SOL     OW70097   4.505   3.988   5.473
23358SOL    HW170098   4.572   3.927   5.516
23358SOL    HW270099   4.432   4.007   5.538
23359SOL     OW70100   4.612   5.238   4.919
23359SOL    HW170101   4.589   5.213   4.825
23359SOL    HW270102   4.673   5.169   4.958
23360SOL     OW70103   5.075   4.314   5.157
23360SOL    HW170104   5.103   4.271   5.242
23360SOL    HW270105   5.100   4.410   5.158
23361SOL     OW70106   4.527   5.126   4.648
23361SOL    HW170107   4.617   5.140   4.606
23361SOL    HW270108   4.456   5.128   4.577
23362SOL     OW70109   4.646   4.227   4.623
23362SOL    HW170110   4.621   4.218   4.527
23362SOL    HW270111   4.694   4.145   4.654
23363SOL     OW70112   4.263   3.788   4.236
23363SOL    HW170113   4.182   3.789   4.294
23363SOL    HW270114   4.266   3.871   4.181
23364SOL     OW70115   5.158   4.912   3.765
23364SOL    HW170116   5.190   4.836   3.822
23364SOL    HW270117   5.066   4.939   3.795
23365SOL     OW70118   4.021   3.759   3.895
23365SOL    HW170119   4.070   3.843   3.874
23365SOL    HW270120   4.083   3.694   3.940
23366SOL     OW70121   4.800   4.407   5.188
23366SOL    HW170122   4.720   4.346   5.191
23366SOL    HW270123   4.881   4.354   5.164
23367SOL     OW70124   4.951   5.294   4.517
23367SOL    HW170125   4.972   5.368   4.452
23367SOL    HW270126   5.019   5.294   4.590
23368SOL     OW70127   4.183   4.876   4.465
23368SOL    HW170128   4.112   4.849   4.530
23368SOL    HW270129   4.157   4.848   4.372
23369SOL     OW70130   4.995   5.521   4.315
23369SOL    HW170131   5.039   5.585   4.251
23369SOL    HW270132   4.945   5.573   4.385
23370SOL     OW70133   4.756   4.273   3.740
23370SOL    HW170134   4.715   4.355   3.701
23370SOL    HW270135   4.820   4.299   3.813
23371SOL     OW70136   3.802   4.280   5.110
23371SOL    HW170137   3.894   4.279   5.069
23371SOL    HW270138   3.796   4.354   5.177
23372SOL     OW70139   4.285   3.946   4.871
23372SOL    HW170140   4.323   3.862   4.908
23372SOL    HW270141   4.197   3.965   4.915
23373SOL     OW70142   4.590   4.178   4.366
23373SOL    HW170143   4.558   4.250   4.304
23373SOL    HW270144   4.614   4.097   4.313
23374SOL     OW70145   4.741   3.763   4.477
23374SOL    HW170146   4.669   3.768   4.408
23374SOL    HW270147   4.717   3.694   4.546
23375SOL     OW70148   5.153   4.897   4.591
23375SOL    HW170149   5.098   4.813   4.584
23375SOL    HW270150   5.179   4.926   4.499
23376SOL     OW70151   5.190   4.314   4.716
23376SOL    HW170152   5.160   4.219   4.723
23376SOL    HW270153   5.263   4.330   4.782
23377SOL     OW70154   5.581   4.557   4.101
23377SOL    HW170155   5.623   4.493   4.165
23377SOL    HW270156   5.543   4.506   4.023
23378SOL     OW70157   4.212   5.109   3.898
23378SOL    HW170158   4.125   5.094   3.945
23378SOL    HW270159   4.195   5.135   3.803
23379SOL     OW70160   5.388   5.004   4.381
23379SOL    HW170161   5.487   5.012   4.395
23379SOL    HW270162   5.343   5.088   4.412
23380SOL     OW70163   5.114   4.299   3.802
23380SOL    HW170164   5.060   4.278   3.883
23380SOL    HW270165   5.205   4.258   3.811
23381SOL     OW70166   4.251   3.980   4.052
23381SOL    HW170167   4.278   3.921   3.977
23381SOL    HW270168   4.251   4.075   4.021
23382SOL     OW70169   5.478   4.947   5.312
23382SOL    HW170170   5.569   4.908   5.299
23382SOL    HW270171   5.486   5.043   5.336
23383SOL     OW70172   4.788   5.071   5.064
23383SOL    HW170173   4.708   5.048   5.119
23383SOL    HW270174   4.871   5.045   5.113
23384SOL     OW70175   5.316   5.353   5.349
23384SOL    HW170176   5.343   5.387   5.259
23384SOL    HW270177   5.395   5.315   5.395
23385SOL     OW70178   4.835   4.919   4.824
23385SOL    HW170179   4.795   4.963   4.905
23385SOL    HW270180   4.794   4.956   4.741
23386SOL     OW70181   5.362   4.823   4.803
23386SOL    HW170182   5.367   4.904   4.862
23386SOL    HW270183   5.276   4.825   4.752
23387SOL     OW70184   4.639   3.813   5.126
23387SOL    HW170185   4.664   3.793   5.031
23387SOL    HW270186   4.711   3.869   5.168
23388SOL     OW70187   4.704   4.840   5.443
23388SOL    HW170188   4.605   4.846   5.453
23388SOL    HW270189   4.727   4.760   5.387
23389SOL     OW70190   4.429   4.774   4.092
23389SOL    HW170191   4.415   4.781   4.191
23389SOL    HW270192   4.513   4.723   4.074
23390SOL     OW70193   4.134   4.537   4.975
23390SOL    HW170194   4.220   4.549   5.025
23390SOL    HW270195   4.092   4.450   5.002
23391SOL     OW70196   4.998   4.110   4.986
23391SOL    HW170197   5.019   4.184   5.050
23391SOL    HW270198   4.909   4.127   4.943
23392SOL     OW70199   3.788   5.288   5.055
23392SOL    HW170200   3.742   5.370   5.021
23392SOL    HW270201   3.886   5.307   5.064
23393SOL     OW70202   4.091   4.824   4.225
23393SOL    HW170203   4.084   4.907   4.169
23393SOL    HW270204   4.095   4.744   4.165
23394SOL     OW70205   4.290   4.261   4.589
23394SOL    HW170206   4.302   4.327   4.515
23394SOL    HW270207   4.336   4.295   4.672
23395SOL     OW70208   4.976   5.072   4.112
23395SOL    HW170209   5.026   5.149   4.152
23395SOL    HW270210   4.881   5.074   4.144
23396SOL     OW70211   4.996   5.169   4.866
23396SOL    HW170212   5.043   5.182   4.953
23396SOL    HW270213   4.930   5.095   4.875
23397SOL     OW70214   5.306   4.363   4.196
23397SOL    HW170215   5.275   4.424   4.269
23397SOL    HW270216   5.356   4.415   4.127
23398SOL     OW70217   4.078   5.234   5.053
23398SOL    HW170218   4.057   5.190   4.966
23398SOL    HW270219   4.175   5.260   5.056
23399SOL     OW70220   4.126   4.475   5.322
23399SOL    HW170221   4.194   4.530   5.275
23399SOL    HW270222   4.166   4.387   5.349
23400SOL     OW70223   5.311   4.503   5.394
23400SOL    HW170224   5.219   4.541   5.389
23400SOL    HW270225   5.371   4.550   5.329
23401SOL     OW70226   4.737   3.829   5.494
23401SOL    HW170227   4.743   3.914   5.442
23401SOL    HW270228   4.769   3.753   5.437
23402SOL     OW70229   4.228   3.774   5.464
23402SOL    HW170230   4.186   3.717   5.394
23402SOL    HW270231   4.162   3.843   5.496
23403SOL     OW70232   4.297   4.594   4.753
23403SOL    HW170233   4.341   4.683   4.744
23403SOL    HW270234   4.234   4.594   4.830
23404SOL     OW70235   5.084   4.586   4.769
23404SOL    HW170236   5.009   4.586   4.703
23404SOL    HW270237   5.121   4.494   4.778
23405SOL     OW70238   4.933   4.249   3.999
23405SOL    HW170239   4.946   4.165   4.053
23405SOL    HW270240   4.904   4.323   4.059
23406SOL     OW70241   4.031   3.937   4.955
23406SOL    HW170242   4.008   3.974   5.045
23406SOL    HW270243   4.001   3.842   4.949
23407SOL     OW70244   3.761   5.034   5.006
23407SOL    HW170245   3.814   4.985   5.074
23407SOL    HW270246   3.783   5.132   5.011
23408SOL     OW70247   4.456   4.358   4.788
23408SOL    HW170248   4.515   4.332   4.712
23408SOL    HW270249   4.428   4.454   4.777
23409SOL     OW70250   5.452   4.659   5.578
23409SOL    HW170251   5.406   4.652   5.489
23409SOL    HW270252   5.390   4.703   5.644
23410SOL     OW70253   4.031   3.787   4.342
23410SOL    HW170254   4.020   3.881   4.375
23410SOL    HW270255   4.026   3.724   4.419
23411SOL     OW70256   5.346   4.091   4.098
23411SOL    HW170257   5.348   4.015   4.162
23411SOL    HW270258   5.298   4.168   4.138
23412SOL     OW70259   4.747   4.490   4.690
23412SOL    HW170260   4.762   4.511   4.786
23412SOL    HW270261   4.717   4.395   4.681
23413SOL     OW70262   4.704   5.297   5.424
23413SOL    HW170263   4.684   5.341   5.336
23413SOL    HW270264   4.743   5.206   5.408
23414SOL     OW70265   5.583   5.242   5.329
23414SOL    HW170266   5.597   5.269   5.234
23414SOL    HW270267   5.666   5.264   5.382
23415SOL     OW70268   4.074   4.622   5.528
23415SOL    HW170269   4.150   4.666   5.576
23415SOL    HW270270   4.109   4.575   5.446
23416SOL     OW70271   5.264   3.998   3.849
23416SOL    HW170272   5.203   3.923   3.872
23416SOL    HW270273   5.286   4.050   3.932
23417SOL     OW70274   5.027   4.562   3.766
23417SOL    HW170275   5.061   4.469   3.781
23417SOL    HW270276   5.045   4.589   3.671
23418SOL     OW70277   4.792   5.057   4.573
23418SOL    HW170278   4.799   4.973   4.518
23418SOL    HW270279   4.854   5.126   4.537
23419SOL     OW70280   4.043   4.534   4.673
23419SOL    HW170281   4.136   4.570   4.678
23419SOL    HW270282   4.037   4.449   4.725
23420SOL     OW70283   4.063   4.233   4.730
23420SOL    HW170284   4.011   4.150   4.713
23420SOL    HW270285   4.140   4.238   4.666
23421SOL     OW70286   4.862   4.104   5.402
23421SOL    HW170287   4.817   4.167   5.466
23421SOL    HW270288   4.955   4.135   5.385
23422SOL     OW70289   4.884   3.931   5.201
23422SOL    HW170290   4.884   3.995   5.278
23422SOL    HW270291   4.912   3.979   5.118
23423SOL     OW70292   3.732   5.050   3.924
23423SOL    HW170293   3.639   5.071   3.893
23423SOL    HW270294   3.742   4.951   3.937
23424SOL     OW70295   3.812   5.525   4.651
23424SOL    HW170296   3.770   5.439   4.624
23424SOL    HW270297   3.906   5.528   4.617
23425SOL     OW70298   4.228   5.292   4.634
23425SOL    HW170299   4.294   5.366   4.643
23425SOL    HW270300   4.272   5.213   4.592
23426SOL     OW70301   4.726   4.520   4.962
23426SOL    HW170302   4.767   4.488   5.048
23426SOL    HW270303   4.630   4.493   4.959
23427SOL     OW70304   3.764   4.268   4.838
23427SOL    HW170305   3.849   4.235   4.797
23427SOL    HW270306   3.777   4.283   4.936
23428SOL     OW70307   3.913   4.244   5.446
23428SOL    HW170308   3.972   4.204   5.376
23428SOL    HW270309   3.855   4.315   5.405
23429SOL     OW70310   5.093   4.674   5.384
23429SOL    HW170311   5.132   4.763   5.404
23429SOL    HW270312   5.103   4.654   5.287
23430SOL     OW70313   4.539   4.296   4.049
23430SOL    HW170314   4.546   4.207   4.003
23430SOL    HW270315   4.445   4.330   4.041
23431SOL     OW70316   5.381   4.328   4.930
23431SOL    HW170317   5.343   4.259   4.992
23431SOL    HW270318   5.463   4.292   4.886
23432SOL     OW70319   3.976   5.288   5.468
23432SOL    HW170320   3.946   5.345   5.544
23432SOL    HW270321   3.969   5.191   5.494
23433SOL     OW70322   4.395   4.188   4.993
23433SOL    HW170323   4.361   4.099   4.963
23433SOL    HW270324   4.421   4.242   4.913
23434SOL     OW70325   4.654   5.402   5.189
23434SOL    HW170326   4.630   5.384   5.094
23434SOL    HW270327   4.684   5.496   5.199
23435SOL     OW70328   4.197   4.224   3.915
23435SOL    HW170329   4.258   4.304   3.919
23435SOL    HW270330   4.102   4.255   3.922
23436SOL     OW70331   3.883   4.861   5.190
23436SOL    HW170332   3.905   4.800   5.266
23436SOL    HW270333   3.893   4.812   5.104
23437SOL     OW70334   5.071   4.783   4.958
23437SOL    HW170335   5.095   4.720   4.884
23437SOL    HW270336   4.981   4.823   4.940
23438SOL     OW70337   5.026   4.579   4.033
23438SOL    HW170338   4.940   4.548   4.075
23438SOL    HW270339   5.022   4.565   3.934
23439SOL     OW70340   5.483   5.471   4.878
23439SOL    HW170341   5.544   5.501   4.805
23439SOL    HW270342   5.445   5.382   4.856
23440SOL     OW70343   4.976   5.455   4.852
23440SOL    HW170344   5.060   5.460   4.798
23440SOL    HW270345   4.953   5.359   4.870
23441SOL     OW70346   3.807   4.982   4.746
23441SOL    HW170347   3.802   4.981   4.846
23441SOL    HW270348   3.724   4.941   4.708
23442SOL     OW70349   4.412   5.386   5.440
23442SOL    HW170350   4.356   5.467   5.449
23442SOL    HW270351   4.464   5.390   5.354
23443SOL     OW70352   5.450   3.859   4.247
23443SOL    HW170353   5.523   3.842   4.180
23443SOL    HW270354   5.419   3.772   4.285
23444SOL     OW70355   5.112   5.297   4.201
23444SOL    HW170356   5.179   5.309   4.127
23444SOL    HW270357   5.072   5.386   4.224
23445SOL     OW70358   3.854   5.518   5.575
23445SOL    HW170359   3.813   5.444   5.628
23445SOL    HW270360   3.918   5.569   5.633
23446SOL     OW70361   5.004   4.651   4.396
23446SOL    HW170362   5.064   4.570   4.398
23446SOL    HW270363   5.044   4.720   4.336
23447SOL     OW70364   4.554   4.997   5.146
23447SOL    HW170365   4.549   5.030   5.241
23447SOL    HW270366   4.468   5.016   5.100
23448SOL     OW70367   4.396   5.340   3.878
23448SOL    HW170368   4.405   5.350   3.779
23448SOL    HW270369   4.356   5.251   3.899
23449SOL     OW70370   5.374   5.444   5.118
23449SOL    HW170371   5.427   5.454   5.034
23449SOL    HW270372   5.347   5.534   5.152
23450SOL     OW70373   5.565   3.899   4.687
23450SOL    HW170374   5.604   3.814   4.651
23450SOL    HW270375   5.467   3.901   4.668
23451SOL     OW70376   3.987   4.050   4.444
23451SOL    HW170377   3.908   4.101   4.410
23451SOL    HW270378   3.978   4.035   4.542
23452SOL     OW70379   4.918   5.336   3.755
23452SOL    HW170380   4.924   5.243   3.792
23452SOL    HW270381   4.859   5.336   3.675
23453SOL     OW70382   4.546   4.726   5.096
23453SOL    HW170383   4.586   4.725   5.004
23453SOL    HW270384   4.556   4.818   5.136
23454SOL     OW70385   4.640   4.634   4.015
23454SOL    HW170386   4.703   4.672   3.947
23454SOL    HW270387   4.680   4.551   4.054
23455SOL     OW70388   5.228   5.331   3.768
23455SOL    HW170389   5.136   5.368   3.775
23455SOL    HW270390   5.266   5.351   3.678
23456SOL     OW70391   4.096   5.012   5.214
23456SOL    HW170392   4.083   5.105   5.180
23456SOL    HW270393   4.012   4.960   5.201
23457SOL     OW70394   5.338   5.016   5.013
23457SOL    HW170395   5.398   5.019   5.093
23457SOL    HW270396   5.263   5.080   5.026
23458SOL     OW70397   4.763   4.822   4.420
23458SOL    HW170398   4.693   4.775   4.474
23458SOL    HW270399   4.822   4.754   4.377
23459SOL     OW70400   4.738   3.960   4.695
23459SOL    HW170401   4.730   3.924   4.602
23459SOL    HW270402   4.736   3.884   4.760
23460SOL     OW70403   4.314   5.211   4.215
23460SOL    HW170404   4.356   5.153   4.145
23460SOL    HW270405   4.270   5.290   4.171
23461SOL     OW70406   5.433   4.109   5.105
23461SOL    HW170407   5.506   4.178   5.109
23461SOL    HW270408   5.461   4.034   5.046
23462SOL     OW70409   3.979   5.072   4.014
23462SOL    HW170410   3.883   5.073   3.987
23462SOL    HW270411   3.991   5.125   4.098
23463SOL     OW70412   3.829   4.737   5.450
23463SOL    HW170413   3.752   4.704   5.504
23463SOL    HW270414   3.914   4.707   5.492
23464SOL     OW70415   4.396   3.927   5.213
23464SOL    HW170416   4.486   3.911   5.173
23464SOL    HW270417   4.404   3.932   5.312
23465SOL     OW70418   3.799   4.069   3.757
23465SOL    HW170419   3.707   4.041   3.728
23465SOL    HW270420   3.830   4.146   3.701
23466SOL     OW70421   5.164   4.580   5.122
23466SOL    HW170422   5.107   4.632   5.059
23466SOL    HW270423   5.260   4.592   5.098
23467SOL     OW70424   3.796   3.890   4.042
23467SOL    HW170425   3.779   3.973   3.988
23467SOL    HW270426   3.886   3.853   4.020
23468SOL     OW70427   4.907   5.059   3.843
23468SOL    HW170428   4.808   5.048   3.845
23468SOL    HW270429   4.941   5.074   3.936
23469SOL     OW70430   4.337   4.566   5.155
23469SOL    HW170431   4.393   4.647   5.138
23469SOL    HW270432   4.396   4.486   5.158
23470SOL     OW70433   5.217   5.491   4.683
23470SOL    HW170434   5.250   5.555   4.614
23470SOL    HW270435   5.283   5.485   4.758
23471SOL     OW70436   4.440   4.289   5.432
23471SOL    HW170437   4.459   4.354   5.506
23471SOL    HW270438   4.500   4.209   5.441
23472SOL     OW70439   5.174   4.944   5.357
23472SOL    HW170440   5.165   4.934   5.456
23472SOL    HW270441   5.270   4.937   5.331
23473SOL     OW70442   4.114   5.465   5.284
23473SOL    HW170443   4.023   5.506   5.282
23473SOL    HW270444   4.107   5.371   5.316
23474SOL     OW70445   5.398   4.607   4.978
23474SOL    HW170446   5.371   4.518   4.941
23474SOL    HW270447   5.399   4.675   4.905
23475SOL     OW70448   4.949   4.049   4.173
23475SOL    HW170449   5.014   3.975   4.162
23475SOL    HW270450   4.969   4.099   4.257
23476SOL     OW70451   4.318   4.469   4.376
23476SOL    HW170452   4.368   4.554   4.357
23476SOL    HW270453   4.230   4.471   4.328
23477SOL     OW70454   5.501   4.066   5.366
23477SOL    HW170455   5.484   4.097   5.272
23477SOL    HW270456   5.417   4.029   5.404
23478SOL     OW70457   5.454   4.658   5.241
23478SOL    HW170458   5.492   4.749   5.256
23478SOL    HW270459   5.446   4.641   5.142
23479SOL     OW70460   4.583   5.098   3.740
23479SOL    HW170461   4.537   5.113   3.828
23479SOL    HW270462   4.627   5.183   3.710
23480SOL     OW70463   4.385   5.514   4.677
23480SOL    HW170464   4.339   5.602   4.664
23480SOL    HW270465   4.484   5.526   4.670
23481SOL     OW70466   4.583   4.680   4.585
23481SOL    HW170467   4.637   4.611   4.633
23481SOL    HW270468   4.551   4.749   4.651
23482SOL     OW70469   4.807   4.708   3.811
23482SOL    HW170470   4.784   4.761   3.729
23482SOL    HW270471   4.888   4.652   3.792
23483SOL     OW70472   5.585   5.293   4.575
23483SOL    HW170473   5.514   5.281   4.505
23483SOL    HW270474   5.586   5.214   4.635
23484SOL     OW70475   3.945   5.038   5.568
23484SOL    HW170476   3.880   4.965   5.547
23484SOL    HW270477   3.949   5.052   5.666
23485SOL     OW70478   3.803   4.964   4.377
23485SOL    HW170479   3.802   4.917   4.465
23485SOL    HW270480   3.885   4.936   4.326
23486SOL     OW70481   4.396   5.115   5.348
23486SOL    HW170482   4.318   5.065   5.386
23486SOL    HW270483   4.393   5.210   5.379
23487SOL     OW70484   5.548   3.916   4.951
23487SOL    HW170485   5.544   3.826   4.995
23487SOL    HW270486   5.551   3.905   4.852
23488SOL     OW70487   4.152   4.148   4.244
23488SOL    HW170488   4.182   4.076   4.182
23488SOL    HW270489   4.113   4.108   4.327
23489SOL     OW70490   5.429   5.211   4.828
23489SOL    HW170491   5.336   5.186   4.801
23489SOL    HW270492   5.455   5.161   4.910
23490SOL     OW70493   4.041   4.271   5.004
23490SOL    HW170494   4.079   4.212   5.076
23490SOL    HW270495   4.081   4.245   4.916
23491SOL     OW70496   4.536   5.310   4.411
23491SOL    HW170497   4.568   5.320   4.317
23491SOL    HW270498   4.457   5.248   4.413
23492SOL     OW70499   5.148   3.938   4.836
23492SOL    HW170500   5.200   3.873   4.891
23492SOL    HW270501   5.099   4.001   4.897
23493SOL     OW70502   4.725   3.758   4.878
23493SOL    HW170503   4.662   3.686   4.847
23493SOL    HW270504   4.818   3.722   4.878
23494SOL     OW70505   4.494   5.054   4.025
23494SOL    HW170506   4.448   4.967   4.042
23494SOL    HW270507   4.585   5.051   4.066
23495SOL     OW70508   4.342   5.291   5.008
23495SOL    HW170509   4.337   5.373   5.065
23495SOL    HW270510   4.431   5.288   4.963
23496SOL     OW70511   5.076   3.776   3.892
23496SOL    HW170512   5.111   3.735   3.808
23496SOL    HW270513   4.986   3.738   3.912
23497SOL     OW70514   5.024   4.177   4.415
23497SOL    HW170515   4.965   4.257   4.419
23497SOL    HW270516   5.039   4.142   4.508
23498SOL     OW70517   5.317   3.945   4.606
23498SOL    HW170518   5.233   3.944   4.660
23498SOL    HW270519   5.319   4.028   4.550
23499SOL     OW70520   3.763   4.801   4.024
23499SOL    HW170521   3.862   4.790   4.015
23499SOL    HW270522   3.723   4.715   4.056
23500SOL     OW70523   4.599   5.370   4.061
23500SOL    HW170524   4.522   5.335   4.007
23500SOL    HW270525   4.567   5.441   4.123
23501SOL     OW70526   3.954   4.352   5.699
23501SOL    HW170527   3.861   4.350   5.736
23501SOL    HW270528   3.955   4.313   5.607
23502SOL     OW70529   3.949   3.999   6.582
23502SOL    HW170530   3.984   3.982   6.674
23502SOL    HW270531   3.861   3.954   6.570
23503SOL     OW70532   3.743   4.092   6.233
23503SOL    HW170533   3.661   4.135   6.272
23503SOL    HW270534   3.715   4.019   6.170
23504SOL     OW70535   4.293   4.999   6.751
23504SOL    HW170536   4.200   4.992   6.714
23504SOL    HW270537   4.304   5.088   6.795
23505SOL     OW70538   5.279   5.235   6.289
23505SOL    HW170539   5.222   5.219   6.370
23505SOL    HW270540   5.220   5.245   6.209
23506SOL     OW70541   4.859   4.427   6.303
23506SOL    HW170542   4.916   4.505   6.278
23506SOL    HW270543   4.799   4.453   6.379
23507SOL     OW70544   5.479   4.331   5.817
23507SOL    HW170545   5.467   4.318   5.718
23507SOL    HW270546   5.449   4.250   5.866
23508SOL     OW70547   4.492   4.868   6.609
23508SOL    HW170548   4.414   4.885   6.669
23508SOL    HW270549   4.526   4.955   6.573
23509SOL     OW70550   4.574   4.522   7.409
23509SOL    HW170551   4.570   4.598   7.474
23509SOL    HW270552   4.596   4.558   7.318
23510SOL     OW70553   4.409   4.736   6.251
23510SOL    HW170554   4.478   4.720   6.321
23510SOL    HW270555   4.336   4.793   6.289
23511SOL     OW70556   4.410   4.885   7.389
23511SOL    HW170557   4.470   4.964   7.403
23511SOL    HW270558   4.324   4.916   7.348
23512SOL     OW70559   4.059   5.159   6.647
23512SOL    HW170560   3.981   5.128   6.594
23512SOL    HW270561   4.117   5.217   6.590
23513SOL     OW70562   5.184   5.229   6.925
23513SOL    HW170563   5.208   5.323   6.951
23513SOL    HW270564   5.168   5.175   7.007
23514SOL     OW70565   4.162   4.116   7.085
23514SOL    HW170566   4.244   4.060   7.094
23514SOL    HW270567   4.081   4.058   7.089
23515SOL     OW70568   5.327   4.171   6.323
23515SOL    HW170569   5.253   4.217   6.273
23515SOL    HW270570   5.378   4.239   6.376
23516SOL     OW70571   3.955   5.437   6.069
23516SOL    HW170572   3.989   5.514   6.123
23516SOL    HW270573   3.999   5.437   5.979
23517SOL     OW70574   4.851   5.065   7.276
23517SOL    HW170575   4.898   5.065   7.364
23517SOL    HW270576   4.803   4.978   7.265
23518SOL     OW70577   3.954   5.158   6.124
23518SOL    HW170578   3.928   5.254   6.124
23518SOL    HW270579   3.883   5.104   6.169
23519SOL     OW70580   3.964   4.815   6.472
23519SOL    HW170581   3.978   4.731   6.524
23519SOL    HW270582   3.909   4.879   6.527
23520SOL     OW70583   4.344   5.510   7.025
23520SOL    HW170584   4.252   5.493   7.060
23520SOL    HW270585   4.372   5.602   7.051
23521SOL     OW70586   4.330   4.688   5.709
23521SOL    HW170587   4.337   4.772   5.655
23521SOL    HW270588   4.376   4.701   5.797
23522SOL     OW70589   5.318   3.838   7.066
23522SOL    HW170590   5.300   3.905   6.994
23522SOL    HW270591   5.315   3.884   7.155
23523SOL     OW70592   3.846   4.367   6.149
23523SOL    HW170593   3.801   4.279   6.166
23523SOL    HW270594   3.845   4.421   6.233
23524SOL     OW70595   5.566   5.491   5.945
23524SOL    HW170596   5.620   5.462   6.025
23524SOL    HW270597   5.596   5.581   5.916
23525SOL     OW70598   3.751   5.320   5.703
23525SOL    HW170599   3.732   5.224   5.724
23525SOL    HW270600   3.718   5.378   5.778
23526SOL     OW70601   5.413   4.646   6.198
23526SOL    HW170602   5.508   4.617   6.206
23526SOL    HW270603   5.405   4.711   6.123
23527SOL     OW70604   5.365   4.832   6.018
23527SOL    HW170605   5.451   4.834   5.966
23527SOL    HW270606   5.379   4.879   6.106
23528SOL     OW70607   3.837   4.461   7.183
23528SOL    HW170608   3.925   4.448   7.228
23528SOL    HW270609   3.824   4.558   7.161
23529SOL     OW70610   4.337   5.089   6.312
23529SOL    HW170611   4.288   5.002   6.321
23529SOL    HW270612   4.314   5.132   6.225
23530SOL     OW70613   5.017   4.952   7.009
23530SOL    HW170614   5.054   4.879   6.951
23530SOL    HW270615   5.069   4.957   7.094
23531SOL     OW70616   4.533   3.728   6.088
23531SOL    HW170617   4.573   3.819   6.079
23531SOL    HW270618   4.433   3.736   6.094
23532SOL     OW70619   3.921   4.700   6.850
23532SOL    HW170620   4.010   4.655   6.836
23532SOL    HW270621   3.848   4.635   6.831
23533SOL     OW70622   5.249   4.723   5.776
23533SOL    HW170623   5.186   4.647   5.789
23533SOL    HW270624   5.297   4.741   5.862
23534SOL     OW70625   4.911   5.516   7.202
23534SOL    HW170626   4.935   5.576   7.126
23534SOL    HW270627   4.918   5.421   7.172
23535SOL     OW70628   4.041   3.975   7.387
23535SOL    HW170629   4.112   4.046   7.393
23535SOL    HW270630   3.953   4.014   7.415
23536SOL     OW70631   5.190   5.141   6.539
23536SOL    HW170632   5.131   5.147   6.619
23536SOL    HW270633   5.175   5.053   6.493
23537SOL     OW70634   5.391   5.438   6.158
23537SOL    HW170635   5.350   5.415   6.070
23537SOL    HW270636   5.373   5.364   6.223
23538SOL     OW70637   4.322   4.453   5.856
23538SOL    HW170638   4.346   4.522   5.788
23538SOL    HW270639   4.244   4.486   5.910
23539SOL     OW70640   5.005   4.069   6.530
23539SOL    HW170641   4.919   4.019   6.517
23539SOL    HW270642   5.067   4.015   6.586
23540SOL     OW70643   5.300   5.386   5.893
23540SOL    HW170644   5.389   5.432   5.896
23540SOL    HW270645   5.279   5.362   5.798
23541SOL     OW70646   4.531   4.329   7.051
23541SOL    HW170647   4.484   4.326   7.140
23541SOL    HW270648   4.480   4.274   6.985
23542SOL     OW70649   5.118   4.193   7.260
23542SOL    HW170650   5.098   4.236   7.348
23542SOL    HW270651   5.196   4.131   7.269
23543SOL     OW70652   4.697   4.614   7.158
23543SOL    HW170653   4.743   4.530   7.129
23543SOL    HW270654   4.641   4.648   7.083
23544SOL     OW70655   4.715   4.134   6.828
23544SOL    HW170656   4.638   4.168   6.882
23544SOL    HW270657   4.681   4.083   6.749
23545SOL     OW70658   4.765   4.425   6.015
23545SOL    HW170659   4.791   4.421   6.111
23545SOL    HW270660   4.680   4.374   6.001
23546SOL     OW70661   3.800   4.535   6.375
23546SOL    HW170662   3.899   4.523   6.384
23546SOL    HW270663   3.776   4.630   6.396
23547SOL     OW70664   3.854   5.545   7.157
23547SOL    HW170665   3.844   5.530   7.256
23547SOL    HW270666   3.768   5.581   7.121
23548SOL     OW70667   4.589   4.072   5.781
23548SOL    HW170668   4.648   4.135   5.732
23548SOL    HW270669   4.608   3.978   5.752
23549SOL     OW70670   5.443   4.309   7.417
23549SOL    HW170671   5.417   4.398   7.381
23549SOL    HW270672   5.441   4.241   7.344
23550SOL     OW70673   5.086   4.868   6.131
23550SOL    HW170674   5.169   4.839   6.083
23550SOL    HW270675   5.037   4.935   6.075
23551SOL     OW70676   4.274   3.920   6.471
23551SOL    HW170677   4.269   3.915   6.571
23551SOL    HW270678   4.276   4.016   6.442
23552SOL     OW70679   4.732   5.180   6.063
23552SOL    HW170680   4.686   5.252   6.011
23552SOL    HW270681   4.728   5.200   6.161
23553SOL     OW70682   4.075   5.525   6.439
23553SOL    HW170683   4.125   5.439   6.445
23553SOL    HW270684   4.140   5.602   6.436
23554SOL     OW70685   5.519   4.790   6.459
23554SOL    HW170686   5.457   4.775   6.383
23554SOL    HW270687   5.467   4.801   6.544
23555SOL     OW70688   4.951   5.274   7.092
23555SOL    HW170689   4.957   5.197   7.156
23555SOL    HW270690   4.899   5.248   7.012
23556SOL     OW70691   4.045   4.667   5.828
23556SOL    HW170692   4.127   4.706   5.786
23556SOL    HW270693   4.018   4.585   5.779
23557SOL     OW70694   5.182   4.459   6.314
23557SOL    HW170695   5.177   4.394   6.389
23557SOL    HW270696   5.262   4.518   6.327
23558SOL     OW70697   4.185   4.990   7.313
23558SOL    HW170698   4.135   4.991   7.227
23558SOL    HW270699   4.122   4.972   7.389
23559SOL     OW70700   4.835   5.500   5.823
23559SOL    HW170701   4.775   5.438   5.873
23559SOL    HW270702   4.866   5.456   5.738
23560SOL     OW70703   3.926   4.009   7.084
23560SOL    HW170704   3.846   4.069   7.071
23560SOL    HW270705   3.916   3.960   7.170
23561SOL     OW70706   5.356   5.101   5.667
23561SOL    HW170707   5.324   5.195   5.657
23561SOL    HW270708   5.280   5.038   5.655
23562SOL     OW70709   4.188   5.467   5.909
23562SOL    HW170710   4.221   5.506   5.995
23562SOL    HW270711   4.264   5.460   5.844
23563SOL     OW70712   5.124   3.831   6.012
23563SOL    HW170713   5.100   3.794   5.922
23563SOL    HW270714   5.223   3.847   6.016
23564SOL     OW70715   3.973   5.509   6.827
23564SOL    HW170716   4.030   5.444   6.877
23564SOL    HW270717   3.957   5.476   6.734
23565SOL     OW70718   4.664   5.422   6.490
23565SOL    HW170719   4.744   5.365   6.511
23565SOL    HW270720   4.615   5.382   6.413
23566SOL     OW70721   4.106   4.424   6.066
23566SOL    HW170722   4.151   4.334   6.063
23566SOL    HW270723   4.012   4.413   6.099
23567SOL     OW70724   5.271   3.946   7.315
23567SOL    HW170725   5.266   3.983   7.407
23567SOL    HW270726   5.199   3.877   7.303
23568SOL     OW70727   4.338   3.846   5.703
23568SOL    HW170728   4.436   3.824   5.710
23568SOL    HW270729   4.307   3.829   5.610
23569SOL     OW70730   4.505   3.988   7.335
23569SOL    HW170731   4.572   3.927   7.378
23569SOL    HW270732   4.432   4.007   7.400
23570SOL     OW70733   4.612   5.238   6.781
23570SOL    HW170734   4.589   5.213   6.687
23570SOL    HW270735   4.673   5.169   6.820
23571SOL     OW70736   5.075   4.314   7.019
23571SOL    HW170737   5.103   4.271   7.104
23571SOL    HW270738   5.100   4.410   7.020
23572SOL     OW70739   4.527   5.126   6.510
23572SOL    HW170740   4.617   5.140   6.468
23572SOL    HW270741   4.456   5.128   6.439
23573SOL     OW70742   4.646   4.227   6.485
23573SOL    HW170743   4.621   4.218   6.389
23573SOL    HW270744   4.694   4.145   6.516
23574SOL     OW70745   4.263   3.788   6.098
23574SOL    HW170746   4.182   3.789   6.156
23574SOL    HW270747   4.266   3.871   6.043
23575SOL     OW70748   5.158   4.912   5.627
23575SOL    HW170749   5.190   4.836   5.684
23575SOL    HW270750   5.066   4.939   5.657
23576SOL     OW70751   4.021   3.759   5.757
23576SOL    HW170752   4.070   3.843   5.736
23576SOL    HW270753   4.083   3.694   5.802
23577SOL     OW70754   4.659   3.960   6.066
23577SOL    HW170755   4.611   4.001   5.988
23577SOL    HW270756   4.758   3.958   6.047
23578SOL     OW70757   4.800   4.407   7.050
23578SOL    HW170758   4.720   4.346   7.053
23578SOL    HW270759   4.881   4.354   7.026
23579SOL     OW70760   4.951   5.294   6.379
23579SOL    HW170761   4.972   5.368   6.314
23579SOL    HW270762   5.019   5.294   6.452
23580SOL     OW70763   4.183   4.876   6.327
23580SOL    HW170764   4.112   4.849   6.392
23580SOL    HW270765   4.157   4.848   6.234
23581SOL     OW70766   4.995   5.521   6.177
23581SOL    HW170767   5.039   5.585   6.113
23581SOL    HW270768   4.945   5.573   6.247
23582SOL     OW70769   4.756   4.273   5.602
23582SOL    HW170770   4.715   4.355   5.563
23582SOL    HW270771   4.820   4.299   5.675
23583SOL     OW70772   3.802   4.280   6.972
23583SOL    HW170773   3.894   4.279   6.931
23583SOL    HW270774   3.796   4.354   7.039
23584SOL     OW70775   4.285   3.946   6.733
23584SOL    HW170776   4.323   3.862   6.770
23584SOL    HW270777   4.197   3.965   6.777
23585SOL     OW70778   4.590   4.178   6.228
23585SOL    HW170779   4.558   4.250   6.166
23585SOL    HW270780   4.614   4.097   6.175
23586SOL     OW70781   4.741   3.763   6.339
23586SOL    HW170782   4.669   3.768   6.270
23586SOL    HW270783   4.717   3.694   6.408
23587SOL     OW70784   5.153   4.897   6.453
23587SOL    HW170785   5.098   4.813   6.446
23587SOL    HW270786   5.179   4.926   6.361
23588SOL     OW70787   5.190   4.314   6.578
23588SOL    HW170788   5.160   4.219   6.585
23588SOL    HW270789   5.263   4.330   6.644
23589SOL     OW70790   5.581   4.557   5.963
23589SOL    HW170791   5.623   4.493   6.027
23589SOL    HW270792   5.543   4.506   5.885
23590SOL     OW70793   4.212   5.109   5.760
23590SOL    HW170794   4.125   5.094   5.807
23590SOL    HW270795   4.195   5.135   5.665
23591SOL     OW70796   5.388   5.004   6.243
23591SOL    HW170797   5.487   5.012   6.257
23591SOL    HW270798   5.343   5.088   6.274
23592SOL     OW70799   5.114   4.299   5.664
23592SOL    HW170800   5.060   4.278   5.745
23592SOL    HW270801   5.205   4.258   5.673
23593SOL     OW70802   4.251   3.980   5.914
23593SOL    HW170803   4.278   3.921   5.839
23593SOL    HW270804   4.251   4.075   5.883
23594SOL     OW70805   5.478   4.947   7.174
23594SOL    HW170806   5.569   4.908   7.161
23594SOL    HW270807   5.486   5.043   7.198
23595SOL     OW70808   4.788   5.071   6.926
23595SOL    HW170809   4.708   5.048   6.981
23595SOL    HW270810   4.871   5.045   6.975
23596SOL     OW70811   5.316   5.353   7.211
23596SOL    HW170812   5.343   5.387   7.121
23596SOL    HW270813   5.395   5.315   7.257
23597SOL     OW70814   4.835   4.919   6.686
23597SOL    HW170815   4.795   4.963   6.767
23597SOL    HW270816   4.794   4.956   6.603
23598SOL     OW70817   5.362   4.823   6.665
23598SOL    HW170818   5.367   4.904   6.724
23598SOL    HW270819   5.276   4.825   6.614
23599SOL     OW70820   4.639   3.813   6.988
23599SOL    HW170821   4.664   3.793   6.893
23599SOL    HW270822   4.711   3.869   7.030
23600SOL     OW70823   4.704   4.840   7.305
23600SOL    HW170824   4.605   4.846   7.315
23600SOL    HW270825   4.727   4.760   7.249
23601SOL     OW70826   4.429   4.774   5.954
23601SOL    HW170827   4.415   4.781   6.053
23601SOL    HW270828   4.513   4.723   5.936
23602SOL     OW70829   4.134   4.537   6.837
23602SOL    HW170830   4.220   4.549   6.887
23602SOL    HW270831   4.092   4.450   6.864
23603SOL     OW70832   4.998   4.110   6.848
23603SOL    HW170833   5.019   4.184   6.912
23603SOL    HW270834   4.909   4.127   6.805
23604SOL     OW70835   3.788   5.288   6.917
23604SOL    HW170836   3.742   5.370   6.883
23604SOL    HW270837   3.886   5.307   6.926
23605SOL     OW70838   4.091   4.824   6.087
23605SOL    HW170839   4.084   4.907   6.031
23605SOL    HW270840   4.095   4.744   6.027
23606SOL     OW70841   4.290   4.261   6.451
23606SOL    HW170842   4.302   4.327   6.377
23606SOL    HW270843   4.336   4.295   6.534
23607SOL     OW70844   4.976   5.072   5.974
23607SOL    HW170845   5.026   5.149   6.014
23607SOL    HW270846   4.881   5.074   6.006
23608SOL     OW70847   4.996   5.169   6.728
23608SOL    HW170848   5.043   5.182   6.815
23608SOL    HW270849   4.930   5.095   6.737
23609SOL     OW70850   5.306   4.363   6.058
23609SOL    HW170851   5.275   4.424   6.131
23609SOL    HW270852   5.356   4.415   5.989
23610SOL     OW70853   4.078   5.234   6.915
23610SOL    HW170854   4.057   5.190   6.828
23610SOL    HW270855   4.175   5.260   6.918
23611SOL     OW70856   4.126   4.475   7.184
23611SOL    HW170857   4.194   4.530   7.137
23611SOL    HW270858   4.166   4.387   7.211
23612SOL     OW70859   5.311   4.503   7.256
23612SOL    HW170860   5.219   4.541   7.251
23612SOL    HW270861   5.371   4.550   7.191
23613SOL     OW70862   4.737   3.829   7.356
23613SOL    HW170863   4.743   3.914   7.304
23613SOL    HW270864   4.769   3.753   7.299
23614SOL     OW70865   4.228   3.774   7.326
23614SOL    HW170866   4.186   3.717   7.256
23614SOL    HW270867   4.162   3.843   7.358
23615SOL     OW70868   4.297   4.594   6.615
23615SOL    HW170869   4.341   4.683   6.606
23615SOL    HW270870   4.234   4.594   6.692
23616SOL     OW70871   5.084   4.586   6.631
23616SOL    HW170872   5.009   4.586   6.565
23616SOL    HW270873   5.121   4.494   6.640
23617SOL     OW70874   4.933   4.249   5.861
23617SOL    HW170875   4.946   4.165   5.915
23617SOL    HW270876   4.904   4.323   5.921
23618SOL     OW70877   4.031   3.937   6.817
23618SOL    HW170878   4.008   3.974   6.907
23618SOL    HW270879   4.001   3.842   6.811
23619SOL     OW70880   3.761   5.034   6.868
23619SOL    HW170881   3.814   4.985   6.936
23619SOL    HW270882   3.783   5.132   6.873
23620SOL     OW70883   4.456   4.358   6.650
23620SOL    HW170884   4.515   4.332   6.574
23620SOL    HW270885   4.428   4.454   6.639
23621SOL     OW70886   5.452   4.659   7.440
23621SOL    HW170887   5.406   4.652   7.351
23621SOL    HW270888   5.390   4.703   7.506
23622SOL     OW70889   4.031   3.787   6.204
23622SOL    HW170890   4.020   3.881   6.237
23622SOL    HW270891   4.026   3.724   6.281
23623SOL     OW70892   5.346   4.091   5.960
23623SOL    HW170893   5.348   4.015   6.024
23623SOL    HW270894   5.298   4.168   6.000
23624SOL     OW70895   4.747   4.490   6.552
23624SOL    HW170896   4.762   4.511   6.648
23624SOL    HW270897   4.717   4.395   6.543
23625SOL     OW70898   4.704   5.297   7.286
23625SOL    HW170899   4.684   5.341   7.198
23625SOL    HW270900   4.743   5.206   7.270
23626SOL     OW70901   5.583   5.242   7.191
23626SOL    HW170902   5.597   5.269   7.096
23626SOL    HW270903   5.666   5.264   7.244
23627SOL     OW70904   4.074   4.622   7.390
23627SOL    HW170905   4.150   4.666   7.438
23627SOL    HW270906   4.109   4.575   7.308
23628SOL     OW70907   5.264   3.998   5.711
23628SOL    HW170908   5.203   3.923   5.734
23628SOL    HW270909   5.286   4.050   5.794
23629SOL     OW70910   5.027   4.562   5.628
23629SOL    HW170911   5.061   4.469   5.643
23629SOL    HW270912   5.045   4.589   5.533
23630SOL     OW70913   4.792   5.057   6.435
23630SOL    HW170914   4.799   4.973   6.380
23630SOL    HW270915   4.854   5.126   6.399
23631SOL     OW70916   4.043   4.534   6.535
23631SOL    HW170917   4.136   4.570   6.540
23631SOL    HW270918   4.037   4.449   6.587
23632SOL     OW70919   4.063   4.233   6.592
23632SOL    HW170920   4.011   4.150   6.575
23632SOL    HW270921   4.140   4.238   6.528
23633SOL     OW70922   4.862   4.104   7.264
23633SOL    HW170923   4.817   4.167   7.328
23633SOL    HW270924   4.955   4.135   7.247
23634SOL     OW70925   4.884   3.931   7.063
23634SOL    HW170926   4.884   3.995   7.140
23634SOL    HW270927   4.912   3.979   6.980
23635SOL     OW70928   3.732   5.050   5.786
23635SOL    HW170929   3.639   5.071   5.755
23635SOL    HW270930   3.742   4.951   5.799
23636SOL     OW70931   3.812   5.525   6.513
23636SOL    HW170932   3.770   5.439   6.486
23636SOL    HW270933   3.906   5.528   6.479
23637SOL     OW70934   4.228   5.292   6.496
23637SOL    HW170935   4.294   5.366   6.505
23637SOL    HW270936   4.272   5.213   6.454
23638SOL     OW70937   4.726   4.520   6.824
23638SOL    HW170938   4.767   4.488   6.910
23638SOL    HW270939   4.630   4.493   6.821
23639SOL     OW70940   3.764   4.268   6.700
23639SOL    HW170941   3.849   4.235   6.659
23639SOL    HW270942   3.777   4.283   6.798
23640SOL     OW70943   3.913   4.244   7.308
23640SOL    HW170944   3.972   4.204   7.238
23640SOL    HW270945   3.855   4.315   7.267
23641SOL     OW70946   5.093   4.674   7.246
23641SOL    HW170947   5.132   4.763   7.266
23641SOL    HW270948   5.103   4.654   7.149
23642SOL     OW70949   4.539   4.296   5.911
23642SOL    HW170950   4.546   4.207   5.865
23642SOL    HW270951   4.445   4.330   5.903
23643SOL     OW70952   5.381   4.328   6.792
23643SOL    HW170953   5.343   4.259   6.854
23643SOL    HW270954   5.463   4.292   6.748
23644SOL     OW70955   3.976   5.288   7.330
23644SOL    HW170956   3.946   5.345   7.406
23644SOL    HW270957   3.969   5.191   7.356
23645SOL     OW70958   4.395   4.188   6.855
23645SOL    HW170959   4.361   4.099   6.825
23645SOL    HW270960   4.421   4.242   6.775
23646SOL     OW70961   4.654   5.402   7.051
23646SOL    HW170962   4.630   5.384   6.956
23646SOL    HW270963   4.684   5.496   7.061
23647SOL     OW70964   4.197   4.224   5.777
23647SOL    HW170965   4.258   4.304   5.781
23647SOL    HW270966   4.102   4.255   5.784
23648SOL     OW70967   3.883   4.861   7.052
23648SOL    HW170968   3.905   4.800   7.128
23648SOL    HW270969   3.893   4.812   6.966
23649SOL     OW70970   5.071   4.783   6.820
23649SOL    HW170971   5.095   4.720   6.746
23649SOL    HW270972   4.981   4.823   6.802
23650SOL     OW70973   5.026   4.579   5.895
23650SOL    HW170974   4.940   4.548   5.937
23650SOL    HW270975   5.022   4.565   5.796
23651SOL     OW70976   5.483   5.471   6.740
23651SOL    HW170977   5.544   5.501   6.667
23651SOL    HW270978   5.445   5.382   6.718
23652SOL     OW70979   4.976   5.455   6.714
23652SOL    HW170980   5.060   5.460   6.660
23652SOL    HW270981   4.953   5.359   6.732
23653SOL     OW70982   3.807   4.982   6.608
23653SOL    HW170983   3.802   4.981   6.708
23653SOL    HW270984   3.724   4.941   6.570
23654SOL     OW70985   4.412   5.386   7.302
23654SOL    HW170986   4.356   5.467   7.311
23654SOL    HW270987   4.464   5.390   7.216
23655SOL     OW70988   5.450   3.859   6.109
23655SOL    HW170989   5.523   3.842   6.042
23655SOL    HW270990   5.419   3.772   6.147
23656SOL     OW70991   5.112   5.297   6.063
23656SOL    HW170992   5.179   5.309   5.989
23656SOL    HW270993   5.072   5.386   6.086
23657SOL     OW70994   3.854   5.518   7.437
23657SOL    HW170995   3.813   5.444   7.490
23657SOL    HW270996   3.918   5.569   7.495
23658SOL     OW70997   5.004   4.651   6.258
23658SOL    HW170998   5.064   4.570   6.260
23658SOL    HW270999   5.044   4.720   6.198
23659SOL     OW71000   4.554   4.997   7.008
23659SOL    HW171001   4.549   5.030   7.103
23659SOL    HW271002   4.468   5.016   6.962
23660SOL     OW71003   4.396   5.340   5.740
23660SOL    HW171004   4.405   5.350   5.641
23660SOL    HW271005   4.356   5.251   5.761
23661SOL     OW71006   5.374   5.444   6.980
23661SOL    HW171007   5.427   5.454   6.896
23661SOL    HW271008   5.347   5.534   7.014
23662SOL     OW71009   5.565   3.899   6.549
23662SOL    HW171010   5.604   3.814   6.513
23662SOL    HW271011   5.467   3.901   6.530
23663SOL     OW71012   3.987   4.050   6.306
23663SOL    HW171013   3.908   4.101   6.272
23663SOL    HW271014   3.978   4.035   6.404
23664SOL     OW71015   4.918   5.336   5.617
23664SOL    HW171016   4.924   5.243   5.654
23664SOL    HW271017   4.859   5.336   5.537
23665SOL     OW71018   4.546   4.726   6.958
23665SOL    HW171019   4.586   4.725   6.866
23665SOL    HW271020   4.556   4.818   6.998
23666SOL     OW71021   4.640   4.634   5.877
23666SOL    HW171022   4.703   4.672   5.809
23666SOL    HW271023   4.680   4.551   5.916
23667SOL     OW71024   5.228   5.331   5.630
23667SOL    HW171025   5.136   5.368   5.637
23667SOL    HW271026   5.266   5.351   5.540
23668SOL     OW71027   4.096   5.012   7.076
23668SOL    HW171028   4.083   5.105   7.042
23668SOL    HW271029   4.012   4.960   7.063
23669SOL     OW71030   5.338   5.016   6.875
23669SOL    HW171031   5.398   5.019   6.955
23669SOL    HW271032   5.263   5.080   6.888
23670SOL     OW71033   4.763   4.822   6.282
23670SOL    HW171034   4.693   4.775   6.336
23670SOL    HW271035   4.822   4.754   6.239
23671SOL     OW71036   4.738   3.960   6.557
23671SOL    HW171037   4.730   3.924   6.464
23671SOL    HW271038   4.736   3.884   6.622
23672SOL     OW71039   4.314   5.211   6.077
23672SOL    HW171040   4.356   5.153   6.007
23672SOL    HW271041   4.270   5.290   6.033
23673SOL     OW71042   5.433   4.109   6.967
23673SOL    HW171043   5.506   4.178   6.971
23673SOL    HW271044   5.461   4.034   6.908
23674SOL     OW71045   3.979   5.072   5.876
23674SOL    HW171046   3.883   5.073   5.849
23674SOL    HW271047   3.991   5.125   5.960
23675SOL     OW71048   3.829   4.737   7.312
23675SOL    HW171049   3.752   4.704   7.366
23675SOL    HW271050   3.914   4.707   7.354
23676SOL     OW71051   4.396   3.927   7.075
23676SOL    HW171052   4.486   3.911   7.035
23676SOL    HW271053   4.404   3.932   7.174
23677SOL     OW71054   3.799   4.069   5.619
23677SOL    HW171055   3.707   4.041   5.590
23677SOL    HW271056   3.830   4.146   5.563
23678SOL     OW71057   5.164   4.580   6.984
23678SOL    HW171058   5.107   4.632   6.921
23678SOL    HW271059   5.260   4.592   6.960
23679SOL     OW71060   3.796   3.890   5.904
23679SOL    HW171061   3.779   3.973   5.850
23679SOL    HW271062   3.886   3.853   5.882
23680SOL     OW71063   4.907   5.059   5.705
23680SOL    HW171064   4.808   5.048   5.707
23680SOL    HW271065   4.941   5.074   5.798
23681SOL     OW71066   4.337   4.566   7.017
23681SOL    HW171067   4.393   4.647   7.000
23681SOL    HW271068   4.396   4.486   7.020
23682SOL     OW71069   5.217   5.491   6.545
23682SOL    HW171070   5.250   5.555   6.476
23682SOL    HW271071   5.283   5.485   6.620
23683SOL     OW71072   4.440   4.289   7.294
23683SOL    HW171073   4.459   4.354   7.368
23683SOL    HW271074   4.500   4.209   7.303
23684SOL     OW71075   5.174   4.944   7.219
23684SOL    HW171076   5.165   4.934   7.318
23684SOL    HW271077   5.270   4.937   7.193
23685SOL     OW71078   4.114   5.465   7.146
23685SOL    HW171079   4.023   5.506   7.144
23685SOL    HW271080   4.107   5.371   7.178
23686SOL     OW71081   5.398   4.607   6.840
23686SOL    HW171082   5.371   4.518   6.803
23686SOL    HW271083   5.399   4.675   6.767
23687SOL     OW71084   4.949   4.049   6.035
23687SOL    HW171085   5.014   3.975   6.024
23687SOL    HW271086   4.969   4.099   6.119
23688SOL     OW71087   4.318   4.469   6.238
23688SOL    HW171088   4.368   4.554   6.219
23688SOL    HW271089   4.230   4.471   6.190
23689SOL     OW71090   5.501   4.066   7.228
23689SOL    HW171091   5.484   4.097   7.134
23689SOL    HW271092   5.417   4.029   7.266
23690SOL     OW71093   5.454   4.658   7.103
23690SOL    HW171094   5.492   4.749   7.118
23690SOL    HW271095   5.446   4.641   7.004
23691SOL     OW71096   4.583   5.098   5.602
23691SOL    HW171097   4.537   5.113   5.690
23691SOL    HW271098   4.627   5.183   5.572
23692SOL     OW71099   4.385   5.514   6.539
23692SOL    HW171100   4.339   5.602   6.526
23692SOL    HW271101   4.484   5.526   6.532
23693SOL     OW71102   4.583   4.680   6.447
23693SOL    HW171103   4.637   4.611   6.495
23693SOL    HW271104   4.551   4.749   6.513
23694SOL     OW71105   4.807   4.708   5.673
23694SOL    HW171106   4.784   4.761   5.591
23694SOL    HW271107   4.888   4.652   5.654
23695SOL     OW71108   5.585   5.293   6.437
23695SOL    HW171109   5.514   5.281   6.367
23695SOL    HW271110   5.586   5.214   6.497
23696SOL     OW71111   3.945   5.038   7.430
23696SOL    HW171112   3.880   4.965   7.409
23696SOL    HW271113   3.949   5.052   7.528
23697SOL     OW71114   3.803   4.964   6.239
23697SOL    HW171115   3.802   4.917   6.327
23697SOL    HW271116   3.885   4.936   6.188
23698SOL     OW71117   4.396   5.115   7.210
23698SOL    HW171118   4.318   5.065   7.248
23698SOL    HW271119   4.393   5.210   7.241
23699SOL     OW71120   5.548   3.916   6.813
23699SOL    HW171121   5.544   3.826   6.857
23699SOL    HW271122   5.551   3.905   6.714
23700SOL     OW71123   4.152   4.148   6.106
23700SOL    HW171124   4.182   4.076   6.044
23700SOL    HW271125   4.113   4.108   6.189
23701SOL     OW71126   5.429   5.211   6.690
23701SOL    HW171127   5.336   5.186   6.663
23701SOL    HW271128   5.455   5.161   6.772
23702SOL     OW71129   4.041   4.271   6.866
23702SOL    HW171130   4.079   4.212   6.938
23702SOL    HW271131   4.081   4.245   6.778
23703SOL     OW71132   4.536   5.310   6.273
23703SOL    HW171133   4.568   5.320   6.179
23703SOL    HW271134   4.457   5.248   6.275
23704SOL     OW71135   5.148   3.938   6.698
23704SOL    HW171136   5.200   3.873   6.753
23704SOL    HW271137   5.099   4.001   6.759
23705SOL     OW71138   4.725   3.758   6.740
23705SOL    HW171139   4.662   3.686   6.709
23705SOL    HW271140   4.818   3.722   6.740
23706SOL     OW71141   4.494   5.054   5.887
23706SOL    HW171142   4.448   4.967   5.904
23706SOL    HW271143   4.585   5.051   5.928
23707SOL     OW71144   4.342   5.291   6.870
23707SOL    HW171145   4.337   5.373   6.927
23707SOL    HW271146   4.431   5.288   6.825
23708SOL     OW71147   5.076   3.776   5.754
23708SOL    HW171148   5.111   3.735   5.670
23708SOL    HW271149   4.986   3.738   5.774
23709SOL     OW71150   5.024   4.177   6.277
23709SOL    HW171151   4.965   4.257   6.281
23709SOL    HW271152   5.039   4.142   6.370
23710SOL     OW71153   5.317   3.945   6.468
23710SOL    HW171154   5.233   3.944   6.522
23710SOL    HW271155   5.319   4.028   6.412
23711SOL     OW71156   3.763   4.801   5.886
23711SOL    HW171157   3.862   4.790   5.877
23711SOL    HW271158   3.723   4.715   5.918
23712SOL     OW71159   4.599   5.370   5.923
23712SOL    HW171160   4.522   5.335   5.869
23712SOL    HW271161   4.567   5.441   5.985
23713SOL     OW71162   3.954   4.352   7.561
23713SOL    HW171163   3.861   4.350   7.598
23713SOL    HW271164   3.955   4.313   7.469
23714SOL     OW71165   3.949   3.999   8.444
23714SOL    HW171166   3.984   3.982   8.536
23714SOL    HW271167   3.861   3.954   8.432
23715SOL     OW71168   3.743   4.092   8.095
23715SOL    HW171169   3.661   4.135   8.134
23715SOL    HW271170   3.715   4.019   8.032
23716SOL     OW71171   4.293   4.999   8.613
23716SOL    HW171172   4.200   4.992   8.576
23716SOL    HW271173   4.304   5.088   8.657
23717SOL     OW71174   5.279   5.235   8.151
23717SOL    HW171175   5.222   5.219   8.232
23717SOL    HW271176   5.220   5.245   8.071
23718SOL     OW71177   4.859   4.427   8.165
23718SOL    HW171178   4.916   4.505   8.140
23718SOL    HW271179   4.799   4.453   8.241
23719SOL     OW71180   5.479   4.331   7.679
23719SOL    HW171181   5.467   4.318   7.580
23719SOL    HW271182   5.449   4.250   7.728
23720SOL     OW71183   4.574   4.522   9.271
23720SOL    HW171184   4.570   4.598   9.336
23720SOL    HW271185   4.596   4.558   9.180
23721SOL     OW71186   4.409   4.736   8.113
23721SOL    HW171187   4.478   4.720   8.183
23721SOL    HW271188   4.336   4.793   8.151
23722SOL     OW71189   4.410   4.885   9.251
23722SOL    HW171190   4.470   4.964   9.265
23722SOL    HW271191   4.324   4.916   9.210
23723SOL     OW71192   4.059   5.159   8.509
23723SOL    HW171193   3.981   5.128   8.456
23723SOL    HW271194   4.117   5.217   8.452
23724SOL     OW71195   5.184   5.229   8.787
23724SOL    HW171196   5.208   5.323   8.813
23724SOL    HW271197   5.168   5.175   8.869
23725SOL     OW71198   4.162   4.116   8.947
23725SOL    HW171199   4.244   4.060   8.956
23725SOL    HW271200   4.081   4.058   8.951
23726SOL     OW71201   5.327   4.171   8.185
23726SOL    HW171202   5.253   4.217   8.135
23726SOL    HW271203   5.378   4.239   8.238
23727SOL     OW71204   3.955   5.437   7.931
23727SOL    HW171205   3.989   5.514   7.985
23727SOL    HW271206   3.999   5.437   7.841
23728SOL     OW71207   4.851   5.065   9.138
23728SOL    HW171208   4.898   5.065   9.226
23728SOL    HW271209   4.803   4.978   9.127
23729SOL     OW71210   3.954   5.158   7.986
23729SOL    HW171211   3.928   5.254   7.986
23729SOL    HW271212   3.883   5.104   8.031
23730SOL     OW71213   3.964   4.815   8.334
23730SOL    HW171214   3.978   4.731   8.386
23730SOL    HW271215   3.909   4.879   8.389
23731SOL     OW71216   4.344   5.510   8.887
23731SOL    HW171217   4.252   5.493   8.922
23731SOL    HW271218   4.372   5.602   8.913
23732SOL     OW71219   4.330   4.688   7.571
23732SOL    HW171220   4.337   4.772   7.517
23732SOL    HW271221   4.376   4.701   7.659
23733SOL     OW71222   5.318   3.838   8.928
23733SOL    HW171223   5.300   3.905   8.856
23733SOL    HW271224   5.315   3.884   9.017
23734SOL     OW71225   3.846   4.367   8.011
23734SOL    HW171226   3.801   4.279   8.028
23734SOL    HW271227   3.845   4.421   8.095
23735SOL     OW71228   5.566   5.491   7.807
23735SOL    HW171229   5.620   5.462   7.887
23735SOL    HW271230   5.596   5.581   7.778
23736SOL     OW71231   3.751   5.320   7.565
23736SOL    HW171232   3.732   5.224   7.586
23736SOL    HW271233   3.718   5.378   7.640
23737SOL     OW71234   5.413   4.646   8.060
23737SOL    HW171235   5.508   4.617   8.068
23737SOL    HW271236   5.405   4.711   7.985
23738SOL     OW71237   5.365   4.832   7.880
23738SOL    HW171238   5.451   4.834   7.828
23738SOL    HW271239   5.379   4.879   7.968
23739SOL     OW71240   3.837   4.461   9.045
23739SOL    HW171241   3.925   4.448   9.090
23739SOL    HW271242   3.824   4.558   9.023
23740SOL     OW71243   4.337   5.089   8.174
23740SOL    HW171244   4.288   5.002   8.183
23740SOL    HW271245   4.314   5.132   8.087
23741SOL     OW71246   5.017   4.952   8.871
23741SOL    HW171247   5.054   4.879   8.813
23741SOL    HW271248   5.069   4.957   8.956
23742SOL     OW71249   4.533   3.728   7.950
23742SOL    HW171250   4.573   3.819   7.941
23742SOL    HW271251   4.433   3.736   7.956
23743SOL     OW71252   3.921   4.700   8.712
23743SOL    HW171253   4.010   4.655   8.698
23743SOL    HW271254   3.848   4.635   8.693
23744SOL     OW71255   5.249   4.723   7.638
23744SOL    HW171256   5.186   4.647   7.651
23744SOL    HW271257   5.297   4.741   7.724
23745SOL     OW71258   4.911   5.516   9.064
23745SOL    HW171259   4.935   5.576   8.988
23745SOL    HW271260   4.918   5.421   9.034
23746SOL     OW71261   4.041   3.975   9.249
23746SOL    HW171262   4.112   4.046   9.255
23746SOL    HW271263   3.953   4.014   9.277
23747SOL     OW71264   5.190   5.141   8.401
23747SOL    HW171265   5.131   5.147   8.481
23747SOL    HW271266   5.175   5.053   8.355
23748SOL     OW71267   5.391   5.438   8.020
23748SOL    HW171268   5.350   5.415   7.932
23748SOL    HW271269   5.373   5.364   8.085
23749SOL     OW71270   4.322   4.453   7.718
23749SOL    HW171271   4.346   4.522   7.650
23749SOL    HW271272   4.244   4.486   7.772
23750SOL     OW71273   5.005   4.069   8.392
23750SOL    HW171274   4.919   4.019   8.379
23750SOL    HW271275   5.067   4.015   8.448
23751SOL     OW71276   5.300   5.386   7.755
23751SOL    HW171277   5.389   5.432   7.758
23751SOL    HW271278   5.279   5.362   7.660
23752SOL     OW71279   4.531   4.329   8.913
23752SOL    HW171280   4.484   4.326   9.002
23752SOL    HW271281   4.480   4.274   8.847
23753SOL     OW71282   5.118   4.193   9.122
23753SOL    HW171283   5.098   4.236   9.210
23753SOL    HW271284   5.196   4.131   9.131
23754SOL     OW71285   4.697   4.614   9.020
23754SOL    HW171286   4.743   4.530   8.991
23754SOL    HW271287   4.641   4.648   8.945
23755SOL     OW71288   4.715   4.134   8.690
23755SOL    HW171289   4.638   4.168   8.744
23755SOL    HW271290   4.681   4.083   8.611
23756SOL     OW71291   4.765   4.425   7.877
23756SOL    HW171292   4.791   4.421   7.973
23756SOL    HW271293   4.680   4.374   7.863
23757SOL     OW71294   3.800   4.535   8.237
23757SOL    HW171295   3.899   4.523   8.246
23757SOL    HW271296   3.776   4.630   8.258
23758SOL     OW71297   3.854   5.545   9.019
23758SOL    HW171298   3.844   5.530   9.118
23758SOL    HW271299   3.768   5.581   8.983
23759SOL     OW71300   4.589   4.072   7.643
23759SOL    HW171301   4.648   4.135   7.594
23759SOL    HW271302   4.608   3.978   7.614
23760SOL     OW71303   5.443   4.309   9.279
23760SOL    HW171304   5.417   4.398   9.243
23760SOL    HW271305   5.441   4.241   9.206
23761SOL     OW71306   5.086   4.868   7.993
23761SOL    HW171307   5.169   4.839   7.945
23761SOL    HW271308   5.037   4.935   7.937
23762SOL     OW71309   4.274   3.920   8.333
23762SOL    HW171310   4.269   3.915   8.433
23762SOL    HW271311   4.276   4.016   8.304
23763SOL     OW71312   4.732   5.180   7.925
23763SOL    HW171313   4.686   5.252   7.873
23763SOL    HW271314   4.728   5.200   8.023
23764SOL     OW71315   4.075   5.525   8.301
23764SOL    HW171316   4.125   5.439   8.307
23764SOL    HW271317   4.140   5.602   8.298
23765SOL     OW71318   5.519   4.790   8.321
23765SOL    HW171319   5.457   4.775   8.245
23765SOL    HW271320   5.467   4.801   8.406
23766SOL     OW71321   4.951   5.274   8.954
23766SOL    HW171322   4.957   5.197   9.018
23766SOL    HW271323   4.899   5.248   8.874
23767SOL     OW71324   4.045   4.667   7.690
23767SOL    HW171325   4.127   4.706   7.648
23767SOL    HW271326   4.018   4.585   7.641
23768SOL     OW71327   5.182   4.459   8.176
23768SOL    HW171328   5.177   4.394   8.251
23768SOL    HW271329   5.262   4.518   8.189
23769SOL     OW71330   4.185   4.990   9.175
23769SOL    HW171331   4.135   4.991   9.089
23769SOL    HW271332   4.122   4.972   9.251
23770SOL     OW71333   4.835   5.500   7.685
23770SOL    HW171334   4.775   5.438   7.735
23770SOL    HW271335   4.866   5.456   7.600
23771SOL     OW71336   3.926   4.009   8.946
23771SOL    HW171337   3.846   4.069   8.933
23771SOL    HW271338   3.916   3.960   9.032
23772SOL     OW71339   5.356   5.101   7.529
23772SOL    HW171340   5.324   5.195   7.519
23772SOL    HW271341   5.280   5.038   7.517
23773SOL     OW71342   5.124   3.831   7.874
23773SOL    HW171343   5.100   3.794   7.784
23773SOL    HW271344   5.223   3.847   7.878
23774SOL     OW71345   3.973   5.509   8.689
23774SOL    HW171346   4.030   5.444   8.739
23774SOL    HW271347   3.957   5.476   8.596
23775SOL     OW71348   4.664   5.422   8.352
23775SOL    HW171349   4.744   5.365   8.373
23775SOL    HW271350   4.615   5.382   8.275
23776SOL     OW71351   4.106   4.424   7.928
23776SOL    HW171352   4.151   4.334   7.925
23776SOL    HW271353   4.012   4.413   7.961
23777SOL     OW71354   5.271   3.946   9.177
23777SOL    HW171355   5.266   3.983   9.269
23777SOL    HW271356   5.199   3.877   9.165
23778SOL     OW71357   4.338   3.846   7.565
23778SOL    HW171358   4.436   3.824   7.572
23778SOL    HW271359   4.307   3.829   7.472
23779SOL     OW71360   4.505   3.988   9.197
23779SOL    HW171361   4.572   3.927   9.240
23779SOL    HW271362   4.432   4.007   9.262
23780SOL     OW71363   4.612   5.238   8.643
23780SOL    HW171364   4.589   5.213   8.549
23780SOL    HW271365   4.673   5.169   8.682
23781SOL     OW71366   5.075   4.314   8.881
23781SOL    HW171367   5.103   4.271   8.966
23781SOL    HW271368   5.100   4.410   8.882
23782SOL     OW71369   4.527   5.126   8.372
23782SOL    HW171370   4.617   5.140   8.330
23782SOL    HW271371   4.456   5.128   8.301
23783SOL     OW71372   4.646   4.227   8.347
23783SOL    HW171373   4.621   4.218   8.251
23783SOL    HW271374   4.694   4.145   8.378
23784SOL     OW71375   4.263   3.788   7.960
23784SOL    HW171376   4.182   3.789   8.018
23784SOL    HW271377   4.266   3.871   7.905
23785SOL     OW71378   5.158   4.912   7.489
23785SOL    HW171379   5.190   4.836   7.546
23785SOL    HW271380   5.066   4.939   7.519
23786SOL     OW71381   4.021   3.759   7.619
23786SOL    HW171382   4.070   3.843   7.598
23786SOL    HW271383   4.083   3.694   7.664
23787SOL     OW71384   4.659   3.960   7.928
23787SOL    HW171385   4.611   4.001   7.850
23787SOL    HW271386   4.758   3.958   7.909
23788SOL     OW71387   4.800   4.407   8.912
23788SOL    HW171388   4.720   4.346   8.915
23788SOL    HW271389   4.881   4.354   8.888
23789SOL     OW71390   4.951   5.294   8.241
23789SOL    HW171391   4.972   5.368   8.176
23789SOL    HW271392   5.019   5.294   8.314
23790SOL     OW71393   4.183   4.876   8.189
23790SOL    HW171394   4.112   4.849   8.254
23790SOL    HW271395   4.157   4.848   8.096
23791SOL     OW71396   4.995   5.521   8.039
23791SOL    HW171397   5.039   5.585   7.975
23791SOL    HW271398   4.945   5.573   8.109
23792SOL     OW71399   4.756   4.273   7.464
23792SOL    HW171400   4.715   4.355   7.425
23792SOL    HW271401   4.820   4.299   7.537
23793SOL     OW71402   3.802   4.280   8.834
23793SOL    HW171403   3.894   4.279   8.793
23793SOL    HW271404   3.796   4.354   8.901
23794SOL     OW71405   4.285   3.946   8.595
23794SOL    HW171406   4.323   3.862   8.632
23794SOL    HW271407   4.197   3.965   8.639
23795SOL     OW71408   4.590   4.178   8.090
23795SOL    HW171409   4.558   4.250   8.028
23795SOL    HW271410   4.614   4.097   8.037
23796SOL     OW71411   4.741   3.763   8.201
23796SOL    HW171412   4.669   3.768   8.132
23796SOL    HW271413   4.717   3.694   8.270
23797SOL     OW71414   5.153   4.897   8.315
23797SOL    HW171415   5.098   4.813   8.308
23797SOL    HW271416   5.179   4.926   8.223
23798SOL     OW71417   5.190   4.314   8.440
23798SOL    HW171418   5.160   4.219   8.447
23798SOL    HW271419   5.263   4.330   8.506
23799SOL     OW71420   5.581   4.557   7.825
23799SOL    HW171421   5.623   4.493   7.889
23799SOL    HW271422   5.543   4.506   7.747
23800SOL     OW71423   4.212   5.109   7.622
23800SOL    HW171424   4.125   5.094   7.669
23800SOL    HW271425   4.195   5.135   7.527
23801SOL     OW71426   5.388   5.004   8.105
23801SOL    HW171427   5.487   5.012   8.119
23801SOL    HW271428   5.343   5.088   8.136
23802SOL     OW71429   5.114   4.299   7.526
23802SOL    HW171430   5.060   4.278   7.607
23802SOL    HW271431   5.205   4.258   7.535
23803SOL     OW71432   4.251   3.980   7.776
23803SOL    HW171433   4.278   3.921   7.701
23803SOL    HW271434   4.251   4.075   7.745
23804SOL     OW71435   5.478   4.947   9.036
23804SOL    HW171436   5.569   4.908   9.023
23804SOL    HW271437   5.486   5.043   9.060
23805SOL     OW71438   4.788   5.071   8.788
23805SOL    HW171439   4.708   5.048   8.843
23805SOL    HW271440   4.871   5.045   8.837
23806SOL     OW71441   5.316   5.353   9.073
23806SOL    HW171442   5.343   5.387   8.983
23806SOL    HW271443   5.395   5.315   9.119
23807SOL     OW71444   4.835   4.919   8.548
23807SOL    HW171445   4.795   4.963   8.629
23807SOL    HW271446   4.794   4.956   8.465
23808SOL     OW71447   5.362   4.823   8.527
23808SOL    HW171448   5.367   4.904   8.586
23808SOL    HW271449   5.276   4.825   8.476
23809SOL     OW71450   4.639   3.813   8.850
23809SOL    HW171451   4.664   3.793   8.755
23809SOL    HW271452   4.711   3.869   8.892
23810SOL     OW71453   4.704   4.840   9.167
23810SOL    HW171454   4.605   4.846   9.177
23810SOL    HW271455   4.727   4.760   9.111
23811SOL     OW71456   4.429   4.774   7.816
23811SOL    HW171457   4.415   4.781   7.915
23811SOL    HW271458   4.513   4.723   7.798
23812SOL     OW71459   4.134   4.537   8.699
23812SOL    HW171460   4.220   4.549   8.749
23812SOL    HW271461   4.092   4.450   8.726
23813SOL     OW71462   4.998   4.110   8.710
23813SOL    HW171463   5.019   4.184   8.774
23813SOL    HW271464   4.909   4.127   8.667
23814SOL     OW71465   3.788   5.288   8.779
23814SOL    HW171466   3.742   5.370   8.745
23814SOL    HW271467   3.886   5.307   8.788
23815SOL     OW71468   4.091   4.824   7.949
23815SOL    HW171469   4.084   4.907   7.893
23815SOL    HW271470   4.095   4.744   7.889
23816SOL     OW71471   4.290   4.261   8.313
23816SOL    HW171472   4.302   4.327   8.239
23816SOL    HW271473   4.336   4.295   8.396
23817SOL     OW71474   4.976   5.072   7.836
23817SOL    HW171475   5.026   5.149   7.876
23817SOL    HW271476   4.881   5.074   7.868
23818SOL     OW71477   4.996   5.169   8.590
23818SOL    HW171478   5.043   5.182   8.677
23818SOL    HW271479   4.930   5.095   8.599
23819SOL     OW71480   5.306   4.363   7.920
23819SOL    HW171481   5.275   4.424   7.993
23819SOL    HW271482   5.356   4.415   7.851
23820SOL     OW71483   4.078   5.234   8.777
23820SOL    HW171484   4.057   5.190   8.690
23820SOL    HW271485   4.175   5.260   8.780
23821SOL     OW71486   4.126   4.475   9.046
23821SOL    HW171487   4.194   4.530   8.999
23821SOL    HW271488   4.166   4.387   9.073
23822SOL     OW71489   5.311   4.503   9.118
23822SOL    HW171490   5.219   4.541   9.113
23822SOL    HW271491   5.371   4.550   9.053
23823SOL     OW71492   4.737   3.829   9.218
23823SOL    HW171493   4.743   3.914   9.166
23823SOL    HW271494   4.769   3.753   9.161
23824SOL     OW71495   4.228   3.774   9.188
23824SOL    HW171496   4.186   3.717   9.118
23824SOL    HW271497   4.162   3.843   9.220
23825SOL     OW71498   4.297   4.594   8.477
23825SOL    HW171499   4.341   4.683   8.468
23825SOL    HW271500   4.234   4.594   8.554
23826SOL     OW71501   5.084   4.586   8.493
23826SOL    HW171502   5.009   4.586   8.427
23826SOL    HW271503   5.121   4.494   8.502
23827SOL     OW71504   4.933   4.249   7.723
23827SOL    HW171505   4.946   4.165   7.777
23827SOL    HW271506   4.904   4.323   7.783
23828SOL     OW71507   4.031   3.937   8.679
23828SOL    HW171508   4.008   3.974   8.769
23828SOL    HW271509   4.001   3.842   8.673
23829SOL     OW71510   3.761   5.034   8.730
23829SOL    HW171511   3.814   4.985   8.798
23829SOL    HW271512   3.783   5.132   8.735
23830SOL     OW71513   4.456   4.358   8.512
23830SOL    HW171514   4.515   4.332   8.436
23830SOL    HW271515   4.428   4.454   8.501
23831SOL     OW71516   5.452   4.659   9.302
23831SOL    HW171517   5.406   4.652   9.213
23831SOL    HW271518   5.390   4.703   9.368
23832SOL     OW71519   5.346   4.091   7.822
23832SOL    HW171520   5.348   4.015   7.886
23832SOL    HW271521   5.298   4.168   7.862
23833SOL     OW71522   4.747   4.490   8.414
23833SOL    HW171523   4.762   4.511   8.510
23833SOL    HW271524   4.717   4.395   8.405
23834SOL     OW71525   4.704   5.297   9.148
23834SOL    HW171526   4.684   5.341   9.060
23834SOL    HW271527   4.743   5.206   9.132
23835SOL     OW71528   5.583   5.242   9.053
23835SOL    HW171529   5.597   5.269   8.958
23835SOL    HW271530   5.666   5.264   9.106
23836SOL     OW71531   4.074   4.622   9.252
23836SOL    HW171532   4.150   4.666   9.300
23836SOL    HW271533   4.109   4.575   9.170
23837SOL     OW71534   5.264   3.998   7.573
23837SOL    HW171535   5.203   3.923   7.596
23837SOL    HW271536   5.286   4.050   7.656
23838SOL     OW71537   5.027   4.562   7.490
23838SOL    HW171538   5.061   4.469   7.505
23838SOL    HW271539   5.045   4.589   7.395
23839SOL     OW71540   4.792   5.057   8.297
23839SOL    HW171541   4.799   4.973   8.242
23839SOL    HW271542   4.854   5.126   8.261
23840SOL     OW71543   4.043   4.534   8.397
23840SOL    HW171544   4.136   4.570   8.402
23840SOL    HW271545   4.037   4.449   8.449
23841SOL     OW71546   4.063   4.233   8.454
23841SOL    HW171547   4.011   4.150   8.437
23841SOL    HW271548   4.140   4.238   8.390
23842SOL     OW71549   4.862   4.104   9.126
23842SOL    HW171550   4.817   4.167   9.190
23842SOL    HW271551   4.955   4.135   9.109
23843SOL     OW71552   4.884   3.931   8.925
23843SOL    HW171553   4.884   3.995   9.002
23843SOL    HW271554   4.912   3.979   8.842
23844SOL     OW71555   3.732   5.050   7.648
23844SOL    HW171556   3.639   5.071   7.617
23844SOL    HW271557   3.742   4.951   7.661
23845SOL     OW71558   3.812   5.525   8.375
23845SOL    HW171559   3.770   5.439   8.348
23845SOL    HW271560   3.906   5.528   8.341
23846SOL     OW71561   4.228   5.292   8.358
23846SOL    HW171562   4.294   5.366   8.367
23846SOL    HW271563   4.272   5.213   8.316
23847SOL     OW71564   4.726   4.520   8.686
23847SOL    HW171565   4.767   4.488   8.772
23847SOL    HW271566   4.630   4.493   8.683
23848SOL     OW71567   3.764   4.268   8.562
23848SOL    HW171568   3.849   4.235   8.521
23848SOL    HW271569   3.777   4.283   8.660
23849SOL     OW71570   3.913   4.244   9.170
23849SOL    HW171571   3.972   4.204   9.100
23849SOL    HW271572   3.855   4.315   9.129
23850SOL     OW71573   5.093   4.674   9.108
23850SOL    HW171574   5.132   4.763   9.128
23850SOL    HW271575   5.103   4.654   9.011
23851SOL     OW71576   4.539   4.296   7.773
23851SOL    HW171577   4.546   4.207   7.727
23851SOL    HW271578   4.445   4.330   7.765
23852SOL     OW71579   5.381   4.328   8.654
23852SOL    HW171580   5.343   4.259   8.716
23852SOL    HW271581   5.463   4.292   8.610
23853SOL     OW71582   3.976   5.288   9.192
23853SOL    HW171583   3.946   5.345   9.268
23853SOL    HW271584   3.969   5.191   9.218
23854SOL     OW71585   4.395   4.188   8.717
23854SOL    HW171586   4.361   4.099   8.687
23854SOL    HW271587   4.421   4.242   8.637
23855SOL     OW71588   4.654   5.402   8.913
23855SOL    HW171589   4.630   5.384   8.818
23855SOL    HW271590   4.684   5.496   8.923
23856SOL     OW71591   4.197   4.224   7.639
23856SOL    HW171592   4.258   4.304   7.643
23856SOL    HW271593   4.102   4.255   7.646
23857SOL     OW71594   3.883   4.861   8.914
23857SOL    HW171595   3.905   4.800   8.990
23857SOL    HW271596   3.893   4.812   8.828
23858SOL     OW71597   5.071   4.783   8.682
23858SOL    HW171598   5.095   4.720   8.608
23858SOL    HW271599   4.981   4.823   8.664
23859SOL     OW71600   5.026   4.579   7.757
23859SOL    HW171601   4.940   4.548   7.799
23859SOL    HW271602   5.022   4.565   7.658
23860SOL     OW71603   5.483   5.471   8.602
23860SOL    HW171604   5.544   5.501   8.529
23860SOL    HW271605   5.445   5.382   8.580
23861SOL     OW71606   4.976   5.455   8.576
23861SOL    HW171607   5.060   5.460   8.522
23861SOL    HW271608   4.953   5.359   8.594
23862SOL     OW71609   3.807   4.982   8.470
23862SOL    HW171610   3.802   4.981   8.570
23862SOL    HW271611   3.724   4.941   8.432
23863SOL     OW71612   4.412   5.386   9.164
23863SOL    HW171613   4.356   5.467   9.173
23863SOL    HW271614   4.464   5.390   9.078
23864SOL     OW71615   5.450   3.859   7.971
23864SOL    HW171616   5.523   3.842   7.904
23864SOL    HW271617   5.419   3.772   8.009
23865SOL     OW71618   5.112   5.297   7.925
23865SOL    HW171619   5.179   5.309   7.851
23865SOL    HW271620   5.072   5.386   7.948
23866SOL     OW71621   3.854   5.518   9.299
23866SOL    HW171622   3.813   5.444   9.352
23866SOL    HW271623   3.918   5.569   9.357
23867SOL     OW71624   5.004   4.651   8.120
23867SOL    HW171625   5.064   4.570   8.122
23867SOL    HW271626   5.044   4.720   8.060
23868SOL     OW71627   4.554   4.997   8.870
23868SOL    HW171628   4.549   5.030   8.965
23868SOL    HW271629   4.468   5.016   8.824
23869SOL     OW71630   4.396   5.340   7.602
23869SOL    HW171631   4.405   5.350   7.503
23869SOL    HW271632   4.356   5.251   7.623
23870SOL     OW71633   5.374   5.444   8.842
23870SOL    HW171634   5.427   5.454   8.758
23870SOL    HW271635   5.347   5.534   8.876
23871SOL     OW71636   5.565   3.899   8.411
23871SOL    HW171637   5.604   3.814   8.375
23871SOL    HW271638   5.467   3.901   8.392
23872SOL     OW71639   3.987   4.050   8.168
23872SOL    HW171640   3.908   4.101   8.134
23872SOL    HW271641   3.978   4.035   8.266
23873SOL     OW71642   4.918   5.336   7.479
23873SOL    HW171643   4.924   5.243   7.516
23873SOL    HW271644   4.859   5.336   7.399
23874SOL     OW71645   4.546   4.726   8.820
23874SOL    HW171646   4.586   4.725   8.728
23874SOL    HW271647   4.556   4.818   8.860
23875SOL     OW71648   4.640   4.634   7.739
23875SOL    HW171649   4.703   4.672   7.671
23875SOL    HW271650   4.680   4.551   7.778
23876SOL     OW71651   5.228   5.331   7.492
23876SOL    HW171652   5.136   5.368   7.499
23876SOL    HW271653   5.266   5.351   7.402
23877SOL     OW71654   4.096   5.012   8.938
23877SOL    HW171655   4.083   5.105   8.904
23877SOL    HW271656   4.012   4.960   8.925
23878SOL     OW71657   5.338   5.016   8.737
23878SOL    HW171658   5.398   5.019   8.817
23878SOL    HW271659   5.263   5.080   8.750
23879SOL     OW71660   4.763   4.822   8.144
23879SOL    HW171661   4.693   4.775   8.198
23879SOL    HW271662   4.822   4.754   8.101
23880SOL     OW71663   4.738   3.960   8.419
23880SOL    HW171664   4.730   3.924   8.326
23880SOL    HW271665   4.736   3.884   8.484
23881SOL     OW71666   4.314   5.211   7.939
23881SOL    HW171667   4.356   5.153   7.869
23881SOL    HW271668   4.270   5.290   7.895
23882SOL     OW71669   5.433   4.109   8.829
23882SOL    HW171670   5.506   4.178   8.833
23882SOL    HW271671   5.461   4.034   8.770
23883SOL     OW71672   3.979   5.072   7.738
23883SOL    HW171673   3.883   5.073   7.711
23883SOL    HW271674   3.991   5.125   7.822
23884SOL     OW71675   3.829   4.737   9.174
23884SOL    HW171676   3.752   4.704   9.228
23884SOL    HW271677   3.914   4.707   9.216
23885SOL     OW71678   4.396   3.927   8.937
23885SOL    HW171679   4.486   3.911   8.897
23885SOL    HW271680   4.404   3.932   9.036
23886SOL     OW71681   3.799   4.069   7.481
23886SOL    HW171682   3.707   4.041   7.452
23886SOL    HW271683   3.830   4.146   7.425
23887SOL     OW71684   5.164   4.580   8.846
23887SOL    HW171685   5.107   4.632   8.783
23887SOL    HW271686   5.260   4.592   8.822
23888SOL     OW71687   3.796   3.890   7.766
23888SOL    HW171688   3.779   3.973   7.712
23888SOL    HW271689   3.886   3.853   7.744
23889SOL     OW71690   4.907   5.059   7.567
23889SOL    HW171691   4.808   5.048   7.569
23889SOL    HW271692   4.941   5.074   7.660
23890SOL     OW71693   4.337   4.566   8.879
23890SOL    HW171694   4.393   4.647   8.862
23890SOL    HW271695   4.396   4.486   8.882
23891SOL     OW71696   5.217   5.491   8.407
23891SOL    HW171697   5.250   5.555   8.338
23891SOL    HW271698   5.283   5.485   8.482
23892SOL     OW71699   4.440   4.289   9.156
23892SOL    HW171700   4.459   4.354   9.230
23892SOL    HW271701   4.500   4.209   9.165
23893SOL     OW71702   5.174   4.944   9.081
23893SOL    HW171703   5.165   4.934   9.180
23893SOL    HW271704   5.270   4.937   9.055
23894SOL     OW71705   4.114   5.465   9.008
23894SOL    HW171706   4.023   5.506   9.006
23894SOL    HW271707   4.107   5.371   9.040
23895SOL     OW71708   5.398   4.607   8.702
23895SOL    HW171709   5.371   4.518   8.665
23895SOL    HW271710   5.399   4.675   8.629
23896SOL     OW71711   4.949   4.049   7.897
23896SOL    HW171712   5.014   3.975   7.886
23896SOL    HW271713   4.969   4.099   7.981
23897SOL     OW71714   4.318   4.469   8.100
23897SOL    HW171715   4.368   4.554   8.081
23897SOL    HW271716   4.230   4.471   8.052
23898SOL     OW71717   5.501   4.066   9.090
23898SOL    HW171718   5.484   4.097   8.996
23898SOL    HW271719   5.417   4.029   9.128
23899SOL     OW71720   5.454   4.658   8.965
23899SOL    HW171721   5.492   4.749   8.980
23899SOL    HW271722   5.446   4.641   8.866
23900SOL     OW71723   4.583   5.098   7.464
23900SOL    HW171724   4.537   5.113   7.552
23900SOL    HW271725   4.627   5.183   7.434
23901SOL     OW71726   4.385   5.514   8.401
23901SOL    HW171727   4.339   5.602   8.388
23901SOL    HW271728   4.484   5.526   8.394
23902SOL     OW71729   4.583   4.680   8.309
23902SOL    HW171730   4.637   4.611   8.357
23902SOL    HW271731   4.551   4.749   8.375
23903SOL     OW71732   4.807   4.708   7.535
23903SOL    HW171733   4.784   4.761   7.453
23903SOL    HW271734   4.888   4.652   7.516
23904SOL     OW71735   5.585   5.293   8.299
23904SOL    HW171736   5.514   5.281   8.229
23904SOL    HW271737   5.586   5.214   8.359
23905SOL     OW71738   3.945   5.038   9.292
23905SOL    HW171739   3.880   4.965   9.271
23905SOL    HW271740   3.949   5.052   9.390
23906SOL     OW71741   3.803   4.964   8.101
23906SOL    HW171742   3.802   4.917   8.189
23906SOL    HW271743   3.885   4.936   8.050
23907SOL     OW71744   4.396   5.115   9.072
23907SOL    HW171745   4.318   5.065   9.110
23907SOL    HW271746   4.393   5.210   9.103
23908SOL     OW71747   5.548   3.916   8.675
23908SOL    HW171748   5.544   3.826   8.719
23908SOL    HW271749   5.551   3.905   8.576
23909SOL     OW71750   4.152   4.148   7.968
23909SOL    HW171751   4.182   4.076   7.906
23909SOL    HW271752   4.113   4.108   8.051
23910SOL     OW71753   5.429   5.211   8.552
23910SOL    HW171754   5.336   5.186   8.525
23910SOL    HW271755   5.455   5.161   8.634
23911SOL     OW71756   4.041   4.271   8.728
23911SOL    HW171757   4.079   4.212   8.800
23911SOL    HW271758   4.081   4.245   8.640
23912SOL     OW71759   4.536   5.310   8.135
23912SOL    HW171760   4.568   5.320   8.041
23912SOL    HW271761   4.457   5.248   8.137
23913SOL     OW71762   5.148   3.938   8.560
23913SOL    HW171763   5.200   3.873   8.615
23913SOL    HW271764   5.099   4.001   8.621
23914SOL     OW71765   4.725   3.758   8.602
23914SOL    HW171766   4.662   3.686   8.571
23914SOL    HW271767   4.818   3.722   8.602
23915SOL     OW71768   4.494   5.054   7.749
23915SOL    HW171769   4.448   4.967   7.766
23915SOL    HW271770   4.585   5.051   7.790
23916SOL     OW71771   4.342   5.291   8.732
23916SOL    HW171772   4.337   5.373   8.789
23916SOL    HW271773   4.431   5.288   8.687
23917SOL     OW71774   5.076   3.776   7.616
23917SOL    HW171775   5.111   3.735   7.532
23917SOL    HW271776   4.986   3.738   7.636
23918SOL     OW71777   5.024   4.177   8.139
23918SOL    HW171778   4.965   4.257   8.143
23918SOL    HW271779   5.039   4.142   8.232
23919SOL     OW71780   5.317   3.945   8.330
23919SOL    HW171781   5.233   3.944   8.384
23919SOL    HW271782   5.319   4.028   8.274
23920SOL     OW71783   3.763   4.801   7.748
23920SOL    HW171784   3.862   4.790   7.739
23920SOL    HW271785   3.723   4.715   7.780
23921SOL     OW71786   4.599   5.370   7.785
23921SOL    HW171787   4.522   5.335   7.731
23921SOL    HW271788   4.567   5.441   7.847
23922SOL     OW71789   3.954   4.352   9.423
23922SOL    HW171790   3.861   4.350   9.460
23922SOL    HW271791   3.955   4.313   9.331
23923SOL     OW71792   3.949   3.999  10.306
23923SOL    HW171793   3.984   3.982  10.398
23923SOL    HW271794   3.861   3.954  10.294
23924SOL     OW71795   3.743   4.092   9.957
23924SOL    HW171796   3.661   4.135   9.996
23924SOL    HW271797   3.715   4.019   9.894
23925SOL     OW71798   4.293   4.999  10.475
23925SOL    HW171799   4.200   4.992  10.438
23925SOL    HW271800   4.304   5.088  10.519
23926SOL     OW71801   5.279   5.235  10.013
23926SOL    HW171802   5.222   5.219  10.094
23926SOL    HW271803   5.220   5.245   9.933
23927SOL     OW71804   4.859   4.427  10.027
23927SOL    HW171805   4.916   4.505  10.002
23927SOL    HW271806   4.799   4.453  10.103
23928SOL     OW71807   5.479   4.331   9.541
23928SOL    HW171808   5.467   4.318   9.442
23928SOL    HW271809   5.449   4.250   9.590
23929SOL     OW71810   4.492   4.868  10.333
23929SOL    HW171811   4.414   4.885  10.393
23929SOL    HW271812   4.526   4.955  10.297
23930SOL     OW71813   4.574   4.522  11.133
23930SOL    HW171814   4.570   4.598  11.198
23930SOL    HW271815   4.596   4.558  11.042
23931SOL     OW71816   4.409   4.736   9.975
23931SOL    HW171817   4.478   4.720  10.045
23931SOL    HW271818   4.336   4.793  10.013
23932SOL     OW71819   4.410   4.885  11.113
23932SOL    HW171820   4.470   4.964  11.127
23932SOL    HW271821   4.324   4.916  11.072
23933SOL     OW71822   4.059   5.159  10.371
23933SOL    HW171823   3.981   5.128  10.318
23933SOL    HW271824   4.117   5.217  10.314
23934SOL     OW71825   5.184   5.229  10.649
23934SOL    HW171826   5.208   5.323  10.675
23934SOL    HW271827   5.168   5.175  10.731
23935SOL     OW71828   4.162   4.116  10.809
23935SOL    HW171829   4.244   4.060  10.818
23935SOL    HW271830   4.081   4.058  10.813
23936SOL     OW71831   5.327   4.171  10.047
23936SOL    HW171832   5.253   4.217   9.997
23936SOL    HW271833   5.378   4.239  10.100
23937SOL     OW71834   3.955   5.437   9.793
23937SOL    HW171835   3.989   5.514   9.847
23937SOL    HW271836   3.999   5.437   9.703
23938SOL     OW71837   4.851   5.065  11.000
23938SOL    HW171838   4.898   5.065  11.088
23938SOL    HW271839   4.803   4.978  10.989
23939SOL     OW71840   3.954   5.158   9.848
23939SOL    HW171841   3.928   5.254   9.848
23939SOL    HW271842   3.883   5.104   9.893
23940SOL     OW71843   3.964   4.815  10.196
23940SOL    HW171844   3.978   4.731  10.248
23940SOL    HW271845   3.909   4.879  10.251
23941SOL     OW71846   4.344   5.510  10.749
23941SOL    HW171847   4.252   5.493  10.784
23941SOL    HW271848   4.372   5.602  10.775
23942SOL     OW71849   4.330   4.688   9.433
23942SOL    HW171850   4.337   4.772   9.379
23942SOL    HW271851   4.376   4.701   9.521
23943SOL     OW71852   5.318   3.838  10.790
23943SOL    HW171853   5.300   3.905  10.718
23943SOL    HW271854   5.315   3.884  10.879
23944SOL     OW71855   3.846   4.367   9.873
23944SOL    HW171856   3.801   4.279   9.890
23944SOL    HW271857   3.845   4.421   9.957
23945SOL     OW71858   5.566   5.491   9.669
23945SOL    HW171859   5.620   5.462   9.749
23945SOL    HW271860   5.596   5.581   9.640
23946SOL     OW71861   3.751   5.320   9.427
23946SOL    HW171862   3.732   5.224   9.448
23946SOL    HW271863   3.718   5.378   9.502
23947SOL     OW71864   5.413   4.646   9.922
23947SOL    HW171865   5.508   4.617   9.930
23947SOL    HW271866   5.405   4.711   9.847
23948SOL     OW71867   5.365   4.832   9.742
23948SOL    HW171868   5.451   4.834   9.690
23948SOL    HW271869   5.379   4.879   9.830
23949SOL     OW71870   3.837   4.461  10.907
23949SOL    HW171871   3.925   4.448  10.952
23949SOL    HW271872   3.824   4.558  10.885
23950SOL     OW71873   4.337   5.089  10.036
23950SOL    HW171874   4.288   5.002  10.045
23950SOL    HW271875   4.314   5.132   9.949
23951SOL     OW71876   5.017   4.952  10.733
23951SOL    HW171877   5.054   4.879  10.675
23951SOL    HW271878   5.069   4.957  10.818
23952SOL     OW71879   4.533   3.728   9.812
23952SOL    HW171880   4.573   3.819   9.803
23952SOL    HW271881   4.433   3.736   9.818
23953SOL     OW71882   3.921   4.700  10.574
23953SOL    HW171883   4.010   4.655  10.560
23953SOL    HW271884   3.848   4.635  10.555
23954SOL     OW71885   5.249   4.723   9.500
23954SOL    HW171886   5.186   4.647   9.513
23954SOL    HW271887   5.297   4.741   9.586
23955SOL     OW71888   4.911   5.516  10.926
23955SOL    HW171889   4.935   5.576  10.850
23955SOL    HW271890   4.918   5.421  10.896
23956SOL     OW71891   4.041   3.975  11.111
23956SOL    HW171892   4.112   4.046  11.117
23956SOL    HW271893   3.953   4.014  11.139
23957SOL     OW71894   5.190   5.141  10.263
23957SOL    HW171895   5.131   5.147  10.343
23957SOL    HW271896   5.175   5.053  10.217
23958SOL     OW71897   5.391   5.438   9.882
23958SOL    HW171898   5.350   5.415   9.794
23958SOL    HW271899   5.373   5.364   9.947
23959SOL     OW71900   4.322   4.453   9.580
23959SOL    HW171901   4.346   4.522   9.512
23959SOL    HW271902   4.244   4.486   9.634
23960SOL     OW71903   5.005   4.069  10.254
23960SOL    HW171904   4.919   4.019  10.241
23960SOL    HW271905   5.067   4.015  10.310
23961SOL     OW71906   5.300   5.386   9.617
23961SOL    HW171907   5.389   5.432   9.620
23961SOL    HW271908   5.279   5.362   9.522
23962SOL     OW71909   4.531   4.329  10.775
23962SOL    HW171910   4.484   4.326  10.864
23962SOL    HW271911   4.480   4.274  10.709
23963SOL     OW71912   5.118   4.193  10.984
23963SOL    HW171913   5.098   4.236  11.072
23963SOL    HW271914   5.196   4.131  10.993
23964SOL     OW71915   4.697   4.614  10.882
23964SOL    HW171916   4.743   4.530  10.853
23964SOL    HW271917   4.641   4.648  10.807
23965SOL     OW71918   4.715   4.134  10.552
23965SOL    HW171919   4.638   4.168  10.606
23965SOL    HW271920   4.681   4.083  10.473
23966SOL     OW71921   4.765   4.425   9.739
23966SOL    HW171922   4.791   4.421   9.835
23966SOL    HW271923   4.680   4.374   9.725
23967SOL     OW71924   3.800   4.535  10.099
23967SOL    HW171925   3.899   4.523  10.108
23967SOL    HW271926   3.776   4.630  10.120
23968SOL     OW71927   3.854   5.545  10.881
23968SOL    HW171928   3.844   5.530  10.980
23968SOL    HW271929   3.768   5.581  10.845
23969SOL     OW71930   4.589   4.072   9.505
23969SOL    HW171931   4.648   4.135   9.456
23969SOL    HW271932   4.608   3.978   9.476
23970SOL     OW71933   5.443   4.309  11.141
23970SOL    HW171934   5.417   4.398  11.105
23970SOL    HW271935   5.441   4.241  11.068
23971SOL     OW71936   5.086   4.868   9.855
23971SOL    HW171937   5.169   4.839   9.807
23971SOL    HW271938   5.037   4.935   9.799
23972SOL     OW71939   4.274   3.920  10.195
23972SOL    HW171940   4.269   3.915  10.295
23972SOL    HW271941   4.276   4.016  10.166
23973SOL     OW71942   4.732   5.180   9.787
23973SOL    HW171943   4.686   5.252   9.735
23973SOL    HW271944   4.728   5.200   9.885
23974SOL     OW71945   4.075   5.525  10.163
23974SOL    HW171946   4.125   5.439  10.169
23974SOL    HW271947   4.140   5.602  10.160
23975SOL     OW71948   5.519   4.790  10.183
23975SOL    HW171949   5.457   4.775  10.107
23975SOL    HW271950   5.467   4.801  10.268
23976SOL     OW71951   4.951   5.274  10.816
23976SOL    HW171952   4.957   5.197  10.880
23976SOL    HW271953   4.899   5.248  10.736
23977SOL     OW71954   4.045   4.667   9.552
23977SOL    HW171955   4.127   4.706   9.510
23977SOL    HW271956   4.018   4.585   9.503
23978SOL     OW71957   5.182   4.459  10.038
23978SOL    HW171958   5.177   4.394  10.113
23978SOL    HW271959   5.262   4.518  10.051
23979SOL     OW71960   4.185   4.990  11.037
23979SOL    HW171961   4.135   4.991  10.951
23979SOL    HW271962   4.122   4.972  11.113
23980SOL     OW71963   4.835   5.500   9.547
23980SOL    HW171964   4.775   5.438   9.597
23980SOL    HW271965   4.866   5.456   9.462
23981SOL     OW71966   3.926   4.009  10.808
23981SOL    HW171967   3.846   4.069  10.795
23981SOL    HW271968   3.916   3.960  10.894
23982SOL     OW71969   5.356   5.101   9.391
23982SOL    HW171970   5.324   5.195   9.381
23982SOL    HW271971   5.280   5.038   9.379
23983SOL     OW71972   4.188   5.467   9.633
23983SOL    HW171973   4.221   5.506   9.719
23983SOL    HW271974   4.264   5.460   9.568
23984SOL     OW71975   5.124   3.831   9.736
23984SOL    HW171976   5.100   3.794   9.646
23984SOL    HW271977   5.223   3.847   9.740
23985SOL     OW71978   3.973   5.509  10.551
23985SOL    HW171979   4.030   5.444  10.601
23985SOL    HW271980   3.957   5.476  10.458
23986SOL     OW71981   4.664   5.422  10.214
23986SOL    HW171982   4.744   5.365  10.235
23986SOL    HW271983   4.615   5.382  10.137
23987SOL     OW71984   4.106   4.424   9.790
23987SOL    HW171985   4.151   4.334   9.787
23987SOL    HW271986   4.012   4.413   9.823
23988SOL     OW71987   5.271   3.946  11.039
23988SOL    HW171988   5.266   3.983  11.131
23988SOL    HW271989   5.199   3.877  11.027
23989SOL     OW71990   4.338   3.846   9.427
23989SOL    HW171991   4.436   3.824   9.434
23989SOL    HW271992   4.307   3.829   9.334
23990SOL     OW71993   4.505   3.988  11.059
23990SOL    HW171994   4.572   3.927  11.102
23990SOL    HW271995   4.432   4.007  11.124
23991SOL     OW71996   4.612   5.238  10.505
23991SOL    HW171997   4.589   5.213  10.411
23991SOL    HW271998   4.673   5.169  10.544
23992SOL     OW71999   5.075   4.314  10.743
23992SOL    HW172000   5.103   4.271  10.828
23992SOL    HW272001   5.100   4.410  10.744
23993SOL     OW72002   4.527   5.126  10.234
23993SOL    HW172003   4.617   5.140  10.192
23993SOL    HW272004   4.456   5.128  10.163
23994SOL     OW72005   4.646   4.227  10.209
23994SOL    HW172006   4.621   4.218  10.113
23994SOL    HW272007   4.694   4.145  10.240
23995SOL     OW72008   4.263   3.788   9.822
23995SOL    HW172009   4.182   3.789   9.880
23995SOL    HW272010   4.266   3.871   9.767
23996SOL     OW72011   5.158   4.912   9.351
23996SOL    HW172012   5.190   4.836   9.408
23996SOL    HW272013   5.066   4.939   9.381
23997SOL     OW72014   4.021   3.759   9.481
23997SOL    HW172015   4.070   3.843   9.460
23997SOL    HW272016   4.083   3.694   9.526
23998SOL     OW72017   4.659   3.960   9.790
23998SOL    HW172018   4.611   4.001   9.712
23998SOL    HW272019   4.758   3.958   9.771
23999SOL     OW72020   4.800   4.407  10.774
23999SOL    HW172021   4.720   4.346  10.777
23999SOL    HW272022   4.881   4.354  10.750
24000SOL     OW72023   4.951   5.294  10.103
24000SOL    HW172024   4.972   5.368  10.038
24000SOL    HW272025   5.019   5.294  10.176
24001SOL     OW72026   4.183   4.876  10.051
24001SOL    HW172027   4.112   4.849  10.116
24001SOL    HW272028   4.157   4.848   9.958
24002SOL     OW72029   4.995   5.521   9.901
24002SOL    HW172030   5.039   5.585   9.837
24002SOL    HW272031   4.945   5.573   9.971
24003SOL     OW72032   4.756   4.273   9.326
24003SOL    HW172033   4.715   4.355   9.287
24003SOL    HW272034   4.820   4.299   9.399
24004SOL     OW72035   3.802   4.280  10.696
24004SOL    HW172036   3.894   4.279  10.655
24004SOL    HW272037   3.796   4.354  10.763
24005SOL     OW72038   4.285   3.946  10.457
24005SOL    HW172039   4.323   3.862  10.494
24005SOL    HW272040   4.197   3.965  10.501
24006SOL     OW72041   4.590   4.178   9.952
24006SOL    HW172042   4.558   4.250   9.890
24006SOL    HW272043   4.614   4.097   9.899
24007SOL     OW72044   4.741   3.763  10.063
24007SOL    HW172045   4.669   3.768   9.994
24007SOL    HW272046   4.717   3.694  10.132
24008SOL     OW72047   5.153   4.897  10.177
24008SOL    HW172048   5.098   4.813  10.170
24008SOL    HW272049   5.179   4.926  10.085
24009SOL     OW72050   5.190   4.314  10.302
24009SOL    HW172051   5.160   4.219  10.309
24009SOL    HW272052   5.263   4.330  10.368
24010SOL     OW72053   5.581   4.557   9.687
24010SOL    HW172054   5.623   4.493   9.751
24010SOL    HW272055   5.543   4.506   9.609
24011SOL     OW72056   4.212   5.109   9.484
24011SOL    HW172057   4.125   5.094   9.531
24011SOL    HW272058   4.195   5.135   9.389
24012SOL     OW72059   5.388   5.004   9.967
24012SOL    HW172060   5.487   5.012   9.981
24012SOL    HW272061   5.343   5.088   9.998
24013SOL     OW72062   5.114   4.299   9.388
24013SOL    HW172063   5.060   4.278   9.469
24013SOL    HW272064   5.205   4.258   9.397
24014SOL     OW72065   4.251   3.980   9.638
24014SOL    HW172066   4.278   3.921   9.563
24014SOL    HW272067   4.251   4.075   9.607
24015SOL     OW72068   5.478   4.947  10.898
24015SOL    HW172069   5.569   4.908  10.885
24015SOL    HW272070   5.486   5.043  10.922
24016SOL     OW72071   4.788   5.071  10.650
24016SOL    HW172072   4.708   5.048  10.705
24016SOL    HW272073   4.871   5.045  10.699
24017SOL     OW72074   5.316   5.353  10.935
24017SOL    HW172075   5.343   5.387  10.845
24017SOL    HW272076   5.395   5.315  10.981
24018SOL     OW72077   4.835   4.919  10.410
24018SOL    HW172078   4.795   4.963  10.491
24018SOL    HW272079   4.794   4.956  10.327
24019SOL     OW72080   5.362   4.823  10.389
24019SOL    HW172081   5.367   4.904  10.448
24019SOL    HW272082   5.276   4.825  10.338
24020SOL     OW72083   4.639   3.813  10.712
24020SOL    HW172084   4.664   3.793  10.617
24020SOL    HW272085   4.711   3.869  10.754
24021SOL     OW72086   4.704   4.840  11.029
24021SOL    HW172087   4.605   4.846  11.039
24021SOL    HW272088   4.727   4.760  10.973
24022SOL     OW72089   4.429   4.774   9.678
24022SOL    HW172090   4.415   4.781   9.777
24022SOL    HW272091   4.513   4.723   9.660
24023SOL     OW72092   4.134   4.537  10.561
24023SOL    HW172093   4.220   4.549  10.611
24023SOL    HW272094   4.092   4.450  10.588
24024SOL     OW72095   4.998   4.110  10.572
24024SOL    HW172096   5.019   4.184  10.636
24024SOL    HW272097   4.909   4.127  10.529
24025SOL     OW72098   3.788   5.288  10.641
24025SOL    HW172099   3.742   5.370  10.607
24025SOL    HW272100   3.886   5.307  10.650
24026SOL     OW72101   4.091   4.824   9.811
24026SOL    HW172102   4.084   4.907   9.755
24026SOL    HW272103   4.095   4.744   9.751
24027SOL     OW72104   4.290   4.261  10.175
24027SOL    HW172105   4.302   4.327  10.101
24027SOL    HW272106   4.336   4.295  10.258
24028SOL     OW72107   4.976   5.072   9.698
24028SOL    HW172108   5.026   5.149   9.738
24028SOL    HW272109   4.881   5.074   9.730
24029SOL     OW72110   4.996   5.169  10.452
24029SOL    HW172111   5.043   5.182  10.539
24029SOL    HW272112   4.930   5.095  10.461
24030SOL     OW72113   5.306   4.363   9.782
24030SOL    HW172114   5.275   4.424   9.855
24030SOL    HW272115   5.356   4.415   9.713
24031SOL     OW72116   4.078   5.234  10.639
24031SOL    HW172117   4.057   5.190  10.552
24031SOL    HW272118   4.175   5.260  10.642
24032SOL     OW72119   4.126   4.475  10.908
24032SOL    HW172120   4.194   4.530  10.861
24032SOL    HW272121   4.166   4.387  10.935
24033SOL     OW72122   5.311   4.503  10.980
24033SOL    HW172123   5.219   4.541  10.975
24033SOL    HW272124   5.371   4.550  10.915
24034SOL     OW72125   4.737   3.829  11.080
24034SOL    HW172126   4.743   3.914  11.028
24034SOL    HW272127   4.769   3.753  11.023
24035SOL     OW72128   4.228   3.774  11.050
24035SOL    HW172129   4.186   3.717  10.980
24035SOL    HW272130   4.162   3.843  11.082
24036SOL     OW72131   4.297   4.594  10.339
24036SOL    HW172132   4.341   4.683  10.330
24036SOL    HW272133   4.234   4.594  10.416
24037SOL     OW72134   5.084   4.586  10.355
24037SOL    HW172135   5.009   4.586  10.289
24037SOL    HW272136   5.121   4.494  10.364
24038SOL     OW72137   4.933   4.249   9.585
24038SOL    HW172138   4.946   4.165   9.639
24038SOL    HW272139   4.904   4.323   9.645
24039SOL     OW72140   4.031   3.937  10.541
24039SOL    HW172141   4.008   3.974  10.631
24039SOL    HW272142   4.001   3.842  10.535
24040SOL     OW72143   3.761   5.034  10.592
24040SOL    HW172144   3.814   4.985  10.660
24040SOL    HW272145   3.783   5.132  10.597
24041SOL     OW72146   4.456   4.358  10.374
24041SOL    HW172147   4.515   4.332  10.298
24041SOL    HW272148   4.428   4.454  10.363
24042SOL     OW72149   5.452   4.659  11.164
24042SOL    HW172150   5.406   4.652  11.075
24042SOL    HW272151   5.390   4.703  11.230
24043SOL     OW72152   4.031   3.787   9.928
24043SOL    HW172153   4.020   3.881   9.961
24043SOL    HW272154   4.026   3.724  10.005
24044SOL     OW72155   5.346   4.091   9.684
24044SOL    HW172156   5.348   4.015   9.748
24044SOL    HW272157   5.298   4.168   9.724
24045SOL     OW72158   4.747   4.490  10.276
24045SOL    HW172159   4.762   4.511  10.372
24045SOL    HW272160   4.717   4.395  10.267
24046SOL     OW72161   4.704   5.297  11.010
24046SOL    HW172162   4.684   5.341  10.922
24046SOL    HW272163   4.743   5.206  10.994
24047SOL     OW72164   5.583   5.242  10.915
24047SOL    HW172165   5.597   5.269  10.820
24047SOL    HW272166   5.666   5.264  10.968
24048SOL     OW72167   4.074   4.622  11.114
24048SOL    HW172168   4.150   4.666  11.162
24048SOL    HW272169   4.109   4.575  11.032
24049SOL     OW72170   5.264   3.998   9.435
24049SOL    HW172171   5.203   3.923   9.458
24049SOL    HW272172   5.286   4.050   9.518
24050SOL     OW72173   5.027   4.562   9.352
24050SOL    HW172174   5.061   4.469   9.367
24050SOL    HW272175   5.045   4.589   9.257
24051SOL     OW72176   4.792   5.057  10.159
24051SOL    HW172177   4.799   4.973  10.104
24051SOL    HW272178   4.854   5.126  10.123
24052SOL     OW72179   4.043   4.534  10.259
24052SOL    HW172180   4.136   4.570  10.264
24052SOL    HW272181   4.037   4.449  10.311
24053SOL     OW72182   4.063   4.233  10.316
24053SOL    HW172183   4.011   4.150  10.299
24053SOL    HW272184   4.140   4.238  10.252
24054SOL     OW72185   4.862   4.104  10.988
24054SOL    HW172186   4.817   4.167  11.052
24054SOL    HW272187   4.955   4.135  10.971
24055SOL     OW72188   4.884   3.931  10.787
24055SOL    HW172189   4.884   3.995  10.864
24055SOL    HW272190   4.912   3.979  10.704
24056SOL     OW72191   3.732   5.050   9.510
24056SOL    HW172192   3.639   5.071   9.479
24056SOL    HW272193   3.742   4.951   9.523
24057SOL     OW72194   3.812   5.525  10.237
24057SOL    HW172195   3.770   5.439  10.210
24057SOL    HW272196   3.906   5.528  10.203
24058SOL     OW72197   4.228   5.292  10.220
24058SOL    HW172198   4.294   5.366  10.229
24058SOL    HW272199   4.272   5.213  10.178
24059SOL     OW72200   4.726   4.520  10.548
24059SOL    HW172201   4.767   4.488  10.634
24059SOL    HW272202   4.630   4.493  10.545
24060SOL     OW72203   3.764   4.268  10.424
24060SOL    HW172204   3.849   4.235  10.383
24060SOL    HW272205   3.777   4.283  10.522
24061SOL     OW72206   3.913   4.244  11.032
24061SOL    HW172207   3.972   4.204  10.962
24061SOL    HW272208   3.855   4.315  10.991
24062SOL     OW72209   5.093   4.674  10.970
24062SOL    HW172210   5.132   4.763  10.990
24062SOL    HW272211   5.103   4.654  10.873
24063SOL     OW72212   4.539   4.296   9.635
24063SOL    HW172213   4.546   4.207   9.589
24063SOL    HW272214   4.445   4.330   9.627
24064SOL     OW72215   5.381   4.328  10.516
24064SOL    HW172216   5.343   4.259  10.578
24064SOL    HW272217   5.463   4.292  10.472
24065SOL     OW72218   3.976   5.288  11.054
24065SOL    HW172219   3.946   5.345  11.130
24065SOL    HW272220   3.969   5.191  11.080
24066SOL     OW72221   4.395   4.188  10.579
24066SOL    HW172222   4.361   4.099  10.549
24066SOL    HW272223   4.421   4.242  10.499
24067SOL     OW72224   4.654   5.402  10.775
24067SOL    HW172225   4.630   5.384  10.680
24067SOL    HW272226   4.684   5.496  10.785
24068SOL     OW72227   4.197   4.224   9.501
24068SOL    HW172228   4.258   4.304   9.505
24068SOL    HW272229   4.102   4.255   9.508
24069SOL     OW72230   3.883   4.861  10.776
24069SOL    HW172231   3.905   4.800  10.852
24069SOL    HW272232   3.893   4.812  10.690
24070SOL     OW72233   5.071   4.783  10.544
24070SOL    HW172234   5.095   4.720  10.470
24070SOL    HW272235   4.981   4.823  10.526
24071SOL     OW72236   5.026   4.579   9.619
24071SOL    HW172237   4.940   4.548   9.661
24071SOL    HW272238   5.022   4.565   9.520
24072SOL     OW72239   5.483   5.471  10.464
24072SOL    HW172240   5.544   5.501  10.391
24072SOL    HW272241   5.445   5.382  10.442
24073SOL     OW72242   4.976   5.455  10.438
24073SOL    HW172243   5.060   5.460  10.384
24073SOL    HW272244   4.953   5.359  10.456
24074SOL     OW72245   3.807   4.982  10.332
24074SOL    HW172246   3.802   4.981  10.432
24074SOL    HW272247   3.724   4.941  10.294
24075SOL     OW72248   4.412   5.386  11.026
24075SOL    HW172249   4.356   5.467  11.035
24075SOL    HW272250   4.464   5.390  10.940
24076SOL     OW72251   5.450   3.859   9.833
24076SOL    HW172252   5.523   3.842   9.766
24076SOL    HW272253   5.419   3.772   9.871
24077SOL     OW72254   5.112   5.297   9.787
24077SOL    HW172255   5.179   5.309   9.713
24077SOL    HW272256   5.072   5.386   9.810
24078SOL     OW72257   3.854   5.518  11.161
24078SOL    HW172258   3.813   5.444  11.214
24078SOL    HW272259   3.918   5.569  11.219
24079SOL     OW72260   5.004   4.651   9.982
24079SOL    HW172261   5.064   4.570   9.984
24079SOL    HW272262   5.044   4.720   9.922
24080SOL     OW72263   4.554   4.997  10.732
24080SOL    HW172264   4.549   5.030  10.827
24080SOL    HW272265   4.468   5.016  10.686
24081SOL     OW72266   4.396   5.340   9.464
24081SOL    HW172267   4.405   5.350   9.365
24081SOL    HW272268   4.356   5.251   9.485
24082SOL     OW72269   5.374   5.444  10.704
24082SOL    HW172270   5.427   5.454  10.620
24082SOL    HW272271   5.347   5.534  10.738
24083SOL     OW72272   5.565   3.899  10.273
24083SOL    HW172273   5.604   3.814  10.237
24083SOL    HW272274   5.467   3.901  10.254
24084SOL     OW72275   3.987   4.050  10.030
24084SOL    HW172276   3.908   4.101   9.996
24084SOL    HW272277   3.978   4.035  10.128
24085SOL     OW72278   4.918   5.336   9.341
24085SOL    HW172279   4.924   5.243   9.378
24085SOL    HW272280   4.859   5.336   9.261
24086SOL     OW72281   4.546   4.726  10.682
24086SOL    HW172282   4.586   4.725  10.590
24086SOL    HW272283   4.556   4.818  10.722
24087SOL     OW72284   4.640   4.634   9.601
24087SOL    HW172285   4.703   4.672   9.533
24087SOL    HW272286   4.680   4.551   9.640
24088SOL     OW72287   5.228   5.331   9.354
24088SOL    HW172288   5.136   5.368   9.361
24088SOL    HW272289   5.266   5.351   9.264
24089SOL     OW72290   4.096   5.012  10.800
24089SOL    HW172291   4.083   5.105  10.766
24089SOL    HW272292   4.012   4.960  10.787
24090SOL     OW72293   5.338   5.016  10.599
24090SOL    HW172294   5.398   5.019  10.679
24090SOL    HW272295   5.263   5.080  10.612
24091SOL     OW72296   4.763   4.822  10.006
24091SOL    HW172297   4.693   4.775  10.060
24091SOL    HW272298   4.822   4.754   9.963
24092SOL     OW72299   4.738   3.960  10.281
24092SOL    HW172300   4.730   3.924  10.188
24092SOL    HW272301   4.736   3.884  10.346
24093SOL     OW72302   4.314   5.211   9.801
24093SOL    HW172303   4.356   5.153   9.731
24093SOL    HW272304   4.270   5.290   9.757
24094SOL     OW72305   5.433   4.109  10.691
24094SOL    HW172306   5.506   4.178  10.695
24094SOL    HW272307   5.461   4.034  10.632
24095SOL     OW72308   3.979   5.072   9.600
24095SOL    HW172309   3.883   5.073   9.573
24095SOL    HW272310   3.991   5.125   9.684
24096SOL     OW72311   3.829   4.737  11.036
24096SOL    HW172312   3.752   4.704  11.090
24096SOL    HW272313   3.914   4.707  11.078
24097SOL     OW72314   4.396   3.927  10.799
24097SOL    HW172315   4.486   3.911  10.759
24097SOL    HW272316   4.404   3.932  10.898
24098SOL     OW72317   3.799   4.069   9.343
24098SOL    HW172318   3.707   4.041   9.314
24098SOL    HW272319   3.830   4.146   9.287
24099SOL     OW72320   5.164   4.580  10.708
24099SOL    HW172321   5.107   4.632  10.645
24099SOL    HW272322   5.260   4.592  10.684
24100SOL     OW72323   3.796   3.890   9.628
24100SOL    HW172324   3.779   3.973   9.574
24100SOL    HW272325   3.886   3.853   9.606
24101SOL     OW72326   4.907   5.059   9.429
24101SOL    HW172327   4.808   5.048   9.431
24101SOL    HW272328   4.941   5.074   9.522
24102SOL     OW72329   4.337   4.566  10.741
24102SOL    HW172330   4.393   4.647  10.724
24102SOL    HW272331   4.396   4.486  10.744
24103SOL     OW72332   5.217   5.491  10.269
24103SOL    HW172333   5.250   5.555  10.200
24103SOL    HW272334   5.283   5.485  10.344
24104SOL     OW72335   4.440   4.289  11.018
24104SOL    HW172336   4.459   4.354  11.092
24104SOL    HW272337   4.500   4.209  11.027
24105SOL     OW72338   5.174   4.944  10.943
24105SOL    HW172339   5.165   4.934  11.042
24105SOL    HW272340   5.270   4.937  10.917
24106SOL     OW72341   4.114   5.465  10.870
24106SOL    HW172342   4.023   5.506  10.868
24106SOL    HW272343   4.107   5.371  10.902
24107SOL     OW72344   5.398   4.607  10.564
24107SOL    HW172345   5.371   4.518  10.527
24107SOL    HW272346   5.399   4.675  10.491
24108SOL     OW72347   4.949   4.049   9.759
24108SOL    HW172348   5.014   3.975   9.748
24108SOL    HW272349   4.969   4.099   9.843
24109SOL     OW72350   4.318   4.469   9.962
24109SOL    HW172351   4.368   4.554   9.943
24109SOL    HW272352   4.230   4.471   9.914
24110SOL     OW72353   5.501   4.066  10.952
24110SOL    HW172354   5.484   4.097  10.858
24110SOL    HW272355   5.417   4.029  10.990
24111SOL     OW72356   5.454   4.658  10.827
24111SOL    HW172357   5.492   4.749  10.842
24111SOL    HW272358   5.446   4.641  10.728
24112SOL     OW72359   4.583   5.098   9.326
24112SOL    HW172360   4.537   5.113   9.414
24112SOL    HW272361   4.627   5.183   9.296
24113SOL     OW72362   4.385   5.514  10.263
24113SOL    HW172363   4.339   5.602  10.250
24113SOL    HW272364   4.484   5.526  10.256
24114SOL     OW72365   4.583   4.680  10.171
24114SOL    HW172366   4.637   4.611  10.219
24114SOL    HW272367   4.551   4.749  10.237
24115SOL     OW72368   4.807   4.708   9.397
24115SOL    HW172369   4.784   4.761   9.315
24115SOL    HW272370   4.888   4.652   9.378
24116SOL     OW72371   5.585   5.293  10.161
24116SOL    HW172372   5.514   5.281  10.091
24116SOL    HW272373   5.586   5.214  10.221
24117SOL     OW72374   3.945   5.038  11.154
24117SOL    HW172375   3.880   4.965  11.133
24117SOL    HW272376   3.949   5.052  11.252
24118SOL     OW72377   3.803   4.964   9.963
24118SOL    HW172378   3.802   4.917  10.051
24118SOL    HW272379   3.885   4.936   9.912
24119SOL     OW72380   4.396   5.115  10.934
24119SOL    HW172381   4.318   5.065  10.972
24119SOL    HW272382   4.393   5.210  10.965
24120SOL     OW72383   5.548   3.916  10.537
24120SOL    HW172384   5.544   3.826  10.581
24120SOL    HW272385   5.551   3.905  10.438
24121SOL     OW72386   4.152   4.148   9.830
24121SOL    HW172387   4.182   4.076   9.768
24121SOL    HW272388   4.113   4.108   9.913
24122SOL     OW72389   5.429   5.211  10.414
24122SOL    HW172390   5.336   5.186  10.387
24122SOL    HW272391   5.455   5.161  10.496
24123SOL     OW72392   4.041   4.271  10.590
24123SOL    HW172393   4.079   4.212  10.662
24123SOL    HW272394   4.081   4.245  10.502
24124SOL     OW72395   4.536   5.310   9.997
24124SOL    HW172396   4.568   5.320   9.903
24124SOL    HW272397   4.457   5.248   9.999
24125SOL     OW72398   5.148   3.938  10.422
24125SOL    HW172399   5.200   3.873  10.477
24125SOL    HW272400   5.099   4.001  10.483
24126SOL     OW72401   4.725   3.758  10.464
24126SOL    HW172402   4.662   3.686  10.433
24126SOL    HW272403   4.818   3.722  10.464
24127SOL     OW72404   4.342   5.291  10.594
24127SOL    HW172405   4.337   5.373  10.651
24127SOL    HW272406   4.431   5.288  10.549
24128SOL     OW72407   5.076   3.776   9.478
24128SOL    HW172408   5.111   3.735   9.394
24128SOL    HW272409   4.986   3.738   9.498
24129SOL     OW72410   5.024   4.177  10.001
24129SOL    HW172411   4.965   4.257  10.005
24129SOL    HW272412   5.039   4.142  10.094
24130SOL     OW72413   5.317   3.945  10.192
24130SOL    HW172414   5.233   3.944  10.246
24130SOL    HW272415   5.319   4.028  10.136
24131SOL     OW72416   3.763   4.801   9.610
24131SOL    HW172417   3.862   4.790   9.601
24131SOL    HW272418   3.723   4.715   9.642
24132SOL     OW72419   4.599   5.370   9.647
24132SOL    HW172420   4.522   5.335   9.593
24132SOL    HW272421   4.567   5.441   9.709
24133SOL     OW72422   3.954   4.352  11.285
24133SOL    HW172423   3.861   4.350  11.322
24133SOL    HW272424   3.955   4.313  11.193
24134SOL     OW72425   3.949   3.999  12.168
24134SOL    HW172426   3.984   3.982  12.260
24134SOL    HW272427   3.861   3.954  12.156
24135SOL     OW72428   3.743   4.092  11.819
24135SOL    HW172429   3.661   4.135  11.858
24135SOL    HW272430   3.715   4.019  11.756
24136SOL     OW72431   4.293   4.999  12.337
24136SOL    HW172432   4.200   4.992  12.300
24136SOL    HW272433   4.304   5.088  12.381
24137SOL     OW72434   5.279   5.235  11.875
24137SOL    HW172435   5.222   5.219  11.956
24137SOL    HW272436   5.220   5.245  11.795
24138SOL     OW72437   4.859   4.427  11.889
24138SOL    HW172438   4.916   4.505  11.864
24138SOL    HW272439   4.799   4.453  11.965
24139SOL     OW72440   5.479   4.331  11.403
24139SOL    HW172441   5.467   4.318  11.304
24139SOL    HW272442   5.449   4.250  11.452
24140SOL     OW72443   4.492   4.868  12.195
24140SOL    HW172444   4.414   4.885  12.255
24140SOL    HW272445   4.526   4.955  12.159
24141SOL     OW72446   4.409   4.736  11.837
24141SOL    HW172447   4.478   4.720  11.907
24141SOL    HW272448   4.336   4.793  11.875
24142SOL     OW72449   4.059   5.159  12.233
24142SOL    HW172450   3.981   5.128  12.180
24142SOL    HW272451   4.117   5.217  12.176
24143SOL     OW72452   5.184   5.229  12.511
24143SOL    HW172453   5.208   5.323  12.537
24143SOL    HW272454   5.168   5.175  12.593
24144SOL     OW72455   4.162   4.116  12.671
24144SOL    HW172456   4.244   4.060  12.680
24144SOL    HW272457   4.081   4.058  12.675
24145SOL     OW72458   5.327   4.171  11.909
24145SOL    HW172459   5.253   4.217  11.859
24145SOL    HW272460   5.378   4.239  11.962
24146SOL     OW72461   3.955   5.437  11.655
24146SOL    HW172462   3.989   5.514  11.709
24146SOL    HW272463   3.999   5.437  11.565
24147SOL     OW72464   3.954   5.158  11.710
24147SOL    HW172465   3.928   5.254  11.710
24147SOL    HW272466   3.883   5.104  11.755
24148SOL     OW72467   3.964   4.815  12.058
24148SOL    HW172468   3.978   4.731  12.110
24148SOL    HW272469   3.909   4.879  12.113
24149SOL     OW72470   4.344   5.510  12.611
24149SOL    HW172471   4.252   5.493  12.646
24149SOL    HW272472   4.372   5.602  12.637
24150SOL     OW72473   4.330   4.688  11.295
24150SOL    HW172474   4.337   4.772  11.241
24150SOL    HW272475   4.376   4.701  11.383
24151SOL     OW72476   5.318   3.838  12.652
24151SOL    HW172477   5.300   3.905  12.580
24151SOL    HW272478   5.315   3.884  12.741
24152SOL     OW72479   3.846   4.367  11.735
24152SOL    HW172480   3.801   4.279  11.752
24152SOL    HW272481   3.845   4.421  11.819
24153SOL     OW72482   5.566   5.491  11.531
24153SOL    HW172483   5.620   5.462  11.611
24153SOL    HW272484   5.596   5.581  11.502
24154SOL     OW72485   3.751   5.320  11.289
24154SOL    HW172486   3.732   5.224  11.310
24154SOL    HW272487   3.718   5.378  11.364
24155SOL     OW72488   5.413   4.646  11.784
24155SOL    HW172489   5.508   4.617  11.792
24155SOL    HW272490   5.405   4.711  11.709
24156SOL     OW72491   5.365   4.832  11.604
24156SOL    HW172492   5.451   4.834  11.552
24156SOL    HW272493   5.379   4.879  11.692
24157SOL     OW72494   3.837   4.461  12.769
24157SOL    HW172495   3.925   4.448  12.814
24157SOL    HW272496   3.824   4.558  12.747
24158SOL     OW72497   4.337   5.089  11.898
24158SOL    HW172498   4.288   5.002  11.907
24158SOL    HW272499   4.314   5.132  11.811
24159SOL     OW72500   5.017   4.952  12.595
24159SOL    HW172501   5.054   4.879  12.537
24159SOL    HW272502   5.069   4.957  12.680
24160SOL     OW72503   4.533   3.728  11.674
24160SOL    HW172504   4.573   3.819  11.665
24160SOL    HW272505   4.433   3.736  11.680
24161SOL     OW72506   3.921   4.700  12.436
24161SOL    HW172507   4.010   4.655  12.422
24161SOL    HW272508   3.848   4.635  12.417
24162SOL     OW72509   5.249   4.723  11.362
24162SOL    HW172510   5.186   4.647  11.375
24162SOL    HW272511   5.297   4.741  11.448
24163SOL     OW72512   5.190   5.141  12.125
24163SOL    HW172513   5.131   5.147  12.205
24163SOL    HW272514   5.175   5.053  12.079
24164SOL     OW72515   5.391   5.438  11.744
24164SOL    HW172516   5.350   5.415  11.656
24164SOL    HW272517   5.373   5.364  11.809
24165SOL     OW72518   4.322   4.453  11.442
24165SOL    HW172519   4.346   4.522  11.374
24165SOL    HW272520   4.244   4.486  11.496
24166SOL     OW72521   5.005   4.069  12.116
24166SOL    HW172522   4.919   4.019  12.103
24166SOL    HW272523   5.067   4.015  12.172
24167SOL     OW72524   5.300   5.386  11.479
24167SOL    HW172525   5.389   5.432  11.482
24167SOL    HW272526   5.279   5.362  11.384
24168SOL     OW72527   4.531   4.329  12.637
24168SOL    HW172528   4.484   4.326  12.726
24168SOL    HW272529   4.480   4.274  12.571
24169SOL     OW72530   4.697   4.614  12.744
24169SOL    HW172531   4.743   4.530  12.715
24169SOL    HW272532   4.641   4.648  12.669
24170SOL     OW72533   4.715   4.134  12.414
24170SOL    HW172534   4.638   4.168  12.468
24170SOL    HW272535   4.681   4.083  12.335
24171SOL     OW72536   4.765   4.425  11.601
24171SOL    HW172537   4.791   4.421  11.697
24171SOL    HW272538   4.680   4.374  11.587
24172SOL     OW72539   3.800   4.535  11.961
24172SOL    HW172540   3.899   4.523  11.970
24172SOL    HW272541   3.776   4.630  11.982
24173SOL     OW72542   3.854   5.545  12.743
24173SOL    HW172543   3.844   5.530  12.842
24173SOL    HW272544   3.768   5.581  12.707
24174SOL     OW72545   4.589   4.072  11.367
24174SOL    HW172546   4.648   4.135  11.318
24174SOL    HW272547   4.608   3.978  11.338
24175SOL     OW72548   5.086   4.868  11.717
24175SOL    HW172549   5.169   4.839  11.669
24175SOL    HW272550   5.037   4.935  11.661
24176SOL     OW72551   4.274   3.920  12.057
24176SOL    HW172552   4.269   3.915  12.157
24176SOL    HW272553   4.276   4.016  12.028
24177SOL     OW72554   4.732   5.180  11.649
24177SOL    HW172555   4.686   5.252  11.597
24177SOL    HW272556   4.728   5.200  11.747
24178SOL     OW72557   4.075   5.525  12.025
24178SOL    HW172558   4.125   5.439  12.031
24178SOL    HW272559   4.140   5.602  12.022
24179SOL     OW72560   5.519   4.790  12.045
24179SOL    HW172561   5.457   4.775  11.969
24179SOL    HW272562   5.467   4.801  12.130
24180SOL     OW72563   4.951   5.274  12.678
24180SOL    HW172564   4.957   5.197  12.742
24180SOL    HW272565   4.899   5.248  12.598
24181SOL     OW72566   4.045   4.667  11.414
24181SOL    HW172567   4.127   4.706  11.372
24181SOL    HW272568   4.018   4.585  11.365
24182SOL     OW72569   5.182   4.459  11.900
24182SOL    HW172570   5.177   4.394  11.975
24182SOL    HW272571   5.262   4.518  11.913
24183SOL     OW72572   4.835   5.500  11.409
24183SOL    HW172573   4.775   5.438  11.459
24183SOL    HW272574   4.866   5.456  11.324
24184SOL     OW72575   3.926   4.009  12.670
24184SOL    HW172576   3.846   4.069  12.657
24184SOL    HW272577   3.916   3.960  12.756
24185SOL     OW72578   5.356   5.101  11.253
24185SOL    HW172579   5.324   5.195  11.243
24185SOL    HW272580   5.280   5.038  11.241
24186SOL     OW72581   4.188   5.467  11.495
24186SOL    HW172582   4.221   5.506  11.581
24186SOL    HW272583   4.264   5.460  11.430
24187SOL     OW72584   5.124   3.831  11.598
24187SOL    HW172585   5.100   3.794  11.508
24187SOL    HW272586   5.223   3.847  11.602
24188SOL     OW72587   3.973   5.509  12.413
24188SOL    HW172588   4.030   5.444  12.463
24188SOL    HW272589   3.957   5.476  12.320
24189SOL     OW72590   4.664   5.422  12.076
24189SOL    HW172591   4.744   5.365  12.097
24189SOL    HW272592   4.615   5.382  11.999
24190SOL     OW72593   4.106   4.424  11.652
24190SOL    HW172594   4.151   4.334  11.649
24190SOL    HW272595   4.012   4.413  11.685
24191SOL     OW72596   4.338   3.846  11.289
24191SOL    HW172597   4.436   3.824  11.296
24191SOL    HW272598   4.307   3.829  11.196
24192SOL     OW72599   4.612   5.238  12.367
24192SOL    HW172600   4.589   5.213  12.273
24192SOL    HW272601   4.673   5.169  12.406
24193SOL     OW72602   5.075   4.314  12.605
24193SOL    HW172603   5.103   4.271  12.690
24193SOL    HW272604   5.100   4.410  12.606
24194SOL     OW72605   4.527   5.126  12.096
24194SOL    HW172606   4.617   5.140  12.054
24194SOL    HW272607   4.456   5.128  12.025
24195SOL     OW72608   4.646   4.227  12.071
24195SOL    HW172609   4.621   4.218  11.975
24195SOL    HW272610   4.694   4.145  12.102
24196SOL     OW72611   4.263   3.788  11.684
24196SOL    HW172612   4.182   3.789  11.742
24196SOL    HW272613   4.266   3.871  11.629
24197SOL     OW72614   5.158   4.912  11.213
24197SOL    HW172615   5.190   4.836  11.270
24197SOL    HW272616   5.066   4.939  11.243
24198SOL     OW72617   4.021   3.759  11.343
24198SOL    HW172618   4.070   3.843  11.322
24198SOL    HW272619   4.083   3.694  11.388
24199SOL     OW72620   4.659   3.960  11.652
24199SOL    HW172621   4.611   4.001  11.574
24199SOL    HW272622   4.758   3.958  11.633
24200SOL     OW72623   4.800   4.407  12.636
24200SOL    HW172624   4.720   4.346  12.639
24200SOL    HW272625   4.881   4.354  12.612
24201SOL     OW72626   4.951   5.294  11.965
24201SOL    HW172627   4.972   5.368  11.900
24201SOL    HW272628   5.019   5.294  12.038
24202SOL     OW72629   4.183   4.876  11.913
24202SOL    HW172630   4.112   4.849  11.978
24202SOL    HW272631   4.157   4.848  11.820
24203SOL     OW72632   4.995   5.521  11.763
24203SOL    HW172633   5.039   5.585  11.699
24203SOL    HW272634   4.945   5.573  11.833
24204SOL     OW72635   4.756   4.273  11.188
24204SOL    HW172636   4.715   4.355  11.149
24204SOL    HW272637   4.820   4.299  11.261
24205SOL     OW72638   3.802   4.280  12.558
24205SOL    HW172639   3.894   4.279  12.517
24205SOL    HW272640   3.796   4.354  12.625
24206SOL     OW72641   4.285   3.946  12.319
24206SOL    HW172642   4.323   3.862  12.356
24206SOL    HW272643   4.197   3.965  12.363
24207SOL     OW72644   4.590   4.178  11.814
24207SOL    HW172645   4.558   4.250  11.752
24207SOL    HW272646   4.614   4.097  11.761
24208SOL     OW72647   4.741   3.763  11.925
24208SOL    HW172648   4.669   3.768  11.856
24208SOL    HW272649   4.717   3.694  11.994
24209SOL     OW72650   5.153   4.897  12.039
24209SOL    HW172651   5.098   4.813  12.032
24209SOL    HW272652   5.179   4.926  11.947
24210SOL     OW72653   5.190   4.314  12.164
24210SOL    HW172654   5.160   4.219  12.171
24210SOL    HW272655   5.263   4.330  12.230
24211SOL     OW72656   5.581   4.557  11.549
24211SOL    HW172657   5.623   4.493  11.613
24211SOL    HW272658   5.543   4.506  11.471
24212SOL     OW72659   4.212   5.109  11.346
24212SOL    HW172660   4.125   5.094  11.393
24212SOL    HW272661   4.195   5.135  11.251
24213SOL     OW72662   5.388   5.004  11.829
24213SOL    HW172663   5.487   5.012  11.843
24213SOL    HW272664   5.343   5.088  11.860
24214SOL     OW72665   5.114   4.299  11.250
24214SOL    HW172666   5.060   4.278  11.331
24214SOL    HW272667   5.205   4.258  11.259
24215SOL     OW72668   4.251   3.980  11.500
24215SOL    HW172669   4.278   3.921  11.425
24215SOL    HW272670   4.251   4.075  11.469
24216SOL     OW72671   5.478   4.947  12.760
24216SOL    HW172672   5.569   4.908  12.747
24216SOL    HW272673   5.486   5.043  12.784
24217SOL     OW72674   4.788   5.071  12.512
24217SOL    HW172675   4.708   5.048  12.567
24217SOL    HW272676   4.871   5.045  12.561
24218SOL     OW72677   4.835   4.919  12.272
24218SOL    HW172678   4.795   4.963  12.353
24218SOL    HW272679   4.794   4.956  12.189
24219SOL     OW72680   5.362   4.823  12.251
24219SOL    HW172681   5.367   4.904  12.310
24219SOL    HW272682   5.276   4.825  12.200
24220SOL     OW72683   4.639   3.813  12.574
24220SOL    HW172684   4.664   3.793  12.479
24220SOL    HW272685   4.711   3.869  12.616
24221SOL     OW72686   4.429   4.774  11.540
24221SOL    HW172687   4.415   4.781  11.639
24221SOL    HW272688   4.513   4.723  11.522
24222SOL     OW72689   4.134   4.537  12.423
24222SOL    HW172690   4.220   4.549  12.473
24222SOL    HW272691   4.092   4.450  12.450
24223SOL     OW72692   4.998   4.110  12.434
24223SOL    HW172693   5.019   4.184  12.498
24223SOL    HW272694   4.909   4.127  12.391
24224SOL     OW72695   3.788   5.288  12.503
24224SOL    HW172696   3.742   5.370  12.469
24224SOL    HW272697   3.886   5.307  12.512
24225SOL     OW72698   4.091   4.824  11.673
24225SOL    HW172699   4.084   4.907  11.617
24225SOL    HW272700   4.095   4.744  11.613
24226SOL     OW72701   4.290   4.261  12.037
24226SOL    HW172702   4.302   4.327  11.963
24226SOL    HW272703   4.336   4.295  12.120
24227SOL     OW72704   4.976   5.072  11.560
24227SOL    HW172705   5.026   5.149  11.600
24227SOL    HW272706   4.881   5.074  11.592
24228SOL     OW72707   4.996   5.169  12.314
24228SOL    HW172708   5.043   5.182  12.401
24228SOL    HW272709   4.930   5.095  12.323
24229SOL     OW72710   5.306   4.363  11.644
24229SOL    HW172711   5.275   4.424  11.717
24229SOL    HW272712   5.356   4.415  11.575
24230SOL     OW72713   4.078   5.234  12.501
24230SOL    HW172714   4.057   5.190  12.414
24230SOL    HW272715   4.175   5.260  12.504
24231SOL     OW72716   4.126   4.475  12.770
24231SOL    HW172717   4.194   4.530  12.723
24231SOL    HW272718   4.166   4.387  12.797
24232SOL     OW72719   5.311   4.503  12.842
24232SOL    HW172720   5.219   4.541  12.837
24232SOL    HW272721   5.371   4.550  12.777
24233SOL     OW72722   4.297   4.594  12.201
24233SOL    HW172723   4.341   4.683  12.192
24233SOL    HW272724   4.234   4.594  12.278
24234SOL     OW72725   5.084   4.586  12.217
24234SOL    HW172726   5.009   4.586  12.151
24234SOL    HW272727   5.121   4.494  12.226
24235SOL     OW72728   4.933   4.249  11.447
24235SOL    HW172729   4.946   4.165  11.501
24235SOL    HW272730   4.904   4.323  11.507
24236SOL     OW72731   4.031   3.937  12.403
24236SOL    HW172732   4.008   3.974  12.493
24236SOL    HW272733   4.001   3.842  12.397
24237SOL     OW72734   3.761   5.034  12.454
24237SOL    HW172735   3.814   4.985  12.522
24237SOL    HW272736   3.783   5.132  12.459
24238SOL     OW72737   4.456   4.358  12.236
24238SOL    HW172738   4.515   4.332  12.160
24238SOL    HW272739   4.428   4.454  12.225
24239SOL     OW72740   4.031   3.787  11.790
24239SOL    HW172741   4.020   3.881  11.823
24239SOL    HW272742   4.026   3.724  11.867
24240SOL     OW72743   5.346   4.091  11.546
24240SOL    HW172744   5.348   4.015  11.610
24240SOL    HW272745   5.298   4.168  11.586
24241SOL     OW72746   4.747   4.490  12.138
24241SOL    HW172747   4.762   4.511  12.234
24241SOL    HW272748   4.717   4.395  12.129
24242SOL     OW72749   5.264   3.998  11.297
24242SOL    HW172750   5.203   3.923  11.320
24242SOL    HW272751   5.286   4.050  11.380
24243SOL     OW72752   5.027   4.562  11.214
24243SOL    HW172753   5.061   4.469  11.229
24243SOL    HW272754   5.045   4.589  11.119
24244SOL     OW72755   4.792   5.057  12.021
24244SOL    HW172756   4.799   4.973  11.966
24244SOL    HW272757   4.854   5.126  11.985
24245SOL     OW72758   4.043   4.534  12.121
24245SOL    HW172759   4.136   4.570  12.126
24245SOL    HW272760   4.037   4.449  12.173
24246SOL     OW72761   4.063   4.233  12.178
24246SOL    HW172762   4.011   4.150  12.161
24246SOL    HW272763   4.140   4.238  12.114
24247SOL     OW72764   4.884   3.931  12.649
24247SOL    HW172765   4.884   3.995  12.726
24247SOL    HW272766   4.912   3.979  12.566
24248SOL     OW72767   3.732   5.050  11.372
24248SOL    HW172768   3.639   5.071  11.341
24248SOL    HW272769   3.742   4.951  11.385
24249SOL     OW72770   3.812   5.525  12.099
24249SOL    HW172771   3.770   5.439  12.072
24249SOL    HW272772   3.906   5.528  12.065
24250SOL     OW72773   4.228   5.292  12.082
24250SOL    HW172774   4.294   5.366  12.091
24250SOL    HW272775   4.272   5.213  12.040
24251SOL     OW72776   4.726   4.520  12.410
24251SOL    HW172777   4.767   4.488  12.496
24251SOL    HW272778   4.630   4.493  12.407
24252SOL     OW72779   3.764   4.268  12.286
24252SOL    HW172780   3.849   4.235  12.245
24252SOL    HW272781   3.777   4.283  12.384
24253SOL     OW72782   4.539   4.296  11.497
24253SOL    HW172783   4.546   4.207  11.451
24253SOL    HW272784   4.445   4.330  11.489
24254SOL     OW72785   5.381   4.328  12.378
24254SOL    HW172786   5.343   4.259  12.440
24254SOL    HW272787   5.463   4.292  12.334
24255SOL     OW72788   3.976   5.288  12.916
24255SOL    HW172789   3.946   5.345  12.992
24255SOL    HW272790   3.969   5.191  12.942
24256SOL     OW72791   4.395   4.188  12.441
24256SOL    HW172792   4.361   4.099  12.411
24256SOL    HW272793   4.421   4.242  12.361
24257SOL     OW72794   4.654   5.402  12.637
24257SOL    HW172795   4.630   5.384  12.542
24257SOL    HW272796   4.684   5.496  12.647
24258SOL     OW72797   4.197   4.224  11.363
24258SOL    HW172798   4.258   4.304  11.367
24258SOL    HW272799   4.102   4.255  11.370
24259SOL     OW72800   3.883   4.861  12.638
24259SOL    HW172801   3.905   4.800  12.714
24259SOL    HW272802   3.893   4.812  12.552
24260SOL     OW72803   5.071   4.783  12.406
24260SOL    HW172804   5.095   4.720  12.332
24260SOL    HW272805   4.981   4.823  12.388
24261SOL     OW72806   5.026   4.579  11.481
24261SOL    HW172807   4.940   4.548  11.523
24261SOL    HW272808   5.022   4.565  11.382
24262SOL     OW72809   5.483   5.471  12.326
24262SOL    HW172810   5.544   5.501  12.253
24262SOL    HW272811   5.445   5.382  12.304
24263SOL     OW72812   4.976   5.455  12.300
24263SOL    HW172813   5.060   5.460  12.246
24263SOL    HW272814   4.953   5.359  12.318
24264SOL     OW72815   3.807   4.982  12.194
24264SOL    HW172816   3.802   4.981  12.294
24264SOL    HW272817   3.724   4.941  12.156
24265SOL     OW72818   5.450   3.859  11.695
24265SOL    HW172819   5.523   3.842  11.628
24265SOL    HW272820   5.419   3.772  11.733
24266SOL     OW72821   5.112   5.297  11.649
24266SOL    HW172822   5.179   5.309  11.575
24266SOL    HW272823   5.072   5.386  11.672
24267SOL     OW72824   5.004   4.651  11.844
24267SOL    HW172825   5.064   4.570  11.846
24267SOL    HW272826   5.044   4.720  11.784
24268SOL     OW72827   4.554   4.997  12.594
24268SOL    HW172828   4.549   5.030  12.689
24268SOL    HW272829   4.468   5.016  12.548
24269SOL     OW72830   4.396   5.340  11.326
24269SOL    HW172831   4.405   5.350  11.227
24269SOL    HW272832   4.356   5.251  11.347
24270SOL     OW72833   5.374   5.444  12.566
24270SOL    HW172834   5.427   5.454  12.482
24270SOL    HW272835   5.347   5.534  12.600
24271SOL     OW72836   5.565   3.899  12.135
24271SOL    HW172837   5.604   3.814  12.099
24271SOL    HW272838   5.467   3.901  12.116
24272SOL     OW72839   3.987   4.050  11.892
24272SOL    HW172840   3.908   4.101  11.858
24272SOL    HW272841   3.978   4.035  11.990
24273SOL     OW72842   4.918   5.336  11.203
24273SOL    HW172843   4.924   5.243  11.240
24273SOL    HW272844   4.859   5.336  11.123
24274SOL     OW72845   4.546   4.726  12.544
24274SOL    HW172846   4.586   4.725  12.452
24274SOL    HW272847   4.556   4.818  12.584
24275SOL     OW72848   4.640   4.634  11.463
24275SOL    HW172849   4.703   4.672  11.395
24275SOL    HW272850   4.680   4.551  11.502
24276SOL     OW72851   5.228   5.331  11.216
24276SOL    HW172852   5.136   5.368  11.223
24276SOL    HW272853   5.266   5.351  11.126
24277SOL     OW72854   4.096   5.012  12.662
24277SOL    HW172855   4.083   5.105  12.628
24277SOL    HW272856   4.012   4.960  12.649
24278SOL     OW72857   5.338   5.016  12.461
24278SOL    HW172858   5.398   5.019  12.541
24278SOL    HW272859   5.263   5.080  12.474
24279SOL     OW72860   4.763   4.822  11.868
24279SOL    HW172861   4.693   4.775  11.922
24279SOL    HW272862   4.822   4.754  11.825
24280SOL     OW72863   4.738   3.960  12.143
24280SOL    HW172864   4.730   3.924  12.050
24280SOL    HW272865   4.736   3.884  12.208
24281SOL     OW72866   4.314   5.211  11.663
24281SOL    HW172867   4.356   5.153  11.593
24281SOL    HW272868   4.270   5.290  11.619
24282SOL     OW72869   5.433   4.109  12.553
24282SOL    HW172870   5.506   4.178  12.557
24282SOL    HW272871   5.461   4.034  12.494
24283SOL     OW72872   3.979   5.072  11.462
24283SOL    HW172873   3.883   5.073  11.435
24283SOL    HW272874   3.991   5.125  11.546
24284SOL     OW72875   3.829   4.737  12.898
24284SOL    HW172876   3.752   4.704  12.952
24284SOL    HW272877   3.914   4.707  12.940
24285SOL     OW72878   4.396   3.927  12.661
24285SOL    HW172879   4.486   3.911  12.621
24285SOL    HW272880   4.404   3.932  12.760
24286SOL     OW72881   3.799   4.069  11.205
24286SOL    HW172882   3.707   4.041  11.176
24286SOL    HW272883   3.830   4.146  11.149
24287SOL     OW72884   5.164   4.580  12.570
24287SOL    HW172885   5.107   4.632  12.507
24287SOL    HW272886   5.260   4.592  12.546
24288SOL     OW72887   3.796   3.890  11.490
24288SOL    HW172888   3.779   3.973  11.436
24288SOL    HW272889   3.886   3.853  11.468
24289SOL     OW72890   4.907   5.059  11.291
24289SOL    HW172891   4.808   5.048  11.293
24289SOL    HW272892   4.941   5.074  11.384
24290SOL     OW72893   4.337   4.566  12.603
24290SOL    HW172894   4.393   4.647  12.586
24290SOL    HW272895   4.396   4.486  12.606
24291SOL     OW72896   5.217   5.491  12.131
24291SOL    HW172897   5.250   5.555  12.062
24291SOL    HW272898   5.283   5.485  12.206
24292SOL     OW72899   4.440   4.289  12.880
24292SOL    HW172900   4.459   4.354  12.954
24292SOL    HW272901   4.500   4.209  12.889
24293SOL     OW72902   4.114   5.465  12.732
24293SOL    HW172903   4.023   5.506  12.730
24293SOL    HW272904   4.107   5.371  12.764
24294SOL     OW72905   5.398   4.607  12.426
24294SOL    HW172906   5.371   4.518  12.389
24294SOL    HW272907   5.399   4.675  12.353
24295SOL     OW72908   4.949   4.049  11.621
24295SOL    HW172909   5.014   3.975  11.610
24295SOL    HW272910   4.969   4.099  11.705
24296SOL     OW72911   4.318   4.469  11.824
24296SOL    HW172912   4.368   4.554  11.805
24296SOL    HW272913   4.230   4.471  11.776
24297SOL     OW72914   5.501   4.066  12.814
24297SOL    HW172915   5.484   4.097  12.720
24297SOL    HW272916   5.417   4.029  12.852
24298SOL     OW72917   5.454   4.658  12.689
24298SOL    HW172918   5.492   4.749  12.704
24298SOL    HW272919   5.446   4.641  12.590
24299SOL     OW72920   4.583   5.098  11.188
24299SOL    HW172921   4.537   5.113  11.276
24299SOL    HW272922   4.627   5.183  11.158
24300SOL     OW72923   4.385   5.514  12.125
24300SOL    HW172924   4.339   5.602  12.112
24300SOL    HW272925   4.484   5.526  12.118
24301SOL     OW72926   4.583   4.680  12.033
24301SOL    HW172927   4.637   4.611  12.081
24301SOL    HW272928   4.551   4.749  12.099
24302SOL     OW72929   4.807   4.708  11.259
24302SOL    HW172930   4.784   4.761  11.177
24302SOL    HW272931   4.888   4.652  11.240
24303SOL     OW72932   5.585   5.293  12.023
24303SOL    HW172933   5.514   5.281  11.953
24303SOL    HW272934   5.586   5.214  12.083
24304SOL     OW72935   3.803   4.964  11.825
24304SOL    HW172936   3.802   4.917  11.913
24304SOL    HW272937   3.885   4.936  11.774
24305SOL     OW72938   4.396   5.115  12.796
24305SOL    HW172939   4.318   5.065  12.834
24305SOL    HW272940   4.393   5.210  12.827
24306SOL     OW72941   5.548   3.916  12.399
24306SOL    HW172942   5.544   3.826  12.443
24306SOL    HW272943   5.551   3.905  12.300
24307SOL     OW72944   4.152   4.148  11.692
24307SOL    HW172945   4.182   4.076  11.630
24307SOL    HW272946   4.113   4.108  11.775
24308SOL     OW72947   5.429   5.211  12.276
24308SOL    HW172948   5.336   5.186  12.249
24308SOL    HW272949   5.455   5.161  12.358
24309SOL     OW72950   4.041   4.271  12.452
24309SOL    HW172951   4.079   4.212  12.524
24309SOL    HW272952   4.081   4.245  12.364
24310SOL     OW72953   4.536   5.310  11.859
24310SOL    HW172954   4.568   5.320  11.765
24310SOL    HW272955   4.457   5.248  11.861
24311SOL     OW72956   5.148   3.938  12.284
24311SOL    HW172957   5.200   3.873  12.339
24311SOL    HW272958   5.099   4.001  12.345
24312SOL     OW72959   4.725   3.758  12.326
24312SOL    HW172960   4.662   3.686  12.295
24312SOL    HW272961   4.818   3.722  12.326
24313SOL     OW72962   4.494   5.054  11.473
24313SOL    HW172963   4.448   4.967  11.490
24313SOL    HW272964   4.585   5.051  11.514
24314SOL     OW72965   4.342   5.291  12.456
24314SOL    HW172966   4.337   5.373  12.513
24314SOL    HW272967   4.431   5.288  12.411
24315SOL     OW72968   5.076   3.776  11.340
24315SOL    HW172969   5.111   3.735  11.256
24315SOL    HW272970   4.986   3.738  11.360
24316SOL     OW72971   5.024   4.177  11.863
24316SOL    HW172972   4.965   4.257  11.867
24316SOL    HW272973   5.039   4.142  11.956
24317SOL     OW72974   5.317   3.945  12.054
24317SOL    HW172975   5.233   3.944  12.108
24317SOL    HW272976   5.319   4.028  11.998
24318SOL     OW72977   3.763   4.801  11.472
24318SOL    HW172978   3.862   4.790  11.463
24318SOL    HW272979   3.723   4.715  11.504
24319SOL     OW72980   4.599   5.370  11.509
24319SOL    HW172981   4.522   5.335  11.455
24319SOL    HW272982   4.567   5.441  11.571
24320SOL     OW72983   3.954   6.214   0.113
24320SOL    HW172984   3.861   6.212   0.150
24320SOL    HW272985   3.955   6.175   0.021
24321SOL     OW72986   3.949   5.861   0.996
24321SOL    HW172987   3.984   5.844   1.088
24321SOL    HW272988   3.861   5.816   0.984
24322SOL     OW72989   3.743   5.954   0.647
24322SOL    HW172990   3.661   5.997   0.686
24322SOL    HW272991   3.715   5.881   0.584
24323SOL     OW72992   4.293   6.861   1.165
24323SOL    HW172993   4.200   6.854   1.128
24323SOL    HW272994   4.304   6.950   1.209
24324SOL     OW72995   5.279   7.097   0.703
24324SOL    HW172996   5.222   7.081   0.784
24324SOL    HW272997   5.220   7.107   0.623
24325SOL     OW72998   4.859   6.289   0.717
24325SOL    HW172999   4.916   6.367   0.692
24325SOL    HW273000   4.799   6.315   0.793
24326SOL     OW73001   5.479   6.193   0.231
24326SOL    HW173002   5.467   6.180   0.132
24326SOL    HW273003   5.449   6.112   0.280
24327SOL     OW73004   4.492   6.730   1.023
24327SOL    HW173005   4.414   6.747   1.083
24327SOL    HW273006   4.526   6.817   0.987
24328SOL     OW73007   4.574   6.384   1.823
24328SOL    HW173008   4.570   6.460   1.888
24328SOL    HW273009   4.596   6.420   1.732
24329SOL     OW73010   4.409   6.598   0.665
24329SOL    HW173011   4.478   6.582   0.735
24329SOL    HW273012   4.336   6.655   0.703
24330SOL     OW73013   4.410   6.747   1.803
24330SOL    HW173014   4.470   6.826   1.817
24330SOL    HW273015   4.324   6.778   1.762
24331SOL     OW73016   4.059   7.021   1.061
24331SOL    HW173017   3.981   6.990   1.008
24331SOL    HW273018   4.117   7.079   1.004
24332SOL     OW73019   5.184   7.091   1.339
24332SOL    HW173020   5.208   7.185   1.365
24332SOL    HW273021   5.168   7.037   1.421
24333SOL     OW73022   4.162   5.978   1.499
24333SOL    HW173023   4.244   5.922   1.508
24333SOL    HW273024   4.081   5.920   1.503
24334SOL     OW73025   5.327   6.033   0.737
24334SOL    HW173026   5.253   6.079   0.687
24334SOL    HW273027   5.378   6.101   0.790
24335SOL     OW73028   3.955   7.299   0.483
24335SOL    HW173029   3.989   7.376   0.537
24335SOL    HW273030   3.999   7.299   0.393
24336SOL     OW73031   4.851   6.927   1.690
24336SOL    HW173032   4.898   6.927   1.778
24336SOL    HW273033   4.803   6.840   1.679
24337SOL     OW73034   3.954   7.020   0.538
24337SOL    HW173035   3.928   7.116   0.538
24337SOL    HW273036   3.883   6.966   0.583
24338SOL     OW73037   3.964   6.677   0.886
24338SOL    HW173038   3.978   6.593   0.938
24338SOL    HW273039   3.909   6.741   0.941
24339SOL     OW73040   4.344   7.372   1.439
24339SOL    HW173041   4.252   7.355   1.474
24339SOL    HW273042   4.372   7.464   1.465
24340SOL     OW73043   4.330   6.550   0.123
24340SOL    HW173044   4.337   6.634   0.069
24340SOL    HW273045   4.376   6.563   0.211
24341SOL     OW73046   5.318   5.700   1.480
24341SOL    HW173047   5.300   5.767   1.408
24341SOL    HW273048   5.315   5.746   1.569
24342SOL     OW73049   3.846   6.229   0.563
24342SOL    HW173050   3.801   6.141   0.580
24342SOL    HW273051   3.845   6.283   0.647
24343SOL     OW73052   5.566   7.353   0.359
24343SOL    HW173053   5.620   7.324   0.439
24343SOL    HW273054   5.596   7.443   0.330
24344SOL     OW73055   3.751   7.182   0.117
24344SOL    HW173056   3.732   7.086   0.138
24344SOL    HW273057   3.718   7.240   0.192
24345SOL     OW73058   5.413   6.508   0.612
24345SOL    HW173059   5.508   6.479   0.620
24345SOL    HW273060   5.405   6.573   0.537
24346SOL     OW73061   5.365   6.694   0.432
24346SOL    HW173062   5.451   6.696   0.380
24346SOL    HW273063   5.379   6.741   0.520
24347SOL     OW73064   3.837   6.323   1.597
24347SOL    HW173065   3.925   6.310   1.642
24347SOL    HW273066   3.824   6.420   1.575
24348SOL     OW73067   4.337   6.951   0.726
24348SOL    HW173068   4.288   6.864   0.735
24348SOL    HW273069   4.314   6.994   0.639
24349SOL     OW73070   5.017   6.814   1.423
24349SOL    HW173071   5.054   6.741   1.365
24349SOL    HW273072   5.069   6.819   1.508
24350SOL     OW73073   4.533   5.590   0.502
24350SOL    HW173074   4.573   5.681   0.493
24350SOL    HW273075   4.433   5.598   0.508
24351SOL     OW73076   3.921   6.562   1.264
24351SOL    HW173077   4.010   6.517   1.250
24351SOL    HW273078   3.848   6.497   1.245
24352SOL     OW73079   5.249   6.585   0.190
24352SOL    HW173080   5.186   6.509   0.203
24352SOL    HW273081   5.297   6.603   0.276
24353SOL     OW73082   4.911   7.378   1.616
24353SOL    HW173083   4.935   7.438   1.540
24353SOL    HW273084   4.918   7.283   1.586
24354SOL     OW73085   4.041   5.837   1.801
24354SOL    HW173086   4.112   5.908   1.807
24354SOL    HW273087   3.953   5.876   1.829
24355SOL     OW73088   5.190   7.003   0.953
24355SOL    HW173089   5.131   7.009   1.033
24355SOL    HW273090   5.175   6.915   0.907
24356SOL     OW73091   5.391   7.300   0.572
24356SOL    HW173092   5.350   7.277   0.484
24356SOL    HW273093   5.373   7.226   0.637
24357SOL     OW73094   4.322   6.315   0.270
24357SOL    HW173095   4.346   6.384   0.202
24357SOL    HW273096   4.244   6.348   0.324
24358SOL     OW73097   5.005   5.931   0.944
24358SOL    HW173098   4.919   5.881   0.931
24358SOL    HW273099   5.067   5.877   1.000
24359SOL     OW73100   5.300   7.248   0.307
24359SOL    HW173101   5.389   7.294   0.310
24359SOL    HW273102   5.279   7.224   0.212
24360SOL     OW73103   4.531   6.191   1.465
24360SOL    HW173104   4.484   6.188   1.554
24360SOL    HW273105   4.480   6.136   1.399
24361SOL     OW73106   5.118   6.055   1.674
24361SOL    HW173107   5.098   6.098   1.762
24361SOL    HW273108   5.196   5.993   1.683
24362SOL     OW73109   4.697   6.476   1.572
24362SOL    HW173110   4.743   6.392   1.543
24362SOL    HW273111   4.641   6.510   1.497
24363SOL     OW73112   4.715   5.996   1.242
24363SOL    HW173113   4.638   6.030   1.296
24363SOL    HW273114   4.681   5.945   1.163
24364SOL     OW73115   4.765   6.287   0.429
24364SOL    HW173116   4.791   6.283   0.525
24364SOL    HW273117   4.680   6.236   0.415
24365SOL     OW73118   3.800   6.397   0.789
24365SOL    HW173119   3.899   6.385   0.798
24365SOL    HW273120   3.776   6.492   0.810
24366SOL     OW73121   3.854   7.407   1.571
24366SOL    HW173122   3.844   7.392   1.670
24366SOL    HW273123   3.768   7.443   1.535
24367SOL     OW73124   4.589   5.934   0.195
24367SOL    HW173125   4.648   5.997   0.146
24367SOL    HW273126   4.608   5.840   0.166
24368SOL     OW73127   5.443   6.171   1.831
24368SOL    HW173128   5.417   6.260   1.795
24368SOL    HW273129   5.441   6.103   1.758
24369SOL     OW73130   5.086   6.730   0.545
24369SOL    HW173131   5.169   6.701   0.497
24369SOL    HW273132   5.037   6.797   0.489
24370SOL     OW73133   4.274   5.782   0.885
24370SOL    HW173134   4.269   5.777   0.985
24370SOL    HW273135   4.276   5.878   0.856
24371SOL     OW73136   4.732   7.042   0.477
24371SOL    HW173137   4.686   7.114   0.425
24371SOL    HW273138   4.728   7.062   0.575
24372SOL     OW73139   4.075   7.387   0.853
24372SOL    HW173140   4.125   7.301   0.859
24372SOL    HW273141   4.140   7.464   0.850
24373SOL     OW73142   5.519   6.652   0.873
24373SOL    HW173143   5.457   6.637   0.797
24373SOL    HW273144   5.467   6.663   0.958
24374SOL     OW73145   4.951   7.136   1.506
24374SOL    HW173146   4.957   7.059   1.570
24374SOL    HW273147   4.899   7.110   1.426
24375SOL     OW73148   4.045   6.529   0.242
24375SOL    HW173149   4.127   6.568   0.200
24375SOL    HW273150   4.018   6.447   0.193
24376SOL     OW73151   5.182   6.321   0.728
24376SOL    HW173152   5.177   6.256   0.803
24376SOL    HW273153   5.262   6.380   0.741
24377SOL     OW73154   4.185   6.852   1.727
24377SOL    HW173155   4.135   6.853   1.641
24377SOL    HW273156   4.122   6.834   1.803
24378SOL     OW73157   4.835   7.362   0.237
24378SOL    HW173158   4.775   7.300   0.287
24378SOL    HW273159   4.866   7.318   0.152
24379SOL     OW73160   3.926   5.871   1.498
24379SOL    HW173161   3.846   5.931   1.485
24379SOL    HW273162   3.916   5.822   1.584
24380SOL     OW73163   5.356   6.963   0.081
24380SOL    HW173164   5.324   7.057   0.071
24380SOL    HW273165   5.280   6.900   0.069
24381SOL     OW73166   4.188   7.329   0.323
24381SOL    HW173167   4.221   7.368   0.409
24381SOL    HW273168   4.264   7.322   0.258
24382SOL     OW73169   5.124   5.693   0.426
24382SOL    HW173170   5.100   5.656   0.336
24382SOL    HW273171   5.223   5.709   0.430
24383SOL     OW73172   3.973   7.371   1.241
24383SOL    HW173173   4.030   7.306   1.291
24383SOL    HW273174   3.957   7.338   1.148
24384SOL     OW73175   4.664   7.284   0.904
24384SOL    HW173176   4.744   7.227   0.925
24384SOL    HW273177   4.615   7.244   0.827
24385SOL     OW73178   4.106   6.286   0.480
24385SOL    HW173179   4.151   6.196   0.477
24385SOL    HW273180   4.012   6.275   0.513
24386SOL     OW73181   5.271   5.808   1.729
24386SOL    HW173182   5.266   5.845   1.821
24386SOL    HW273183   5.199   5.739   1.717
24387SOL     OW73184   4.338   5.708   0.117
24387SOL    HW173185   4.436   5.686   0.124
24387SOL    HW273186   4.307   5.691   0.024
24388SOL     OW73187   4.505   5.850   1.749
24388SOL    HW173188   4.572   5.789   1.792
24388SOL    HW273189   4.432   5.869   1.814
24389SOL     OW73190   4.612   7.100   1.195
24389SOL    HW173191   4.589   7.075   1.101
24389SOL    HW273192   4.673   7.031   1.234
24390SOL     OW73193   5.075   6.176   1.433
24390SOL    HW173194   5.103   6.133   1.518
24390SOL    HW273195   5.100   6.272   1.434
24391SOL     OW73196   4.527   6.988   0.924
24391SOL    HW173197   4.617   7.002   0.882
24391SOL    HW273198   4.456   6.990   0.853
24392SOL     OW73199   4.646   6.089   0.899
24392SOL    HW173200   4.621   6.080   0.803
24392SOL    HW273201   4.694   6.007   0.930
24393SOL     OW73202   4.263   5.650   0.512
24393SOL    HW173203   4.182   5.651   0.570
24393SOL    HW273204   4.266   5.733   0.457
24394SOL     OW73205   5.158   6.774   0.041
24394SOL    HW173206   5.190   6.698   0.098
24394SOL    HW273207   5.066   6.801   0.071
24395SOL     OW73208   4.021   5.621   0.171
24395SOL    HW173209   4.070   5.705   0.150
24395SOL    HW273210   4.083   5.556   0.216
24396SOL     OW73211   4.659   5.822   0.480
24396SOL    HW173212   4.611   5.863   0.402
24396SOL    HW273213   4.758   5.820   0.461
24397SOL     OW73214   4.800   6.269   1.464
24397SOL    HW173215   4.720   6.208   1.467
24397SOL    HW273216   4.881   6.216   1.440
24398SOL     OW73217   4.951   7.156   0.793
24398SOL    HW173218   4.972   7.230   0.728
24398SOL    HW273219   5.019   7.156   0.866
24399SOL     OW73220   4.183   6.738   0.741
24399SOL    HW173221   4.112   6.711   0.806
24399SOL    HW273222   4.157   6.710   0.648
24400SOL     OW73223   4.995   7.383   0.591
24400SOL    HW173224   5.039   7.447   0.527
24400SOL    HW273225   4.945   7.435   0.661
24401SOL     OW73226   4.756   6.135   0.016
24401SOL    HW173227   4.715   6.217  -0.023
24401SOL    HW273228   4.820   6.161   0.089
24402SOL     OW73229   3.802   6.142   1.386
24402SOL    HW173230   3.894   6.141   1.345
24402SOL    HW273231   3.796   6.216   1.453
24403SOL     OW73232   4.285   5.808   1.147
24403SOL    HW173233   4.323   5.724   1.184
24403SOL    HW273234   4.197   5.827   1.191
24404SOL     OW73235   4.590   6.040   0.642
24404SOL    HW173236   4.558   6.112   0.580
24404SOL    HW273237   4.614   5.959   0.589
24405SOL     OW73238   4.741   5.625   0.753
24405SOL    HW173239   4.669   5.630   0.684
24405SOL    HW273240   4.717   5.556   0.822
24406SOL     OW73241   5.153   6.759   0.867
24406SOL    HW173242   5.098   6.675   0.860
24406SOL    HW273243   5.179   6.788   0.775
24407SOL     OW73244   5.190   6.176   0.992
24407SOL    HW173245   5.160   6.081   0.999
24407SOL    HW273246   5.263   6.192   1.058
24408SOL     OW73247   5.581   6.419   0.377
24408SOL    HW173248   5.623   6.355   0.441
24408SOL    HW273249   5.543   6.368   0.299
24409SOL     OW73250   4.212   6.971   0.174
24409SOL    HW173251   4.125   6.956   0.221
24409SOL    HW273252   4.195   6.997   0.079
24410SOL     OW73253   5.388   6.866   0.657
24410SOL    HW173254   5.487   6.874   0.671
24410SOL    HW273255   5.343   6.950   0.688
24411SOL     OW73256   5.114   6.161   0.078
24411SOL    HW173257   5.060   6.140   0.159
24411SOL    HW273258   5.205   6.120   0.087
24412SOL     OW73259   4.251   5.842   0.328
24412SOL    HW173260   4.278   5.783   0.253
24412SOL    HW273261   4.251   5.937   0.297
24413SOL     OW73262   5.478   6.809   1.588
24413SOL    HW173263   5.569   6.770   1.575
24413SOL    HW273264   5.486   6.905   1.612
24414SOL     OW73265   4.788   6.933   1.340
24414SOL    HW173266   4.708   6.910   1.395
24414SOL    HW273267   4.871   6.907   1.389
24415SOL     OW73268   5.316   7.215   1.625
24415SOL    HW173269   5.343   7.249   1.535
24415SOL    HW273270   5.395   7.177   1.671
24416SOL     OW73271   4.835   6.781   1.100
24416SOL    HW173272   4.795   6.825   1.181
24416SOL    HW273273   4.794   6.818   1.017
24417SOL     OW73274   5.362   6.685   1.079
24417SOL    HW173275   5.367   6.766   1.138
24417SOL    HW273276   5.276   6.687   1.028
24418SOL     OW73277   4.639   5.675   1.402
24418SOL    HW173278   4.664   5.655   1.307
24418SOL    HW273279   4.711   5.731   1.444
24419SOL     OW73280   4.704   6.702   1.719
24419SOL    HW173281   4.605   6.708   1.729
24419SOL    HW273282   4.727   6.622   1.663
24420SOL     OW73283   4.429   6.636   0.368
24420SOL    HW173284   4.415   6.643   0.467
24420SOL    HW273285   4.513   6.585   0.350
24421SOL     OW73286   4.134   6.399   1.251
24421SOL    HW173287   4.220   6.411   1.301
24421SOL    HW273288   4.092   6.312   1.278
24422SOL     OW73289   4.998   5.972   1.262
24422SOL    HW173290   5.019   6.046   1.326
24422SOL    HW273291   4.909   5.989   1.219
24423SOL     OW73292   3.788   7.150   1.331
24423SOL    HW173293   3.742   7.232   1.297
24423SOL    HW273294   3.886   7.169   1.340
24424SOL     OW73295   4.091   6.686   0.501
24424SOL    HW173296   4.084   6.769   0.445
24424SOL    HW273297   4.095   6.606   0.441
24425SOL     OW73298   4.290   6.123   0.865
24425SOL    HW173299   4.302   6.189   0.791
24425SOL    HW273300   4.336   6.157   0.948
24426SOL     OW73301   4.976   6.934   0.388
24426SOL    HW173302   5.026   7.011   0.428
24426SOL    HW273303   4.881   6.936   0.420
24427SOL     OW73304   4.996   7.031   1.142
24427SOL    HW173305   5.043   7.044   1.229
24427SOL    HW273306   4.930   6.957   1.151
24428SOL     OW73307   5.306   6.225   0.472
24428SOL    HW173308   5.275   6.286   0.545
24428SOL    HW273309   5.356   6.277   0.403
24429SOL     OW73310   4.078   7.096   1.329
24429SOL    HW173311   4.057   7.052   1.242
24429SOL    HW273312   4.175   7.122   1.332
24430SOL     OW73313   4.126   6.337   1.598
24430SOL    HW173314   4.194   6.392   1.551
24430SOL    HW273315   4.166   6.249   1.625
24431SOL     OW73316   5.311   6.365   1.670
24431SOL    HW173317   5.219   6.403   1.665
24431SOL    HW273318   5.371   6.412   1.605
24432SOL     OW73319   4.737   5.691   1.770
24432SOL    HW173320   4.743   5.776   1.718
24432SOL    HW273321   4.769   5.615   1.713
24433SOL     OW73322   4.228   5.636   1.740
24433SOL    HW173323   4.186   5.579   1.670
24433SOL    HW273324   4.162   5.705   1.772
24434SOL     OW73325   4.297   6.456   1.029
24434SOL    HW173326   4.341   6.545   1.020
24434SOL    HW273327   4.234   6.456   1.106
24435SOL     OW73328   5.084   6.448   1.045
24435SOL    HW173329   5.009   6.448   0.979
24435SOL    HW273330   5.121   6.356   1.054
24436SOL     OW73331   4.933   6.111   0.275
24436SOL    HW173332   4.946   6.027   0.329
24436SOL    HW273333   4.904   6.185   0.335
24437SOL     OW73334   4.031   5.799   1.231
24437SOL    HW173335   4.008   5.836   1.321
24437SOL    HW273336   4.001   5.704   1.225
24438SOL     OW73337   3.761   6.896   1.282
24438SOL    HW173338   3.814   6.847   1.350
24438SOL    HW273339   3.783   6.994   1.287
24439SOL     OW73340   4.456   6.220   1.064
24439SOL    HW173341   4.515   6.194   0.988
24439SOL    HW273342   4.428   6.316   1.053
24440SOL     OW73343   5.452   6.521   1.854
24440SOL    HW173344   5.406   6.514   1.765
24440SOL    HW273345   5.390   6.565   1.920
24441SOL     OW73346   4.031   5.649   0.618
24441SOL    HW173347   4.020   5.743   0.651
24441SOL    HW273348   4.026   5.586   0.695
24442SOL     OW73349   5.346   5.953   0.374
24442SOL    HW173350   5.348   5.877   0.438
24442SOL    HW273351   5.298   6.030   0.414
24443SOL     OW73352   4.747   6.352   0.966
24443SOL    HW173353   4.762   6.373   1.062
24443SOL    HW273354   4.717   6.257   0.957
24444SOL     OW73355   4.704   7.159   1.700
24444SOL    HW173356   4.684   7.203   1.612
24444SOL    HW273357   4.743   7.068   1.684
24445SOL     OW73358   5.583   7.104   1.605
24445SOL    HW173359   5.597   7.131   1.510
24445SOL    HW273360   5.666   7.126   1.658
24446SOL     OW73361   4.074   6.484   1.804
24446SOL    HW173362   4.150   6.528   1.852
24446SOL    HW273363   4.109   6.437   1.722
24447SOL     OW73364   5.264   5.860   0.125
24447SOL    HW173365   5.203   5.785   0.148
24447SOL    HW273366   5.286   5.912   0.208
24448SOL     OW73367   5.027   6.424   0.042
24448SOL    HW173368   5.061   6.331   0.057
24448SOL    HW273369   5.045   6.451  -0.053
24449SOL     OW73370   4.792   6.919   0.849
24449SOL    HW173371   4.799   6.835   0.794
24449SOL    HW273372   4.854   6.988   0.813
24450SOL     OW73373   4.043   6.396   0.949
24450SOL    HW173374   4.136   6.432   0.954
24450SOL    HW273375   4.037   6.311   1.001
24451SOL     OW73376   4.063   6.095   1.006
24451SOL    HW173377   4.011   6.012   0.989
24451SOL    HW273378   4.140   6.100   0.942
24452SOL     OW73379   4.862   5.966   1.678
24452SOL    HW173380   4.817   6.029   1.742
24452SOL    HW273381   4.955   5.997   1.661
24453SOL     OW73382   4.884   5.793   1.477
24453SOL    HW173383   4.884   5.857   1.554
24453SOL    HW273384   4.912   5.841   1.394
24454SOL     OW73385   3.732   6.912   0.200
24454SOL    HW173386   3.639   6.933   0.169
24454SOL    HW273387   3.742   6.813   0.213
24455SOL     OW73388   3.812   7.387   0.927
24455SOL    HW173389   3.770   7.301   0.900
24455SOL    HW273390   3.906   7.390   0.893
24456SOL     OW73391   4.228   7.154   0.910
24456SOL    HW173392   4.294   7.228   0.919
24456SOL    HW273393   4.272   7.075   0.868
24457SOL     OW73394   4.726   6.382   1.238
24457SOL    HW173395   4.767   6.350   1.324
24457SOL    HW273396   4.630   6.355   1.235
24458SOL     OW73397   3.764   6.130   1.114
24458SOL    HW173398   3.849   6.097   1.073
24458SOL    HW273399   3.777   6.145   1.212
24459SOL     OW73400   3.913   6.106   1.722
24459SOL    HW173401   3.972   6.066   1.652
24459SOL    HW273402   3.855   6.177   1.681
24460SOL     OW73403   5.093   6.536   1.660
24460SOL    HW173404   5.132   6.625   1.680
24460SOL    HW273405   5.103   6.516   1.563
24461SOL     OW73406   4.539   6.158   0.325
24461SOL    HW173407   4.546   6.069   0.279
24461SOL    HW273408   4.445   6.192   0.317
24462SOL     OW73409   5.381   6.190   1.206
24462SOL    HW173410   5.343   6.121   1.268
24462SOL    HW273411   5.463   6.154   1.162
24463SOL     OW73412   3.976   7.150   1.744
24463SOL    HW173413   3.946   7.207   1.820
24463SOL    HW273414   3.969   7.053   1.770
24464SOL     OW73415   4.395   6.050   1.269
24464SOL    HW173416   4.361   5.961   1.239
24464SOL    HW273417   4.421   6.104   1.189
24465SOL     OW73418   4.654   7.264   1.465
24465SOL    HW173419   4.630   7.246   1.370
24465SOL    HW273420   4.684   7.358   1.475
24466SOL     OW73421   4.197   6.086   0.191
24466SOL    HW173422   4.258   6.166   0.195
24466SOL    HW273423   4.102   6.117   0.198
24467SOL     OW73424   3.883   6.723   1.466
24467SOL    HW173425   3.905   6.662   1.542
24467SOL    HW273426   3.893   6.674   1.380
24468SOL     OW73427   5.071   6.645   1.234
24468SOL    HW173428   5.095   6.582   1.160
24468SOL    HW273429   4.981   6.685   1.216
24469SOL     OW73430   5.026   6.441   0.309
24469SOL    HW173431   4.940   6.410   0.351
24469SOL    HW273432   5.022   6.427   0.210
24470SOL     OW73433   5.483   7.333   1.154
24470SOL    HW173434   5.544   7.363   1.081
24470SOL    HW273435   5.445   7.244   1.132
24471SOL     OW73436   4.976   7.317   1.128
24471SOL    HW173437   5.060   7.322   1.074
24471SOL    HW273438   4.953   7.221   1.146
24472SOL     OW73439   3.807   6.844   1.022
24472SOL    HW173440   3.802   6.843   1.122
24472SOL    HW273441   3.724   6.803   0.984
24473SOL     OW73442   4.412   7.248   1.716
24473SOL    HW173443   4.356   7.329   1.725
24473SOL    HW273444   4.464   7.252   1.630
24474SOL     OW73445   4.627   5.672   0.133
24474SOL    HW173446   4.678   5.673   0.047
24474SOL    HW273447   4.683   5.630   0.204
24475SOL     OW73448   5.450   5.721   0.523
24475SOL    HW173449   5.523   5.704   0.456
24475SOL    HW273450   5.419   5.634   0.561
24476SOL     OW73451   5.112   7.159   0.477
24476SOL    HW173452   5.179   7.171   0.403
24476SOL    HW273453   5.072   7.248   0.500
24477SOL     OW73454   3.854   7.380   1.851
24477SOL    HW173455   3.813   7.306   1.904
24477SOL    HW273456   3.918   7.431   1.909
24478SOL     OW73457   5.004   6.513   0.672
24478SOL    HW173458   5.064   6.432   0.674
24478SOL    HW273459   5.044   6.582   0.612
24479SOL     OW73460   4.554   6.859   1.422
24479SOL    HW173461   4.549   6.892   1.517
24479SOL    HW273462   4.468   6.878   1.376
24480SOL     OW73463   4.396   7.202   0.154
24480SOL    HW173464   4.405   7.212   0.055
24480SOL    HW273465   4.356   7.113   0.175
24481SOL     OW73466   5.374   7.306   1.394
24481SOL    HW173467   5.427   7.316   1.310
24481SOL    HW273468   5.347   7.396   1.428
24482SOL     OW73469   5.565   5.761   0.963
24482SOL    HW173470   5.604   5.676   0.927
24482SOL    HW273471   5.467   5.763   0.944
24483SOL     OW73472   3.987   5.912   0.720
24483SOL    HW173473   3.908   5.963   0.686
24483SOL    HW273474   3.978   5.897   0.818
24484SOL     OW73475   4.918   7.198   0.031
24484SOL    HW173476   4.924   7.105   0.068
24484SOL    HW273477   4.859   7.198  -0.049
24485SOL     OW73478   4.546   6.588   1.372
24485SOL    HW173479   4.586   6.587   1.280
24485SOL    HW273480   4.556   6.680   1.412
24486SOL     OW73481   4.640   6.496   0.291
24486SOL    HW173482   4.703   6.534   0.223
24486SOL    HW273483   4.680   6.413   0.330
24487SOL     OW73484   5.228   7.193   0.044
24487SOL    HW173485   5.136   7.230   0.051
24487SOL    HW273486   5.266   7.213  -0.046
24488SOL     OW73487   4.096   6.874   1.490
24488SOL    HW173488   4.083   6.967   1.456
24488SOL    HW273489   4.012   6.822   1.477
24489SOL     OW73490   5.338   6.878   1.289
24489SOL    HW173491   5.398   6.881   1.369
24489SOL    HW273492   5.263   6.942   1.302
24490SOL     OW73493   4.763   6.684   0.696
24490SOL    HW173494   4.693   6.637   0.750
24490SOL    HW273495   4.822   6.616   0.653
24491SOL     OW73496   4.738   5.822   0.971
24491SOL    HW173497   4.730   5.786   0.878
24491SOL    HW273498   4.736   5.746   1.036
24492SOL     OW73499   4.314   7.073   0.491
24492SOL    HW173500   4.356   7.015   0.421
24492SOL    HW273501   4.270   7.152   0.447
24493SOL     OW73502   5.433   5.971   1.381
24493SOL    HW173503   5.506   6.040   1.385
24493SOL    HW273504   5.461   5.896   1.322
24494SOL     OW73505   3.979   6.934   0.290
24494SOL    HW173506   3.883   6.935   0.263
24494SOL    HW273507   3.991   6.987   0.374
24495SOL     OW73508   3.829   6.599   1.726
24495SOL    HW173509   3.752   6.566   1.780
24495SOL    HW273510   3.914   6.569   1.768
24496SOL     OW73511   4.396   5.789   1.489
24496SOL    HW173512   4.486   5.773   1.449
24496SOL    HW273513   4.404   5.794   1.588
24497SOL     OW73514   5.164   6.442   1.398
24497SOL    HW173515   5.107   6.494   1.335
24497SOL    HW273516   5.260   6.454   1.374
24498SOL     OW73517   3.796   5.752   0.318
24498SOL    HW173518   3.779   5.835   0.264
24498SOL    HW273519   3.886   5.715   0.296
24499SOL     OW73520   4.907   6.921   0.119
24499SOL    HW173521   4.808   6.910   0.121
24499SOL    HW273522   4.941   6.936   0.212
24500SOL     OW73523   4.337   6.428   1.431
24500SOL    HW173524   4.393   6.509   1.414
24500SOL    HW273525   4.396   6.348   1.434
24501SOL     OW73526   5.217   7.353   0.959
24501SOL    HW173527   5.250   7.417   0.890
24501SOL    HW273528   5.283   7.347   1.034
24502SOL     OW73529   4.440   6.151   1.708
24502SOL    HW173530   4.459   6.216   1.782
24502SOL    HW273531   4.500   6.071   1.717
24503SOL     OW73532   5.174   6.806   1.633
24503SOL    HW173533   5.165   6.796   1.732
24503SOL    HW273534   5.270   6.799   1.607
24504SOL     OW73535   4.114   7.327   1.560
24504SOL    HW173536   4.023   7.368   1.558
24504SOL    HW273537   4.107   7.233   1.592
24505SOL     OW73538   5.398   6.469   1.254
24505SOL    HW173539   5.371   6.380   1.217
24505SOL    HW273540   5.399   6.537   1.181
24506SOL     OW73541   4.949   5.911   0.449
24506SOL    HW173542   5.014   5.837   0.438
24506SOL    HW273543   4.969   5.961   0.533
24507SOL     OW73544   4.318   6.331   0.652
24507SOL    HW173545   4.368   6.416   0.633
24507SOL    HW273546   4.230   6.333   0.604
24508SOL     OW73547   5.501   5.928   1.642
24508SOL    HW173548   5.484   5.959   1.548
24508SOL    HW273549   5.417   5.891   1.680
24509SOL     OW73550   5.454   6.520   1.517
24509SOL    HW173551   5.492   6.611   1.532
24509SOL    HW273552   5.446   6.503   1.418
24510SOL     OW73553   4.583   6.960   0.016
24510SOL    HW173554   4.537   6.975   0.104
24510SOL    HW273555   4.627   7.045  -0.014
24511SOL     OW73556   4.385   7.376   0.953
24511SOL    HW173557   4.339   7.464   0.940
24511SOL    HW273558   4.484   7.388   0.946
24512SOL     OW73559   4.583   6.542   0.861
24512SOL    HW173560   4.637   6.473   0.909
24512SOL    HW273561   4.551   6.611   0.927
24513SOL     OW73562   4.807   6.570   0.087
24513SOL    HW173563   4.784   6.623   0.005
24513SOL    HW273564   4.888   6.514   0.068
24514SOL     OW73565   5.585   7.155   0.851
24514SOL    HW173566   5.514   7.143   0.781
24514SOL    HW273567   5.586   7.076   0.911
24515SOL     OW73568   3.945   6.900   1.844
24515SOL    HW173569   3.880   6.827   1.823
24515SOL    HW273570   3.949   6.914   1.942
24516SOL     OW73571   3.803   6.826   0.653
24516SOL    HW173572   3.802   6.779   0.741
24516SOL    HW273573   3.885   6.798   0.602
24517SOL     OW73574   4.396   6.977   1.624
24517SOL    HW173575   4.318   6.927   1.662
24517SOL    HW273576   4.393   7.072   1.655
24518SOL     OW73577   5.548   5.778   1.227
24518SOL    HW173578   5.544   5.688   1.271
24518SOL    HW273579   5.551   5.767   1.128
24519SOL     OW73580   4.152   6.010   0.520
24519SOL    HW173581   4.182   5.938   0.458
24519SOL    HW273582   4.113   5.970   0.603
24520SOL     OW73583   5.429   7.073   1.104
24520SOL    HW173584   5.336   7.048   1.077
24520SOL    HW273585   5.455   7.023   1.186
24521SOL     OW73586   4.041   6.133   1.280
24521SOL    HW173587   4.079   6.074   1.352
24521SOL    HW273588   4.081   6.107   1.192
24522SOL     OW73589   4.536   7.172   0.687
24522SOL    HW173590   4.568   7.182   0.593
24522SOL    HW273591   4.457   7.110   0.689
24523SOL     OW73592   5.148   5.800   1.112
24523SOL    HW173593   5.200   5.735   1.167
24523SOL    HW273594   5.099   5.863   1.173
24524SOL     OW73595   4.725   5.620   1.154
24524SOL    HW173596   4.662   5.548   1.123
24524SOL    HW273597   4.818   5.584   1.154
24525SOL     OW73598   4.494   6.916   0.301
24525SOL    HW173599   4.448   6.829   0.318
24525SOL    HW273600   4.585   6.913   0.342
24526SOL     OW73601   4.342   7.153   1.284
24526SOL    HW173602   4.337   7.235   1.341
24526SOL    HW273603   4.431   7.150   1.239
24527SOL     OW73604   5.076   5.638   0.168
24527SOL    HW173605   5.111   5.597   0.084
24527SOL    HW273606   4.986   5.600   0.188
24528SOL     OW73607   5.024   6.039   0.691
24528SOL    HW173608   4.965   6.119   0.695
24528SOL    HW273609   5.039   6.004   0.784
24529SOL     OW73610   5.317   5.807   0.882
24529SOL    HW173611   5.233   5.806   0.936
24529SOL    HW273612   5.319   5.890   0.826
24530SOL     OW73613   3.763   6.663   0.300
24530SOL    HW173614   3.862   6.652   0.291
24530SOL    HW273615   3.723   6.577   0.332
24531SOL     OW73616   4.599   7.232   0.337
24531SOL    HW173617   4.522   7.197   0.283
24531SOL    HW273618   4.567   7.303   0.399
24532SOL     OW73619   3.954   6.214   1.975
24532SOL    HW173620   3.861   6.212   2.012
24532SOL    HW273621   3.955   6.175   1.883
24533SOL     OW73622   3.949   5.861   2.858
24533SOL    HW173623   3.984   5.844   2.950
24533SOL    HW273624   3.861   5.816   2.846
24534SOL     OW73625   3.743   5.954   2.509
24534SOL    HW173626   3.661   5.997   2.548
24534SOL    HW273627   3.715   5.881   2.446
24535SOL     OW73628   4.293   6.861   3.027
24535SOL    HW173629   4.200   6.854   2.990
24535SOL    HW273630   4.304   6.950   3.071
24536SOL     OW73631   5.279   7.097   2.565
24536SOL    HW173632   5.222   7.081   2.646
24536SOL    HW273633   5.220   7.107   2.485
24537SOL     OW73634   4.859   6.289   2.579
24537SOL    HW173635   4.916   6.367   2.554
24537SOL    HW273636   4.799   6.315   2.655
24538SOL     OW73637   5.479   6.193   2.093
24538SOL    HW173638   5.467   6.180   1.994
24538SOL    HW273639   5.449   6.112   2.142
24539SOL     OW73640   4.492   6.730   2.885
24539SOL    HW173641   4.414   6.747   2.945
24539SOL    HW273642   4.526   6.817   2.849
24540SOL     OW73643   4.574   6.384   3.685
24540SOL    HW173644   4.570   6.460   3.750
24540SOL    HW273645   4.596   6.420   3.594
24541SOL     OW73646   4.409   6.598   2.527
24541SOL    HW173647   4.478   6.582   2.597
24541SOL    HW273648   4.336   6.655   2.565
24542SOL     OW73649   4.410   6.747   3.665
24542SOL    HW173650   4.470   6.826   3.679
24542SOL    HW273651   4.324   6.778   3.624
24543SOL     OW73652   4.059   7.021   2.923
24543SOL    HW173653   3.981   6.990   2.870
24543SOL    HW273654   4.117   7.079   2.866
24544SOL     OW73655   5.184   7.091   3.201
24544SOL    HW173656   5.208   7.185   3.227
24544SOL    HW273657   5.168   7.037   3.283
24545SOL     OW73658   4.162   5.978   3.361
24545SOL    HW173659   4.244   5.922   3.370
24545SOL    HW273660   4.081   5.920   3.365
24546SOL     OW73661   5.327   6.033   2.599
24546SOL    HW173662   5.253   6.079   2.549
24546SOL    HW273663   5.378   6.101   2.652
24547SOL     OW73664   3.955   7.299   2.345
24547SOL    HW173665   3.989   7.376   2.399
24547SOL    HW273666   3.999   7.299   2.255
24548SOL     OW73667   4.851   6.927   3.552
24548SOL    HW173668   4.898   6.927   3.640
24548SOL    HW273669   4.803   6.840   3.541
24549SOL     OW73670   3.954   7.020   2.400
24549SOL    HW173671   3.928   7.116   2.400
24549SOL    HW273672   3.883   6.966   2.445
24550SOL     OW73673   3.964   6.677   2.748
24550SOL    HW173674   3.978   6.593   2.800
24550SOL    HW273675   3.909   6.741   2.803
24551SOL     OW73676   4.344   7.372   3.301
24551SOL    HW173677   4.252   7.355   3.336
24551SOL    HW273678   4.372   7.464   3.327
24552SOL     OW73679   4.330   6.550   1.985
24552SOL    HW173680   4.337   6.634   1.931
24552SOL    HW273681   4.376   6.563   2.073
24553SOL     OW73682   5.318   5.700   3.342
24553SOL    HW173683   5.300   5.767   3.270
24553SOL    HW273684   5.315   5.746   3.431
24554SOL     OW73685   3.846   6.229   2.425
24554SOL    HW173686   3.801   6.141   2.442
24554SOL    HW273687   3.845   6.283   2.509
24555SOL     OW73688   5.566   7.353   2.221
24555SOL    HW173689   5.620   7.324   2.301
24555SOL    HW273690   5.596   7.443   2.192
24556SOL     OW73691   3.751   7.182   1.979
24556SOL    HW173692   3.732   7.086   2.000
24556SOL    HW273693   3.718   7.240   2.054
24557SOL     OW73694   5.413   6.508   2.474
24557SOL    HW173695   5.508   6.479   2.482
24557SOL    HW273696   5.405   6.573   2.399
24558SOL     OW73697   5.365   6.694   2.294
24558SOL    HW173698   5.451   6.696   2.242
24558SOL    HW273699   5.379   6.741   2.382
24559SOL     OW73700   3.837   6.323   3.459
24559SOL    HW173701   3.925   6.310   3.504
24559SOL    HW273702   3.824   6.420   3.437
24560SOL     OW73703   4.337   6.951   2.588
24560SOL    HW173704   4.288   6.864   2.597
24560SOL    HW273705   4.314   6.994   2.501
24561SOL     OW73706   5.017   6.814   3.285
24561SOL    HW173707   5.054   6.741   3.227
24561SOL    HW273708   5.069   6.819   3.370
24562SOL     OW73709   4.533   5.590   2.364
24562SOL    HW173710   4.573   5.681   2.355
24562SOL    HW273711   4.433   5.598   2.370
24563SOL     OW73712   3.921   6.562   3.126
24563SOL    HW173713   4.010   6.517   3.112
24563SOL    HW273714   3.848   6.497   3.107
24564SOL     OW73715   5.249   6.585   2.052
24564SOL    HW173716   5.186   6.509   2.065
24564SOL    HW273717   5.297   6.603   2.138
24565SOL     OW73718   4.911   7.378   3.478
24565SOL    HW173719   4.935   7.438   3.402
24565SOL    HW273720   4.918   7.283   3.448
24566SOL     OW73721   4.041   5.837   3.663
24566SOL    HW173722   4.112   5.908   3.669
24566SOL    HW273723   3.953   5.876   3.691
24567SOL     OW73724   5.190   7.003   2.815
24567SOL    HW173725   5.131   7.009   2.895
24567SOL    HW273726   5.175   6.915   2.769
24568SOL     OW73727   5.391   7.300   2.434
24568SOL    HW173728   5.350   7.277   2.346
24568SOL    HW273729   5.373   7.226   2.499
24569SOL     OW73730   4.322   6.315   2.132
24569SOL    HW173731   4.346   6.384   2.064
24569SOL    HW273732   4.244   6.348   2.186
24570SOL     OW73733   5.005   5.931   2.806
24570SOL    HW173734   4.919   5.881   2.793
24570SOL    HW273735   5.067   5.877   2.862
24571SOL     OW73736   5.300   7.248   2.169
24571SOL    HW173737   5.389   7.294   2.172
24571SOL    HW273738   5.279   7.224   2.074
24572SOL     OW73739   4.531   6.191   3.327
24572SOL    HW173740   4.484   6.188   3.416
24572SOL    HW273741   4.480   6.136   3.261
24573SOL     OW73742   5.118   6.055   3.536
24573SOL    HW173743   5.098   6.098   3.624
24573SOL    HW273744   5.196   5.993   3.545
24574SOL     OW73745   4.697   6.476   3.434
24574SOL    HW173746   4.743   6.392   3.405
24574SOL    HW273747   4.641   6.510   3.359
24575SOL     OW73748   4.715   5.996   3.104
24575SOL    HW173749   4.638   6.030   3.158
24575SOL    HW273750   4.681   5.945   3.025
24576SOL     OW73751   4.765   6.287   2.291
24576SOL    HW173752   4.791   6.283   2.387
24576SOL    HW273753   4.680   6.236   2.277
24577SOL     OW73754   3.800   6.397   2.651
24577SOL    HW173755   3.899   6.385   2.660
24577SOL    HW273756   3.776   6.492   2.672
24578SOL     OW73757   3.854   7.407   3.433
24578SOL    HW173758   3.844   7.392   3.532
24578SOL    HW273759   3.768   7.443   3.397
24579SOL     OW73760   4.589   5.934   2.057
24579SOL    HW173761   4.648   5.997   2.008
24579SOL    HW273762   4.608   5.840   2.028
24580SOL     OW73763   5.443   6.171   3.693
24580SOL    HW173764   5.417   6.260   3.657
24580SOL    HW273765   5.441   6.103   3.620
24581SOL     OW73766   5.086   6.730   2.407
24581SOL    HW173767   5.169   6.701   2.359
24581SOL    HW273768   5.037   6.797   2.351
24582SOL     OW73769   4.274   5.782   2.747
24582SOL    HW173770   4.269   5.777   2.847
24582SOL    HW273771   4.276   5.878   2.718
24583SOL     OW73772   4.732   7.042   2.339
24583SOL    HW173773   4.686   7.114   2.287
24583SOL    HW273774   4.728   7.062   2.437
24584SOL     OW73775   4.075   7.387   2.715
24584SOL    HW173776   4.125   7.301   2.721
24584SOL    HW273777   4.140   7.464   2.712
24585SOL     OW73778   5.519   6.652   2.735
24585SOL    HW173779   5.457   6.637   2.659
24585SOL    HW273780   5.467   6.663   2.820
24586SOL     OW73781   4.951   7.136   3.368
24586SOL    HW173782   4.957   7.059   3.432
24586SOL    HW273783   4.899   7.110   3.288
24587SOL     OW73784   4.045   6.529   2.104
24587SOL    HW173785   4.127   6.568   2.062
24587SOL    HW273786   4.018   6.447   2.055
24588SOL     OW73787   5.182   6.321   2.590
24588SOL    HW173788   5.177   6.256   2.665
24588SOL    HW273789   5.262   6.380   2.603
24589SOL     OW73790   4.185   6.852   3.589
24589SOL    HW173791   4.135   6.853   3.503
24589SOL    HW273792   4.122   6.834   3.665
24590SOL     OW73793   4.835   7.362   2.099
24590SOL    HW173794   4.775   7.300   2.149
24590SOL    HW273795   4.866   7.318   2.014
24591SOL     OW73796   3.926   5.871   3.360
24591SOL    HW173797   3.846   5.931   3.347
24591SOL    HW273798   3.916   5.822   3.446
24592SOL     OW73799   5.356   6.963   1.943
24592SOL    HW173800   5.324   7.057   1.933
24592SOL    HW273801   5.280   6.900   1.931
24593SOL     OW73802   4.188   7.329   2.185
24593SOL    HW173803   4.221   7.368   2.271
24593SOL    HW273804   4.264   7.322   2.120
24594SOL     OW73805   5.124   5.693   2.288
24594SOL    HW173806   5.100   5.656   2.198
24594SOL    HW273807   5.223   5.709   2.292
24595SOL     OW73808   3.973   7.371   3.103
24595SOL    HW173809   4.030   7.306   3.153
24595SOL    HW273810   3.957   7.338   3.010
24596SOL     OW73811   4.664   7.284   2.766
24596SOL    HW173812   4.744   7.227   2.787
24596SOL    HW273813   4.615   7.244   2.689
24597SOL     OW73814   4.106   6.286   2.342
24597SOL    HW173815   4.151   6.196   2.339
24597SOL    HW273816   4.012   6.275   2.375
24598SOL     OW73817   5.271   5.808   3.591
24598SOL    HW173818   5.266   5.845   3.683
24598SOL    HW273819   5.199   5.739   3.579
24599SOL     OW73820   4.338   5.708   1.979
24599SOL    HW173821   4.436   5.686   1.986
24599SOL    HW273822   4.307   5.691   1.886
24600SOL     OW73823   4.505   5.850   3.611
24600SOL    HW173824   4.572   5.789   3.654
24600SOL    HW273825   4.432   5.869   3.676
24601SOL     OW73826   4.612   7.100   3.057
24601SOL    HW173827   4.589   7.075   2.963
24601SOL    HW273828   4.673   7.031   3.096
24602SOL     OW73829   5.075   6.176   3.295
24602SOL    HW173830   5.103   6.133   3.380
24602SOL    HW273831   5.100   6.272   3.296
24603SOL     OW73832   4.527   6.988   2.786
24603SOL    HW173833   4.617   7.002   2.744
24603SOL    HW273834   4.456   6.990   2.715
24604SOL     OW73835   4.646   6.089   2.761
24604SOL    HW173836   4.621   6.080   2.665
24604SOL    HW273837   4.694   6.007   2.792
24605SOL     OW73838   4.263   5.650   2.374
24605SOL    HW173839   4.182   5.651   2.432
24605SOL    HW273840   4.266   5.733   2.319
24606SOL     OW73841   5.158   6.774   1.903
24606SOL    HW173842   5.190   6.698   1.960
24606SOL    HW273843   5.066   6.801   1.933
24607SOL     OW73844   4.021   5.621   2.033
24607SOL    HW173845   4.070   5.705   2.012
24607SOL    HW273846   4.083   5.556   2.078
24608SOL     OW73847   4.659   5.822   2.342
24608SOL    HW173848   4.611   5.863   2.264
24608SOL    HW273849   4.758   5.820   2.323
24609SOL     OW73850   4.951   7.156   2.655
24609SOL    HW173851   4.972   7.230   2.590
24609SOL    HW273852   5.019   7.156   2.728
24610SOL     OW73853   4.183   6.738   2.603
24610SOL    HW173854   4.112   6.711   2.668
24610SOL    HW273855   4.157   6.710   2.510
24611SOL     OW73856   4.995   7.383   2.453
24611SOL    HW173857   5.039   7.447   2.389
24611SOL    HW273858   4.945   7.435   2.523
24612SOL     OW73859   4.756   6.135   1.878
24612SOL    HW173860   4.715   6.217   1.839
24612SOL    HW273861   4.820   6.161   1.951
24613SOL     OW73862   3.802   6.142   3.248
24613SOL    HW173863   3.894   6.141   3.207
24613SOL    HW273864   3.796   6.216   3.315
24614SOL     OW73865   4.285   5.808   3.009
24614SOL    HW173866   4.323   5.724   3.046
24614SOL    HW273867   4.197   5.827   3.053
24615SOL     OW73868   4.590   6.040   2.504
24615SOL    HW173869   4.558   6.112   2.442
24615SOL    HW273870   4.614   5.959   2.451
24616SOL     OW73871   4.741   5.625   2.615
24616SOL    HW173872   4.669   5.630   2.546
24616SOL    HW273873   4.717   5.556   2.684
24617SOL     OW73874   5.153   6.759   2.729
24617SOL    HW173875   5.098   6.675   2.722
24617SOL    HW273876   5.179   6.788   2.637
24618SOL     OW73877   5.190   6.176   2.854
24618SOL    HW173878   5.160   6.081   2.861
24618SOL    HW273879   5.263   6.192   2.920
24619SOL     OW73880   5.581   6.419   2.239
24619SOL    HW173881   5.623   6.355   2.303
24619SOL    HW273882   5.543   6.368   2.161
24620SOL     OW73883   4.212   6.971   2.036
24620SOL    HW173884   4.125   6.956   2.083
24620SOL    HW273885   4.195   6.997   1.941
24621SOL     OW73886   5.388   6.866   2.519
24621SOL    HW173887   5.487   6.874   2.533
24621SOL    HW273888   5.343   6.950   2.550
24622SOL     OW73889   5.114   6.161   1.940
24622SOL    HW173890   5.060   6.140   2.021
24622SOL    HW273891   5.205   6.120   1.949
24623SOL     OW73892   4.251   5.842   2.190
24623SOL    HW173893   4.278   5.783   2.115
24623SOL    HW273894   4.251   5.937   2.159
24624SOL     OW73895   5.478   6.809   3.450
24624SOL    HW173896   5.569   6.770   3.437
24624SOL    HW273897   5.486   6.905   3.474
24625SOL     OW73898   4.788   6.933   3.202
24625SOL    HW173899   4.708   6.910   3.257
24625SOL    HW273900   4.871   6.907   3.251
24626SOL     OW73901   5.316   7.215   3.487
24626SOL    HW173902   5.343   7.249   3.397
24626SOL    HW273903   5.395   7.177   3.533
24627SOL     OW73904   4.835   6.781   2.962
24627SOL    HW173905   4.795   6.825   3.043
24627SOL    HW273906   4.794   6.818   2.879
24628SOL     OW73907   5.362   6.685   2.941
24628SOL    HW173908   5.367   6.766   3.000
24628SOL    HW273909   5.276   6.687   2.890
24629SOL     OW73910   4.639   5.675   3.264
24629SOL    HW173911   4.664   5.655   3.169
24629SOL    HW273912   4.711   5.731   3.306
24630SOL     OW73913   4.704   6.702   3.581
24630SOL    HW173914   4.605   6.708   3.591
24630SOL    HW273915   4.727   6.622   3.525
24631SOL     OW73916   4.429   6.636   2.230
24631SOL    HW173917   4.415   6.643   2.329
24631SOL    HW273918   4.513   6.585   2.212
24632SOL     OW73919   4.134   6.399   3.113
24632SOL    HW173920   4.220   6.411   3.163
24632SOL    HW273921   4.092   6.312   3.140
24633SOL     OW73922   4.998   5.972   3.124
24633SOL    HW173923   5.019   6.046   3.188
24633SOL    HW273924   4.909   5.989   3.081
24634SOL     OW73925   3.788   7.150   3.193
24634SOL    HW173926   3.742   7.232   3.159
24634SOL    HW273927   3.886   7.169   3.202
24635SOL     OW73928   4.091   6.686   2.363
24635SOL    HW173929   4.084   6.769   2.307
24635SOL    HW273930   4.095   6.606   2.303
24636SOL     OW73931   4.290   6.123   2.727
24636SOL    HW173932   4.302   6.189   2.653
24636SOL    HW273933   4.336   6.157   2.810
24637SOL     OW73934   4.976   6.934   2.250
24637SOL    HW173935   5.026   7.011   2.290
24637SOL    HW273936   4.881   6.936   2.282
24638SOL     OW73937   4.996   7.031   3.004
24638SOL    HW173938   5.043   7.044   3.091
24638SOL    HW273939   4.930   6.957   3.013
24639SOL     OW73940   5.306   6.225   2.334
24639SOL    HW173941   5.275   6.286   2.407
24639SOL    HW273942   5.356   6.277   2.265
24640SOL     OW73943   4.078   7.096   3.191
24640SOL    HW173944   4.057   7.052   3.104
24640SOL    HW273945   4.175   7.122   3.194
24641SOL     OW73946   4.126   6.337   3.460
24641SOL    HW173947   4.194   6.392   3.413
24641SOL    HW273948   4.166   6.249   3.487
24642SOL     OW73949   5.311   6.365   3.532
24642SOL    HW173950   5.219   6.403   3.527
24642SOL    HW273951   5.371   6.412   3.467
24643SOL     OW73952   4.737   5.691   3.632
24643SOL    HW173953   4.743   5.776   3.580
24643SOL    HW273954   4.769   5.615   3.575
24644SOL     OW73955   4.228   5.636   3.602
24644SOL    HW173956   4.186   5.579   3.532
24644SOL    HW273957   4.162   5.705   3.634
24645SOL     OW73958   4.297   6.456   2.891
24645SOL    HW173959   4.341   6.545   2.882
24645SOL    HW273960   4.234   6.456   2.968
24646SOL     OW73961   5.084   6.448   2.907
24646SOL    HW173962   5.009   6.448   2.841
24646SOL    HW273963   5.121   6.356   2.916
24647SOL     OW73964   4.933   6.111   2.137
24647SOL    HW173965   4.946   6.027   2.191
24647SOL    HW273966   4.904   6.185   2.197
24648SOL     OW73967   4.031   5.799   3.093
24648SOL    HW173968   4.008   5.836   3.183
24648SOL    HW273969   4.001   5.704   3.087
24649SOL     OW73970   3.761   6.896   3.144
24649SOL    HW173971   3.814   6.847   3.212
24649SOL    HW273972   3.783   6.994   3.149
24650SOL     OW73973   4.456   6.220   2.926
24650SOL    HW173974   4.515   6.194   2.850
24650SOL    HW273975   4.428   6.316   2.915
24651SOL     OW73976   5.452   6.521   3.716
24651SOL    HW173977   5.406   6.514   3.627
24651SOL    HW273978   5.390   6.565   3.782
24652SOL     OW73979   4.031   5.649   2.480
24652SOL    HW173980   4.020   5.743   2.513
24652SOL    HW273981   4.026   5.586   2.557
24653SOL     OW73982   5.346   5.953   2.236
24653SOL    HW173983   5.348   5.877   2.300
24653SOL    HW273984   5.298   6.030   2.276
24654SOL     OW73985   4.747   6.352   2.828
24654SOL    HW173986   4.762   6.373   2.924
24654SOL    HW273987   4.717   6.257   2.819
24655SOL     OW73988   4.704   7.159   3.562
24655SOL    HW173989   4.684   7.203   3.474
24655SOL    HW273990   4.743   7.068   3.546
24656SOL     OW73991   5.583   7.104   3.467
24656SOL    HW173992   5.597   7.131   3.372
24656SOL    HW273993   5.666   7.126   3.520
24657SOL     OW73994   4.074   6.484   3.666
24657SOL    HW173995   4.150   6.528   3.714
24657SOL    HW273996   4.109   6.437   3.584
24658SOL     OW73997   5.264   5.860   1.987
24658SOL    HW173998   5.203   5.785   2.010
24658SOL    HW273999   5.286   5.912   2.070
24659SOL     OW74000   5.027   6.424   1.904
24659SOL    HW174001   5.061   6.331   1.919
24659SOL    HW274002   5.045   6.451   1.809
24660SOL     OW74003   4.792   6.919   2.711
24660SOL    HW174004   4.799   6.835   2.656
24660SOL    HW274005   4.854   6.988   2.675
24661SOL     OW74006   4.043   6.396   2.811
24661SOL    HW174007   4.136   6.432   2.816
24661SOL    HW274008   4.037   6.311   2.863
24662SOL     OW74009   4.063   6.095   2.868
24662SOL    HW174010   4.011   6.012   2.851
24662SOL    HW274011   4.140   6.100   2.804
24663SOL     OW74012   4.862   5.966   3.540
24663SOL    HW174013   4.817   6.029   3.604
24663SOL    HW274014   4.955   5.997   3.523
24664SOL     OW74015   4.884   5.793   3.339
24664SOL    HW174016   4.884   5.857   3.416
24664SOL    HW274017   4.912   5.841   3.256
24665SOL     OW74018   3.732   6.912   2.062
24665SOL    HW174019   3.639   6.933   2.031
24665SOL    HW274020   3.742   6.813   2.075
24666SOL     OW74021   3.812   7.387   2.789
24666SOL    HW174022   3.770   7.301   2.762
24666SOL    HW274023   3.906   7.390   2.755
24667SOL     OW74024   4.228   7.154   2.772
24667SOL    HW174025   4.294   7.228   2.781
24667SOL    HW274026   4.272   7.075   2.730
24668SOL     OW74027   4.726   6.382   3.100
24668SOL    HW174028   4.767   6.350   3.186
24668SOL    HW274029   4.630   6.355   3.097
24669SOL     OW74030   3.764   6.130   2.976
24669SOL    HW174031   3.849   6.097   2.935
24669SOL    HW274032   3.777   6.145   3.074
24670SOL     OW74033   3.913   6.106   3.584
24670SOL    HW174034   3.972   6.066   3.514
24670SOL    HW274035   3.855   6.177   3.543
24671SOL     OW74036   5.093   6.536   3.522
24671SOL    HW174037   5.132   6.625   3.542
24671SOL    HW274038   5.103   6.516   3.425
24672SOL     OW74039   4.539   6.158   2.187
24672SOL    HW174040   4.546   6.069   2.141
24672SOL    HW274041   4.445   6.192   2.179
24673SOL     OW74042   5.381   6.190   3.068
24673SOL    HW174043   5.343   6.121   3.130
24673SOL    HW274044   5.463   6.154   3.024
24674SOL     OW74045   3.976   7.150   3.606
24674SOL    HW174046   3.946   7.207   3.682
24674SOL    HW274047   3.969   7.053   3.632
24675SOL     OW74048   4.395   6.050   3.131
24675SOL    HW174049   4.361   5.961   3.101
24675SOL    HW274050   4.421   6.104   3.051
24676SOL     OW74051   4.654   7.264   3.327
24676SOL    HW174052   4.630   7.246   3.232
24676SOL    HW274053   4.684   7.358   3.337
24677SOL     OW74054   4.197   6.086   2.053
24677SOL    HW174055   4.258   6.166   2.057
24677SOL    HW274056   4.102   6.117   2.060
24678SOL     OW74057   3.883   6.723   3.328
24678SOL    HW174058   3.905   6.662   3.404
24678SOL    HW274059   3.893   6.674   3.242
24679SOL     OW74060   5.071   6.645   3.096
24679SOL    HW174061   5.095   6.582   3.022
24679SOL    HW274062   4.981   6.685   3.078
24680SOL     OW74063   5.026   6.441   2.171
24680SOL    HW174064   4.940   6.410   2.213
24680SOL    HW274065   5.022   6.427   2.072
24681SOL     OW74066   5.483   7.333   3.016
24681SOL    HW174067   5.544   7.363   2.943
24681SOL    HW274068   5.445   7.244   2.994
24682SOL     OW74069   4.976   7.317   2.990
24682SOL    HW174070   5.060   7.322   2.936
24682SOL    HW274071   4.953   7.221   3.008
24683SOL     OW74072   3.807   6.844   2.884
24683SOL    HW174073   3.802   6.843   2.984
24683SOL    HW274074   3.724   6.803   2.846
24684SOL     OW74075   4.412   7.248   3.578
24684SOL    HW174076   4.356   7.329   3.587
24684SOL    HW274077   4.464   7.252   3.492
24685SOL     OW74078   5.450   5.721   2.385
24685SOL    HW174079   5.523   5.704   2.318
24685SOL    HW274080   5.419   5.634   2.423
24686SOL     OW74081   5.112   7.159   2.339
24686SOL    HW174082   5.179   7.171   2.265
24686SOL    HW274083   5.072   7.248   2.362
24687SOL     OW74084   3.854   7.380   3.713
24687SOL    HW174085   3.813   7.306   3.766
24687SOL    HW274086   3.918   7.431   3.771
24688SOL     OW74087   5.004   6.513   2.534
24688SOL    HW174088   5.064   6.432   2.536
24688SOL    HW274089   5.044   6.582   2.474
24689SOL     OW74090   4.554   6.859   3.284
24689SOL    HW174091   4.549   6.892   3.379
24689SOL    HW274092   4.468   6.878   3.238
24690SOL     OW74093   4.396   7.202   2.016
24690SOL    HW174094   4.405   7.212   1.917
24690SOL    HW274095   4.356   7.113   2.037
24691SOL     OW74096   5.374   7.306   3.256
24691SOL    HW174097   5.427   7.316   3.172
24691SOL    HW274098   5.347   7.396   3.290
24692SOL     OW74099   5.565   5.761   2.825
24692SOL    HW174100   5.604   5.676   2.789
24692SOL    HW274101   5.467   5.763   2.806
24693SOL     OW74102   3.987   5.912   2.582
24693SOL    HW174103   3.908   5.963   2.548
24693SOL    HW274104   3.978   5.897   2.680
24694SOL     OW74105   4.918   7.198   1.893
24694SOL    HW174106   4.924   7.105   1.930
24694SOL    HW274107   4.859   7.198   1.813
24695SOL     OW74108   4.546   6.588   3.234
24695SOL    HW174109   4.586   6.587   3.142
24695SOL    HW274110   4.556   6.680   3.274
24696SOL     OW74111   4.640   6.496   2.153
24696SOL    HW174112   4.703   6.534   2.085
24696SOL    HW274113   4.680   6.413   2.192
24697SOL     OW74114   5.228   7.193   1.906
24697SOL    HW174115   5.136   7.230   1.913
24697SOL    HW274116   5.266   7.213   1.816
24698SOL     OW74117   4.096   6.874   3.352
24698SOL    HW174118   4.083   6.967   3.318
24698SOL    HW274119   4.012   6.822   3.339
24699SOL     OW74120   5.338   6.878   3.151
24699SOL    HW174121   5.398   6.881   3.231
24699SOL    HW274122   5.263   6.942   3.164
24700SOL     OW74123   4.763   6.684   2.558
24700SOL    HW174124   4.693   6.637   2.612
24700SOL    HW274125   4.822   6.616   2.515
24701SOL     OW74126   4.738   5.822   2.833
24701SOL    HW174127   4.730   5.786   2.740
24701SOL    HW274128   4.736   5.746   2.898
24702SOL     OW74129   4.314   7.073   2.353
24702SOL    HW174130   4.356   7.015   2.283
24702SOL    HW274131   4.270   7.152   2.309
24703SOL     OW74132   5.433   5.971   3.243
24703SOL    HW174133   5.506   6.040   3.247
24703SOL    HW274134   5.461   5.896   3.184
24704SOL     OW74135   3.979   6.934   2.152
24704SOL    HW174136   3.883   6.935   2.125
24704SOL    HW274137   3.991   6.987   2.236
24705SOL     OW74138   3.829   6.599   3.588
24705SOL    HW174139   3.752   6.566   3.642
24705SOL    HW274140   3.914   6.569   3.630
24706SOL     OW74141   4.396   5.789   3.351
24706SOL    HW174142   4.486   5.773   3.311
24706SOL    HW274143   4.404   5.794   3.450
24707SOL     OW74144   3.799   5.931   1.895
24707SOL    HW174145   3.707   5.903   1.866
24707SOL    HW274146   3.830   6.008   1.839
24708SOL     OW74147   5.164   6.442   3.260
24708SOL    HW174148   5.107   6.494   3.197
24708SOL    HW274149   5.260   6.454   3.236
24709SOL     OW74150   3.796   5.752   2.180
24709SOL    HW174151   3.779   5.835   2.126
24709SOL    HW274152   3.886   5.715   2.158
24710SOL     OW74153   4.907   6.921   1.981
24710SOL    HW174154   4.808   6.910   1.983
24710SOL    HW274155   4.941   6.936   2.074
24711SOL     OW74156   4.337   6.428   3.293
24711SOL    HW174157   4.393   6.509   3.276
24711SOL    HW274158   4.396   6.348   3.296
24712SOL     OW74159   5.217   7.353   2.821
24712SOL    HW174160   5.250   7.417   2.752
24712SOL    HW274161   5.283   7.347   2.896
24713SOL     OW74162   4.440   6.151   3.570
24713SOL    HW174163   4.459   6.216   3.644
24713SOL    HW274164   4.500   6.071   3.579
24714SOL     OW74165   5.174   6.806   3.495
24714SOL    HW174166   5.165   6.796   3.594
24714SOL    HW274167   5.270   6.799   3.469
24715SOL     OW74168   4.114   7.327   3.422
24715SOL    HW174169   4.023   7.368   3.420
24715SOL    HW274170   4.107   7.233   3.454
24716SOL     OW74171   5.398   6.469   3.116
24716SOL    HW174172   5.371   6.380   3.079
24716SOL    HW274173   5.399   6.537   3.043
24717SOL     OW74174   4.949   5.911   2.311
24717SOL    HW174175   5.014   5.837   2.300
24717SOL    HW274176   4.969   5.961   2.395
24718SOL     OW74177   4.318   6.331   2.514
24718SOL    HW174178   4.368   6.416   2.495
24718SOL    HW274179   4.230   6.333   2.466
24719SOL     OW74180   5.501   5.928   3.504
24719SOL    HW174181   5.484   5.959   3.410
24719SOL    HW274182   5.417   5.891   3.542
24720SOL     OW74183   5.454   6.520   3.379
24720SOL    HW174184   5.492   6.611   3.394
24720SOL    HW274185   5.446   6.503   3.280
24721SOL     OW74186   4.583   6.960   1.878
24721SOL    HW174187   4.537   6.975   1.966
24721SOL    HW274188   4.627   7.045   1.848
24722SOL     OW74189   4.385   7.376   2.815
24722SOL    HW174190   4.339   7.464   2.802
24722SOL    HW274191   4.484   7.388   2.808
24723SOL     OW74192   4.583   6.542   2.723
24723SOL    HW174193   4.637   6.473   2.771
24723SOL    HW274194   4.551   6.611   2.789
24724SOL     OW74195   4.807   6.570   1.949
24724SOL    HW174196   4.784   6.623   1.867
24724SOL    HW274197   4.888   6.514   1.930
24725SOL     OW74198   5.585   7.155   2.713
24725SOL    HW174199   5.514   7.143   2.643
24725SOL    HW274200   5.586   7.076   2.773
24726SOL     OW74201   3.945   6.900   3.706
24726SOL    HW174202   3.880   6.827   3.685
24726SOL    HW274203   3.949   6.914   3.804
24727SOL     OW74204   3.803   6.826   2.515
24727SOL    HW174205   3.802   6.779   2.603
24727SOL    HW274206   3.885   6.798   2.464
24728SOL     OW74207   4.396   6.977   3.486
24728SOL    HW174208   4.318   6.927   3.524
24728SOL    HW274209   4.393   7.072   3.517
24729SOL     OW74210   5.548   5.778   3.089
24729SOL    HW174211   5.544   5.688   3.133
24729SOL    HW274212   5.551   5.767   2.990
24730SOL     OW74213   4.152   6.010   2.382
24730SOL    HW174214   4.182   5.938   2.320
24730SOL    HW274215   4.113   5.970   2.465
24731SOL     OW74216   5.429   7.073   2.966
24731SOL    HW174217   5.336   7.048   2.939
24731SOL    HW274218   5.455   7.023   3.048
24732SOL     OW74219   4.041   6.133   3.142
24732SOL    HW174220   4.079   6.074   3.214
24732SOL    HW274221   4.081   6.107   3.054
24733SOL     OW74222   4.536   7.172   2.549
24733SOL    HW174223   4.568   7.182   2.455
24733SOL    HW274224   4.457   7.110   2.551
24734SOL     OW74225   5.148   5.800   2.974
24734SOL    HW174226   5.200   5.735   3.029
24734SOL    HW274227   5.099   5.863   3.035
24735SOL     OW74228   4.725   5.620   3.016
24735SOL    HW174229   4.662   5.548   2.985
24735SOL    HW274230   4.818   5.584   3.016
24736SOL     OW74231   4.494   6.916   2.163
24736SOL    HW174232   4.448   6.829   2.180
24736SOL    HW274233   4.585   6.913   2.204
24737SOL     OW74234   4.342   7.153   3.146
24737SOL    HW174235   4.337   7.235   3.203
24737SOL    HW274236   4.431   7.150   3.101
24738SOL     OW74237   5.076   5.638   2.030
24738SOL    HW174238   5.111   5.597   1.946
24738SOL    HW274239   4.986   5.600   2.050
24739SOL     OW74240   5.024   6.039   2.553
24739SOL    HW174241   4.965   6.119   2.557
24739SOL    HW274242   5.039   6.004   2.646
24740SOL     OW74243   5.317   5.807   2.744
24740SOL    HW174244   5.233   5.806   2.798
24740SOL    HW274245   5.319   5.890   2.688
24741SOL     OW74246   3.763   6.663   2.162
24741SOL    HW174247   3.862   6.652   2.153
24741SOL    HW274248   3.723   6.577   2.194
24742SOL     OW74249   4.599   7.232   2.199
24742SOL    HW174250   4.522   7.197   2.145
24742SOL    HW274251   4.567   7.303   2.261
24743SOL     OW74252   3.954   6.214   3.837
24743SOL    HW174253   3.861   6.212   3.874
24743SOL    HW274254   3.955   6.175   3.745
24744SOL     OW74255   3.949   5.861   4.720
24744SOL    HW174256   3.984   5.844   4.812
24744SOL    HW274257   3.861   5.816   4.708
24745SOL     OW74258   3.743   5.954   4.371
24745SOL    HW174259   3.661   5.997   4.410
24745SOL    HW274260   3.715   5.881   4.308
24746SOL     OW74261   4.293   6.861   4.889
24746SOL    HW174262   4.200   6.854   4.852
24746SOL    HW274263   4.304   6.950   4.933
24747SOL     OW74264   5.279   7.097   4.427
24747SOL    HW174265   5.222   7.081   4.508
24747SOL    HW274266   5.220   7.107   4.347
24748SOL     OW74267   4.859   6.289   4.441
24748SOL    HW174268   4.916   6.367   4.416
24748SOL    HW274269   4.799   6.315   4.517
24749SOL     OW74270   5.479   6.193   3.955
24749SOL    HW174271   5.467   6.180   3.856
24749SOL    HW274272   5.449   6.112   4.004
24750SOL     OW74273   4.492   6.730   4.747
24750SOL    HW174274   4.414   6.747   4.807
24750SOL    HW274275   4.526   6.817   4.711
24751SOL     OW74276   4.574   6.384   5.547
24751SOL    HW174277   4.570   6.460   5.612
24751SOL    HW274278   4.596   6.420   5.456
24752SOL     OW74279   4.409   6.598   4.389
24752SOL    HW174280   4.478   6.582   4.459
24752SOL    HW274281   4.336   6.655   4.427
24753SOL     OW74282   4.410   6.747   5.527
24753SOL    HW174283   4.470   6.826   5.541
24753SOL    HW274284   4.324   6.778   5.486
24754SOL     OW74285   4.059   7.021   4.785
24754SOL    HW174286   3.981   6.990   4.732
24754SOL    HW274287   4.117   7.079   4.728
24755SOL     OW74288   5.184   7.091   5.063
24755SOL    HW174289   5.208   7.185   5.089
24755SOL    HW274290   5.168   7.037   5.145
24756SOL     OW74291   4.162   5.978   5.223
24756SOL    HW174292   4.244   5.922   5.232
24756SOL    HW274293   4.081   5.920   5.227
24757SOL     OW74294   5.327   6.033   4.461
24757SOL    HW174295   5.253   6.079   4.411
24757SOL    HW274296   5.378   6.101   4.514
24758SOL     OW74297   3.955   7.299   4.207
24758SOL    HW174298   3.989   7.376   4.261
24758SOL    HW274299   3.999   7.299   4.117
24759SOL     OW74300   4.851   6.927   5.414
24759SOL    HW174301   4.898   6.927   5.502
24759SOL    HW274302   4.803   6.840   5.403
24760SOL     OW74303   3.954   7.020   4.262
24760SOL    HW174304   3.928   7.116   4.262
24760SOL    HW274305   3.883   6.966   4.307
24761SOL     OW74306   3.964   6.677   4.610
24761SOL    HW174307   3.978   6.593   4.662
24761SOL    HW274308   3.909   6.741   4.665
24762SOL     OW74309   4.344   7.372   5.163
24762SOL    HW174310   4.252   7.355   5.198
24762SOL    HW274311   4.372   7.464   5.189
24763SOL     OW74312   4.330   6.550   3.847
24763SOL    HW174313   4.337   6.634   3.793
24763SOL    HW274314   4.376   6.563   3.935
24764SOL     OW74315   5.318   5.700   5.204
24764SOL    HW174316   5.300   5.767   5.132
24764SOL    HW274317   5.315   5.746   5.293
24765SOL     OW74318   3.846   6.229   4.287
24765SOL    HW174319   3.801   6.141   4.304
24765SOL    HW274320   3.845   6.283   4.371
24766SOL     OW74321   5.566   7.353   4.083
24766SOL    HW174322   5.620   7.324   4.163
24766SOL    HW274323   5.596   7.443   4.054
24767SOL     OW74324   3.751   7.182   3.841
24767SOL    HW174325   3.732   7.086   3.862
24767SOL    HW274326   3.718   7.240   3.916
24768SOL     OW74327   5.413   6.508   4.336
24768SOL    HW174328   5.508   6.479   4.344
24768SOL    HW274329   5.405   6.573   4.261
24769SOL     OW74330   5.365   6.694   4.156
24769SOL    HW174331   5.451   6.696   4.104
24769SOL    HW274332   5.379   6.741   4.244
24770SOL     OW74333   3.837   6.323   5.321
24770SOL    HW174334   3.925   6.310   5.366
24770SOL    HW274335   3.824   6.420   5.299
24771SOL     OW74336   4.337   6.951   4.450
24771SOL    HW174337   4.288   6.864   4.459
24771SOL    HW274338   4.314   6.994   4.363
24772SOL     OW74339   5.017   6.814   5.147
24772SOL    HW174340   5.054   6.741   5.089
24772SOL    HW274341   5.069   6.819   5.232
24773SOL     OW74342   4.533   5.590   4.226
24773SOL    HW174343   4.573   5.681   4.217
24773SOL    HW274344   4.433   5.598   4.232
24774SOL     OW74345   3.921   6.562   4.988
24774SOL    HW174346   4.010   6.517   4.974
24774SOL    HW274347   3.848   6.497   4.969
24775SOL     OW74348   5.249   6.585   3.914
24775SOL    HW174349   5.186   6.509   3.927
24775SOL    HW274350   5.297   6.603   4.000
24776SOL     OW74351   4.911   7.378   5.340
24776SOL    HW174352   4.935   7.438   5.264
24776SOL    HW274353   4.918   7.283   5.310
24777SOL     OW74354   4.041   5.837   5.525
24777SOL    HW174355   4.112   5.908   5.531
24777SOL    HW274356   3.953   5.876   5.553
24778SOL     OW74357   5.190   7.003   4.677
24778SOL    HW174358   5.131   7.009   4.757
24778SOL    HW274359   5.175   6.915   4.631
24779SOL     OW74360   5.391   7.300   4.296
24779SOL    HW174361   5.350   7.277   4.208
24779SOL    HW274362   5.373   7.226   4.361
24780SOL     OW74363   4.322   6.315   3.994
24780SOL    HW174364   4.346   6.384   3.926
24780SOL    HW274365   4.244   6.348   4.048
24781SOL     OW74366   5.005   5.931   4.668
24781SOL    HW174367   4.919   5.881   4.655
24781SOL    HW274368   5.067   5.877   4.724
24782SOL     OW74369   5.300   7.248   4.031
24782SOL    HW174370   5.389   7.294   4.034
24782SOL    HW274371   5.279   7.224   3.936
24783SOL     OW74372   4.531   6.191   5.189
24783SOL    HW174373   4.484   6.188   5.278
24783SOL    HW274374   4.480   6.136   5.123
24784SOL     OW74375   5.118   6.055   5.398
24784SOL    HW174376   5.098   6.098   5.486
24784SOL    HW274377   5.196   5.993   5.407
24785SOL     OW74378   4.697   6.476   5.296
24785SOL    HW174379   4.743   6.392   5.267
24785SOL    HW274380   4.641   6.510   5.221
24786SOL     OW74381   4.715   5.996   4.966
24786SOL    HW174382   4.638   6.030   5.020
24786SOL    HW274383   4.681   5.945   4.887
24787SOL     OW74384   4.765   6.287   4.153
24787SOL    HW174385   4.791   6.283   4.249
24787SOL    HW274386   4.680   6.236   4.139
24788SOL     OW74387   3.800   6.397   4.513
24788SOL    HW174388   3.899   6.385   4.522
24788SOL    HW274389   3.776   6.492   4.534
24789SOL     OW74390   3.854   7.407   5.295
24789SOL    HW174391   3.844   7.392   5.394
24789SOL    HW274392   3.768   7.443   5.259
24790SOL     OW74393   4.589   5.934   3.919
24790SOL    HW174394   4.648   5.997   3.870
24790SOL    HW274395   4.608   5.840   3.890
24791SOL     OW74396   5.443   6.171   5.555
24791SOL    HW174397   5.417   6.260   5.519
24791SOL    HW274398   5.441   6.103   5.482
24792SOL     OW74399   5.086   6.730   4.269
24792SOL    HW174400   5.169   6.701   4.221
24792SOL    HW274401   5.037   6.797   4.213
24793SOL     OW74402   4.274   5.782   4.609
24793SOL    HW174403   4.269   5.777   4.709
24793SOL    HW274404   4.276   5.878   4.580
24794SOL     OW74405   4.732   7.042   4.201
24794SOL    HW174406   4.686   7.114   4.149
24794SOL    HW274407   4.728   7.062   4.299
24795SOL     OW74408   4.075   7.387   4.577
24795SOL    HW174409   4.125   7.301   4.583
24795SOL    HW274410   4.140   7.464   4.574
24796SOL     OW74411   5.519   6.652   4.597
24796SOL    HW174412   5.457   6.637   4.521
24796SOL    HW274413   5.467   6.663   4.682
24797SOL     OW74414   4.951   7.136   5.230
24797SOL    HW174415   4.957   7.059   5.294
24797SOL    HW274416   4.899   7.110   5.150
24798SOL     OW74417   4.045   6.529   3.966
24798SOL    HW174418   4.127   6.568   3.924
24798SOL    HW274419   4.018   6.447   3.917
24799SOL     OW74420   5.182   6.321   4.452
24799SOL    HW174421   5.177   6.256   4.527
24799SOL    HW274422   5.262   6.380   4.465
24800SOL     OW74423   4.185   6.852   5.451
24800SOL    HW174424   4.135   6.853   5.365
24800SOL    HW274425   4.122   6.834   5.527
24801SOL     OW74426   4.835   7.362   3.961
24801SOL    HW174427   4.775   7.300   4.011
24801SOL    HW274428   4.866   7.318   3.876
24802SOL     OW74429   3.926   5.871   5.222
24802SOL    HW174430   3.846   5.931   5.209
24802SOL    HW274431   3.916   5.822   5.308
24803SOL     OW74432   5.356   6.963   3.805
24803SOL    HW174433   5.324   7.057   3.795
24803SOL    HW274434   5.280   6.900   3.793
24804SOL     OW74435   4.188   7.329   4.047
24804SOL    HW174436   4.221   7.368   4.133
24804SOL    HW274437   4.264   7.322   3.982
24805SOL     OW74438   5.124   5.693   4.150
24805SOL    HW174439   5.100   5.656   4.060
24805SOL    HW274440   5.223   5.709   4.154
24806SOL     OW74441   3.973   7.371   4.965
24806SOL    HW174442   4.030   7.306   5.015
24806SOL    HW274443   3.957   7.338   4.872
24807SOL     OW74444   4.664   7.284   4.628
24807SOL    HW174445   4.744   7.227   4.649
24807SOL    HW274446   4.615   7.244   4.551
24808SOL     OW74447   4.106   6.286   4.204
24808SOL    HW174448   4.151   6.196   4.201
24808SOL    HW274449   4.012   6.275   4.237
24809SOL     OW74450   5.271   5.808   5.453
24809SOL    HW174451   5.266   5.845   5.545
24809SOL    HW274452   5.199   5.739   5.441
24810SOL     OW74453   4.338   5.708   3.841
24810SOL    HW174454   4.436   5.686   3.848
24810SOL    HW274455   4.307   5.691   3.748
24811SOL     OW74456   4.505   5.850   5.473
24811SOL    HW174457   4.572   5.789   5.516
24811SOL    HW274458   4.432   5.869   5.538
24812SOL     OW74459   4.612   7.100   4.919
24812SOL    HW174460   4.589   7.075   4.825
24812SOL    HW274461   4.673   7.031   4.958
24813SOL     OW74462   5.075   6.176   5.157
24813SOL    HW174463   5.103   6.133   5.242
24813SOL    HW274464   5.100   6.272   5.158
24814SOL     OW74465   4.527   6.988   4.648
24814SOL    HW174466   4.617   7.002   4.606
24814SOL    HW274467   4.456   6.990   4.577
24815SOL     OW74468   4.646   6.089   4.623
24815SOL    HW174469   4.621   6.080   4.527
24815SOL    HW274470   4.694   6.007   4.654
24816SOL     OW74471   4.263   5.650   4.236
24816SOL    HW174472   4.182   5.651   4.294
24816SOL    HW274473   4.266   5.733   4.181
24817SOL     OW74474   5.158   6.774   3.765
24817SOL    HW174475   5.190   6.698   3.822
24817SOL    HW274476   5.066   6.801   3.795
24818SOL     OW74477   4.021   5.621   3.895
24818SOL    HW174478   4.070   5.705   3.874
24818SOL    HW274479   4.083   5.556   3.940
24819SOL     OW74480   4.659   5.822   4.204
24819SOL    HW174481   4.611   5.863   4.126
24819SOL    HW274482   4.758   5.820   4.185
24820SOL     OW74483   4.800   6.269   5.188
24820SOL    HW174484   4.720   6.208   5.191
24820SOL    HW274485   4.881   6.216   5.164
24821SOL     OW74486   4.951   7.156   4.517
24821SOL    HW174487   4.972   7.230   4.452
24821SOL    HW274488   5.019   7.156   4.590
24822SOL     OW74489   4.183   6.738   4.465
24822SOL    HW174490   4.112   6.711   4.530
24822SOL    HW274491   4.157   6.710   4.372
24823SOL     OW74492   4.995   7.383   4.315
24823SOL    HW174493   5.039   7.447   4.251
24823SOL    HW274494   4.945   7.435   4.385
24824SOL     OW74495   4.756   6.135   3.740
24824SOL    HW174496   4.715   6.217   3.701
24824SOL    HW274497   4.820   6.161   3.813
24825SOL     OW74498   3.802   6.142   5.110
24825SOL    HW174499   3.894   6.141   5.069
24825SOL    HW274500   3.796   6.216   5.177
24826SOL     OW74501   4.285   5.808   4.871
24826SOL    HW174502   4.323   5.724   4.908
24826SOL    HW274503   4.197   5.827   4.915
24827SOL     OW74504   4.590   6.040   4.366
24827SOL    HW174505   4.558   6.112   4.304
24827SOL    HW274506   4.614   5.959   4.313
24828SOL     OW74507   4.741   5.625   4.477
24828SOL    HW174508   4.669   5.630   4.408
24828SOL    HW274509   4.717   5.556   4.546
24829SOL     OW74510   5.153   6.759   4.591
24829SOL    HW174511   5.098   6.675   4.584
24829SOL    HW274512   5.179   6.788   4.499
24830SOL     OW74513   5.190   6.176   4.716
24830SOL    HW174514   5.160   6.081   4.723
24830SOL    HW274515   5.263   6.192   4.782
24831SOL     OW74516   5.581   6.419   4.101
24831SOL    HW174517   5.623   6.355   4.165
24831SOL    HW274518   5.543   6.368   4.023
24832SOL     OW74519   4.212   6.971   3.898
24832SOL    HW174520   4.125   6.956   3.945
24832SOL    HW274521   4.195   6.997   3.803
24833SOL     OW74522   5.388   6.866   4.381
24833SOL    HW174523   5.487   6.874   4.395
24833SOL    HW274524   5.343   6.950   4.412
24834SOL     OW74525   5.114   6.161   3.802
24834SOL    HW174526   5.060   6.140   3.883
24834SOL    HW274527   5.205   6.120   3.811
24835SOL     OW74528   4.251   5.842   4.052
24835SOL    HW174529   4.278   5.783   3.977
24835SOL    HW274530   4.251   5.937   4.021
24836SOL     OW74531   5.478   6.809   5.312
24836SOL    HW174532   5.569   6.770   5.299
24836SOL    HW274533   5.486   6.905   5.336
24837SOL     OW74534   4.788   6.933   5.064
24837SOL    HW174535   4.708   6.910   5.119
24837SOL    HW274536   4.871   6.907   5.113
24838SOL     OW74537   5.316   7.215   5.349
24838SOL    HW174538   5.343   7.249   5.259
24838SOL    HW274539   5.395   7.177   5.395
24839SOL     OW74540   4.835   6.781   4.824
24839SOL    HW174541   4.795   6.825   4.905
24839SOL    HW274542   4.794   6.818   4.741
24840SOL     OW74543   5.362   6.685   4.803
24840SOL    HW174544   5.367   6.766   4.862
24840SOL    HW274545   5.276   6.687   4.752
24841SOL     OW74546   4.639   5.675   5.126
24841SOL    HW174547   4.664   5.655   5.031
24841SOL    HW274548   4.711   5.731   5.168
24842SOL     OW74549   4.704   6.702   5.443
24842SOL    HW174550   4.605   6.708   5.453
24842SOL    HW274551   4.727   6.622   5.387
24843SOL     OW74552   4.429   6.636   4.092
24843SOL    HW174553   4.415   6.643   4.191
24843SOL    HW274554   4.513   6.585   4.074
24844SOL     OW74555   4.134   6.399   4.975
24844SOL    HW174556   4.220   6.411   5.025
24844SOL    HW274557   4.092   6.312   5.002
24845SOL     OW74558   4.998   5.972   4.986
24845SOL    HW174559   5.019   6.046   5.050
24845SOL    HW274560   4.909   5.989   4.943
24846SOL     OW74561   3.788   7.150   5.055
24846SOL    HW174562   3.742   7.232   5.021
24846SOL    HW274563   3.886   7.169   5.064
24847SOL     OW74564   4.091   6.686   4.225
24847SOL    HW174565   4.084   6.769   4.169
24847SOL    HW274566   4.095   6.606   4.165
24848SOL     OW74567   4.290   6.123   4.589
24848SOL    HW174568   4.302   6.189   4.515
24848SOL    HW274569   4.336   6.157   4.672
24849SOL     OW74570   4.976   6.934   4.112
24849SOL    HW174571   5.026   7.011   4.152
24849SOL    HW274572   4.881   6.936   4.144
24850SOL     OW74573   4.996   7.031   4.866
24850SOL    HW174574   5.043   7.044   4.953
24850SOL    HW274575   4.930   6.957   4.875
24851SOL     OW74576   5.306   6.225   4.196
24851SOL    HW174577   5.275   6.286   4.269
24851SOL    HW274578   5.356   6.277   4.127
24852SOL     OW74579   4.078   7.096   5.053
24852SOL    HW174580   4.057   7.052   4.966
24852SOL    HW274581   4.175   7.122   5.056
24853SOL     OW74582   4.126   6.337   5.322
24853SOL    HW174583   4.194   6.392   5.275
24853SOL    HW274584   4.166   6.249   5.349
24854SOL     OW74585   5.311   6.365   5.394
24854SOL    HW174586   5.219   6.403   5.389
24854SOL    HW274587   5.371   6.412   5.329
24855SOL     OW74588   4.737   5.691   5.494
24855SOL    HW174589   4.743   5.776   5.442
24855SOL    HW274590   4.769   5.615   5.437
24856SOL     OW74591   4.228   5.636   5.464
24856SOL    HW174592   4.186   5.579   5.394
24856SOL    HW274593   4.162   5.705   5.496
24857SOL     OW74594   4.297   6.456   4.753
24857SOL    HW174595   4.341   6.545   4.744
24857SOL    HW274596   4.234   6.456   4.830
24858SOL     OW74597   5.084   6.448   4.769
24858SOL    HW174598   5.009   6.448   4.703
24858SOL    HW274599   5.121   6.356   4.778
24859SOL     OW74600   4.933   6.111   3.999
24859SOL    HW174601   4.946   6.027   4.053
24859SOL    HW274602   4.904   6.185   4.059
24860SOL     OW74603   4.031   5.799   4.955
24860SOL    HW174604   4.008   5.836   5.045
24860SOL    HW274605   4.001   5.704   4.949
24861SOL     OW74606   3.761   6.896   5.006
24861SOL    HW174607   3.814   6.847   5.074
24861SOL    HW274608   3.783   6.994   5.011
24862SOL     OW74609   4.456   6.220   4.788
24862SOL    HW174610   4.515   6.194   4.712
24862SOL    HW274611   4.428   6.316   4.777
24863SOL     OW74612   5.452   6.521   5.578
24863SOL    HW174613   5.406   6.514   5.489
24863SOL    HW274614   5.390   6.565   5.644
24864SOL     OW74615   4.031   5.649   4.342
24864SOL    HW174616   4.020   5.743   4.375
24864SOL    HW274617   4.026   5.586   4.419
24865SOL     OW74618   4.747   6.352   4.690
24865SOL    HW174619   4.762   6.373   4.786
24865SOL    HW274620   4.717   6.257   4.681
24866SOL     OW74621   4.704   7.159   5.424
24866SOL    HW174622   4.684   7.203   5.336
24866SOL    HW274623   4.743   7.068   5.408
24867SOL     OW74624   5.583   7.104   5.329
24867SOL    HW174625   5.597   7.131   5.234
24867SOL    HW274626   5.666   7.126   5.382
24868SOL     OW74627   4.074   6.484   5.528
24868SOL    HW174628   4.150   6.528   5.576
24868SOL    HW274629   4.109   6.437   5.446
24869SOL     OW74630   5.264   5.860   3.849
24869SOL    HW174631   5.203   5.785   3.872
24869SOL    HW274632   5.286   5.912   3.932
24870SOL     OW74633   5.027   6.424   3.766
24870SOL    HW174634   5.061   6.331   3.781
24870SOL    HW274635   5.045   6.451   3.671
24871SOL     OW74636   4.792   6.919   4.573
24871SOL    HW174637   4.799   6.835   4.518
24871SOL    HW274638   4.854   6.988   4.537
24872SOL     OW74639   4.043   6.396   4.673
24872SOL    HW174640   4.136   6.432   4.678
24872SOL    HW274641   4.037   6.311   4.725
24873SOL     OW74642   4.063   6.095   4.730
24873SOL    HW174643   4.011   6.012   4.713
24873SOL    HW274644   4.140   6.100   4.666
24874SOL     OW74645   4.862   5.966   5.402
24874SOL    HW174646   4.817   6.029   5.466
24874SOL    HW274647   4.955   5.997   5.385
24875SOL     OW74648   4.884   5.793   5.201
24875SOL    HW174649   4.884   5.857   5.278
24875SOL    HW274650   4.912   5.841   5.118
24876SOL     OW74651   3.732   6.912   3.924
24876SOL    HW174652   3.639   6.933   3.893
24876SOL    HW274653   3.742   6.813   3.937
24877SOL     OW74654   3.812   7.387   4.651
24877SOL    HW174655   3.770   7.301   4.624
24877SOL    HW274656   3.906   7.390   4.617
24878SOL     OW74657   4.228   7.154   4.634
24878SOL    HW174658   4.294   7.228   4.643
24878SOL    HW274659   4.272   7.075   4.592
24879SOL     OW74660   4.726   6.382   4.962
24879SOL    HW174661   4.767   6.350   5.048
24879SOL    HW274662   4.630   6.355   4.959
24880SOL     OW74663   3.764   6.130   4.838
24880SOL    HW174664   3.849   6.097   4.797
24880SOL    HW274665   3.777   6.145   4.936
24881SOL     OW74666   3.913   6.106   5.446
24881SOL    HW174667   3.972   6.066   5.376
24881SOL    HW274668   3.855   6.177   5.405
24882SOL     OW74669   5.093   6.536   5.384
24882SOL    HW174670   5.132   6.625   5.404
24882SOL    HW274671   5.103   6.516   5.287
24883SOL     OW74672   4.539   6.158   4.049
24883SOL    HW174673   4.546   6.069   4.003
24883SOL    HW274674   4.445   6.192   4.041
24884SOL     OW74675   5.381   6.190   4.930
24884SOL    HW174676   5.343   6.121   4.992
24884SOL    HW274677   5.463   6.154   4.886
24885SOL     OW74678   3.976   7.150   5.468
24885SOL    HW174679   3.946   7.207   5.544
24885SOL    HW274680   3.969   7.053   5.494
24886SOL     OW74681   4.395   6.050   4.993
24886SOL    HW174682   4.361   5.961   4.963
24886SOL    HW274683   4.421   6.104   4.913
24887SOL     OW74684   4.654   7.264   5.189
24887SOL    HW174685   4.630   7.246   5.094
24887SOL    HW274686   4.684   7.358   5.199
24888SOL     OW74687   4.197   6.086   3.915
24888SOL    HW174688   4.258   6.166   3.919
24888SOL    HW274689   4.102   6.117   3.922
24889SOL     OW74690   3.883   6.723   5.190
24889SOL    HW174691   3.905   6.662   5.266
24889SOL    HW274692   3.893   6.674   5.104
24890SOL     OW74693   5.071   6.645   4.958
24890SOL    HW174694   5.095   6.582   4.884
24890SOL    HW274695   4.981   6.685   4.940
24891SOL     OW74696   5.026   6.441   4.033
24891SOL    HW174697   4.940   6.410   4.075
24891SOL    HW274698   5.022   6.427   3.934
24892SOL     OW74699   5.483   7.333   4.878
24892SOL    HW174700   5.544   7.363   4.805
24892SOL    HW274701   5.445   7.244   4.856
24893SOL     OW74702   4.976   7.317   4.852
24893SOL    HW174703   5.060   7.322   4.798
24893SOL    HW274704   4.953   7.221   4.870
24894SOL     OW74705   3.807   6.844   4.746
24894SOL    HW174706   3.802   6.843   4.846
24894SOL    HW274707   3.724   6.803   4.708
24895SOL     OW74708   4.412   7.248   5.440
24895SOL    HW174709   4.356   7.329   5.449
24895SOL    HW274710   4.464   7.252   5.354
24896SOL     OW74711   5.450   5.721   4.247
24896SOL    HW174712   5.523   5.704   4.180
24896SOL    HW274713   5.419   5.634   4.285
24897SOL     OW74714   5.112   7.159   4.201
24897SOL    HW174715   5.179   7.171   4.127
24897SOL    HW274716   5.072   7.248   4.224
24898SOL     OW74717   3.854   7.380   5.575
24898SOL    HW174718   3.813   7.306   5.628
24898SOL    HW274719   3.918   7.431   5.633
24899SOL     OW74720   5.004   6.513   4.396
24899SOL    HW174721   5.064   6.432   4.398
24899SOL    HW274722   5.044   6.582   4.336
24900SOL     OW74723   4.554   6.859   5.146
24900SOL    HW174724   4.549   6.892   5.241
24900SOL    HW274725   4.468   6.878   5.100
24901SOL     OW74726   4.396   7.202   3.878
24901SOL    HW174727   4.405   7.212   3.779
24901SOL    HW274728   4.356   7.113   3.899
24902SOL     OW74729   5.374   7.306   5.118
24902SOL    HW174730   5.427   7.316   5.034
24902SOL    HW274731   5.347   7.396   5.152
24903SOL     OW74732   5.565   5.761   4.687
24903SOL    HW174733   5.604   5.676   4.651
24903SOL    HW274734   5.467   5.763   4.668
24904SOL     OW74735   3.987   5.912   4.444
24904SOL    HW174736   3.908   5.963   4.410
24904SOL    HW274737   3.978   5.897   4.542
24905SOL     OW74738   4.918   7.198   3.755
24905SOL    HW174739   4.924   7.105   3.792
24905SOL    HW274740   4.859   7.198   3.675
24906SOL     OW74741   4.546   6.588   5.096
24906SOL    HW174742   4.586   6.587   5.004
24906SOL    HW274743   4.556   6.680   5.136
24907SOL     OW74744   4.640   6.496   4.015
24907SOL    HW174745   4.703   6.534   3.947
24907SOL    HW274746   4.680   6.413   4.054
24908SOL     OW74747   5.228   7.193   3.768
24908SOL    HW174748   5.136   7.230   3.775
24908SOL    HW274749   5.266   7.213   3.678
24909SOL     OW74750   4.096   6.874   5.214
24909SOL    HW174751   4.083   6.967   5.180
24909SOL    HW274752   4.012   6.822   5.201
24910SOL     OW74753   5.338   6.878   5.013
24910SOL    HW174754   5.398   6.881   5.093
24910SOL    HW274755   5.263   6.942   5.026
24911SOL     OW74756   4.763   6.684   4.420
24911SOL    HW174757   4.693   6.637   4.474
24911SOL    HW274758   4.822   6.616   4.377
24912SOL     OW74759   4.738   5.822   4.695
24912SOL    HW174760   4.730   5.786   4.602
24912SOL    HW274761   4.736   5.746   4.760
24913SOL     OW74762   4.314   7.073   4.215
24913SOL    HW174763   4.356   7.015   4.145
24913SOL    HW274764   4.270   7.152   4.171
24914SOL     OW74765   5.433   5.971   5.105
24914SOL    HW174766   5.506   6.040   5.109
24914SOL    HW274767   5.461   5.896   5.046
24915SOL     OW74768   3.979   6.934   4.014
24915SOL    HW174769   3.883   6.935   3.987
24915SOL    HW274770   3.991   6.987   4.098
24916SOL     OW74771   3.829   6.599   5.450
24916SOL    HW174772   3.752   6.566   5.504
24916SOL    HW274773   3.914   6.569   5.492
24917SOL     OW74774   4.396   5.789   5.213
24917SOL    HW174775   4.486   5.773   5.173
24917SOL    HW274776   4.404   5.794   5.312
24918SOL     OW74777   3.799   5.931   3.757
24918SOL    HW174778   3.707   5.903   3.728
24918SOL    HW274779   3.830   6.008   3.701
24919SOL     OW74780   5.164   6.442   5.122
24919SOL    HW174781   5.107   6.494   5.059
24919SOL    HW274782   5.260   6.454   5.098
24920SOL     OW74783   3.796   5.752   4.042
24920SOL    HW174784   3.779   5.835   3.988
24920SOL    HW274785   3.886   5.715   4.020
24921SOL     OW74786   4.907   6.921   3.843
24921SOL    HW174787   4.808   6.910   3.845
24921SOL    HW274788   4.941   6.936   3.936
24922SOL     OW74789   4.337   6.428   5.155
24922SOL    HW174790   4.393   6.509   5.138
24922SOL    HW274791   4.396   6.348   5.158
24923SOL     OW74792   5.217   7.353   4.683
24923SOL    HW174793   5.250   7.417   4.614
24923SOL    HW274794   5.283   7.347   4.758
24924SOL     OW74795   4.440   6.151   5.432
24924SOL    HW174796   4.459   6.216   5.506
24924SOL    HW274797   4.500   6.071   5.441
24925SOL     OW74798   5.174   6.806   5.357
24925SOL    HW174799   5.165   6.796   5.456
24925SOL    HW274800   5.270   6.799   5.331
24926SOL     OW74801   4.114   7.327   5.284
24926SOL    HW174802   4.023   7.368   5.282
24926SOL    HW274803   4.107   7.233   5.316
24927SOL     OW74804   5.398   6.469   4.978
24927SOL    HW174805   5.371   6.380   4.941
24927SOL    HW274806   5.399   6.537   4.905
24928SOL     OW74807   4.949   5.911   4.173
24928SOL    HW174808   5.014   5.837   4.162
24928SOL    HW274809   4.969   5.961   4.257
24929SOL     OW74810   4.318   6.331   4.376
24929SOL    HW174811   4.368   6.416   4.357
24929SOL    HW274812   4.230   6.333   4.328
24930SOL     OW74813   5.501   5.928   5.366
24930SOL    HW174814   5.484   5.959   5.272
24930SOL    HW274815   5.417   5.891   5.404
24931SOL     OW74816   5.454   6.520   5.241
24931SOL    HW174817   5.492   6.611   5.256
24931SOL    HW274818   5.446   6.503   5.142
24932SOL     OW74819   4.583   6.960   3.740
24932SOL    HW174820   4.537   6.975   3.828
24932SOL    HW274821   4.627   7.045   3.710
24933SOL     OW74822   4.385   7.376   4.677
24933SOL    HW174823   4.339   7.464   4.664
24933SOL    HW274824   4.484   7.388   4.670
24934SOL     OW74825   4.583   6.542   4.585
24934SOL    HW174826   4.637   6.473   4.633
24934SOL    HW274827   4.551   6.611   4.651
24935SOL     OW74828   4.807   6.570   3.811
24935SOL    HW174829   4.784   6.623   3.729
24935SOL    HW274830   4.888   6.514   3.792
24936SOL     OW74831   5.585   7.155   4.575
24936SOL    HW174832   5.514   7.143   4.505
24936SOL    HW274833   5.586   7.076   4.635
24937SOL     OW74834   3.945   6.900   5.568
24937SOL    HW174835   3.880   6.827   5.547
24937SOL    HW274836   3.949   6.914   5.666
24938SOL     OW74837   3.803   6.826   4.377
24938SOL    HW174838   3.802   6.779   4.465
24938SOL    HW274839   3.885   6.798   4.326
24939SOL     OW74840   4.396   6.977   5.348
24939SOL    HW174841   4.318   6.927   5.386
24939SOL    HW274842   4.393   7.072   5.379
24940SOL     OW74843   5.548   5.778   4.951
24940SOL    HW174844   5.544   5.688   4.995
24940SOL    HW274845   5.551   5.767   4.852
24941SOL     OW74846   4.152   6.010   4.244
24941SOL    HW174847   4.182   5.938   4.182
24941SOL    HW274848   4.113   5.970   4.327
24942SOL     OW74849   5.429   7.073   4.828
24942SOL    HW174850   5.336   7.048   4.801
24942SOL    HW274851   5.455   7.023   4.910
24943SOL     OW74852   4.041   6.133   5.004
24943SOL    HW174853   4.079   6.074   5.076
24943SOL    HW274854   4.081   6.107   4.916
24944SOL     OW74855   4.536   7.172   4.411
24944SOL    HW174856   4.568   7.182   4.317
24944SOL    HW274857   4.457   7.110   4.413
24945SOL     OW74858   5.148   5.800   4.836
24945SOL    HW174859   5.200   5.735   4.891
24945SOL    HW274860   5.099   5.863   4.897
24946SOL     OW74861   4.725   5.620   4.878
24946SOL    HW174862   4.662   5.548   4.847
24946SOL    HW274863   4.818   5.584   4.878
24947SOL     OW74864   4.494   6.916   4.025
24947SOL    HW174865   4.448   6.829   4.042
24947SOL    HW274866   4.585   6.913   4.066
24948SOL     OW74867   4.342   7.153   5.008
24948SOL    HW174868   4.337   7.235   5.065
24948SOL    HW274869   4.431   7.150   4.963
24949SOL     OW74870   5.076   5.638   3.892
24949SOL    HW174871   5.111   5.597   3.808
24949SOL    HW274872   4.986   5.600   3.912
24950SOL     OW74873   5.024   6.039   4.415
24950SOL    HW174874   4.965   6.119   4.419
24950SOL    HW274875   5.039   6.004   4.508
24951SOL     OW74876   5.317   5.807   4.606
24951SOL    HW174877   5.233   5.806   4.660
24951SOL    HW274878   5.319   5.890   4.550
24952SOL     OW74879   3.763   6.663   4.024
24952SOL    HW174880   3.862   6.652   4.015
24952SOL    HW274881   3.723   6.577   4.056
24953SOL     OW74882   4.599   7.232   4.061
24953SOL    HW174883   4.522   7.197   4.007
24953SOL    HW274884   4.567   7.303   4.123
24954SOL     OW74885   3.954   6.214   5.699
24954SOL    HW174886   3.861   6.212   5.736
24954SOL    HW274887   3.955   6.175   5.607
24955SOL     OW74888   3.949   5.861   6.582
24955SOL    HW174889   3.984   5.844   6.674
24955SOL    HW274890   3.861   5.816   6.570
24956SOL     OW74891   3.743   5.954   6.233
24956SOL    HW174892   3.661   5.997   6.272
24956SOL    HW274893   3.715   5.881   6.170
24957SOL     OW74894   4.293   6.861   6.751
24957SOL    HW174895   4.200   6.854   6.714
24957SOL    HW274896   4.304   6.950   6.795
24958SOL     OW74897   5.279   7.097   6.289
24958SOL    HW174898   5.222   7.081   6.370
24958SOL    HW274899   5.220   7.107   6.209
24959SOL     OW74900   4.859   6.289   6.303
24959SOL    HW174901   4.916   6.367   6.278
24959SOL    HW274902   4.799   6.315   6.379
24960SOL     OW74903   5.479   6.193   5.817
24960SOL    HW174904   5.467   6.180   5.718
24960SOL    HW274905   5.449   6.112   5.866
24961SOL     OW74906   4.492   6.730   6.609
24961SOL    HW174907   4.414   6.747   6.669
24961SOL    HW274908   4.526   6.817   6.573
24962SOL     OW74909   4.574   6.384   7.409
24962SOL    HW174910   4.570   6.460   7.474
24962SOL    HW274911   4.596   6.420   7.318
24963SOL     OW74912   4.409   6.598   6.251
24963SOL    HW174913   4.478   6.582   6.321
24963SOL    HW274914   4.336   6.655   6.289
24964SOL     OW74915   4.410   6.747   7.389
24964SOL    HW174916   4.470   6.826   7.403
24964SOL    HW274917   4.324   6.778   7.348
24965SOL     OW74918   4.059   7.021   6.647
24965SOL    HW174919   3.981   6.990   6.594
24965SOL    HW274920   4.117   7.079   6.590
24966SOL     OW74921   5.184   7.091   6.925
24966SOL    HW174922   5.208   7.185   6.951
24966SOL    HW274923   5.168   7.037   7.007
24967SOL     OW74924   4.162   5.978   7.085
24967SOL    HW174925   4.244   5.922   7.094
24967SOL    HW274926   4.081   5.920   7.089
24968SOL     OW74927   5.327   6.033   6.323
24968SOL    HW174928   5.253   6.079   6.273
24968SOL    HW274929   5.378   6.101   6.376
24969SOL     OW74930   3.955   7.299   6.069
24969SOL    HW174931   3.989   7.376   6.123
24969SOL    HW274932   3.999   7.299   5.979
24970SOL     OW74933   4.851   6.927   7.276
24970SOL    HW174934   4.898   6.927   7.364
24970SOL    HW274935   4.803   6.840   7.265
24971SOL     OW74936   3.954   7.020   6.124
24971SOL    HW174937   3.928   7.116   6.124
24971SOL    HW274938   3.883   6.966   6.169
24972SOL     OW74939   3.964   6.677   6.472
24972SOL    HW174940   3.978   6.593   6.524
24972SOL    HW274941   3.909   6.741   6.527
24973SOL     OW74942   4.344   7.372   7.025
24973SOL    HW174943   4.252   7.355   7.060
24973SOL    HW274944   4.372   7.464   7.051
24974SOL     OW74945   4.330   6.550   5.709
24974SOL    HW174946   4.337   6.634   5.655
24974SOL    HW274947   4.376   6.563   5.797
24975SOL     OW74948   5.318   5.700   7.066
24975SOL    HW174949   5.300   5.767   6.994
24975SOL    HW274950   5.315   5.746   7.155
24976SOL     OW74951   3.846   6.229   6.149
24976SOL    HW174952   3.801   6.141   6.166
24976SOL    HW274953   3.845   6.283   6.233
24977SOL     OW74954   5.566   7.353   5.945
24977SOL    HW174955   5.620   7.324   6.025
24977SOL    HW274956   5.596   7.443   5.916
24978SOL     OW74957   3.751   7.182   5.703
24978SOL    HW174958   3.732   7.086   5.724
24978SOL    HW274959   3.718   7.240   5.778
24979SOL     OW74960   5.413   6.508   6.198
24979SOL    HW174961   5.508   6.479   6.206
24979SOL    HW274962   5.405   6.573   6.123
24980SOL     OW74963   5.365   6.694   6.018
24980SOL    HW174964   5.451   6.696   5.966
24980SOL    HW274965   5.379   6.741   6.106
24981SOL     OW74966   3.837   6.323   7.183
24981SOL    HW174967   3.925   6.310   7.228
24981SOL    HW274968   3.824   6.420   7.161
24982SOL     OW74969   4.337   6.951   6.312
24982SOL    HW174970   4.288   6.864   6.321
24982SOL    HW274971   4.314   6.994   6.225
24983SOL     OW74972   5.017   6.814   7.009
24983SOL    HW174973   5.054   6.741   6.951
24983SOL    HW274974   5.069   6.819   7.094
24984SOL     OW74975   4.533   5.590   6.088
24984SOL    HW174976   4.573   5.681   6.079
24984SOL    HW274977   4.433   5.598   6.094
24985SOL     OW74978   3.921   6.562   6.850
24985SOL    HW174979   4.010   6.517   6.836
24985SOL    HW274980   3.848   6.497   6.831
24986SOL     OW74981   5.249   6.585   5.776
24986SOL    HW174982   5.186   6.509   5.789
24986SOL    HW274983   5.297   6.603   5.862
24987SOL     OW74984   4.911   7.378   7.202
24987SOL    HW174985   4.935   7.438   7.126
24987SOL    HW274986   4.918   7.283   7.172
24988SOL     OW74987   4.041   5.837   7.387
24988SOL    HW174988   4.112   5.908   7.393
24988SOL    HW274989   3.953   5.876   7.415
24989SOL     OW74990   5.190   7.003   6.539
24989SOL    HW174991   5.131   7.009   6.619
24989SOL    HW274992   5.175   6.915   6.493
24990SOL     OW74993   5.391   7.300   6.158
24990SOL    HW174994   5.350   7.277   6.070
24990SOL    HW274995   5.373   7.226   6.223
24991SOL     OW74996   4.322   6.315   5.856
24991SOL    HW174997   4.346   6.384   5.788
24991SOL    HW274998   4.244   6.348   5.910
24992SOL     OW74999   5.005   5.931   6.530
24992SOL    HW175000   4.919   5.881   6.517
24992SOL    HW275001   5.067   5.877   6.586
24993SOL     OW75002   5.300   7.248   5.893
24993SOL    HW175003   5.389   7.294   5.896
24993SOL    HW275004   5.279   7.224   5.798
24994SOL     OW75005   4.531   6.191   7.051
24994SOL    HW175006   4.484   6.188   7.140
24994SOL    HW275007   4.480   6.136   6.985
24995SOL     OW75008   5.118   6.055   7.260
24995SOL    HW175009   5.098   6.098   7.348
24995SOL    HW275010   5.196   5.993   7.269
24996SOL     OW75011   4.697   6.476   7.158
24996SOL    HW175012   4.743   6.392   7.129
24996SOL    HW275013   4.641   6.510   7.083
24997SOL     OW75014   4.715   5.996   6.828
24997SOL    HW175015   4.638   6.030   6.882
24997SOL    HW275016   4.681   5.945   6.749
24998SOL     OW75017   4.765   6.287   6.015
24998SOL    HW175018   4.791   6.283   6.111
24998SOL    HW275019   4.680   6.236   6.001
24999SOL     OW75020   3.800   6.397   6.375
24999SOL    HW175021   3.899   6.385   6.384
24999SOL    HW275022   3.776   6.492   6.396
25000SOL     OW75023   3.854   7.407   7.157
25000SOL    HW175024   3.844   7.392   7.256
25000SOL    HW275025   3.768   7.443   7.121
25001SOL     OW75026   4.589   5.934   5.781
25001SOL    HW175027   4.648   5.997   5.732
25001SOL    HW275028   4.608   5.840   5.752
25002SOL     OW75029   5.443   6.171   7.417
25002SOL    HW175030   5.417   6.260   7.381
25002SOL    HW275031   5.441   6.103   7.344
25003SOL     OW75032   5.086   6.730   6.131
25003SOL    HW175033   5.169   6.701   6.083
25003SOL    HW275034   5.037   6.797   6.075
25004SOL     OW75035   4.274   5.782   6.471
25004SOL    HW175036   4.269   5.777   6.571
25004SOL    HW275037   4.276   5.878   6.442
25005SOL     OW75038   4.732   7.042   6.063
25005SOL    HW175039   4.686   7.114   6.011
25005SOL    HW275040   4.728   7.062   6.161
25006SOL     OW75041   4.075   7.387   6.439
25006SOL    HW175042   4.125   7.301   6.445
25006SOL    HW275043   4.140   7.464   6.436
25007SOL     OW75044   5.519   6.652   6.459
25007SOL    HW175045   5.457   6.637   6.383
25007SOL    HW275046   5.467   6.663   6.544
25008SOL     OW75047   4.951   7.136   7.092
25008SOL    HW175048   4.957   7.059   7.156
25008SOL    HW275049   4.899   7.110   7.012
25009SOL     OW75050   4.045   6.529   5.828
25009SOL    HW175051   4.127   6.568   5.786
25009SOL    HW275052   4.018   6.447   5.779
25010SOL     OW75053   5.182   6.321   6.314
25010SOL    HW175054   5.177   6.256   6.389
25010SOL    HW275055   5.262   6.380   6.327
25011SOL     OW75056   4.185   6.852   7.313
25011SOL    HW175057   4.135   6.853   7.227
25011SOL    HW275058   4.122   6.834   7.389
25012SOL     OW75059   4.835   7.362   5.823
25012SOL    HW175060   4.775   7.300   5.873
25012SOL    HW275061   4.866   7.318   5.738
25013SOL     OW75062   3.926   5.871   7.084
25013SOL    HW175063   3.846   5.931   7.071
25013SOL    HW275064   3.916   5.822   7.170
25014SOL     OW75065   5.356   6.963   5.667
25014SOL    HW175066   5.324   7.057   5.657
25014SOL    HW275067   5.280   6.900   5.655
25015SOL     OW75068   4.188   7.329   5.909
25015SOL    HW175069   4.221   7.368   5.995
25015SOL    HW275070   4.264   7.322   5.844
25016SOL     OW75071   5.124   5.693   6.012
25016SOL    HW175072   5.100   5.656   5.922
25016SOL    HW275073   5.223   5.709   6.016
25017SOL     OW75074   3.973   7.371   6.827
25017SOL    HW175075   4.030   7.306   6.877
25017SOL    HW275076   3.957   7.338   6.734
25018SOL     OW75077   4.664   7.284   6.490
25018SOL    HW175078   4.744   7.227   6.511
25018SOL    HW275079   4.615   7.244   6.413
25019SOL     OW75080   4.106   6.286   6.066
25019SOL    HW175081   4.151   6.196   6.063
25019SOL    HW275082   4.012   6.275   6.099
25020SOL     OW75083   5.271   5.808   7.315
25020SOL    HW175084   5.266   5.845   7.407
25020SOL    HW275085   5.199   5.739   7.303
25021SOL     OW75086   4.338   5.708   5.703
25021SOL    HW175087   4.436   5.686   5.710
25021SOL    HW275088   4.307   5.691   5.610
25022SOL     OW75089   4.505   5.850   7.335
25022SOL    HW175090   4.572   5.789   7.378
25022SOL    HW275091   4.432   5.869   7.400
25023SOL     OW75092   4.612   7.100   6.781
25023SOL    HW175093   4.589   7.075   6.687
25023SOL    HW275094   4.673   7.031   6.820
25024SOL     OW75095   5.075   6.176   7.019
25024SOL    HW175096   5.103   6.133   7.104
25024SOL    HW275097   5.100   6.272   7.020
25025SOL     OW75098   4.527   6.988   6.510
25025SOL    HW175099   4.617   7.002   6.468
25025SOL    HW275100   4.456   6.990   6.439
25026SOL     OW75101   4.646   6.089   6.485
25026SOL    HW175102   4.621   6.080   6.389
25026SOL    HW275103   4.694   6.007   6.516
25027SOL     OW75104   4.263   5.650   6.098
25027SOL    HW175105   4.182   5.651   6.156
25027SOL    HW275106   4.266   5.733   6.043
25028SOL     OW75107   5.158   6.774   5.627
25028SOL    HW175108   5.190   6.698   5.684
25028SOL    HW275109   5.066   6.801   5.657
25029SOL     OW75110   4.021   5.621   5.757
25029SOL    HW175111   4.070   5.705   5.736
25029SOL    HW275112   4.083   5.556   5.802
25030SOL     OW75113   4.659   5.822   6.066
25030SOL    HW175114   4.611   5.863   5.988
25030SOL    HW275115   4.758   5.820   6.047
25031SOL     OW75116   4.800   6.269   7.050
25031SOL    HW175117   4.720   6.208   7.053
25031SOL    HW275118   4.881   6.216   7.026
25032SOL     OW75119   4.951   7.156   6.379
25032SOL    HW175120   4.972   7.230   6.314
25032SOL    HW275121   5.019   7.156   6.452
25033SOL     OW75122   4.183   6.738   6.327
25033SOL    HW175123   4.112   6.711   6.392
25033SOL    HW275124   4.157   6.710   6.234
25034SOL     OW75125   4.995   7.383   6.177
25034SOL    HW175126   5.039   7.447   6.113
25034SOL    HW275127   4.945   7.435   6.247
25035SOL     OW75128   4.756   6.135   5.602
25035SOL    HW175129   4.715   6.217   5.563
25035SOL    HW275130   4.820   6.161   5.675
25036SOL     OW75131   3.802   6.142   6.972
25036SOL    HW175132   3.894   6.141   6.931
25036SOL    HW275133   3.796   6.216   7.039
25037SOL     OW75134   4.285   5.808   6.733
25037SOL    HW175135   4.323   5.724   6.770
25037SOL    HW275136   4.197   5.827   6.777
25038SOL     OW75137   4.590   6.040   6.228
25038SOL    HW175138   4.558   6.112   6.166
25038SOL    HW275139   4.614   5.959   6.175
25039SOL     OW75140   4.741   5.625   6.339
25039SOL    HW175141   4.669   5.630   6.270
25039SOL    HW275142   4.717   5.556   6.408
25040SOL     OW75143   5.153   6.759   6.453
25040SOL    HW175144   5.098   6.675   6.446
25040SOL    HW275145   5.179   6.788   6.361
25041SOL     OW75146   5.190   6.176   6.578
25041SOL    HW175147   5.160   6.081   6.585
25041SOL    HW275148   5.263   6.192   6.644
25042SOL     OW75149   5.581   6.419   5.963
25042SOL    HW175150   5.623   6.355   6.027
25042SOL    HW275151   5.543   6.368   5.885
25043SOL     OW75152   4.212   6.971   5.760
25043SOL    HW175153   4.125   6.956   5.807
25043SOL    HW275154   4.195   6.997   5.665
25044SOL     OW75155   5.114   6.161   5.664
25044SOL    HW175156   5.060   6.140   5.745
25044SOL    HW275157   5.205   6.120   5.673
25045SOL     OW75158   4.251   5.842   5.914
25045SOL    HW175159   4.278   5.783   5.839
25045SOL    HW275160   4.251   5.937   5.883
25046SOL     OW75161   5.478   6.809   7.174
25046SOL    HW175162   5.569   6.770   7.161
25046SOL    HW275163   5.486   6.905   7.198
25047SOL     OW75164   4.788   6.933   6.926
25047SOL    HW175165   4.708   6.910   6.981
25047SOL    HW275166   4.871   6.907   6.975
25048SOL     OW75167   5.316   7.215   7.211
25048SOL    HW175168   5.343   7.249   7.121
25048SOL    HW275169   5.395   7.177   7.257
25049SOL     OW75170   4.835   6.781   6.686
25049SOL    HW175171   4.795   6.825   6.767
25049SOL    HW275172   4.794   6.818   6.603
25050SOL     OW75173   5.362   6.685   6.665
25050SOL    HW175174   5.367   6.766   6.724
25050SOL    HW275175   5.276   6.687   6.614
25051SOL     OW75176   4.639   5.675   6.988
25051SOL    HW175177   4.664   5.655   6.893
25051SOL    HW275178   4.711   5.731   7.030
25052SOL     OW75179   4.704   6.702   7.305
25052SOL    HW175180   4.605   6.708   7.315
25052SOL    HW275181   4.727   6.622   7.249
25053SOL     OW75182   4.429   6.636   5.954
25053SOL    HW175183   4.415   6.643   6.053
25053SOL    HW275184   4.513   6.585   5.936
25054SOL     OW75185   4.134   6.399   6.837
25054SOL    HW175186   4.220   6.411   6.887
25054SOL    HW275187   4.092   6.312   6.864
25055SOL     OW75188   3.788   7.150   6.917
25055SOL    HW175189   3.742   7.232   6.883
25055SOL    HW275190   3.886   7.169   6.926
25056SOL     OW75191   4.091   6.686   6.087
25056SOL    HW175192   4.084   6.769   6.031
25056SOL    HW275193   4.095   6.606   6.027
25057SOL     OW75194   4.290   6.123   6.451
25057SOL    HW175195   4.302   6.189   6.377
25057SOL    HW275196   4.336   6.157   6.534
25058SOL     OW75197   4.976   6.934   5.974
25058SOL    HW175198   5.026   7.011   6.014
25058SOL    HW275199   4.881   6.936   6.006
25059SOL     OW75200   4.996   7.031   6.728
25059SOL    HW175201   5.043   7.044   6.815
25059SOL    HW275202   4.930   6.957   6.737
25060SOL     OW75203   5.306   6.225   6.058
25060SOL    HW175204   5.275   6.286   6.131
25060SOL    HW275205   5.356   6.277   5.989
25061SOL     OW75206   4.078   7.096   6.915
25061SOL    HW175207   4.057   7.052   6.828
25061SOL    HW275208   4.175   7.122   6.918
25062SOL     OW75209   4.126   6.337   7.184
25062SOL    HW175210   4.194   6.392   7.137
25062SOL    HW275211   4.166   6.249   7.211
25063SOL     OW75212   5.311   6.365   7.256
25063SOL    HW175213   5.219   6.403   7.251
25063SOL    HW275214   5.371   6.412   7.191
25064SOL     OW75215   4.737   5.691   7.356
25064SOL    HW175216   4.743   5.776   7.304
25064SOL    HW275217   4.769   5.615   7.299
25065SOL     OW75218   4.228   5.636   7.326
25065SOL    HW175219   4.186   5.579   7.256
25065SOL    HW275220   4.162   5.705   7.358
25066SOL     OW75221   4.297   6.456   6.615
25066SOL    HW175222   4.341   6.545   6.606
25066SOL    HW275223   4.234   6.456   6.692
25067SOL     OW75224   5.084   6.448   6.631
25067SOL    HW175225   5.009   6.448   6.565
25067SOL    HW275226   5.121   6.356   6.640
25068SOL     OW75227   4.933   6.111   5.861
25068SOL    HW175228   4.946   6.027   5.915
25068SOL    HW275229   4.904   6.185   5.921
25069SOL     OW75230   4.031   5.799   6.817
25069SOL    HW175231   4.008   5.836   6.907
25069SOL    HW275232   4.001   5.704   6.811
25070SOL     OW75233   3.761   6.896   6.868
25070SOL    HW175234   3.814   6.847   6.936
25070SOL    HW275235   3.783   6.994   6.873
25071SOL     OW75236   4.456   6.220   6.650
25071SOL    HW175237   4.515   6.194   6.574
25071SOL    HW275238   4.428   6.316   6.639
25072SOL     OW75239   5.452   6.521   7.440
25072SOL    HW175240   5.406   6.514   7.351
25072SOL    HW275241   5.390   6.565   7.506
25073SOL     OW75242   4.031   5.649   6.204
25073SOL    HW175243   4.020   5.743   6.237
25073SOL    HW275244   4.026   5.586   6.281
25074SOL     OW75245   5.346   5.953   5.960
25074SOL    HW175246   5.348   5.877   6.024
25074SOL    HW275247   5.298   6.030   6.000
25075SOL     OW75248   4.747   6.352   6.552
25075SOL    HW175249   4.762   6.373   6.648
25075SOL    HW275250   4.717   6.257   6.543
25076SOL     OW75251   4.704   7.159   7.286
25076SOL    HW175252   4.684   7.203   7.198
25076SOL    HW275253   4.743   7.068   7.270
25077SOL     OW75254   5.583   7.104   7.191
25077SOL    HW175255   5.597   7.131   7.096
25077SOL    HW275256   5.666   7.126   7.244
25078SOL     OW75257   4.074   6.484   7.390
25078SOL    HW175258   4.150   6.528   7.438
25078SOL    HW275259   4.109   6.437   7.308
25079SOL     OW75260   5.264   5.860   5.711
25079SOL    HW175261   5.203   5.785   5.734
25079SOL    HW275262   5.286   5.912   5.794
25080SOL     OW75263   5.027   6.424   5.628
25080SOL    HW175264   5.061   6.331   5.643
25080SOL    HW275265   5.045   6.451   5.533
25081SOL     OW75266   4.792   6.919   6.435
25081SOL    HW175267   4.799   6.835   6.380
25081SOL    HW275268   4.854   6.988   6.399
25082SOL     OW75269   4.043   6.396   6.535
25082SOL    HW175270   4.136   6.432   6.540
25082SOL    HW275271   4.037   6.311   6.587
25083SOL     OW75272   4.063   6.095   6.592
25083SOL    HW175273   4.011   6.012   6.575
25083SOL    HW275274   4.140   6.100   6.528
25084SOL     OW75275   4.862   5.966   7.264
25084SOL    HW175276   4.817   6.029   7.328
25084SOL    HW275277   4.955   5.997   7.247
25085SOL     OW75278   4.884   5.793   7.063
25085SOL    HW175279   4.884   5.857   7.140
25085SOL    HW275280   4.912   5.841   6.980
25086SOL     OW75281   3.732   6.912   5.786
25086SOL    HW175282   3.639   6.933   5.755
25086SOL    HW275283   3.742   6.813   5.799
25087SOL     OW75284   3.812   7.387   6.513
25087SOL    HW175285   3.770   7.301   6.486
25087SOL    HW275286   3.906   7.390   6.479
25088SOL     OW75287   4.228   7.154   6.496
25088SOL    HW175288   4.294   7.228   6.505
25088SOL    HW275289   4.272   7.075   6.454
25089SOL     OW75290   4.726   6.382   6.824
25089SOL    HW175291   4.767   6.350   6.910
25089SOL    HW275292   4.630   6.355   6.821
25090SOL     OW75293   3.764   6.130   6.700
25090SOL    HW175294   3.849   6.097   6.659
25090SOL    HW275295   3.777   6.145   6.798
25091SOL     OW75296   3.913   6.106   7.308
25091SOL    HW175297   3.972   6.066   7.238
25091SOL    HW275298   3.855   6.177   7.267
25092SOL     OW75299   5.093   6.536   7.246
25092SOL    HW175300   5.132   6.625   7.266
25092SOL    HW275301   5.103   6.516   7.149
25093SOL     OW75302   4.539   6.158   5.911
25093SOL    HW175303   4.546   6.069   5.865
25093SOL    HW275304   4.445   6.192   5.903
25094SOL     OW75305   5.381   6.190   6.792
25094SOL    HW175306   5.343   6.121   6.854
25094SOL    HW275307   5.463   6.154   6.748
25095SOL     OW75308   3.976   7.150   7.330
25095SOL    HW175309   3.946   7.207   7.406
25095SOL    HW275310   3.969   7.053   7.356
25096SOL     OW75311   4.395   6.050   6.855
25096SOL    HW175312   4.361   5.961   6.825
25096SOL    HW275313   4.421   6.104   6.775
25097SOL     OW75314   4.654   7.264   7.051
25097SOL    HW175315   4.630   7.246   6.956
25097SOL    HW275316   4.684   7.358   7.061
25098SOL     OW75317   4.197   6.086   5.777
25098SOL    HW175318   4.258   6.166   5.781
25098SOL    HW275319   4.102   6.117   5.784
25099SOL     OW75320   3.883   6.723   7.052
25099SOL    HW175321   3.905   6.662   7.128
25099SOL    HW275322   3.893   6.674   6.966
25100SOL     OW75323   5.071   6.645   6.820
25100SOL    HW175324   5.095   6.582   6.746
25100SOL    HW275325   4.981   6.685   6.802
25101SOL     OW75326   5.026   6.441   5.895
25101SOL    HW175327   4.940   6.410   5.937
25101SOL    HW275328   5.022   6.427   5.796
25102SOL     OW75329   5.483   7.333   6.740
25102SOL    HW175330   5.544   7.363   6.667
25102SOL    HW275331   5.445   7.244   6.718
25103SOL     OW75332   4.976   7.317   6.714
25103SOL    HW175333   5.060   7.322   6.660
25103SOL    HW275334   4.953   7.221   6.732
25104SOL     OW75335   3.807   6.844   6.608
25104SOL    HW175336   3.802   6.843   6.708
25104SOL    HW275337   3.724   6.803   6.570
25105SOL     OW75338   4.412   7.248   7.302
25105SOL    HW175339   4.356   7.329   7.311
25105SOL    HW275340   4.464   7.252   7.216
25106SOL     OW75341   5.450   5.721   6.109
25106SOL    HW175342   5.523   5.704   6.042
25106SOL    HW275343   5.419   5.634   6.147
25107SOL     OW75344   5.112   7.159   6.063
25107SOL    HW175345   5.179   7.171   5.989
25107SOL    HW275346   5.072   7.248   6.086
25108SOL     OW75347   3.854   7.380   7.437
25108SOL    HW175348   3.813   7.306   7.490
25108SOL    HW275349   3.918   7.431   7.495
25109SOL     OW75350   5.004   6.513   6.258
25109SOL    HW175351   5.064   6.432   6.260
25109SOL    HW275352   5.044   6.582   6.198
25110SOL     OW75353   4.554   6.859   7.008
25110SOL    HW175354   4.549   6.892   7.103
25110SOL    HW275355   4.468   6.878   6.962
25111SOL     OW75356   4.396   7.202   5.740
25111SOL    HW175357   4.405   7.212   5.641
25111SOL    HW275358   4.356   7.113   5.761
25112SOL     OW75359   5.374   7.306   6.980
25112SOL    HW175360   5.427   7.316   6.896
25112SOL    HW275361   5.347   7.396   7.014
25113SOL     OW75362   5.565   5.761   6.549
25113SOL    HW175363   5.604   5.676   6.513
25113SOL    HW275364   5.467   5.763   6.530
25114SOL     OW75365   3.987   5.912   6.306
25114SOL    HW175366   3.908   5.963   6.272
25114SOL    HW275367   3.978   5.897   6.404
25115SOL     OW75368   4.918   7.198   5.617
25115SOL    HW175369   4.924   7.105   5.654
25115SOL    HW275370   4.859   7.198   5.537
25116SOL     OW75371   4.546   6.588   6.958
25116SOL    HW175372   4.586   6.587   6.866
25116SOL    HW275373   4.556   6.680   6.998
25117SOL     OW75374   4.640   6.496   5.877
25117SOL    HW175375   4.703   6.534   5.809
25117SOL    HW275376   4.680   6.413   5.916
25118SOL     OW75377   5.228   7.193   5.630
25118SOL    HW175378   5.136   7.230   5.637
25118SOL    HW275379   5.266   7.213   5.540
25119SOL     OW75380   4.096   6.874   7.076
25119SOL    HW175381   4.083   6.967   7.042
25119SOL    HW275382   4.012   6.822   7.063
25120SOL     OW75383   5.338   6.878   6.875
25120SOL    HW175384   5.398   6.881   6.955
25120SOL    HW275385   5.263   6.942   6.888
25121SOL     OW75386   4.763   6.684   6.282
25121SOL    HW175387   4.693   6.637   6.336
25121SOL    HW275388   4.822   6.616   6.239
25122SOL     OW75389   4.738   5.822   6.557
25122SOL    HW175390   4.730   5.786   6.464
25122SOL    HW275391   4.736   5.746   6.622
25123SOL     OW75392   4.314   7.073   6.077
25123SOL    HW175393   4.356   7.015   6.007
25123SOL    HW275394   4.270   7.152   6.033
25124SOL     OW75395   5.433   5.971   6.967
25124SOL    HW175396   5.506   6.040   6.971
25124SOL    HW275397   5.461   5.896   6.908
25125SOL     OW75398   3.979   6.934   5.876
25125SOL    HW175399   3.883   6.935   5.849
25125SOL    HW275400   3.991   6.987   5.960
25126SOL     OW75401   3.829   6.599   7.312
25126SOL    HW175402   3.752   6.566   7.366
25126SOL    HW275403   3.914   6.569   7.354
25127SOL     OW75404   4.396   5.789   7.075
25127SOL    HW175405   4.486   5.773   7.035
25127SOL    HW275406   4.404   5.794   7.174
25128SOL     OW75407   3.799   5.931   5.619
25128SOL    HW175408   3.707   5.903   5.590
25128SOL    HW275409   3.830   6.008   5.563
25129SOL     OW75410   5.164   6.442   6.984
25129SOL    HW175411   5.107   6.494   6.921
25129SOL    HW275412   5.260   6.454   6.960
25130SOL     OW75413   3.796   5.752   5.904
25130SOL    HW175414   3.779   5.835   5.850
25130SOL    HW275415   3.886   5.715   5.882
25131SOL     OW75416   4.907   6.921   5.705
25131SOL    HW175417   4.808   6.910   5.707
25131SOL    HW275418   4.941   6.936   5.798
25132SOL     OW75419   4.337   6.428   7.017
25132SOL    HW175420   4.393   6.509   7.000
25132SOL    HW275421   4.396   6.348   7.020
25133SOL     OW75422   5.217   7.353   6.545
25133SOL    HW175423   5.250   7.417   6.476
25133SOL    HW275424   5.283   7.347   6.620
25134SOL     OW75425   4.440   6.151   7.294
25134SOL    HW175426   4.459   6.216   7.368
25134SOL    HW275427   4.500   6.071   7.303
25135SOL     OW75428   5.174   6.806   7.219
25135SOL    HW175429   5.165   6.796   7.318
25135SOL    HW275430   5.270   6.799   7.193
25136SOL     OW75431   4.114   7.327   7.146
25136SOL    HW175432   4.023   7.368   7.144
25136SOL    HW275433   4.107   7.233   7.178
25137SOL     OW75434   5.398   6.469   6.840
25137SOL    HW175435   5.371   6.380   6.803
25137SOL    HW275436   5.399   6.537   6.767
25138SOL     OW75437   4.949   5.911   6.035
25138SOL    HW175438   5.014   5.837   6.024
25138SOL    HW275439   4.969   5.961   6.119
25139SOL     OW75440   4.318   6.331   6.238
25139SOL    HW175441   4.368   6.416   6.219
25139SOL    HW275442   4.230   6.333   6.190
25140SOL     OW75443   5.501   5.928   7.228
25140SOL    HW175444   5.484   5.959   7.134
25140SOL    HW275445   5.417   5.891   7.266
25141SOL     OW75446   5.454   6.520   7.103
25141SOL    HW175447   5.492   6.611   7.118
25141SOL    HW275448   5.446   6.503   7.004
25142SOL     OW75449   4.583   6.960   5.602
25142SOL    HW175450   4.537   6.975   5.690
25142SOL    HW275451   4.627   7.045   5.572
25143SOL     OW75452   4.385   7.376   6.539
25143SOL    HW175453   4.339   7.464   6.526
25143SOL    HW275454   4.484   7.388   6.532
25144SOL     OW75455   4.583   6.542   6.447
25144SOL    HW175456   4.637   6.473   6.495
25144SOL    HW275457   4.551   6.611   6.513
25145SOL     OW75458   4.807   6.570   5.673
25145SOL    HW175459   4.784   6.623   5.591
25145SOL    HW275460   4.888   6.514   5.654
25146SOL     OW75461   5.585   7.155   6.437
25146SOL    HW175462   5.514   7.143   6.367
25146SOL    HW275463   5.586   7.076   6.497
25147SOL     OW75464   3.945   6.900   7.430
25147SOL    HW175465   3.880   6.827   7.409
25147SOL    HW275466   3.949   6.914   7.528
25148SOL     OW75467   3.803   6.826   6.239
25148SOL    HW175468   3.802   6.779   6.327
25148SOL    HW275469   3.885   6.798   6.188
25149SOL     OW75470   4.396   6.977   7.210
25149SOL    HW175471   4.318   6.927   7.248
25149SOL    HW275472   4.393   7.072   7.241
25150SOL     OW75473   5.548   5.778   6.813
25150SOL    HW175474   5.544   5.688   6.857
25150SOL    HW275475   5.551   5.767   6.714
25151SOL     OW75476   4.152   6.010   6.106
25151SOL    HW175477   4.182   5.938   6.044
25151SOL    HW275478   4.113   5.970   6.189
25152SOL     OW75479   5.429   7.073   6.690
25152SOL    HW175480   5.336   7.048   6.663
25152SOL    HW275481   5.455   7.023   6.772
25153SOL     OW75482   4.041   6.133   6.866
25153SOL    HW175483   4.079   6.074   6.938
25153SOL    HW275484   4.081   6.107   6.778
25154SOL     OW75485   4.536   7.172   6.273
25154SOL    HW175486   4.568   7.182   6.179
25154SOL    HW275487   4.457   7.110   6.275
25155SOL     OW75488   5.148   5.800   6.698
25155SOL    HW175489   5.200   5.735   6.753
25155SOL    HW275490   5.099   5.863   6.759
25156SOL     OW75491   4.725   5.620   6.740
25156SOL    HW175492   4.662   5.548   6.709
25156SOL    HW275493   4.818   5.584   6.740
25157SOL     OW75494   4.494   6.916   5.887
25157SOL    HW175495   4.448   6.829   5.904
25157SOL    HW275496   4.585   6.913   5.928
25158SOL     OW75497   4.342   7.153   6.870
25158SOL    HW175498   4.337   7.235   6.927
25158SOL    HW275499   4.431   7.150   6.825
25159SOL     OW75500   5.076   5.638   5.754
25159SOL    HW175501   5.111   5.597   5.670
25159SOL    HW275502   4.986   5.600   5.774
25160SOL     OW75503   5.024   6.039   6.277
25160SOL    HW175504   4.965   6.119   6.281
25160SOL    HW275505   5.039   6.004   6.370
25161SOL     OW75506   5.317   5.807   6.468
25161SOL    HW175507   5.233   5.806   6.522
25161SOL    HW275508   5.319   5.890   6.412
25162SOL     OW75509   3.763   6.663   5.886
25162SOL    HW175510   3.862   6.652   5.877
25162SOL    HW275511   3.723   6.577   5.918
25163SOL     OW75512   4.599   7.232   5.923
25163SOL    HW175513   4.522   7.197   5.869
25163SOL    HW275514   4.567   7.303   5.985
25164SOL     OW75515   3.954   6.214   7.561
25164SOL    HW175516   3.861   6.212   7.598
25164SOL    HW275517   3.955   6.175   7.469
25165SOL     OW75518   3.949   5.861   8.444
25165SOL    HW175519   3.984   5.844   8.536
25165SOL    HW275520   3.861   5.816   8.432
25166SOL     OW75521   3.743   5.954   8.095
25166SOL    HW175522   3.661   5.997   8.134
25166SOL    HW275523   3.715   5.881   8.032
25167SOL     OW75524   4.293   6.861   8.613
25167SOL    HW175525   4.200   6.854   8.576
25167SOL    HW275526   4.304   6.950   8.657
25168SOL     OW75527   5.279   7.097   8.151
25168SOL    HW175528   5.222   7.081   8.232
25168SOL    HW275529   5.220   7.107   8.071
25169SOL     OW75530   4.859   6.289   8.165
25169SOL    HW175531   4.916   6.367   8.140
25169SOL    HW275532   4.799   6.315   8.241
25170SOL     OW75533   5.479   6.193   7.679
25170SOL    HW175534   5.467   6.180   7.580
25170SOL    HW275535   5.449   6.112   7.728
25171SOL     OW75536   4.492   6.730   8.471
25171SOL    HW175537   4.414   6.747   8.531
25171SOL    HW275538   4.526   6.817   8.435
25172SOL     OW75539   4.574   6.384   9.271
25172SOL    HW175540   4.570   6.460   9.336
25172SOL    HW275541   4.596   6.420   9.180
25173SOL     OW75542   4.409   6.598   8.113
25173SOL    HW175543   4.478   6.582   8.183
25173SOL    HW275544   4.336   6.655   8.151
25174SOL     OW75545   4.410   6.747   9.251
25174SOL    HW175546   4.470   6.826   9.265
25174SOL    HW275547   4.324   6.778   9.210
25175SOL     OW75548   4.059   7.021   8.509
25175SOL    HW175549   3.981   6.990   8.456
25175SOL    HW275550   4.117   7.079   8.452
25176SOL     OW75551   5.184   7.091   8.787
25176SOL    HW175552   5.208   7.185   8.813
25176SOL    HW275553   5.168   7.037   8.869
25177SOL     OW75554   4.162   5.978   8.947
25177SOL    HW175555   4.244   5.922   8.956
25177SOL    HW275556   4.081   5.920   8.951
25178SOL     OW75557   5.327   6.033   8.185
25178SOL    HW175558   5.253   6.079   8.135
25178SOL    HW275559   5.378   6.101   8.238
25179SOL     OW75560   3.955   7.299   7.931
25179SOL    HW175561   3.989   7.376   7.985
25179SOL    HW275562   3.999   7.299   7.841
25180SOL     OW75563   4.851   6.927   9.138
25180SOL    HW175564   4.898   6.927   9.226
25180SOL    HW275565   4.803   6.840   9.127
25181SOL     OW75566   3.954   7.020   7.986
25181SOL    HW175567   3.928   7.116   7.986
25181SOL    HW275568   3.883   6.966   8.031
25182SOL     OW75569   3.964   6.677   8.334
25182SOL    HW175570   3.978   6.593   8.386
25182SOL    HW275571   3.909   6.741   8.389
25183SOL     OW75572   4.344   7.372   8.887
25183SOL    HW175573   4.252   7.355   8.922
25183SOL    HW275574   4.372   7.464   8.913
25184SOL     OW75575   4.330   6.550   7.571
25184SOL    HW175576   4.337   6.634   7.517
25184SOL    HW275577   4.376   6.563   7.659
25185SOL     OW75578   5.318   5.700   8.928
25185SOL    HW175579   5.300   5.767   8.856
25185SOL    HW275580   5.315   5.746   9.017
25186SOL     OW75581   3.846   6.229   8.011
25186SOL    HW175582   3.801   6.141   8.028
25186SOL    HW275583   3.845   6.283   8.095
25187SOL     OW75584   5.566   7.353   7.807
25187SOL    HW175585   5.620   7.324   7.887
25187SOL    HW275586   5.596   7.443   7.778
25188SOL     OW75587   3.751   7.182   7.565
25188SOL    HW175588   3.732   7.086   7.586
25188SOL    HW275589   3.718   7.240   7.640
25189SOL     OW75590   5.413   6.508   8.060
25189SOL    HW175591   5.508   6.479   8.068
25189SOL    HW275592   5.405   6.573   7.985
25190SOL     OW75593   5.365   6.694   7.880
25190SOL    HW175594   5.451   6.696   7.828
25190SOL    HW275595   5.379   6.741   7.968
25191SOL     OW75596   3.837   6.323   9.045
25191SOL    HW175597   3.925   6.310   9.090
25191SOL    HW275598   3.824   6.420   9.023
25192SOL     OW75599   4.337   6.951   8.174
25192SOL    HW175600   4.288   6.864   8.183
25192SOL    HW275601   4.314   6.994   8.087
25193SOL     OW75602   5.017   6.814   8.871
25193SOL    HW175603   5.054   6.741   8.813
25193SOL    HW275604   5.069   6.819   8.956
25194SOL     OW75605   4.533   5.590   7.950
25194SOL    HW175606   4.573   5.681   7.941
25194SOL    HW275607   4.433   5.598   7.956
25195SOL     OW75608   3.921   6.562   8.712
25195SOL    HW175609   4.010   6.517   8.698
25195SOL    HW275610   3.848   6.497   8.693
25196SOL     OW75611   5.249   6.585   7.638
25196SOL    HW175612   5.186   6.509   7.651
25196SOL    HW275613   5.297   6.603   7.724
25197SOL     OW75614   4.911   7.378   9.064
25197SOL    HW175615   4.935   7.438   8.988
25197SOL    HW275616   4.918   7.283   9.034
25198SOL     OW75617   4.041   5.837   9.249
25198SOL    HW175618   4.112   5.908   9.255
25198SOL    HW275619   3.953   5.876   9.277
25199SOL     OW75620   5.190   7.003   8.401
25199SOL    HW175621   5.131   7.009   8.481
25199SOL    HW275622   5.175   6.915   8.355
25200SOL     OW75623   5.391   7.300   8.020
25200SOL    HW175624   5.350   7.277   7.932
25200SOL    HW275625   5.373   7.226   8.085
25201SOL     OW75626   4.322   6.315   7.718
25201SOL    HW175627   4.346   6.384   7.650
25201SOL    HW275628   4.244   6.348   7.772
25202SOL     OW75629   5.005   5.931   8.392
25202SOL    HW175630   4.919   5.881   8.379
25202SOL    HW275631   5.067   5.877   8.448
25203SOL     OW75632   5.300   7.248   7.755
25203SOL    HW175633   5.389   7.294   7.758
25203SOL    HW275634   5.279   7.224   7.660
25204SOL     OW75635   4.531   6.191   8.913
25204SOL    HW175636   4.484   6.188   9.002
25204SOL    HW275637   4.480   6.136   8.847
25205SOL     OW75638   5.118   6.055   9.122
25205SOL    HW175639   5.098   6.098   9.210
25205SOL    HW275640   5.196   5.993   9.131
25206SOL     OW75641   4.697   6.476   9.020
25206SOL    HW175642   4.743   6.392   8.991
25206SOL    HW275643   4.641   6.510   8.945
25207SOL     OW75644   4.715   5.996   8.690
25207SOL    HW175645   4.638   6.030   8.744
25207SOL    HW275646   4.681   5.945   8.611
25208SOL     OW75647   4.765   6.287   7.877
25208SOL    HW175648   4.791   6.283   7.973
25208SOL    HW275649   4.680   6.236   7.863
25209SOL     OW75650   3.800   6.397   8.237
25209SOL    HW175651   3.899   6.385   8.246
25209SOL    HW275652   3.776   6.492   8.258
25210SOL     OW75653   3.854   7.407   9.019
25210SOL    HW175654   3.844   7.392   9.118
25210SOL    HW275655   3.768   7.443   8.983
25211SOL     OW75656   4.589   5.934   7.643
25211SOL    HW175657   4.648   5.997   7.594
25211SOL    HW275658   4.608   5.840   7.614
25212SOL     OW75659   5.443   6.171   9.279
25212SOL    HW175660   5.417   6.260   9.243
25212SOL    HW275661   5.441   6.103   9.206
25213SOL     OW75662   5.086   6.730   7.993
25213SOL    HW175663   5.169   6.701   7.945
25213SOL    HW275664   5.037   6.797   7.937
25214SOL     OW75665   4.274   5.782   8.333
25214SOL    HW175666   4.269   5.777   8.433
25214SOL    HW275667   4.276   5.878   8.304
25215SOL     OW75668   4.732   7.042   7.925
25215SOL    HW175669   4.686   7.114   7.873
25215SOL    HW275670   4.728   7.062   8.023
25216SOL     OW75671   4.075   7.387   8.301
25216SOL    HW175672   4.125   7.301   8.307
25216SOL    HW275673   4.140   7.464   8.298
25217SOL     OW75674   5.519   6.652   8.321
25217SOL    HW175675   5.457   6.637   8.245
25217SOL    HW275676   5.467   6.663   8.406
25218SOL     OW75677   4.951   7.136   8.954
25218SOL    HW175678   4.957   7.059   9.018
25218SOL    HW275679   4.899   7.110   8.874
25219SOL     OW75680   4.045   6.529   7.690
25219SOL    HW175681   4.127   6.568   7.648
25219SOL    HW275682   4.018   6.447   7.641
25220SOL     OW75683   5.182   6.321   8.176
25220SOL    HW175684   5.177   6.256   8.251
25220SOL    HW275685   5.262   6.380   8.189
25221SOL     OW75686   4.185   6.852   9.175
25221SOL    HW175687   4.135   6.853   9.089
25221SOL    HW275688   4.122   6.834   9.251
25222SOL     OW75689   4.835   7.362   7.685
25222SOL    HW175690   4.775   7.300   7.735
25222SOL    HW275691   4.866   7.318   7.600
25223SOL     OW75692   3.926   5.871   8.946
25223SOL    HW175693   3.846   5.931   8.933
25223SOL    HW275694   3.916   5.822   9.032
25224SOL     OW75695   5.356   6.963   7.529
25224SOL    HW175696   5.324   7.057   7.519
25224SOL    HW275697   5.280   6.900   7.517
25225SOL     OW75698   4.188   7.329   7.771
25225SOL    HW175699   4.221   7.368   7.857
25225SOL    HW275700   4.264   7.322   7.706
25226SOL     OW75701   5.124   5.693   7.874
25226SOL    HW175702   5.100   5.656   7.784
25226SOL    HW275703   5.223   5.709   7.878
25227SOL     OW75704   3.973   7.371   8.689
25227SOL    HW175705   4.030   7.306   8.739
25227SOL    HW275706   3.957   7.338   8.596
25228SOL     OW75707   4.664   7.284   8.352
25228SOL    HW175708   4.744   7.227   8.373
25228SOL    HW275709   4.615   7.244   8.275
25229SOL     OW75710   4.106   6.286   7.928
25229SOL    HW175711   4.151   6.196   7.925
25229SOL    HW275712   4.012   6.275   7.961
25230SOL     OW75713   5.271   5.808   9.177
25230SOL    HW175714   5.266   5.845   9.269
25230SOL    HW275715   5.199   5.739   9.165
25231SOL     OW75716   4.338   5.708   7.565
25231SOL    HW175717   4.436   5.686   7.572
25231SOL    HW275718   4.307   5.691   7.472
25232SOL     OW75719   4.505   5.850   9.197
25232SOL    HW175720   4.572   5.789   9.240
25232SOL    HW275721   4.432   5.869   9.262
25233SOL     OW75722   4.612   7.100   8.643
25233SOL    HW175723   4.589   7.075   8.549
25233SOL    HW275724   4.673   7.031   8.682
25234SOL     OW75725   5.075   6.176   8.881
25234SOL    HW175726   5.103   6.133   8.966
25234SOL    HW275727   5.100   6.272   8.882
25235SOL     OW75728   4.527   6.988   8.372
25235SOL    HW175729   4.617   7.002   8.330
25235SOL    HW275730   4.456   6.990   8.301
25236SOL     OW75731   4.646   6.089   8.347
25236SOL    HW175732   4.621   6.080   8.251
25236SOL    HW275733   4.694   6.007   8.378
25237SOL     OW75734   4.263   5.650   7.960
25237SOL    HW175735   4.182   5.651   8.018
25237SOL    HW275736   4.266   5.733   7.905
25238SOL     OW75737   5.158   6.774   7.489
25238SOL    HW175738   5.190   6.698   7.546
25238SOL    HW275739   5.066   6.801   7.519
25239SOL     OW75740   4.021   5.621   7.619
25239SOL    HW175741   4.070   5.705   7.598
25239SOL    HW275742   4.083   5.556   7.664
25240SOL     OW75743   4.659   5.822   7.928
25240SOL    HW175744   4.611   5.863   7.850
25240SOL    HW275745   4.758   5.820   7.909
25241SOL     OW75746   4.800   6.269   8.912
25241SOL    HW175747   4.720   6.208   8.915
25241SOL    HW275748   4.881   6.216   8.888
25242SOL     OW75749   4.951   7.156   8.241
25242SOL    HW175750   4.972   7.230   8.176
25242SOL    HW275751   5.019   7.156   8.314
25243SOL     OW75752   4.183   6.738   8.189
25243SOL    HW175753   4.112   6.711   8.254
25243SOL    HW275754   4.157   6.710   8.096
25244SOL     OW75755   4.995   7.383   8.039
25244SOL    HW175756   5.039   7.447   7.975
25244SOL    HW275757   4.945   7.435   8.109
25245SOL     OW75758   4.756   6.135   7.464
25245SOL    HW175759   4.715   6.217   7.425
25245SOL    HW275760   4.820   6.161   7.537
25246SOL     OW75761   3.802   6.142   8.834
25246SOL    HW175762   3.894   6.141   8.793
25246SOL    HW275763   3.796   6.216   8.901
25247SOL     OW75764   4.285   5.808   8.595
25247SOL    HW175765   4.323   5.724   8.632
25247SOL    HW275766   4.197   5.827   8.639
25248SOL     OW75767   4.590   6.040   8.090
25248SOL    HW175768   4.558   6.112   8.028
25248SOL    HW275769   4.614   5.959   8.037
25249SOL     OW75770   4.741   5.625   8.201
25249SOL    HW175771   4.669   5.630   8.132
25249SOL    HW275772   4.717   5.556   8.270
25250SOL     OW75773   5.153   6.759   8.315
25250SOL    HW175774   5.098   6.675   8.308
25250SOL    HW275775   5.179   6.788   8.223
25251SOL     OW75776   5.190   6.176   8.440
25251SOL    HW175777   5.160   6.081   8.447
25251SOL    HW275778   5.263   6.192   8.506
25252SOL     OW75779   5.581   6.419   7.825
25252SOL    HW175780   5.623   6.355   7.889
25252SOL    HW275781   5.543   6.368   7.747
25253SOL     OW75782   4.212   6.971   7.622
25253SOL    HW175783   4.125   6.956   7.669
25253SOL    HW275784   4.195   6.997   7.527
25254SOL     OW75785   5.388   6.866   8.105
25254SOL    HW175786   5.487   6.874   8.119
25254SOL    HW275787   5.343   6.950   8.136
25255SOL     OW75788   5.114   6.161   7.526
25255SOL    HW175789   5.060   6.140   7.607
25255SOL    HW275790   5.205   6.120   7.535
25256SOL     OW75791   4.251   5.842   7.776
25256SOL    HW175792   4.278   5.783   7.701
25256SOL    HW275793   4.251   5.937   7.745
25257SOL     OW75794   5.478   6.809   9.036
25257SOL    HW175795   5.569   6.770   9.023
25257SOL    HW275796   5.486   6.905   9.060
25258SOL     OW75797   4.788   6.933   8.788
25258SOL    HW175798   4.708   6.910   8.843
25258SOL    HW275799   4.871   6.907   8.837
25259SOL     OW75800   5.316   7.215   9.073
25259SOL    HW175801   5.343   7.249   8.983
25259SOL    HW275802   5.395   7.177   9.119
25260SOL     OW75803   4.835   6.781   8.548
25260SOL    HW175804   4.795   6.825   8.629
25260SOL    HW275805   4.794   6.818   8.465
25261SOL     OW75806   5.362   6.685   8.527
25261SOL    HW175807   5.367   6.766   8.586
25261SOL    HW275808   5.276   6.687   8.476
25262SOL     OW75809   4.639   5.675   8.850
25262SOL    HW175810   4.664   5.655   8.755
25262SOL    HW275811   4.711   5.731   8.892
25263SOL     OW75812   4.704   6.702   9.167
25263SOL    HW175813   4.605   6.708   9.177
25263SOL    HW275814   4.727   6.622   9.111
25264SOL     OW75815   4.429   6.636   7.816
25264SOL    HW175816   4.415   6.643   7.915
25264SOL    HW275817   4.513   6.585   7.798
25265SOL     OW75818   4.134   6.399   8.699
25265SOL    HW175819   4.220   6.411   8.749
25265SOL    HW275820   4.092   6.312   8.726
25266SOL     OW75821   4.998   5.972   8.710
25266SOL    HW175822   5.019   6.046   8.774
25266SOL    HW275823   4.909   5.989   8.667
25267SOL     OW75824   3.788   7.150   8.779
25267SOL    HW175825   3.742   7.232   8.745
25267SOL    HW275826   3.886   7.169   8.788
25268SOL     OW75827   4.091   6.686   7.949
25268SOL    HW175828   4.084   6.769   7.893
25268SOL    HW275829   4.095   6.606   7.889
25269SOL     OW75830   4.290   6.123   8.313
25269SOL    HW175831   4.302   6.189   8.239
25269SOL    HW275832   4.336   6.157   8.396
25270SOL     OW75833   4.976   6.934   7.836
25270SOL    HW175834   5.026   7.011   7.876
25270SOL    HW275835   4.881   6.936   7.868
25271SOL     OW75836   4.996   7.031   8.590
25271SOL    HW175837   5.043   7.044   8.677
25271SOL    HW275838   4.930   6.957   8.599
25272SOL     OW75839   5.306   6.225   7.920
25272SOL    HW175840   5.275   6.286   7.993
25272SOL    HW275841   5.356   6.277   7.851
25273SOL     OW75842   4.078   7.096   8.777
25273SOL    HW175843   4.057   7.052   8.690
25273SOL    HW275844   4.175   7.122   8.780
25274SOL     OW75845   4.126   6.337   9.046
25274SOL    HW175846   4.194   6.392   8.999
25274SOL    HW275847   4.166   6.249   9.073
25275SOL     OW75848   5.311   6.365   9.118
25275SOL    HW175849   5.219   6.403   9.113
25275SOL    HW275850   5.371   6.412   9.053
25276SOL     OW75851   4.737   5.691   9.218
25276SOL    HW175852   4.743   5.776   9.166
25276SOL    HW275853   4.769   5.615   9.161
25277SOL     OW75854   4.228   5.636   9.188
25277SOL    HW175855   4.186   5.579   9.118
25277SOL    HW275856   4.162   5.705   9.220
25278SOL     OW75857   4.297   6.456   8.477
25278SOL    HW175858   4.341   6.545   8.468
25278SOL    HW275859   4.234   6.456   8.554
25279SOL     OW75860   5.084   6.448   8.493
25279SOL    HW175861   5.009   6.448   8.427
25279SOL    HW275862   5.121   6.356   8.502
25280SOL     OW75863   4.933   6.111   7.723
25280SOL    HW175864   4.946   6.027   7.777
25280SOL    HW275865   4.904   6.185   7.783
25281SOL     OW75866   4.031   5.799   8.679
25281SOL    HW175867   4.008   5.836   8.769
25281SOL    HW275868   4.001   5.704   8.673
25282SOL     OW75869   3.761   6.896   8.730
25282SOL    HW175870   3.814   6.847   8.798
25282SOL    HW275871   3.783   6.994   8.735
25283SOL     OW75872   4.456   6.220   8.512
25283SOL    HW175873   4.515   6.194   8.436
25283SOL    HW275874   4.428   6.316   8.501
25284SOL     OW75875   5.452   6.521   9.302
25284SOL    HW175876   5.406   6.514   9.213
25284SOL    HW275877   5.390   6.565   9.368
25285SOL     OW75878   4.031   5.649   8.066
25285SOL    HW175879   4.020   5.743   8.099
25285SOL    HW275880   4.026   5.586   8.143
25286SOL     OW75881   5.346   5.953   7.822
25286SOL    HW175882   5.348   5.877   7.886
25286SOL    HW275883   5.298   6.030   7.862
25287SOL     OW75884   4.747   6.352   8.414
25287SOL    HW175885   4.762   6.373   8.510
25287SOL    HW275886   4.717   6.257   8.405
25288SOL     OW75887   4.704   7.159   9.148
25288SOL    HW175888   4.684   7.203   9.060
25288SOL    HW275889   4.743   7.068   9.132
25289SOL     OW75890   5.583   7.104   9.053
25289SOL    HW175891   5.597   7.131   8.958
25289SOL    HW275892   5.666   7.126   9.106
25290SOL     OW75893   4.074   6.484   9.252
25290SOL    HW175894   4.150   6.528   9.300
25290SOL    HW275895   4.109   6.437   9.170
25291SOL     OW75896   5.264   5.860   7.573
25291SOL    HW175897   5.203   5.785   7.596
25291SOL    HW275898   5.286   5.912   7.656
25292SOL     OW75899   5.027   6.424   7.490
25292SOL    HW175900   5.061   6.331   7.505
25292SOL    HW275901   5.045   6.451   7.395
25293SOL     OW75902   4.792   6.919   8.297
25293SOL    HW175903   4.799   6.835   8.242
25293SOL    HW275904   4.854   6.988   8.261
25294SOL     OW75905   4.043   6.396   8.397
25294SOL    HW175906   4.136   6.432   8.402
25294SOL    HW275907   4.037   6.311   8.449
25295SOL     OW75908   4.063   6.095   8.454
25295SOL    HW175909   4.011   6.012   8.437
25295SOL    HW275910   4.140   6.100   8.390
25296SOL     OW75911   4.862   5.966   9.126
25296SOL    HW175912   4.817   6.029   9.190
25296SOL    HW275913   4.955   5.997   9.109
25297SOL     OW75914   4.884   5.793   8.925
25297SOL    HW175915   4.884   5.857   9.002
25297SOL    HW275916   4.912   5.841   8.842
25298SOL     OW75917   3.732   6.912   7.648
25298SOL    HW175918   3.639   6.933   7.617
25298SOL    HW275919   3.742   6.813   7.661
25299SOL     OW75920   3.812   7.387   8.375
25299SOL    HW175921   3.770   7.301   8.348
25299SOL    HW275922   3.906   7.390   8.341
25300SOL     OW75923   4.228   7.154   8.358
25300SOL    HW175924   4.294   7.228   8.367
25300SOL    HW275925   4.272   7.075   8.316
25301SOL     OW75926   4.726   6.382   8.686
25301SOL    HW175927   4.767   6.350   8.772
25301SOL    HW275928   4.630   6.355   8.683
25302SOL     OW75929   3.764   6.130   8.562
25302SOL    HW175930   3.849   6.097   8.521
25302SOL    HW275931   3.777   6.145   8.660
25303SOL     OW75932   3.913   6.106   9.170
25303SOL    HW175933   3.972   6.066   9.100
25303SOL    HW275934   3.855   6.177   9.129
25304SOL     OW75935   5.093   6.536   9.108
25304SOL    HW175936   5.132   6.625   9.128
25304SOL    HW275937   5.103   6.516   9.011
25305SOL     OW75938   4.539   6.158   7.773
25305SOL    HW175939   4.546   6.069   7.727
25305SOL    HW275940   4.445   6.192   7.765
25306SOL     OW75941   5.381   6.190   8.654
25306SOL    HW175942   5.343   6.121   8.716
25306SOL    HW275943   5.463   6.154   8.610
25307SOL     OW75944   3.976   7.150   9.192
25307SOL    HW175945   3.946   7.207   9.268
25307SOL    HW275946   3.969   7.053   9.218
25308SOL     OW75947   4.395   6.050   8.717
25308SOL    HW175948   4.361   5.961   8.687
25308SOL    HW275949   4.421   6.104   8.637
25309SOL     OW75950   4.654   7.264   8.913
25309SOL    HW175951   4.630   7.246   8.818
25309SOL    HW275952   4.684   7.358   8.923
25310SOL     OW75953   4.197   6.086   7.639
25310SOL    HW175954   4.258   6.166   7.643
25310SOL    HW275955   4.102   6.117   7.646
25311SOL     OW75956   3.883   6.723   8.914
25311SOL    HW175957   3.905   6.662   8.990
25311SOL    HW275958   3.893   6.674   8.828
25312SOL     OW75959   5.071   6.645   8.682
25312SOL    HW175960   5.095   6.582   8.608
25312SOL    HW275961   4.981   6.685   8.664
25313SOL     OW75962   5.026   6.441   7.757
25313SOL    HW175963   4.940   6.410   7.799
25313SOL    HW275964   5.022   6.427   7.658
25314SOL     OW75965   5.483   7.333   8.602
25314SOL    HW175966   5.544   7.363   8.529
25314SOL    HW275967   5.445   7.244   8.580
25315SOL     OW75968   4.976   7.317   8.576
25315SOL    HW175969   5.060   7.322   8.522
25315SOL    HW275970   4.953   7.221   8.594
25316SOL     OW75971   3.807   6.844   8.470
25316SOL    HW175972   3.802   6.843   8.570
25316SOL    HW275973   3.724   6.803   8.432
25317SOL     OW75974   4.412   7.248   9.164
25317SOL    HW175975   4.356   7.329   9.173
25317SOL    HW275976   4.464   7.252   9.078
25318SOL     OW75977   5.450   5.721   7.971
25318SOL    HW175978   5.523   5.704   7.904
25318SOL    HW275979   5.419   5.634   8.009
25319SOL     OW75980   5.112   7.159   7.925
25319SOL    HW175981   5.179   7.171   7.851
25319SOL    HW275982   5.072   7.248   7.948
25320SOL     OW75983   3.854   7.380   9.299
25320SOL    HW175984   3.813   7.306   9.352
25320SOL    HW275985   3.918   7.431   9.357
25321SOL     OW75986   5.004   6.513   8.120
25321SOL    HW175987   5.064   6.432   8.122
25321SOL    HW275988   5.044   6.582   8.060
25322SOL     OW75989   4.554   6.859   8.870
25322SOL    HW175990   4.549   6.892   8.965
25322SOL    HW275991   4.468   6.878   8.824
25323SOL     OW75992   4.396   7.202   7.602
25323SOL    HW175993   4.405   7.212   7.503
25323SOL    HW275994   4.356   7.113   7.623
25324SOL     OW75995   5.374   7.306   8.842
25324SOL    HW175996   5.427   7.316   8.758
25324SOL    HW275997   5.347   7.396   8.876
25325SOL     OW75998   5.565   5.761   8.411
25325SOL    HW175999   5.604   5.676   8.375
25325SOL    HW276000   5.467   5.763   8.392
25326SOL     OW76001   3.987   5.912   8.168
25326SOL    HW176002   3.908   5.963   8.134
25326SOL    HW276003   3.978   5.897   8.266
25327SOL     OW76004   4.918   7.198   7.479
25327SOL    HW176005   4.924   7.105   7.516
25327SOL    HW276006   4.859   7.198   7.399
25328SOL     OW76007   4.546   6.588   8.820
25328SOL    HW176008   4.586   6.587   8.728
25328SOL    HW276009   4.556   6.680   8.860
25329SOL     OW76010   4.640   6.496   7.739
25329SOL    HW176011   4.703   6.534   7.671
25329SOL    HW276012   4.680   6.413   7.778
25330SOL     OW76013   5.228   7.193   7.492
25330SOL    HW176014   5.136   7.230   7.499
25330SOL    HW276015   5.266   7.213   7.402
25331SOL     OW76016   4.096   6.874   8.938
25331SOL    HW176017   4.083   6.967   8.904
25331SOL    HW276018   4.012   6.822   8.925
25332SOL     OW76019   5.338   6.878   8.737
25332SOL    HW176020   5.398   6.881   8.817
25332SOL    HW276021   5.263   6.942   8.750
25333SOL     OW76022   4.763   6.684   8.144
25333SOL    HW176023   4.693   6.637   8.198
25333SOL    HW276024   4.822   6.616   8.101
25334SOL     OW76025   4.738   5.822   8.419
25334SOL    HW176026   4.730   5.786   8.326
25334SOL    HW276027   4.736   5.746   8.484
25335SOL     OW76028   4.314   7.073   7.939
25335SOL    HW176029   4.356   7.015   7.869
25335SOL    HW276030   4.270   7.152   7.895
25336SOL     OW76031   5.433   5.971   8.829
25336SOL    HW176032   5.506   6.040   8.833
25336SOL    HW276033   5.461   5.896   8.770
25337SOL     OW76034   3.979   6.934   7.738
25337SOL    HW176035   3.883   6.935   7.711
25337SOL    HW276036   3.991   6.987   7.822
25338SOL     OW76037   3.829   6.599   9.174
25338SOL    HW176038   3.752   6.566   9.228
25338SOL    HW276039   3.914   6.569   9.216
25339SOL     OW76040   4.396   5.789   8.937
25339SOL    HW176041   4.486   5.773   8.897
25339SOL    HW276042   4.404   5.794   9.036
25340SOL     OW76043   3.799   5.931   7.481
25340SOL    HW176044   3.707   5.903   7.452
25340SOL    HW276045   3.830   6.008   7.425
25341SOL     OW76046   5.164   6.442   8.846
25341SOL    HW176047   5.107   6.494   8.783
25341SOL    HW276048   5.260   6.454   8.822
25342SOL     OW76049   3.796   5.752   7.766
25342SOL    HW176050   3.779   5.835   7.712
25342SOL    HW276051   3.886   5.715   7.744
25343SOL     OW76052   4.907   6.921   7.567
25343SOL    HW176053   4.808   6.910   7.569
25343SOL    HW276054   4.941   6.936   7.660
25344SOL     OW76055   4.337   6.428   8.879
25344SOL    HW176056   4.393   6.509   8.862
25344SOL    HW276057   4.396   6.348   8.882
25345SOL     OW76058   5.217   7.353   8.407
25345SOL    HW176059   5.250   7.417   8.338
25345SOL    HW276060   5.283   7.347   8.482
25346SOL     OW76061   4.440   6.151   9.156
25346SOL    HW176062   4.459   6.216   9.230
25346SOL    HW276063   4.500   6.071   9.165
25347SOL     OW76064   5.174   6.806   9.081
25347SOL    HW176065   5.165   6.796   9.180
25347SOL    HW276066   5.270   6.799   9.055
25348SOL     OW76067   4.114   7.327   9.008
25348SOL    HW176068   4.023   7.368   9.006
25348SOL    HW276069   4.107   7.233   9.040
25349SOL     OW76070   5.398   6.469   8.702
25349SOL    HW176071   5.371   6.380   8.665
25349SOL    HW276072   5.399   6.537   8.629
25350SOL     OW76073   4.949   5.911   7.897
25350SOL    HW176074   5.014   5.837   7.886
25350SOL    HW276075   4.969   5.961   7.981
25351SOL     OW76076   4.318   6.331   8.100
25351SOL    HW176077   4.368   6.416   8.081
25351SOL    HW276078   4.230   6.333   8.052
25352SOL     OW76079   5.501   5.928   9.090
25352SOL    HW176080   5.484   5.959   8.996
25352SOL    HW276081   5.417   5.891   9.128
25353SOL     OW76082   5.454   6.520   8.965
25353SOL    HW176083   5.492   6.611   8.980
25353SOL    HW276084   5.446   6.503   8.866
25354SOL     OW76085   4.583   6.960   7.464
25354SOL    HW176086   4.537   6.975   7.552
25354SOL    HW276087   4.627   7.045   7.434
25355SOL     OW76088   4.385   7.376   8.401
25355SOL    HW176089   4.339   7.464   8.388
25355SOL    HW276090   4.484   7.388   8.394
25356SOL     OW76091   4.583   6.542   8.309
25356SOL    HW176092   4.637   6.473   8.357
25356SOL    HW276093   4.551   6.611   8.375
25357SOL     OW76094   4.807   6.570   7.535
25357SOL    HW176095   4.784   6.623   7.453
25357SOL    HW276096   4.888   6.514   7.516
25358SOL     OW76097   5.585   7.155   8.299
25358SOL    HW176098   5.514   7.143   8.229
25358SOL    HW276099   5.586   7.076   8.359
25359SOL     OW76100   3.945   6.900   9.292
25359SOL    HW176101   3.880   6.827   9.271
25359SOL    HW276102   3.949   6.914   9.390
25360SOL     OW76103   3.803   6.826   8.101
25360SOL    HW176104   3.802   6.779   8.189
25360SOL    HW276105   3.885   6.798   8.050
25361SOL     OW76106   4.396   6.977   9.072
25361SOL    HW176107   4.318   6.927   9.110
25361SOL    HW276108   4.393   7.072   9.103
25362SOL     OW76109   5.548   5.778   8.675
25362SOL    HW176110   5.544   5.688   8.719
25362SOL    HW276111   5.551   5.767   8.576
25363SOL     OW76112   4.152   6.010   7.968
25363SOL    HW176113   4.182   5.938   7.906
25363SOL    HW276114   4.113   5.970   8.051
25364SOL     OW76115   5.429   7.073   8.552
25364SOL    HW176116   5.336   7.048   8.525
25364SOL    HW276117   5.455   7.023   8.634
25365SOL     OW76118   4.041   6.133   8.728
25365SOL    HW176119   4.079   6.074   8.800
25365SOL    HW276120   4.081   6.107   8.640
25366SOL     OW76121   4.536   7.172   8.135
25366SOL    HW176122   4.568   7.182   8.041
25366SOL    HW276123   4.457   7.110   8.137
25367SOL     OW76124   5.148   5.800   8.560
25367SOL    HW176125   5.200   5.735   8.615
25367SOL    HW276126   5.099   5.863   8.621
25368SOL     OW76127   4.725   5.620   8.602
25368SOL    HW176128   4.662   5.548   8.571
25368SOL    HW276129   4.818   5.584   8.602
25369SOL     OW76130   4.494   6.916   7.749
25369SOL    HW176131   4.448   6.829   7.766
25369SOL    HW276132   4.585   6.913   7.790
25370SOL     OW76133   4.342   7.153   8.732
25370SOL    HW176134   4.337   7.235   8.789
25370SOL    HW276135   4.431   7.150   8.687
25371SOL     OW76136   5.076   5.638   7.616
25371SOL    HW176137   5.111   5.597   7.532
25371SOL    HW276138   4.986   5.600   7.636
25372SOL     OW76139   5.024   6.039   8.139
25372SOL    HW176140   4.965   6.119   8.143
25372SOL    HW276141   5.039   6.004   8.232
25373SOL     OW76142   5.317   5.807   8.330
25373SOL    HW176143   5.233   5.806   8.384
25373SOL    HW276144   5.319   5.890   8.274
25374SOL     OW76145   3.763   6.663   7.748
25374SOL    HW176146   3.862   6.652   7.739
25374SOL    HW276147   3.723   6.577   7.780
25375SOL     OW76148   4.599   7.232   7.785
25375SOL    HW176149   4.522   7.197   7.731
25375SOL    HW276150   4.567   7.303   7.847
25376SOL     OW76151   3.954   6.214   9.423
25376SOL    HW176152   3.861   6.212   9.460
25376SOL    HW276153   3.955   6.175   9.331
25377SOL     OW76154   3.949   5.861  10.306
25377SOL    HW176155   3.984   5.844  10.398
25377SOL    HW276156   3.861   5.816  10.294
25378SOL     OW76157   3.743   5.954   9.957
25378SOL    HW176158   3.661   5.997   9.996
25378SOL    HW276159   3.715   5.881   9.894
25379SOL     OW76160   4.293   6.861  10.475
25379SOL    HW176161   4.200   6.854  10.438
25379SOL    HW276162   4.304   6.950  10.519
25380SOL     OW76163   5.279   7.097  10.013
25380SOL    HW176164   5.222   7.081  10.094
25380SOL    HW276165   5.220   7.107   9.933
25381SOL     OW76166   4.859   6.289  10.027
25381SOL    HW176167   4.916   6.367  10.002
25381SOL    HW276168   4.799   6.315  10.103
25382SOL     OW76169   5.479   6.193   9.541
25382SOL    HW176170   5.467   6.180   9.442
25382SOL    HW276171   5.449   6.112   9.590
25383SOL     OW76172   4.492   6.730  10.333
25383SOL    HW176173   4.414   6.747  10.393
25383SOL    HW276174   4.526   6.817  10.297
25384SOL     OW76175   4.574   6.384  11.133
25384SOL    HW176176   4.570   6.460  11.198
25384SOL    HW276177   4.596   6.420  11.042
25385SOL     OW76178   4.409   6.598   9.975
25385SOL    HW176179   4.478   6.582  10.045
25385SOL    HW276180   4.336   6.655  10.013
25386SOL     OW76181   4.410   6.747  11.113
25386SOL    HW176182   4.470   6.826  11.127
25386SOL    HW276183   4.324   6.778  11.072
25387SOL     OW76184   4.059   7.021  10.371
25387SOL    HW176185   3.981   6.990  10.318
25387SOL    HW276186   4.117   7.079  10.314
25388SOL     OW76187   5.184   7.091  10.649
25388SOL    HW176188   5.208   7.185  10.675
25388SOL    HW276189   5.168   7.037  10.731
25389SOL     OW76190   4.162   5.978  10.809
25389SOL    HW176191   4.244   5.922  10.818
25389SOL    HW276192   4.081   5.920  10.813
25390SOL     OW76193   5.327   6.033  10.047
25390SOL    HW176194   5.253   6.079   9.997
25390SOL    HW276195   5.378   6.101  10.100
25391SOL     OW76196   3.955   7.299   9.793
25391SOL    HW176197   3.989   7.376   9.847
25391SOL    HW276198   3.999   7.299   9.703
25392SOL     OW76199   4.851   6.927  11.000
25392SOL    HW176200   4.898   6.927  11.088
25392SOL    HW276201   4.803   6.840  10.989
25393SOL     OW76202   3.954   7.020   9.848
25393SOL    HW176203   3.928   7.116   9.848
25393SOL    HW276204   3.883   6.966   9.893
25394SOL     OW76205   3.964   6.677  10.196
25394SOL    HW176206   3.978   6.593  10.248
25394SOL    HW276207   3.909   6.741  10.251
25395SOL     OW76208   4.344   7.372  10.749
25395SOL    HW176209   4.252   7.355  10.784
25395SOL    HW276210   4.372   7.464  10.775
25396SOL     OW76211   4.330   6.550   9.433
25396SOL    HW176212   4.337   6.634   9.379
25396SOL    HW276213   4.376   6.563   9.521
25397SOL     OW76214   5.318   5.700  10.790
25397SOL    HW176215   5.300   5.767  10.718
25397SOL    HW276216   5.315   5.746  10.879
25398SOL     OW76217   3.846   6.229   9.873
25398SOL    HW176218   3.801   6.141   9.890
25398SOL    HW276219   3.845   6.283   9.957
25399SOL     OW76220   5.566   7.353   9.669
25399SOL    HW176221   5.620   7.324   9.749
25399SOL    HW276222   5.596   7.443   9.640
25400SOL     OW76223   3.751   7.182   9.427
25400SOL    HW176224   3.732   7.086   9.448
25400SOL    HW276225   3.718   7.240   9.502
25401SOL     OW76226   5.413   6.508   9.922
25401SOL    HW176227   5.508   6.479   9.930
25401SOL    HW276228   5.405   6.573   9.847
25402SOL     OW76229   5.365   6.694   9.742
25402SOL    HW176230   5.451   6.696   9.690
25402SOL    HW276231   5.379   6.741   9.830
25403SOL     OW76232   3.837   6.323  10.907
25403SOL    HW176233   3.925   6.310  10.952
25403SOL    HW276234   3.824   6.420  10.885
25404SOL     OW76235   4.337   6.951  10.036
25404SOL    HW176236   4.288   6.864  10.045
25404SOL    HW276237   4.314   6.994   9.949
25405SOL     OW76238   5.017   6.814  10.733
25405SOL    HW176239   5.054   6.741  10.675
25405SOL    HW276240   5.069   6.819  10.818
25406SOL     OW76241   4.533   5.590   9.812
25406SOL    HW176242   4.573   5.681   9.803
25406SOL    HW276243   4.433   5.598   9.818
25407SOL     OW76244   3.921   6.562  10.574
25407SOL    HW176245   4.010   6.517  10.560
25407SOL    HW276246   3.848   6.497  10.555
25408SOL     OW76247   5.249   6.585   9.500
25408SOL    HW176248   5.186   6.509   9.513
25408SOL    HW276249   5.297   6.603   9.586
25409SOL     OW76250   4.911   7.378  10.926
25409SOL    HW176251   4.935   7.438  10.850
25409SOL    HW276252   4.918   7.283  10.896
25410SOL     OW76253   4.041   5.837  11.111
25410SOL    HW176254   4.112   5.908  11.117
25410SOL    HW276255   3.953   5.876  11.139
25411SOL     OW76256   5.190   7.003  10.263
25411SOL    HW176257   5.131   7.009  10.343
25411SOL    HW276258   5.175   6.915  10.217
25412SOL     OW76259   5.391   7.300   9.882
25412SOL    HW176260   5.350   7.277   9.794
25412SOL    HW276261   5.373   7.226   9.947
25413SOL     OW76262   4.322   6.315   9.580
25413SOL    HW176263   4.346   6.384   9.512
25413SOL    HW276264   4.244   6.348   9.634
25414SOL     OW76265   5.005   5.931  10.254
25414SOL    HW176266   4.919   5.881  10.241
25414SOL    HW276267   5.067   5.877  10.310
25415SOL     OW76268   5.300   7.248   9.617
25415SOL    HW176269   5.389   7.294   9.620
25415SOL    HW276270   5.279   7.224   9.522
25416SOL     OW76271   4.531   6.191  10.775
25416SOL    HW176272   4.484   6.188  10.864
25416SOL    HW276273   4.480   6.136  10.709
25417SOL     OW76274   5.118   6.055  10.984
25417SOL    HW176275   5.098   6.098  11.072
25417SOL    HW276276   5.196   5.993  10.993
25418SOL     OW76277   4.697   6.476  10.882
25418SOL    HW176278   4.743   6.392  10.853
25418SOL    HW276279   4.641   6.510  10.807
25419SOL     OW76280   4.715   5.996  10.552
25419SOL    HW176281   4.638   6.030  10.606
25419SOL    HW276282   4.681   5.945  10.473
25420SOL     OW76283   4.765   6.287   9.739
25420SOL    HW176284   4.791   6.283   9.835
25420SOL    HW276285   4.680   6.236   9.725
25421SOL     OW76286   3.800   6.397  10.099
25421SOL    HW176287   3.899   6.385  10.108
25421SOL    HW276288   3.776   6.492  10.120
25422SOL     OW76289   3.854   7.407  10.881
25422SOL    HW176290   3.844   7.392  10.980
25422SOL    HW276291   3.768   7.443  10.845
25423SOL     OW76292   4.589   5.934   9.505
25423SOL    HW176293   4.648   5.997   9.456
25423SOL    HW276294   4.608   5.840   9.476
25424SOL     OW76295   5.443   6.171  11.141
25424SOL    HW176296   5.417   6.260  11.105
25424SOL    HW276297   5.441   6.103  11.068
25425SOL     OW76298   5.086   6.730   9.855
25425SOL    HW176299   5.169   6.701   9.807
25425SOL    HW276300   5.037   6.797   9.799
25426SOL     OW76301   4.274   5.782  10.195
25426SOL    HW176302   4.269   5.777  10.295
25426SOL    HW276303   4.276   5.878  10.166
25427SOL     OW76304   4.732   7.042   9.787
25427SOL    HW176305   4.686   7.114   9.735
25427SOL    HW276306   4.728   7.062   9.885
25428SOL     OW76307   4.075   7.387  10.163
25428SOL    HW176308   4.125   7.301  10.169
25428SOL    HW276309   4.140   7.464  10.160
25429SOL     OW76310   5.519   6.652  10.183
25429SOL    HW176311   5.457   6.637  10.107
25429SOL    HW276312   5.467   6.663  10.268
25430SOL     OW76313   4.951   7.136  10.816
25430SOL    HW176314   4.957   7.059  10.880
25430SOL    HW276315   4.899   7.110  10.736
25431SOL     OW76316   4.045   6.529   9.552
25431SOL    HW176317   4.127   6.568   9.510
25431SOL    HW276318   4.018   6.447   9.503
25432SOL     OW76319   5.182   6.321  10.038
25432SOL    HW176320   5.177   6.256  10.113
25432SOL    HW276321   5.262   6.380  10.051
25433SOL     OW76322   4.185   6.852  11.037
25433SOL    HW176323   4.135   6.853  10.951
25433SOL    HW276324   4.122   6.834  11.113
25434SOL     OW76325   4.835   7.362   9.547
25434SOL    HW176326   4.775   7.300   9.597
25434SOL    HW276327   4.866   7.318   9.462
25435SOL     OW76328   3.926   5.871  10.808
25435SOL    HW176329   3.846   5.931  10.795
25435SOL    HW276330   3.916   5.822  10.894
25436SOL     OW76331   5.356   6.963   9.391
25436SOL    HW176332   5.324   7.057   9.381
25436SOL    HW276333   5.280   6.900   9.379
25437SOL     OW76334   4.188   7.329   9.633
25437SOL    HW176335   4.221   7.368   9.719
25437SOL    HW276336   4.264   7.322   9.568
25438SOL     OW76337   5.124   5.693   9.736
25438SOL    HW176338   5.100   5.656   9.646
25438SOL    HW276339   5.223   5.709   9.740
25439SOL     OW76340   3.973   7.371  10.551
25439SOL    HW176341   4.030   7.306  10.601
25439SOL    HW276342   3.957   7.338  10.458
25440SOL     OW76343   4.664   7.284  10.214
25440SOL    HW176344   4.744   7.227  10.235
25440SOL    HW276345   4.615   7.244  10.137
25441SOL     OW76346   4.106   6.286   9.790
25441SOL    HW176347   4.151   6.196   9.787
25441SOL    HW276348   4.012   6.275   9.823
25442SOL     OW76349   5.271   5.808  11.039
25442SOL    HW176350   5.266   5.845  11.131
25442SOL    HW276351   5.199   5.739  11.027
25443SOL     OW76352   4.338   5.708   9.427
25443SOL    HW176353   4.436   5.686   9.434
25443SOL    HW276354   4.307   5.691   9.334
25444SOL     OW76355   4.505   5.850  11.059
25444SOL    HW176356   4.572   5.789  11.102
25444SOL    HW276357   4.432   5.869  11.124
25445SOL     OW76358   4.612   7.100  10.505
25445SOL    HW176359   4.589   7.075  10.411
25445SOL    HW276360   4.673   7.031  10.544
25446SOL     OW76361   5.075   6.176  10.743
25446SOL    HW176362   5.103   6.133  10.828
25446SOL    HW276363   5.100   6.272  10.744
25447SOL     OW76364   4.527   6.988  10.234
25447SOL    HW176365   4.617   7.002  10.192
25447SOL    HW276366   4.456   6.990  10.163
25448SOL     OW76367   4.646   6.089  10.209
25448SOL    HW176368   4.621   6.080  10.113
25448SOL    HW276369   4.694   6.007  10.240
25449SOL     OW76370   4.263   5.650   9.822
25449SOL    HW176371   4.182   5.651   9.880
25449SOL    HW276372   4.266   5.733   9.767
25450SOL     OW76373   5.158   6.774   9.351
25450SOL    HW176374   5.190   6.698   9.408
25450SOL    HW276375   5.066   6.801   9.381
25451SOL     OW76376   4.021   5.621   9.481
25451SOL    HW176377   4.070   5.705   9.460
25451SOL    HW276378   4.083   5.556   9.526
25452SOL     OW76379   4.659   5.822   9.790
25452SOL    HW176380   4.611   5.863   9.712
25452SOL    HW276381   4.758   5.820   9.771
25453SOL     OW76382   4.800   6.269  10.774
25453SOL    HW176383   4.720   6.208  10.777
25453SOL    HW276384   4.881   6.216  10.750
25454SOL     OW76385   4.951   7.156  10.103
25454SOL    HW176386   4.972   7.230  10.038
25454SOL    HW276387   5.019   7.156  10.176
25455SOL     OW76388   4.183   6.738  10.051
25455SOL    HW176389   4.112   6.711  10.116
25455SOL    HW276390   4.157   6.710   9.958
25456SOL     OW76391   4.995   7.383   9.901
25456SOL    HW176392   5.039   7.447   9.837
25456SOL    HW276393   4.945   7.435   9.971
25457SOL     OW76394   4.756   6.135   9.326
25457SOL    HW176395   4.715   6.217   9.287
25457SOL    HW276396   4.820   6.161   9.399
25458SOL     OW76397   3.802   6.142  10.696
25458SOL    HW176398   3.894   6.141  10.655
25458SOL    HW276399   3.796   6.216  10.763
25459SOL     OW76400   4.285   5.808  10.457
25459SOL    HW176401   4.323   5.724  10.494
25459SOL    HW276402   4.197   5.827  10.501
25460SOL     OW76403   4.590   6.040   9.952
25460SOL    HW176404   4.558   6.112   9.890
25460SOL    HW276405   4.614   5.959   9.899
25461SOL     OW76406   4.741   5.625  10.063
25461SOL    HW176407   4.669   5.630   9.994
25461SOL    HW276408   4.717   5.556  10.132
25462SOL     OW76409   5.153   6.759  10.177
25462SOL    HW176410   5.098   6.675  10.170
25462SOL    HW276411   5.179   6.788  10.085
25463SOL     OW76412   5.190   6.176  10.302
25463SOL    HW176413   5.160   6.081  10.309
25463SOL    HW276414   5.263   6.192  10.368
25464SOL     OW76415   5.581   6.419   9.687
25464SOL    HW176416   5.623   6.355   9.751
25464SOL    HW276417   5.543   6.368   9.609
25465SOL     OW76418   4.212   6.971   9.484
25465SOL    HW176419   4.125   6.956   9.531
25465SOL    HW276420   4.195   6.997   9.389
25466SOL     OW76421   5.388   6.866   9.967
25466SOL    HW176422   5.487   6.874   9.981
25466SOL    HW276423   5.343   6.950   9.998
25467SOL     OW76424   5.114   6.161   9.388
25467SOL    HW176425   5.060   6.140   9.469
25467SOL    HW276426   5.205   6.120   9.397
25468SOL     OW76427   4.251   5.842   9.638
25468SOL    HW176428   4.278   5.783   9.563
25468SOL    HW276429   4.251   5.937   9.607
25469SOL     OW76430   5.478   6.809  10.898
25469SOL    HW176431   5.569   6.770  10.885
25469SOL    HW276432   5.486   6.905  10.922
25470SOL     OW76433   4.788   6.933  10.650
25470SOL    HW176434   4.708   6.910  10.705
25470SOL    HW276435   4.871   6.907  10.699
25471SOL     OW76436   5.316   7.215  10.935
25471SOL    HW176437   5.343   7.249  10.845
25471SOL    HW276438   5.395   7.177  10.981
25472SOL     OW76439   4.835   6.781  10.410
25472SOL    HW176440   4.795   6.825  10.491
25472SOL    HW276441   4.794   6.818  10.327
25473SOL     OW76442   5.362   6.685  10.389
25473SOL    HW176443   5.367   6.766  10.448
25473SOL    HW276444   5.276   6.687  10.338
25474SOL     OW76445   4.639   5.675  10.712
25474SOL    HW176446   4.664   5.655  10.617
25474SOL    HW276447   4.711   5.731  10.754
25475SOL     OW76448   4.704   6.702  11.029
25475SOL    HW176449   4.605   6.708  11.039
25475SOL    HW276450   4.727   6.622  10.973
25476SOL     OW76451   4.429   6.636   9.678
25476SOL    HW176452   4.415   6.643   9.777
25476SOL    HW276453   4.513   6.585   9.660
25477SOL     OW76454   4.134   6.399  10.561
25477SOL    HW176455   4.220   6.411  10.611
25477SOL    HW276456   4.092   6.312  10.588
25478SOL     OW76457   4.998   5.972  10.572
25478SOL    HW176458   5.019   6.046  10.636
25478SOL    HW276459   4.909   5.989  10.529
25479SOL     OW76460   3.788   7.150  10.641
25479SOL    HW176461   3.742   7.232  10.607
25479SOL    HW276462   3.886   7.169  10.650
25480SOL     OW76463   4.091   6.686   9.811
25480SOL    HW176464   4.084   6.769   9.755
25480SOL    HW276465   4.095   6.606   9.751
25481SOL     OW76466   4.290   6.123  10.175
25481SOL    HW176467   4.302   6.189  10.101
25481SOL    HW276468   4.336   6.157  10.258
25482SOL     OW76469   4.976   6.934   9.698
25482SOL    HW176470   5.026   7.011   9.738
25482SOL    HW276471   4.881   6.936   9.730
25483SOL     OW76472   4.996   7.031  10.452
25483SOL    HW176473   5.043   7.044  10.539
25483SOL    HW276474   4.930   6.957  10.461
25484SOL     OW76475   5.306   6.225   9.782
25484SOL    HW176476   5.275   6.286   9.855
25484SOL    HW276477   5.356   6.277   9.713
25485SOL     OW76478   4.078   7.096  10.639
25485SOL    HW176479   4.057   7.052  10.552
25485SOL    HW276480   4.175   7.122  10.642
25486SOL     OW76481   4.126   6.337  10.908
25486SOL    HW176482   4.194   6.392  10.861
25486SOL    HW276483   4.166   6.249  10.935
25487SOL     OW76484   5.311   6.365  10.980
25487SOL    HW176485   5.219   6.403  10.975
25487SOL    HW276486   5.371   6.412  10.915
25488SOL     OW76487   4.737   5.691  11.080
25488SOL    HW176488   4.743   5.776  11.028
25488SOL    HW276489   4.769   5.615  11.023
25489SOL     OW76490   4.228   5.636  11.050
25489SOL    HW176491   4.186   5.579  10.980
25489SOL    HW276492   4.162   5.705  11.082
25490SOL     OW76493   4.297   6.456  10.339
25490SOL    HW176494   4.341   6.545  10.330
25490SOL    HW276495   4.234   6.456  10.416
25491SOL     OW76496   5.084   6.448  10.355
25491SOL    HW176497   5.009   6.448  10.289
25491SOL    HW276498   5.121   6.356  10.364
25492SOL     OW76499   4.933   6.111   9.585
25492SOL    HW176500   4.946   6.027   9.639
25492SOL    HW276501   4.904   6.185   9.645
25493SOL     OW76502   4.031   5.799  10.541
25493SOL    HW176503   4.008   5.836  10.631
25493SOL    HW276504   4.001   5.704  10.535
25494SOL     OW76505   3.761   6.896  10.592
25494SOL    HW176506   3.814   6.847  10.660
25494SOL    HW276507   3.783   6.994  10.597
25495SOL     OW76508   4.456   6.220  10.374
25495SOL    HW176509   4.515   6.194  10.298
25495SOL    HW276510   4.428   6.316  10.363
25496SOL     OW76511   5.452   6.521  11.164
25496SOL    HW176512   5.406   6.514  11.075
25496SOL    HW276513   5.390   6.565  11.230
25497SOL     OW76514   4.031   5.649   9.928
25497SOL    HW176515   4.020   5.743   9.961
25497SOL    HW276516   4.026   5.586  10.005
25498SOL     OW76517   5.346   5.953   9.684
25498SOL    HW176518   5.348   5.877   9.748
25498SOL    HW276519   5.298   6.030   9.724
25499SOL     OW76520   4.747   6.352  10.276
25499SOL    HW176521   4.762   6.373  10.372
25499SOL    HW276522   4.717   6.257  10.267
25500SOL     OW76523   4.704   7.159  11.010
25500SOL    HW176524   4.684   7.203  10.922
25500SOL    HW276525   4.743   7.068  10.994
25501SOL     OW76526   5.583   7.104  10.915
25501SOL    HW176527   5.597   7.131  10.820
25501SOL    HW276528   5.666   7.126  10.968
25502SOL     OW76529   4.074   6.484  11.114
25502SOL    HW176530   4.150   6.528  11.162
25502SOL    HW276531   4.109   6.437  11.032
25503SOL     OW76532   5.264   5.860   9.435
25503SOL    HW176533   5.203   5.785   9.458
25503SOL    HW276534   5.286   5.912   9.518
25504SOL     OW76535   5.027   6.424   9.352
25504SOL    HW176536   5.061   6.331   9.367
25504SOL    HW276537   5.045   6.451   9.257
25505SOL     OW76538   4.792   6.919  10.159
25505SOL    HW176539   4.799   6.835  10.104
25505SOL    HW276540   4.854   6.988  10.123
25506SOL     OW76541   4.043   6.396  10.259
25506SOL    HW176542   4.136   6.432  10.264
25506SOL    HW276543   4.037   6.311  10.311
25507SOL     OW76544   4.063   6.095  10.316
25507SOL    HW176545   4.011   6.012  10.299
25507SOL    HW276546   4.140   6.100  10.252
25508SOL     OW76547   4.862   5.966  10.988
25508SOL    HW176548   4.817   6.029  11.052
25508SOL    HW276549   4.955   5.997  10.971
25509SOL     OW76550   4.884   5.793  10.787
25509SOL    HW176551   4.884   5.857  10.864
25509SOL    HW276552   4.912   5.841  10.704
25510SOL     OW76553   3.732   6.912   9.510
25510SOL    HW176554   3.639   6.933   9.479
25510SOL    HW276555   3.742   6.813   9.523
25511SOL     OW76556   3.812   7.387  10.237
25511SOL    HW176557   3.770   7.301  10.210
25511SOL    HW276558   3.906   7.390  10.203
25512SOL     OW76559   4.228   7.154  10.220
25512SOL    HW176560   4.294   7.228  10.229
25512SOL    HW276561   4.272   7.075  10.178
25513SOL     OW76562   4.726   6.382  10.548
25513SOL    HW176563   4.767   6.350  10.634
25513SOL    HW276564   4.630   6.355  10.545
25514SOL     OW76565   3.764   6.130  10.424
25514SOL    HW176566   3.849   6.097  10.383
25514SOL    HW276567   3.777   6.145  10.522
25515SOL     OW76568   3.913   6.106  11.032
25515SOL    HW176569   3.972   6.066  10.962
25515SOL    HW276570   3.855   6.177  10.991
25516SOL     OW76571   5.093   6.536  10.970
25516SOL    HW176572   5.132   6.625  10.990
25516SOL    HW276573   5.103   6.516  10.873
25517SOL     OW76574   4.539   6.158   9.635
25517SOL    HW176575   4.546   6.069   9.589
25517SOL    HW276576   4.445   6.192   9.627
25518SOL     OW76577   5.381   6.190  10.516
25518SOL    HW176578   5.343   6.121  10.578
25518SOL    HW276579   5.463   6.154  10.472
25519SOL     OW76580   3.976   7.150  11.054
25519SOL    HW176581   3.946   7.207  11.130
25519SOL    HW276582   3.969   7.053  11.080
25520SOL     OW76583   4.395   6.050  10.579
25520SOL    HW176584   4.361   5.961  10.549
25520SOL    HW276585   4.421   6.104  10.499
25521SOL     OW76586   4.654   7.264  10.775
25521SOL    HW176587   4.630   7.246  10.680
25521SOL    HW276588   4.684   7.358  10.785
25522SOL     OW76589   4.197   6.086   9.501
25522SOL    HW176590   4.258   6.166   9.505
25522SOL    HW276591   4.102   6.117   9.508
25523SOL     OW76592   3.883   6.723  10.776
25523SOL    HW176593   3.905   6.662  10.852
25523SOL    HW276594   3.893   6.674  10.690
25524SOL     OW76595   5.071   6.645  10.544
25524SOL    HW176596   5.095   6.582  10.470
25524SOL    HW276597   4.981   6.685  10.526
25525SOL     OW76598   5.026   6.441   9.619
25525SOL    HW176599   4.940   6.410   9.661
25525SOL    HW276600   5.022   6.427   9.520
25526SOL     OW76601   5.483   7.333  10.464
25526SOL    HW176602   5.544   7.363  10.391
25526SOL    HW276603   5.445   7.244  10.442
25527SOL     OW76604   4.976   7.317  10.438
25527SOL    HW176605   5.060   7.322  10.384
25527SOL    HW276606   4.953   7.221  10.456
25528SOL     OW76607   3.807   6.844  10.332
25528SOL    HW176608   3.802   6.843  10.432
25528SOL    HW276609   3.724   6.803  10.294
25529SOL     OW76610   4.412   7.248  11.026
25529SOL    HW176611   4.356   7.329  11.035
25529SOL    HW276612   4.464   7.252  10.940
25530SOL     OW76613   5.450   5.721   9.833
25530SOL    HW176614   5.523   5.704   9.766
25530SOL    HW276615   5.419   5.634   9.871
25531SOL     OW76616   5.112   7.159   9.787
25531SOL    HW176617   5.179   7.171   9.713
25531SOL    HW276618   5.072   7.248   9.810
25532SOL     OW76619   3.854   7.380  11.161
25532SOL    HW176620   3.813   7.306  11.214
25532SOL    HW276621   3.918   7.431  11.219
25533SOL     OW76622   5.004   6.513   9.982
25533SOL    HW176623   5.064   6.432   9.984
25533SOL    HW276624   5.044   6.582   9.922
25534SOL     OW76625   4.554   6.859  10.732
25534SOL    HW176626   4.549   6.892  10.827
25534SOL    HW276627   4.468   6.878  10.686
25535SOL     OW76628   4.396   7.202   9.464
25535SOL    HW176629   4.405   7.212   9.365
25535SOL    HW276630   4.356   7.113   9.485
25536SOL     OW76631   5.374   7.306  10.704
25536SOL    HW176632   5.427   7.316  10.620
25536SOL    HW276633   5.347   7.396  10.738
25537SOL     OW76634   5.565   5.761  10.273
25537SOL    HW176635   5.604   5.676  10.237
25537SOL    HW276636   5.467   5.763  10.254
25538SOL     OW76637   3.987   5.912  10.030
25538SOL    HW176638   3.908   5.963   9.996
25538SOL    HW276639   3.978   5.897  10.128
25539SOL     OW76640   4.918   7.198   9.341
25539SOL    HW176641   4.924   7.105   9.378
25539SOL    HW276642   4.859   7.198   9.261
25540SOL     OW76643   4.546   6.588  10.682
25540SOL    HW176644   4.586   6.587  10.590
25540SOL    HW276645   4.556   6.680  10.722
25541SOL     OW76646   4.640   6.496   9.601
25541SOL    HW176647   4.703   6.534   9.533
25541SOL    HW276648   4.680   6.413   9.640
25542SOL     OW76649   5.228   7.193   9.354
25542SOL    HW176650   5.136   7.230   9.361
25542SOL    HW276651   5.266   7.213   9.264
25543SOL     OW76652   4.096   6.874  10.800
25543SOL    HW176653   4.083   6.967  10.766
25543SOL    HW276654   4.012   6.822  10.787
25544SOL     OW76655   5.338   6.878  10.599
25544SOL    HW176656   5.398   6.881  10.679
25544SOL    HW276657   5.263   6.942  10.612
25545SOL     OW76658   4.763   6.684  10.006
25545SOL    HW176659   4.693   6.637  10.060
25545SOL    HW276660   4.822   6.616   9.963
25546SOL     OW76661   4.738   5.822  10.281
25546SOL    HW176662   4.730   5.786  10.188
25546SOL    HW276663   4.736   5.746  10.346
25547SOL     OW76664   4.314   7.073   9.801
25547SOL    HW176665   4.356   7.015   9.731
25547SOL    HW276666   4.270   7.152   9.757
25548SOL     OW76667   5.433   5.971  10.691
25548SOL    HW176668   5.506   6.040  10.695
25548SOL    HW276669   5.461   5.896  10.632
25549SOL     OW76670   3.979   6.934   9.600
25549SOL    HW176671   3.883   6.935   9.573
25549SOL    HW276672   3.991   6.987   9.684
25550SOL     OW76673   3.829   6.599  11.036
25550SOL    HW176674   3.752   6.566  11.090
25550SOL    HW276675   3.914   6.569  11.078
25551SOL     OW76676   4.396   5.789  10.799
25551SOL    HW176677   4.486   5.773  10.759
25551SOL    HW276678   4.404   5.794  10.898
25552SOL     OW76679   3.799   5.931   9.343
25552SOL    HW176680   3.707   5.903   9.314
25552SOL    HW276681   3.830   6.008   9.287
25553SOL     OW76682   5.164   6.442  10.708
25553SOL    HW176683   5.107   6.494  10.645
25553SOL    HW276684   5.260   6.454  10.684
25554SOL     OW76685   3.796   5.752   9.628
25554SOL    HW176686   3.779   5.835   9.574
25554SOL    HW276687   3.886   5.715   9.606
25555SOL     OW76688   4.337   6.428  10.741
25555SOL    HW176689   4.393   6.509  10.724
25555SOL    HW276690   4.396   6.348  10.744
25556SOL     OW76691   5.217   7.353  10.269
25556SOL    HW176692   5.250   7.417  10.200
25556SOL    HW276693   5.283   7.347  10.344
25557SOL     OW76694   4.440   6.151  11.018
25557SOL    HW176695   4.459   6.216  11.092
25557SOL    HW276696   4.500   6.071  11.027
25558SOL     OW76697   5.174   6.806  10.943
25558SOL    HW176698   5.165   6.796  11.042
25558SOL    HW276699   5.270   6.799  10.917
25559SOL     OW76700   4.114   7.327  10.870
25559SOL    HW176701   4.023   7.368  10.868
25559SOL    HW276702   4.107   7.233  10.902
25560SOL     OW76703   5.398   6.469  10.564
25560SOL    HW176704   5.371   6.380  10.527
25560SOL    HW276705   5.399   6.537  10.491
25561SOL     OW76706   4.949   5.911   9.759
25561SOL    HW176707   5.014   5.837   9.748
25561SOL    HW276708   4.969   5.961   9.843
25562SOL     OW76709   4.318   6.331   9.962
25562SOL    HW176710   4.368   6.416   9.943
25562SOL    HW276711   4.230   6.333   9.914
25563SOL     OW76712   5.501   5.928  10.952
25563SOL    HW176713   5.484   5.959  10.858
25563SOL    HW276714   5.417   5.891  10.990
25564SOL     OW76715   5.454   6.520  10.827
25564SOL    HW176716   5.492   6.611  10.842
25564SOL    HW276717   5.446   6.503  10.728
25565SOL     OW76718   4.583   6.960   9.326
25565SOL    HW176719   4.537   6.975   9.414
25565SOL    HW276720   4.627   7.045   9.296
25566SOL     OW76721   4.385   7.376  10.263
25566SOL    HW176722   4.339   7.464  10.250
25566SOL    HW276723   4.484   7.388  10.256
25567SOL     OW76724   4.583   6.542  10.171
25567SOL    HW176725   4.637   6.473  10.219
25567SOL    HW276726   4.551   6.611  10.237
25568SOL     OW76727   4.807   6.570   9.397
25568SOL    HW176728   4.784   6.623   9.315
25568SOL    HW276729   4.888   6.514   9.378
25569SOL     OW76730   5.585   7.155  10.161
25569SOL    HW176731   5.514   7.143  10.091
25569SOL    HW276732   5.586   7.076  10.221
25570SOL     OW76733   3.945   6.900  11.154
25570SOL    HW176734   3.880   6.827  11.133
25570SOL    HW276735   3.949   6.914  11.252
25571SOL     OW76736   3.803   6.826   9.963
25571SOL    HW176737   3.802   6.779  10.051
25571SOL    HW276738   3.885   6.798   9.912
25572SOL     OW76739   4.396   6.977  10.934
25572SOL    HW176740   4.318   6.927  10.972
25572SOL    HW276741   4.393   7.072  10.965
25573SOL     OW76742   5.548   5.778  10.537
25573SOL    HW176743   5.544   5.688  10.581
25573SOL    HW276744   5.551   5.767  10.438
25574SOL     OW76745   4.152   6.010   9.830
25574SOL    HW176746   4.182   5.938   9.768
25574SOL    HW276747   4.113   5.970   9.913
25575SOL     OW76748   5.429   7.073  10.414
25575SOL    HW176749   5.336   7.048  10.387
25575SOL    HW276750   5.455   7.023  10.496
25576SOL     OW76751   4.041   6.133  10.590
25576SOL    HW176752   4.079   6.074  10.662
25576SOL    HW276753   4.081   6.107  10.502
25577SOL     OW76754   4.536   7.172   9.997
25577SOL    HW176755   4.568   7.182   9.903
25577SOL    HW276756   4.457   7.110   9.999
25578SOL     OW76757   5.148   5.800  10.422
25578SOL    HW176758   5.200   5.735  10.477
25578SOL    HW276759   5.099   5.863  10.483
25579SOL     OW76760   4.725   5.620  10.464
25579SOL    HW176761   4.662   5.548  10.433
25579SOL    HW276762   4.818   5.584  10.464
25580SOL     OW76763   4.494   6.916   9.611
25580SOL    HW176764   4.448   6.829   9.628
25580SOL    HW276765   4.585   6.913   9.652
25581SOL     OW76766   4.342   7.153  10.594
25581SOL    HW176767   4.337   7.235  10.651
25581SOL    HW276768   4.431   7.150  10.549
25582SOL     OW76769   5.076   5.638   9.478
25582SOL    HW176770   5.111   5.597   9.394
25582SOL    HW276771   4.986   5.600   9.498
25583SOL     OW76772   5.024   6.039  10.001
25583SOL    HW176773   4.965   6.119  10.005
25583SOL    HW276774   5.039   6.004  10.094
25584SOL     OW76775   3.763   6.663   9.610
25584SOL    HW176776   3.862   6.652   9.601
25584SOL    HW276777   3.723   6.577   9.642
25585SOL     OW76778   4.599   7.232   9.647
25585SOL    HW176779   4.522   7.197   9.593
25585SOL    HW276780   4.567   7.303   9.709
25586SOL     OW76781   3.954   6.214  11.285
25586SOL    HW176782   3.861   6.212  11.322
25586SOL    HW276783   3.955   6.175  11.193
25587SOL     OW76784   3.949   5.861  12.168
25587SOL    HW176785   3.984   5.844  12.260
25587SOL    HW276786   3.861   5.816  12.156
25588SOL     OW76787   3.743   5.954  11.819
25588SOL    HW176788   3.661   5.997  11.858
25588SOL    HW276789   3.715   5.881  11.756
25589SOL     OW76790   4.293   6.861  12.337
25589SOL    HW176791   4.200   6.854  12.300
25589SOL    HW276792   4.304   6.950  12.381
25590SOL     OW76793   5.279   7.097  11.875
25590SOL    HW176794   5.222   7.081  11.956
25590SOL    HW276795   5.220   7.107  11.795
25591SOL     OW76796   4.859   6.289  11.889
25591SOL    HW176797   4.916   6.367  11.864
25591SOL    HW276798   4.799   6.315  11.965
25592SOL     OW76799   5.479   6.193  11.403
25592SOL    HW176800   5.467   6.180  11.304
25592SOL    HW276801   5.449   6.112  11.452
25593SOL     OW76802   4.492   6.730  12.195
25593SOL    HW176803   4.414   6.747  12.255
25593SOL    HW276804   4.526   6.817  12.159
25594SOL     OW76805   4.409   6.598  11.837
25594SOL    HW176806   4.478   6.582  11.907
25594SOL    HW276807   4.336   6.655  11.875
25595SOL     OW76808   4.059   7.021  12.233
25595SOL    HW176809   3.981   6.990  12.180
25595SOL    HW276810   4.117   7.079  12.176
25596SOL     OW76811   5.184   7.091  12.511
25596SOL    HW176812   5.208   7.185  12.537
25596SOL    HW276813   5.168   7.037  12.593
25597SOL     OW76814   4.162   5.978  12.671
25597SOL    HW176815   4.244   5.922  12.680
25597SOL    HW276816   4.081   5.920  12.675
25598SOL     OW76817   5.327   6.033  11.909
25598SOL    HW176818   5.253   6.079  11.859
25598SOL    HW276819   5.378   6.101  11.962
25599SOL     OW76820   3.955   7.299  11.655
25599SOL    HW176821   3.989   7.376  11.709
25599SOL    HW276822   3.999   7.299  11.565
25600SOL     OW76823   3.954   7.020  11.710
25600SOL    HW176824   3.928   7.116  11.710
25600SOL    HW276825   3.883   6.966  11.755
25601SOL     OW76826   3.964   6.677  12.058
25601SOL    HW176827   3.978   6.593  12.110
25601SOL    HW276828   3.909   6.741  12.113
25602SOL     OW76829   4.344   7.372  12.611
25602SOL    HW176830   4.252   7.355  12.646
25602SOL    HW276831   4.372   7.464  12.637
25603SOL     OW76832   4.330   6.550  11.295
25603SOL    HW176833   4.337   6.634  11.241
25603SOL    HW276834   4.376   6.563  11.383
25604SOL     OW76835   5.318   5.700  12.652
25604SOL    HW176836   5.300   5.767  12.580
25604SOL    HW276837   5.315   5.746  12.741
25605SOL     OW76838   3.846   6.229  11.735
25605SOL    HW176839   3.801   6.141  11.752
25605SOL    HW276840   3.845   6.283  11.819
25606SOL     OW76841   5.566   7.353  11.531
25606SOL    HW176842   5.620   7.324  11.611
25606SOL    HW276843   5.596   7.443  11.502
25607SOL     OW76844   3.751   7.182  11.289
25607SOL    HW176845   3.732   7.086  11.310
25607SOL    HW276846   3.718   7.240  11.364
25608SOL     OW76847   5.413   6.508  11.784
25608SOL    HW176848   5.508   6.479  11.792
25608SOL    HW276849   5.405   6.573  11.709
25609SOL     OW76850   5.365   6.694  11.604
25609SOL    HW176851   5.451   6.696  11.552
25609SOL    HW276852   5.379   6.741  11.692
25610SOL     OW76853   3.837   6.323  12.769
25610SOL    HW176854   3.925   6.310  12.814
25610SOL    HW276855   3.824   6.420  12.747
25611SOL     OW76856   4.337   6.951  11.898
25611SOL    HW176857   4.288   6.864  11.907
25611SOL    HW276858   4.314   6.994  11.811
25612SOL     OW76859   5.017   6.814  12.595
25612SOL    HW176860   5.054   6.741  12.537
25612SOL    HW276861   5.069   6.819  12.680
25613SOL     OW76862   4.533   5.590  11.674
25613SOL    HW176863   4.573   5.681  11.665
25613SOL    HW276864   4.433   5.598  11.680
25614SOL     OW76865   3.921   6.562  12.436
25614SOL    HW176866   4.010   6.517  12.422
25614SOL    HW276867   3.848   6.497  12.417
25615SOL     OW76868   5.249   6.585  11.362
25615SOL    HW176869   5.186   6.509  11.375
25615SOL    HW276870   5.297   6.603  11.448
25616SOL     OW76871   5.190   7.003  12.125
25616SOL    HW176872   5.131   7.009  12.205
25616SOL    HW276873   5.175   6.915  12.079
25617SOL     OW76874   5.391   7.300  11.744
25617SOL    HW176875   5.350   7.277  11.656
25617SOL    HW276876   5.373   7.226  11.809
25618SOL     OW76877   4.322   6.315  11.442
25618SOL    HW176878   4.346   6.384  11.374
25618SOL    HW276879   4.244   6.348  11.496
25619SOL     OW76880   5.005   5.931  12.116
25619SOL    HW176881   4.919   5.881  12.103
25619SOL    HW276882   5.067   5.877  12.172
25620SOL     OW76883   5.300   7.248  11.479
25620SOL    HW176884   5.389   7.294  11.482
25620SOL    HW276885   5.279   7.224  11.384
25621SOL     OW76886   4.531   6.191  12.637
25621SOL    HW176887   4.484   6.188  12.726
25621SOL    HW276888   4.480   6.136  12.571
25622SOL     OW76889   4.697   6.476  12.744
25622SOL    HW176890   4.743   6.392  12.715
25622SOL    HW276891   4.641   6.510  12.669
25623SOL     OW76892   4.715   5.996  12.414
25623SOL    HW176893   4.638   6.030  12.468
25623SOL    HW276894   4.681   5.945  12.335
25624SOL     OW76895   4.765   6.287  11.601
25624SOL    HW176896   4.791   6.283  11.697
25624SOL    HW276897   4.680   6.236  11.587
25625SOL     OW76898   3.800   6.397  11.961
25625SOL    HW176899   3.899   6.385  11.970
25625SOL    HW276900   3.776   6.492  11.982
25626SOL     OW76901   3.854   7.407  12.743
25626SOL    HW176902   3.844   7.392  12.842
25626SOL    HW276903   3.768   7.443  12.707
25627SOL     OW76904   4.589   5.934  11.367
25627SOL    HW176905   4.648   5.997  11.318
25627SOL    HW276906   4.608   5.840  11.338
25628SOL     OW76907   5.086   6.730  11.717
25628SOL    HW176908   5.169   6.701  11.669
25628SOL    HW276909   5.037   6.797  11.661
25629SOL     OW76910   4.274   5.782  12.057
25629SOL    HW176911   4.269   5.777  12.157
25629SOL    HW276912   4.276   5.878  12.028
25630SOL     OW76913   4.732   7.042  11.649
25630SOL    HW176914   4.686   7.114  11.597
25630SOL    HW276915   4.728   7.062  11.747
25631SOL     OW76916   4.075   7.387  12.025
25631SOL    HW176917   4.125   7.301  12.031
25631SOL    HW276918   4.140   7.464  12.022
25632SOL     OW76919   5.519   6.652  12.045
25632SOL    HW176920   5.457   6.637  11.969
25632SOL    HW276921   5.467   6.663  12.130
25633SOL     OW76922   4.951   7.136  12.678
25633SOL    HW176923   4.957   7.059  12.742
25633SOL    HW276924   4.899   7.110  12.598
25634SOL     OW76925   4.045   6.529  11.414
25634SOL    HW176926   4.127   6.568  11.372
25634SOL    HW276927   4.018   6.447  11.365
25635SOL     OW76928   5.182   6.321  11.900
25635SOL    HW176929   5.177   6.256  11.975
25635SOL    HW276930   5.262   6.380  11.913
25636SOL     OW76931   3.926   5.871  12.670
25636SOL    HW176932   3.846   5.931  12.657
25636SOL    HW276933   3.916   5.822  12.756
25637SOL     OW76934   5.356   6.963  11.253
25637SOL    HW176935   5.324   7.057  11.243
25637SOL    HW276936   5.280   6.900  11.241
25638SOL     OW76937   4.188   7.329  11.495
25638SOL    HW176938   4.221   7.368  11.581
25638SOL    HW276939   4.264   7.322  11.430
25639SOL     OW76940   5.124   5.693  11.598
25639SOL    HW176941   5.100   5.656  11.508
25639SOL    HW276942   5.223   5.709  11.602
25640SOL     OW76943   3.973   7.371  12.413
25640SOL    HW176944   4.030   7.306  12.463
25640SOL    HW276945   3.957   7.338  12.320
25641SOL     OW76946   4.664   7.284  12.076
25641SOL    HW176947   4.744   7.227  12.097
25641SOL    HW276948   4.615   7.244  11.999
25642SOL     OW76949   4.106   6.286  11.652
25642SOL    HW176950   4.151   6.196  11.649
25642SOL    HW276951   4.012   6.275  11.685
25643SOL     OW76952   4.338   5.708  11.289
25643SOL    HW176953   4.436   5.686  11.296
25643SOL    HW276954   4.307   5.691  11.196
25644SOL     OW76955   4.612   7.100  12.367
25644SOL    HW176956   4.589   7.075  12.273
25644SOL    HW276957   4.673   7.031  12.406
25645SOL     OW76958   5.075   6.176  12.605
25645SOL    HW176959   5.103   6.133  12.690
25645SOL    HW276960   5.100   6.272  12.606
25646SOL     OW76961   4.527   6.988  12.096
25646SOL    HW176962   4.617   7.002  12.054
25646SOL    HW276963   4.456   6.990  12.025
25647SOL     OW76964   4.646   6.089  12.071
25647SOL    HW176965   4.621   6.080  11.975
25647SOL    HW276966   4.694   6.007  12.102
25648SOL     OW76967   4.263   5.650  11.684
25648SOL    HW176968   4.182   5.651  11.742
25648SOL    HW276969   4.266   5.733  11.629
25649SOL     OW76970   5.158   6.774  11.213
25649SOL    HW176971   5.190   6.698  11.270
25649SOL    HW276972   5.066   6.801  11.243
25650SOL     OW76973   4.021   5.621  11.343
25650SOL    HW176974   4.070   5.705  11.322
25650SOL    HW276975   4.083   5.556  11.388
25651SOL     OW76976   4.659   5.822  11.652
25651SOL    HW176977   4.611   5.863  11.574
25651SOL    HW276978   4.758   5.820  11.633
25652SOL     OW76979   4.800   6.269  12.636
25652SOL    HW176980   4.720   6.208  12.639
25652SOL    HW276981   4.881   6.216  12.612
25653SOL     OW76982   4.951   7.156  11.965
25653SOL    HW176983   4.972   7.230  11.900
25653SOL    HW276984   5.019   7.156  12.038
25654SOL     OW76985   4.183   6.738  11.913
25654SOL    HW176986   4.112   6.711  11.978
25654SOL    HW276987   4.157   6.710  11.820
25655SOL     OW76988   4.995   7.383  11.763
25655SOL    HW176989   5.039   7.447  11.699
25655SOL    HW276990   4.945   7.435  11.833
25656SOL     OW76991   4.756   6.135  11.188
25656SOL    HW176992   4.715   6.217  11.149
25656SOL    HW276993   4.820   6.161  11.261
25657SOL     OW76994   3.802   6.142  12.558
25657SOL    HW176995   3.894   6.141  12.517
25657SOL    HW276996   3.796   6.216  12.625
25658SOL     OW76997   4.285   5.808  12.319
25658SOL    HW176998   4.323   5.724  12.356
25658SOL    HW276999   4.197   5.827  12.363
25659SOL     OW77000   4.590   6.040  11.814
25659SOL    HW177001   4.558   6.112  11.752
25659SOL    HW277002   4.614   5.959  11.761
25660SOL     OW77003   4.741   5.625  11.925
25660SOL    HW177004   4.669   5.630  11.856
25660SOL    HW277005   4.717   5.556  11.994
25661SOL     OW77006   5.153   6.759  12.039
25661SOL    HW177007   5.098   6.675  12.032
25661SOL    HW277008   5.179   6.788  11.947
25662SOL     OW77009   5.190   6.176  12.164
25662SOL    HW177010   5.160   6.081  12.171
25662SOL    HW277011   5.263   6.192  12.230
25663SOL     OW77012   5.581   6.419  11.549
25663SOL    HW177013   5.623   6.355  11.613
25663SOL    HW277014   5.543   6.368  11.471
25664SOL     OW77015   4.212   6.971  11.346
25664SOL    HW177016   4.125   6.956  11.393
25664SOL    HW277017   4.195   6.997  11.251
25665SOL     OW77018   5.388   6.866  11.829
25665SOL    HW177019   5.487   6.874  11.843
25665SOL    HW277020   5.343   6.950  11.860
25666SOL     OW77021   5.114   6.161  11.250
25666SOL    HW177022   5.060   6.140  11.331
25666SOL    HW277023   5.205   6.120  11.259
25667SOL     OW77024   4.251   5.842  11.500
25667SOL    HW177025   4.278   5.783  11.425
25667SOL    HW277026   4.251   5.937  11.469
25668SOL     OW77027   5.478   6.809  12.760
25668SOL    HW177028   5.569   6.770  12.747
25668SOL    HW277029   5.486   6.905  12.784
25669SOL     OW77030   4.788   6.933  12.512
25669SOL    HW177031   4.708   6.910  12.567
25669SOL    HW277032   4.871   6.907  12.561
25670SOL     OW77033   4.835   6.781  12.272
25670SOL    HW177034   4.795   6.825  12.353
25670SOL    HW277035   4.794   6.818  12.189
25671SOL     OW77036   5.362   6.685  12.251
25671SOL    HW177037   5.367   6.766  12.310
25671SOL    HW277038   5.276   6.687  12.200
25672SOL     OW77039   4.639   5.675  12.574
25672SOL    HW177040   4.664   5.655  12.479
25672SOL    HW277041   4.711   5.731  12.616
25673SOL     OW77042   4.429   6.636  11.540
25673SOL    HW177043   4.415   6.643  11.639
25673SOL    HW277044   4.513   6.585  11.522
25674SOL     OW77045   4.134   6.399  12.423
25674SOL    HW177046   4.220   6.411  12.473
25674SOL    HW277047   4.092   6.312  12.450
25675SOL     OW77048   4.998   5.972  12.434
25675SOL    HW177049   5.019   6.046  12.498
25675SOL    HW277050   4.909   5.989  12.391
25676SOL     OW77051   3.788   7.150  12.503
25676SOL    HW177052   3.742   7.232  12.469
25676SOL    HW277053   3.886   7.169  12.512
25677SOL     OW77054   4.091   6.686  11.673
25677SOL    HW177055   4.084   6.769  11.617
25677SOL    HW277056   4.095   6.606  11.613
25678SOL     OW77057   4.290   6.123  12.037
25678SOL    HW177058   4.302   6.189  11.963
25678SOL    HW277059   4.336   6.157  12.120
25679SOL     OW77060   4.976   6.934  11.560
25679SOL    HW177061   5.026   7.011  11.600
25679SOL    HW277062   4.881   6.936  11.592
25680SOL     OW77063   4.996   7.031  12.314
25680SOL    HW177064   5.043   7.044  12.401
25680SOL    HW277065   4.930   6.957  12.323
25681SOL     OW77066   5.306   6.225  11.644
25681SOL    HW177067   5.275   6.286  11.717
25681SOL    HW277068   5.356   6.277  11.575
25682SOL     OW77069   4.078   7.096  12.501
25682SOL    HW177070   4.057   7.052  12.414
25682SOL    HW277071   4.175   7.122  12.504
25683SOL     OW77072   4.126   6.337  12.770
25683SOL    HW177073   4.194   6.392  12.723
25683SOL    HW277074   4.166   6.249  12.797
25684SOL     OW77075   5.311   6.365  12.842
25684SOL    HW177076   5.219   6.403  12.837
25684SOL    HW277077   5.371   6.412  12.777
25685SOL     OW77078   4.297   6.456  12.201
25685SOL    HW177079   4.341   6.545  12.192
25685SOL    HW277080   4.234   6.456  12.278
25686SOL     OW77081   5.084   6.448  12.217
25686SOL    HW177082   5.009   6.448  12.151
25686SOL    HW277083   5.121   6.356  12.226
25687SOL     OW77084   4.933   6.111  11.447
25687SOL    HW177085   4.946   6.027  11.501
25687SOL    HW277086   4.904   6.185  11.507
25688SOL     OW77087   4.031   5.799  12.403
25688SOL    HW177088   4.008   5.836  12.493
25688SOL    HW277089   4.001   5.704  12.397
25689SOL     OW77090   3.761   6.896  12.454
25689SOL    HW177091   3.814   6.847  12.522
25689SOL    HW277092   3.783   6.994  12.459
25690SOL     OW77093   4.456   6.220  12.236
25690SOL    HW177094   4.515   6.194  12.160
25690SOL    HW277095   4.428   6.316  12.225
25691SOL     OW77096   4.031   5.649  11.790
25691SOL    HW177097   4.020   5.743  11.823
25691SOL    HW277098   4.026   5.586  11.867
25692SOL     OW77099   5.346   5.953  11.546
25692SOL    HW177100   5.348   5.877  11.610
25692SOL    HW277101   5.298   6.030  11.586
25693SOL     OW77102   4.747   6.352  12.138
25693SOL    HW177103   4.762   6.373  12.234
25693SOL    HW277104   4.717   6.257  12.129
25694SOL     OW77105   5.264   5.860  11.297
25694SOL    HW177106   5.203   5.785  11.320
25694SOL    HW277107   5.286   5.912  11.380
25695SOL     OW77108   5.027   6.424  11.214
25695SOL    HW177109   5.061   6.331  11.229
25695SOL    HW277110   5.045   6.451  11.119
25696SOL     OW77111   4.792   6.919  12.021
25696SOL    HW177112   4.799   6.835  11.966
25696SOL    HW277113   4.854   6.988  11.985
25697SOL     OW77114   4.043   6.396  12.121
25697SOL    HW177115   4.136   6.432  12.126
25697SOL    HW277116   4.037   6.311  12.173
25698SOL     OW77117   4.063   6.095  12.178
25698SOL    HW177118   4.011   6.012  12.161
25698SOL    HW277119   4.140   6.100  12.114
25699SOL     OW77120   4.884   5.793  12.649
25699SOL    HW177121   4.884   5.857  12.726
25699SOL    HW277122   4.912   5.841  12.566
25700SOL     OW77123   3.732   6.912  11.372
25700SOL    HW177124   3.639   6.933  11.341
25700SOL    HW277125   3.742   6.813  11.385
25701SOL     OW77126   3.812   7.387  12.099
25701SOL    HW177127   3.770   7.301  12.072
25701SOL    HW277128   3.906   7.390  12.065
25702SOL     OW77129   4.228   7.154  12.082
25702SOL    HW177130   4.294   7.228  12.091
25702SOL    HW277131   4.272   7.075  12.040
25703SOL     OW77132   4.726   6.382  12.410
25703SOL    HW177133   4.767   6.350  12.496
25703SOL    HW277134   4.630   6.355  12.407
25704SOL     OW77135   3.764   6.130  12.286
25704SOL    HW177136   3.849   6.097  12.245
25704SOL    HW277137   3.777   6.145  12.384
25705SOL     OW77138   4.539   6.158  11.497
25705SOL    HW177139   4.546   6.069  11.451
25705SOL    HW277140   4.445   6.192  11.489
25706SOL     OW77141   5.381   6.190  12.378
25706SOL    HW177142   5.343   6.121  12.440
25706SOL    HW277143   5.463   6.154  12.334
25707SOL     OW77144   3.976   7.150  12.916
25707SOL    HW177145   3.946   7.207  12.992
25707SOL    HW277146   3.969   7.053  12.942
25708SOL     OW77147   4.395   6.050  12.441
25708SOL    HW177148   4.361   5.961  12.411
25708SOL    HW277149   4.421   6.104  12.361
25709SOL     OW77150   4.654   7.264  12.637
25709SOL    HW177151   4.630   7.246  12.542
25709SOL    HW277152   4.684   7.358  12.647
25710SOL     OW77153   4.197   6.086  11.363
25710SOL    HW177154   4.258   6.166  11.367
25710SOL    HW277155   4.102   6.117  11.370
25711SOL     OW77156   3.883   6.723  12.638
25711SOL    HW177157   3.905   6.662  12.714
25711SOL    HW277158   3.893   6.674  12.552
25712SOL     OW77159   5.071   6.645  12.406
25712SOL    HW177160   5.095   6.582  12.332
25712SOL    HW277161   4.981   6.685  12.388
25713SOL     OW77162   5.026   6.441  11.481
25713SOL    HW177163   4.940   6.410  11.523
25713SOL    HW277164   5.022   6.427  11.382
25714SOL     OW77165   5.483   7.333  12.326
25714SOL    HW177166   5.544   7.363  12.253
25714SOL    HW277167   5.445   7.244  12.304
25715SOL     OW77168   4.976   7.317  12.300
25715SOL    HW177169   5.060   7.322  12.246
25715SOL    HW277170   4.953   7.221  12.318
25716SOL     OW77171   3.807   6.844  12.194
25716SOL    HW177172   3.802   6.843  12.294
25716SOL    HW277173   3.724   6.803  12.156
25717SOL     OW77174   5.450   5.721  11.695
25717SOL    HW177175   5.523   5.704  11.628
25717SOL    HW277176   5.419   5.634  11.733
25718SOL     OW77177   5.112   7.159  11.649
25718SOL    HW177178   5.179   7.171  11.575
25718SOL    HW277179   5.072   7.248  11.672
25719SOL     OW77180   5.004   6.513  11.844
25719SOL    HW177181   5.064   6.432  11.846
25719SOL    HW277182   5.044   6.582  11.784
25720SOL     OW77183   4.554   6.859  12.594
25720SOL    HW177184   4.549   6.892  12.689
25720SOL    HW277185   4.468   6.878  12.548
25721SOL     OW77186   4.396   7.202  11.326
25721SOL    HW177187   4.405   7.212  11.227
25721SOL    HW277188   4.356   7.113  11.347
25722SOL     OW77189   5.374   7.306  12.566
25722SOL    HW177190   5.427   7.316  12.482
25722SOL    HW277191   5.347   7.396  12.600
25723SOL     OW77192   5.565   5.761  12.135
25723SOL    HW177193   5.604   5.676  12.099
25723SOL    HW277194   5.467   5.763  12.116
25724SOL     OW77195   3.987   5.912  11.892
25724SOL    HW177196   3.908   5.963  11.858
25724SOL    HW277197   3.978   5.897  11.990
25725SOL     OW77198   4.918   7.198  11.203
25725SOL    HW177199   4.924   7.105  11.240
25725SOL    HW277200   4.859   7.198  11.123
25726SOL     OW77201   4.546   6.588  12.544
25726SOL    HW177202   4.586   6.587  12.452
25726SOL    HW277203   4.556   6.680  12.584
25727SOL     OW77204   4.640   6.496  11.463
25727SOL    HW177205   4.703   6.534  11.395
25727SOL    HW277206   4.680   6.413  11.502
25728SOL     OW77207   5.228   7.193  11.216
25728SOL    HW177208   5.136   7.230  11.223
25728SOL    HW277209   5.266   7.213  11.126
25729SOL     OW77210   4.096   6.874  12.662
25729SOL    HW177211   4.083   6.967  12.628
25729SOL    HW277212   4.012   6.822  12.649
25730SOL     OW77213   5.338   6.878  12.461
25730SOL    HW177214   5.398   6.881  12.541
25730SOL    HW277215   5.263   6.942  12.474
25731SOL     OW77216   4.763   6.684  11.868
25731SOL    HW177217   4.693   6.637  11.922
25731SOL    HW277218   4.822   6.616  11.825
25732SOL     OW77219   4.738   5.822  12.143
25732SOL    HW177220   4.730   5.786  12.050
25732SOL    HW277221   4.736   5.746  12.208
25733SOL     OW77222   4.314   7.073  11.663
25733SOL    HW177223   4.356   7.015  11.593
25733SOL    HW277224   4.270   7.152  11.619
25734SOL     OW77225   5.433   5.971  12.553
25734SOL    HW177226   5.506   6.040  12.557
25734SOL    HW277227   5.461   5.896  12.494
25735SOL     OW77228   3.979   6.934  11.462
25735SOL    HW177229   3.883   6.935  11.435
25735SOL    HW277230   3.991   6.987  11.546
25736SOL     OW77231   3.829   6.599  12.898
25736SOL    HW177232   3.752   6.566  12.952
25736SOL    HW277233   3.914   6.569  12.940
25737SOL     OW77234   4.396   5.789  12.661
25737SOL    HW177235   4.486   5.773  12.621
25737SOL    HW277236   4.404   5.794  12.760
25738SOL     OW77237   3.799   5.931  11.205
25738SOL    HW177238   3.707   5.903  11.176
25738SOL    HW277239   3.830   6.008  11.149
25739SOL     OW77240   5.164   6.442  12.570
25739SOL    HW177241   5.107   6.494  12.507
25739SOL    HW277242   5.260   6.454  12.546
25740SOL     OW77243   3.796   5.752  11.490
25740SOL    HW177244   3.779   5.835  11.436
25740SOL    HW277245   3.886   5.715  11.468
25741SOL     OW77246   4.907   6.921  11.291
25741SOL    HW177247   4.808   6.910  11.293
25741SOL    HW277248   4.941   6.936  11.384
25742SOL     OW77249   4.337   6.428  12.603
25742SOL    HW177250   4.393   6.509  12.586
25742SOL    HW277251   4.396   6.348  12.606
25743SOL     OW77252   5.217   7.353  12.131
25743SOL    HW177253   5.250   7.417  12.062
25743SOL    HW277254   5.283   7.347  12.206
25744SOL     OW77255   4.440   6.151  12.880
25744SOL    HW177256   4.459   6.216  12.954
25744SOL    HW277257   4.500   6.071  12.889
25745SOL     OW77258   4.114   7.327  12.732
25745SOL    HW177259   4.023   7.368  12.730
25745SOL    HW277260   4.107   7.233  12.764
25746SOL     OW77261   5.398   6.469  12.426
25746SOL    HW177262   5.371   6.380  12.389
25746SOL    HW277263   5.399   6.537  12.353
25747SOL     OW77264   4.949   5.911  11.621
25747SOL    HW177265   5.014   5.837  11.610
25747SOL    HW277266   4.969   5.961  11.705
25748SOL     OW77267   4.318   6.331  11.824
25748SOL    HW177268   4.368   6.416  11.805
25748SOL    HW277269   4.230   6.333  11.776
25749SOL     OW77270   5.501   5.928  12.814
25749SOL    HW177271   5.484   5.959  12.720
25749SOL    HW277272   5.417   5.891  12.852
25750SOL     OW77273   5.454   6.520  12.689
25750SOL    HW177274   5.492   6.611  12.704
25750SOL    HW277275   5.446   6.503  12.590
25751SOL     OW77276   4.583   6.960  11.188
25751SOL    HW177277   4.537   6.975  11.276
25751SOL    HW277278   4.627   7.045  11.158
25752SOL     OW77279   4.385   7.376  12.125
25752SOL    HW177280   4.339   7.464  12.112
25752SOL    HW277281   4.484   7.388  12.118
25753SOL     OW77282   4.583   6.542  12.033
25753SOL    HW177283   4.637   6.473  12.081
25753SOL    HW277284   4.551   6.611  12.099
25754SOL     OW77285   4.807   6.570  11.259
25754SOL    HW177286   4.784   6.623  11.177
25754SOL    HW277287   4.888   6.514  11.240
25755SOL     OW77288   5.585   7.155  12.023
25755SOL    HW177289   5.514   7.143  11.953
25755SOL    HW277290   5.586   7.076  12.083
25756SOL     OW77291   3.803   6.826  11.825
25756SOL    HW177292   3.802   6.779  11.913
25756SOL    HW277293   3.885   6.798  11.774
25757SOL     OW77294   4.396   6.977  12.796
25757SOL    HW177295   4.318   6.927  12.834
25757SOL    HW277296   4.393   7.072  12.827
25758SOL     OW77297   5.548   5.778  12.399
25758SOL    HW177298   5.544   5.688  12.443
25758SOL    HW277299   5.551   5.767  12.300
25759SOL     OW77300   4.152   6.010  11.692
25759SOL    HW177301   4.182   5.938  11.630
25759SOL    HW277302   4.113   5.970  11.775
25760SOL     OW77303   5.429   7.073  12.276
25760SOL    HW177304   5.336   7.048  12.249
25760SOL    HW277305   5.455   7.023  12.358
25761SOL     OW77306   4.041   6.133  12.452
25761SOL    HW177307   4.079   6.074  12.524
25761SOL    HW277308   4.081   6.107  12.364
25762SOL     OW77309   4.536   7.172  11.859
25762SOL    HW177310   4.568   7.182  11.765
25762SOL    HW277311   4.457   7.110  11.861
25763SOL     OW77312   5.148   5.800  12.284
25763SOL    HW177313   5.200   5.735  12.339
25763SOL    HW277314   5.099   5.863  12.345
25764SOL     OW77315   4.725   5.620  12.326
25764SOL    HW177316   4.662   5.548  12.295
25764SOL    HW277317   4.818   5.584  12.326
25765SOL     OW77318   4.494   6.916  11.473
25765SOL    HW177319   4.448   6.829  11.490
25765SOL    HW277320   4.585   6.913  11.514
25766SOL     OW77321   4.342   7.153  12.456
25766SOL    HW177322   4.337   7.235  12.513
25766SOL    HW277323   4.431   7.150  12.411
25767SOL     OW77324   5.076   5.638  11.340
25767SOL    HW177325   5.111   5.597  11.256
25767SOL    HW277326   4.986   5.600  11.360
25768SOL     OW77327   5.024   6.039  11.863
25768SOL    HW177328   4.965   6.119  11.867
25768SOL    HW277329   5.039   6.004  11.956
25769SOL     OW77330   5.317   5.807  12.054
25769SOL    HW177331   5.233   5.806  12.108
25769SOL    HW277332   5.319   5.890  11.998
25770SOL     OW77333   3.763   6.663  11.472
25770SOL    HW177334   3.862   6.652  11.463
25770SOL    HW277335   3.723   6.577  11.504
25771SOL     OW77336   4.599   7.232  11.509
25771SOL    HW177337   4.522   7.197  11.455
25771SOL    HW277338   4.567   7.303  11.571
25772SOL     OW77339   3.954   8.076   0.113
25772SOL    HW177340   3.861   8.074   0.150
25772SOL    HW277341   3.955   8.037   0.021
25773SOL     OW77342   3.949   7.723   0.996
25773SOL    HW177343   3.984   7.706   1.088
25773SOL    HW277344   3.861   7.678   0.984
25774SOL     OW77345   3.743   7.816   0.647
25774SOL    HW177346   3.661   7.859   0.686
25774SOL    HW277347   3.715   7.743   0.584
25775SOL     OW77348   4.293   8.723   1.165
25775SOL    HW177349   4.200   8.716   1.128
25775SOL    HW277350   4.304   8.812   1.209
25776SOL     OW77351   5.279   8.959   0.703
25776SOL    HW177352   5.222   8.943   0.784
25776SOL    HW277353   5.220   8.969   0.623
25777SOL     OW77354   4.859   8.151   0.717
25777SOL    HW177355   4.916   8.229   0.692
25777SOL    HW277356   4.799   8.177   0.793
25778SOL     OW77357   5.479   8.055   0.231
25778SOL    HW177358   5.467   8.042   0.132
25778SOL    HW277359   5.449   7.974   0.280
25779SOL     OW77360   4.492   8.592   1.023
25779SOL    HW177361   4.414   8.609   1.083
25779SOL    HW277362   4.526   8.679   0.987
25780SOL     OW77363   4.574   8.246   1.823
25780SOL    HW177364   4.570   8.322   1.888
25780SOL    HW277365   4.596   8.282   1.732
25781SOL     OW77366   4.409   8.460   0.665
25781SOL    HW177367   4.478   8.444   0.735
25781SOL    HW277368   4.336   8.517   0.703
25782SOL     OW77369   4.410   8.609   1.803
25782SOL    HW177370   4.470   8.688   1.817
25782SOL    HW277371   4.324   8.640   1.762
25783SOL     OW77372   4.059   8.883   1.061
25783SOL    HW177373   3.981   8.852   1.008
25783SOL    HW277374   4.117   8.941   1.004
25784SOL     OW77375   5.184   8.953   1.339
25784SOL    HW177376   5.208   9.047   1.365
25784SOL    HW277377   5.168   8.899   1.421
25785SOL     OW77378   4.162   7.840   1.499
25785SOL    HW177379   4.244   7.784   1.508
25785SOL    HW277380   4.081   7.782   1.503
25786SOL     OW77381   5.327   7.895   0.737
25786SOL    HW177382   5.253   7.941   0.687
25786SOL    HW277383   5.378   7.963   0.790
25787SOL     OW77384   4.851   8.789   1.690
25787SOL    HW177385   4.898   8.789   1.778
25787SOL    HW277386   4.803   8.702   1.679
25788SOL     OW77387   3.954   8.882   0.538
25788SOL    HW177388   3.928   8.978   0.538
25788SOL    HW277389   3.883   8.828   0.583
25789SOL     OW77390   3.964   8.539   0.886
25789SOL    HW177391   3.978   8.455   0.938
25789SOL    HW277392   3.909   8.603   0.941
25790SOL     OW77393   4.344   9.234   1.439
25790SOL    HW177394   4.252   9.217   1.474
25790SOL    HW277395   4.372   9.326   1.465
25791SOL     OW77396   4.330   8.412   0.123
25791SOL    HW177397   4.337   8.496   0.069
25791SOL    HW277398   4.376   8.425   0.211
25792SOL     OW77399   5.318   7.562   1.480
25792SOL    HW177400   5.300   7.629   1.408
25792SOL    HW277401   5.315   7.608   1.569
25793SOL     OW77402   3.846   8.091   0.563
25793SOL    HW177403   3.801   8.003   0.580
25793SOL    HW277404   3.845   8.145   0.647
25794SOL     OW77405   5.566   9.215   0.359
25794SOL    HW177406   5.620   9.186   0.439
25794SOL    HW277407   5.596   9.305   0.330
25795SOL     OW77408   3.751   9.044   0.117
25795SOL    HW177409   3.732   8.948   0.138
25795SOL    HW277410   3.718   9.102   0.192
25796SOL     OW77411   5.413   8.370   0.612
25796SOL    HW177412   5.508   8.341   0.620
25796SOL    HW277413   5.405   8.435   0.537
25797SOL     OW77414   5.365   8.556   0.432
25797SOL    HW177415   5.451   8.558   0.380
25797SOL    HW277416   5.379   8.603   0.520
25798SOL     OW77417   3.837   8.185   1.597
25798SOL    HW177418   3.925   8.172   1.642
25798SOL    HW277419   3.824   8.282   1.575
25799SOL     OW77420   4.337   8.813   0.726
25799SOL    HW177421   4.288   8.726   0.735
25799SOL    HW277422   4.314   8.856   0.639
25800SOL     OW77423   5.017   8.676   1.423
25800SOL    HW177424   5.054   8.603   1.365
25800SOL    HW277425   5.069   8.681   1.508
25801SOL     OW77426   4.533   7.452   0.502
25801SOL    HW177427   4.573   7.543   0.493
25801SOL    HW277428   4.433   7.460   0.508
25802SOL     OW77429   3.921   8.424   1.264
25802SOL    HW177430   4.010   8.379   1.250
25802SOL    HW277431   3.848   8.359   1.245
25803SOL     OW77432   5.249   8.447   0.190
25803SOL    HW177433   5.186   8.371   0.203
25803SOL    HW277434   5.297   8.465   0.276
25804SOL     OW77435   4.911   9.240   1.616
25804SOL    HW177436   4.935   9.300   1.540
25804SOL    HW277437   4.918   9.145   1.586
25805SOL     OW77438   4.041   7.699   1.801
25805SOL    HW177439   4.112   7.770   1.807
25805SOL    HW277440   3.953   7.738   1.829
25806SOL     OW77441   5.190   8.865   0.953
25806SOL    HW177442   5.131   8.871   1.033
25806SOL    HW277443   5.175   8.777   0.907
25807SOL     OW77444   5.391   9.162   0.572
25807SOL    HW177445   5.350   9.139   0.484
25807SOL    HW277446   5.373   9.088   0.637
25808SOL     OW77447   4.322   8.177   0.270
25808SOL    HW177448   4.346   8.246   0.202
25808SOL    HW277449   4.244   8.210   0.324
25809SOL     OW77450   5.005   7.793   0.944
25809SOL    HW177451   4.919   7.743   0.931
25809SOL    HW277452   5.067   7.739   1.000
25810SOL     OW77453   5.300   9.110   0.307
25810SOL    HW177454   5.389   9.156   0.310
25810SOL    HW277455   5.279   9.086   0.212
25811SOL     OW77456   4.531   8.053   1.465
25811SOL    HW177457   4.484   8.050   1.554
25811SOL    HW277458   4.480   7.998   1.399
25812SOL     OW77459   5.118   7.917   1.674
25812SOL    HW177460   5.098   7.960   1.762
25812SOL    HW277461   5.196   7.855   1.683
25813SOL     OW77462   4.697   8.338   1.572
25813SOL    HW177463   4.743   8.254   1.543
25813SOL    HW277464   4.641   8.372   1.497
25814SOL     OW77465   4.715   7.858   1.242
25814SOL    HW177466   4.638   7.892   1.296
25814SOL    HW277467   4.681   7.807   1.163
25815SOL     OW77468   4.765   8.149   0.429
25815SOL    HW177469   4.791   8.145   0.525
25815SOL    HW277470   4.680   8.098   0.415
25816SOL     OW77471   3.800   8.259   0.789
25816SOL    HW177472   3.899   8.247   0.798
25816SOL    HW277473   3.776   8.354   0.810
25817SOL     OW77474   3.854   9.269   1.571
25817SOL    HW177475   3.844   9.254   1.670
25817SOL    HW277476   3.768   9.305   1.535
25818SOL     OW77477   4.589   7.796   0.195
25818SOL    HW177478   4.648   7.859   0.146
25818SOL    HW277479   4.608   7.702   0.166
25819SOL     OW77480   5.443   8.033   1.831
25819SOL    HW177481   5.417   8.122   1.795
25819SOL    HW277482   5.441   7.965   1.758
25820SOL     OW77483   5.086   8.592   0.545
25820SOL    HW177484   5.169   8.563   0.497
25820SOL    HW277485   5.037   8.659   0.489
25821SOL     OW77486   4.274   7.644   0.885
25821SOL    HW177487   4.269   7.639   0.985
25821SOL    HW277488   4.276   7.740   0.856
25822SOL     OW77489   4.732   8.904   0.477
25822SOL    HW177490   4.686   8.976   0.425
25822SOL    HW277491   4.728   8.924   0.575
25823SOL     OW77492   4.075   9.249   0.853
25823SOL    HW177493   4.125   9.163   0.859
25823SOL    HW277494   4.140   9.326   0.850
25824SOL     OW77495   5.519   8.514   0.873
25824SOL    HW177496   5.457   8.499   0.797
25824SOL    HW277497   5.467   8.525   0.958
25825SOL     OW77498   4.951   8.998   1.506
25825SOL    HW177499   4.957   8.921   1.570
25825SOL    HW277500   4.899   8.972   1.426
25826SOL     OW77501   4.045   8.391   0.242
25826SOL    HW177502   4.127   8.430   0.200
25826SOL    HW277503   4.018   8.309   0.193
25827SOL     OW77504   5.182   8.183   0.728
25827SOL    HW177505   5.177   8.118   0.803
25827SOL    HW277506   5.262   8.242   0.741
25828SOL     OW77507   4.185   8.714   1.727
25828SOL    HW177508   4.135   8.715   1.641
25828SOL    HW277509   4.122   8.696   1.803
25829SOL     OW77510   4.835   9.224   0.237
25829SOL    HW177511   4.775   9.162   0.287
25829SOL    HW277512   4.866   9.180   0.152
25830SOL     OW77513   3.926   7.733   1.498
25830SOL    HW177514   3.846   7.793   1.485
25830SOL    HW277515   3.916   7.684   1.584
25831SOL     OW77516   5.356   8.825   0.081
25831SOL    HW177517   5.324   8.919   0.071
25831SOL    HW277518   5.280   8.762   0.069
25832SOL     OW77519   4.188   9.191   0.323
25832SOL    HW177520   4.221   9.230   0.409
25832SOL    HW277521   4.264   9.184   0.258
25833SOL     OW77522   5.124   7.555   0.426
25833SOL    HW177523   5.100   7.518   0.336
25833SOL    HW277524   5.223   7.571   0.430
25834SOL     OW77525   3.973   9.233   1.241
25834SOL    HW177526   4.030   9.168   1.291
25834SOL    HW277527   3.957   9.200   1.148
25835SOL     OW77528   4.664   9.146   0.904
25835SOL    HW177529   4.744   9.089   0.925
25835SOL    HW277530   4.615   9.106   0.827
25836SOL     OW77531   4.106   8.148   0.480
25836SOL    HW177532   4.151   8.058   0.477
25836SOL    HW277533   4.012   8.137   0.513
25837SOL     OW77534   5.271   7.670   1.729
25837SOL    HW177535   5.266   7.707   1.821
25837SOL    HW277536   5.199   7.601   1.717
25838SOL     OW77537   4.338   7.570   0.117
25838SOL    HW177538   4.436   7.548   0.124
25838SOL    HW277539   4.307   7.553   0.024
25839SOL     OW77540   4.505   7.712   1.749
25839SOL    HW177541   4.572   7.651   1.792
25839SOL    HW277542   4.432   7.731   1.814
25840SOL     OW77543   4.612   8.962   1.195
25840SOL    HW177544   4.589   8.937   1.101
25840SOL    HW277545   4.673   8.893   1.234
25841SOL     OW77546   5.075   8.038   1.433
25841SOL    HW177547   5.103   7.995   1.518
25841SOL    HW277548   5.100   8.134   1.434
25842SOL     OW77549   4.527   8.850   0.924
25842SOL    HW177550   4.617   8.864   0.882
25842SOL    HW277551   4.456   8.852   0.853
25843SOL     OW77552   4.646   7.951   0.899
25843SOL    HW177553   4.621   7.942   0.803
25843SOL    HW277554   4.694   7.869   0.930
25844SOL     OW77555   4.263   7.512   0.512
25844SOL    HW177556   4.182   7.513   0.570
25844SOL    HW277557   4.266   7.595   0.457
25845SOL     OW77558   5.158   8.636   0.041
25845SOL    HW177559   5.190   8.560   0.098
25845SOL    HW277560   5.066   8.663   0.071
25846SOL     OW77561   4.021   7.483   0.171
25846SOL    HW177562   4.070   7.567   0.150
25846SOL    HW277563   4.083   7.418   0.216
25847SOL     OW77564   4.659   7.684   0.480
25847SOL    HW177565   4.611   7.725   0.402
25847SOL    HW277566   4.758   7.682   0.461
25848SOL     OW77567   4.800   8.131   1.464
25848SOL    HW177568   4.720   8.070   1.467
25848SOL    HW277569   4.881   8.078   1.440
25849SOL     OW77570   4.951   9.018   0.793
25849SOL    HW177571   4.972   9.092   0.728
25849SOL    HW277572   5.019   9.018   0.866
25850SOL     OW77573   4.183   8.600   0.741
25850SOL    HW177574   4.112   8.573   0.806
25850SOL    HW277575   4.157   8.572   0.648
25851SOL     OW77576   4.995   9.245   0.591
25851SOL    HW177577   5.039   9.309   0.527
25851SOL    HW277578   4.945   9.297   0.661
25852SOL     OW77579   4.756   7.997   0.016
25852SOL    HW177580   4.715   8.079  -0.023
25852SOL    HW277581   4.820   8.023   0.089
25853SOL     OW77582   3.802   8.004   1.386
25853SOL    HW177583   3.894   8.003   1.345
25853SOL    HW277584   3.796   8.078   1.453
25854SOL     OW77585   4.285   7.670   1.147
25854SOL    HW177586   4.323   7.586   1.184
25854SOL    HW277587   4.197   7.689   1.191
25855SOL     OW77588   4.590   7.902   0.642
25855SOL    HW177589   4.558   7.974   0.580
25855SOL    HW277590   4.614   7.821   0.589
25856SOL     OW77591   4.741   7.487   0.753
25856SOL    HW177592   4.669   7.492   0.684
25856SOL    HW277593   4.717   7.418   0.822
25857SOL     OW77594   5.153   8.621   0.867
25857SOL    HW177595   5.098   8.537   0.860
25857SOL    HW277596   5.179   8.650   0.775
25858SOL     OW77597   5.190   8.038   0.992
25858SOL    HW177598   5.160   7.943   0.999
25858SOL    HW277599   5.263   8.054   1.058
25859SOL     OW77600   5.581   8.281   0.377
25859SOL    HW177601   5.623   8.217   0.441
25859SOL    HW277602   5.543   8.230   0.299
25860SOL     OW77603   4.212   8.833   0.174
25860SOL    HW177604   4.125   8.818   0.221
25860SOL    HW277605   4.195   8.859   0.079
25861SOL     OW77606   5.388   8.728   0.657
25861SOL    HW177607   5.487   8.736   0.671
25861SOL    HW277608   5.343   8.812   0.688
25862SOL     OW77609   5.114   8.023   0.078
25862SOL    HW177610   5.060   8.002   0.159
25862SOL    HW277611   5.205   7.982   0.087
25863SOL     OW77612   4.251   7.704   0.328
25863SOL    HW177613   4.278   7.645   0.253
25863SOL    HW277614   4.251   7.799   0.297
25864SOL     OW77615   5.478   8.671   1.588
25864SOL    HW177616   5.569   8.632   1.575
25864SOL    HW277617   5.486   8.767   1.612
25865SOL     OW77618   4.788   8.795   1.340
25865SOL    HW177619   4.708   8.772   1.395
25865SOL    HW277620   4.871   8.769   1.389
25866SOL     OW77621   5.316   9.077   1.625
25866SOL    HW177622   5.343   9.111   1.535
25866SOL    HW277623   5.395   9.039   1.671
25867SOL     OW77624   4.835   8.643   1.100
25867SOL    HW177625   4.795   8.687   1.181
25867SOL    HW277626   4.794   8.680   1.017
25868SOL     OW77627   5.362   8.547   1.079
25868SOL    HW177628   5.367   8.628   1.138
25868SOL    HW277629   5.276   8.549   1.028
25869SOL     OW77630   4.639   7.537   1.402
25869SOL    HW177631   4.664   7.517   1.307
25869SOL    HW277632   4.711   7.593   1.444
25870SOL     OW77633   4.704   8.564   1.719
25870SOL    HW177634   4.605   8.570   1.729
25870SOL    HW277635   4.727   8.484   1.663
25871SOL     OW77636   4.429   8.498   0.368
25871SOL    HW177637   4.415   8.505   0.467
25871SOL    HW277638   4.513   8.447   0.350
25872SOL     OW77639   4.134   8.261   1.251
25872SOL    HW177640   4.220   8.273   1.301
25872SOL    HW277641   4.092   8.174   1.278
25873SOL     OW77642   4.998   7.834   1.262
25873SOL    HW177643   5.019   7.908   1.326
25873SOL    HW277644   4.909   7.851   1.219
25874SOL     OW77645   3.788   9.012   1.331
25874SOL    HW177646   3.742   9.094   1.297
25874SOL    HW277647   3.886   9.031   1.340
25875SOL     OW77648   4.091   8.548   0.501
25875SOL    HW177649   4.084   8.631   0.445
25875SOL    HW277650   4.095   8.468   0.441
25876SOL     OW77651   4.290   7.985   0.865
25876SOL    HW177652   4.302   8.051   0.791
25876SOL    HW277653   4.336   8.019   0.948
25877SOL     OW77654   4.976   8.796   0.388
25877SOL    HW177655   5.026   8.873   0.428
25877SOL    HW277656   4.881   8.798   0.420
25878SOL     OW77657   4.996   8.893   1.142
25878SOL    HW177658   5.043   8.906   1.229
25878SOL    HW277659   4.930   8.819   1.151
25879SOL     OW77660   5.306   8.087   0.472
25879SOL    HW177661   5.275   8.148   0.545
25879SOL    HW277662   5.356   8.139   0.403
25880SOL     OW77663   4.078   8.958   1.329
25880SOL    HW177664   4.057   8.914   1.242
25880SOL    HW277665   4.175   8.984   1.332
25881SOL     OW77666   4.126   8.199   1.598
25881SOL    HW177667   4.194   8.254   1.551
25881SOL    HW277668   4.166   8.111   1.625
25882SOL     OW77669   5.311   8.227   1.670
25882SOL    HW177670   5.219   8.265   1.665
25882SOL    HW277671   5.371   8.274   1.605
25883SOL     OW77672   4.737   7.553   1.770
25883SOL    HW177673   4.743   7.638   1.718
25883SOL    HW277674   4.769   7.477   1.713
25884SOL     OW77675   4.228   7.498   1.740
25884SOL    HW177676   4.186   7.441   1.670
25884SOL    HW277677   4.162   7.567   1.772
25885SOL     OW77678   4.297   8.318   1.029
25885SOL    HW177679   4.341   8.407   1.020
25885SOL    HW277680   4.234   8.318   1.106
25886SOL     OW77681   5.084   8.310   1.045
25886SOL    HW177682   5.009   8.310   0.979
25886SOL    HW277683   5.121   8.218   1.054
25887SOL     OW77684   4.933   7.973   0.275
25887SOL    HW177685   4.946   7.889   0.329
25887SOL    HW277686   4.904   8.047   0.335
25888SOL     OW77687   4.031   7.661   1.231
25888SOL    HW177688   4.008   7.698   1.321
25888SOL    HW277689   4.001   7.566   1.225
25889SOL     OW77690   3.761   8.758   1.282
25889SOL    HW177691   3.814   8.709   1.350
25889SOL    HW277692   3.783   8.856   1.287
25890SOL     OW77693   4.456   8.082   1.064
25890SOL    HW177694   4.515   8.056   0.988
25890SOL    HW277695   4.428   8.178   1.053
25891SOL     OW77696   5.452   8.383   1.854
25891SOL    HW177697   5.406   8.376   1.765
25891SOL    HW277698   5.390   8.427   1.920
25892SOL     OW77699   4.031   7.511   0.618
25892SOL    HW177700   4.020   7.605   0.651
25892SOL    HW277701   4.026   7.448   0.695
25893SOL     OW77702   5.346   7.815   0.374
25893SOL    HW177703   5.348   7.739   0.438
25893SOL    HW277704   5.298   7.892   0.414
25894SOL     OW77705   4.747   8.214   0.966
25894SOL    HW177706   4.762   8.235   1.062
25894SOL    HW277707   4.717   8.119   0.957
25895SOL     OW77708   4.704   9.021   1.700
25895SOL    HW177709   4.684   9.065   1.612
25895SOL    HW277710   4.743   8.930   1.684
25896SOL     OW77711   5.583   8.966   1.605
25896SOL    HW177712   5.597   8.993   1.510
25896SOL    HW277713   5.666   8.988   1.658
25897SOL     OW77714   4.074   8.346   1.804
25897SOL    HW177715   4.150   8.390   1.852
25897SOL    HW277716   4.109   8.299   1.722
25898SOL     OW77717   5.264   7.722   0.125
25898SOL    HW177718   5.203   7.647   0.148
25898SOL    HW277719   5.286   7.774   0.208
25899SOL     OW77720   5.027   8.286   0.042
25899SOL    HW177721   5.061   8.193   0.057
25899SOL    HW277722   5.045   8.313  -0.053
25900SOL     OW77723   4.792   8.781   0.849
25900SOL    HW177724   4.799   8.697   0.794
25900SOL    HW277725   4.854   8.850   0.813
25901SOL     OW77726   4.043   8.258   0.949
25901SOL    HW177727   4.136   8.294   0.954
25901SOL    HW277728   4.037   8.173   1.001
25902SOL     OW77729   4.063   7.957   1.006
25902SOL    HW177730   4.011   7.874   0.989
25902SOL    HW277731   4.140   7.962   0.942
25903SOL     OW77732   4.862   7.828   1.678
25903SOL    HW177733   4.817   7.891   1.742
25903SOL    HW277734   4.955   7.859   1.661
25904SOL     OW77735   4.884   7.655   1.477
25904SOL    HW177736   4.884   7.719   1.554
25904SOL    HW277737   4.912   7.703   1.394
25905SOL     OW77738   3.732   8.774   0.200
25905SOL    HW177739   3.639   8.795   0.169
25905SOL    HW277740   3.742   8.675   0.213
25906SOL     OW77741   3.812   9.249   0.927
25906SOL    HW177742   3.770   9.163   0.900
25906SOL    HW277743   3.906   9.252   0.893
25907SOL     OW77744   4.228   9.016   0.910
25907SOL    HW177745   4.294   9.090   0.919
25907SOL    HW277746   4.272   8.937   0.868
25908SOL     OW77747   4.726   8.244   1.238
25908SOL    HW177748   4.767   8.212   1.324
25908SOL    HW277749   4.630   8.217   1.235
25909SOL     OW77750   3.764   7.992   1.114
25909SOL    HW177751   3.849   7.959   1.073
25909SOL    HW277752   3.777   8.007   1.212
25910SOL     OW77753   3.913   7.968   1.722
25910SOL    HW177754   3.972   7.928   1.652
25910SOL    HW277755   3.855   8.039   1.681
25911SOL     OW77756   5.093   8.398   1.660
25911SOL    HW177757   5.132   8.487   1.680
25911SOL    HW277758   5.103   8.378   1.563
25912SOL     OW77759   4.539   8.020   0.325
25912SOL    HW177760   4.546   7.931   0.279
25912SOL    HW277761   4.445   8.054   0.317
25913SOL     OW77762   5.381   8.052   1.206
25913SOL    HW177763   5.343   7.983   1.268
25913SOL    HW277764   5.463   8.016   1.162
25914SOL     OW77765   3.976   9.012   1.744
25914SOL    HW177766   3.946   9.069   1.820
25914SOL    HW277767   3.969   8.915   1.770
25915SOL     OW77768   4.395   7.912   1.269
25915SOL    HW177769   4.361   7.823   1.239
25915SOL    HW277770   4.421   7.966   1.189
25916SOL     OW77771   4.654   9.126   1.465
25916SOL    HW177772   4.630   9.108   1.370
25916SOL    HW277773   4.684   9.220   1.475
25917SOL     OW77774   4.197   7.948   0.191
25917SOL    HW177775   4.258   8.028   0.195
25917SOL    HW277776   4.102   7.979   0.198
25918SOL     OW77777   3.883   8.585   1.466
25918SOL    HW177778   3.905   8.524   1.542
25918SOL    HW277779   3.893   8.536   1.380
25919SOL     OW77780   5.071   8.507   1.234
25919SOL    HW177781   5.095   8.444   1.160
25919SOL    HW277782   4.981   8.547   1.216
25920SOL     OW77783   5.026   8.303   0.309
25920SOL    HW177784   4.940   8.272   0.351
25920SOL    HW277785   5.022   8.289   0.210
25921SOL     OW77786   5.483   9.195   1.154
25921SOL    HW177787   5.544   9.225   1.081
25921SOL    HW277788   5.445   9.106   1.132
25922SOL     OW77789   4.976   9.179   1.128
25922SOL    HW177790   5.060   9.184   1.074
25922SOL    HW277791   4.953   9.083   1.146
25923SOL     OW77792   3.807   8.706   1.022
25923SOL    HW177793   3.802   8.705   1.122
25923SOL    HW277794   3.724   8.665   0.984
25924SOL     OW77795   4.412   9.110   1.716
25924SOL    HW177796   4.356   9.191   1.725
25924SOL    HW277797   4.464   9.114   1.630
25925SOL     OW77798   4.627   7.534   0.133
25925SOL    HW177799   4.678   7.535   0.047
25925SOL    HW277800   4.683   7.492   0.204
25926SOL     OW77801   5.450   7.583   0.523
25926SOL    HW177802   5.523   7.566   0.456
25926SOL    HW277803   5.419   7.496   0.561
25927SOL     OW77804   5.112   9.021   0.477
25927SOL    HW177805   5.179   9.033   0.403
25927SOL    HW277806   5.072   9.110   0.500
25928SOL     OW77807   3.854   9.242   1.851
25928SOL    HW177808   3.813   9.168   1.904
25928SOL    HW277809   3.918   9.293   1.909
25929SOL     OW77810   5.004   8.375   0.672
25929SOL    HW177811   5.064   8.294   0.674
25929SOL    HW277812   5.044   8.444   0.612
25930SOL     OW77813   4.554   8.721   1.422
25930SOL    HW177814   4.549   8.754   1.517
25930SOL    HW277815   4.468   8.740   1.376
25931SOL     OW77816   4.396   9.064   0.154
25931SOL    HW177817   4.405   9.074   0.055
25931SOL    HW277818   4.356   8.975   0.175
25932SOL     OW77819   5.374   9.168   1.394
25932SOL    HW177820   5.427   9.178   1.310
25932SOL    HW277821   5.347   9.258   1.428
25933SOL     OW77822   5.565   7.623   0.963
25933SOL    HW177823   5.604   7.538   0.927
25933SOL    HW277824   5.467   7.625   0.944
25934SOL     OW77825   3.987   7.774   0.720
25934SOL    HW177826   3.908   7.825   0.686
25934SOL    HW277827   3.978   7.759   0.818
25935SOL     OW77828   4.918   9.060   0.031
25935SOL    HW177829   4.924   8.967   0.068
25935SOL    HW277830   4.859   9.060  -0.049
25936SOL     OW77831   4.546   8.450   1.372
25936SOL    HW177832   4.586   8.449   1.280
25936SOL    HW277833   4.556   8.542   1.412
25937SOL     OW77834   4.640   8.358   0.291
25937SOL    HW177835   4.703   8.396   0.223
25937SOL    HW277836   4.680   8.275   0.330
25938SOL     OW77837   5.228   9.055   0.044
25938SOL    HW177838   5.136   9.092   0.051
25938SOL    HW277839   5.266   9.075  -0.046
25939SOL     OW77840   4.096   8.736   1.490
25939SOL    HW177841   4.083   8.829   1.456
25939SOL    HW277842   4.012   8.684   1.477
25940SOL     OW77843   5.338   8.740   1.289
25940SOL    HW177844   5.398   8.743   1.369
25940SOL    HW277845   5.263   8.804   1.302
25941SOL     OW77846   4.763   8.546   0.696
25941SOL    HW177847   4.693   8.499   0.750
25941SOL    HW277848   4.822   8.478   0.653
25942SOL     OW77849   4.738   7.684   0.971
25942SOL    HW177850   4.730   7.648   0.878
25942SOL    HW277851   4.736   7.608   1.036
25943SOL     OW77852   4.314   8.935   0.491
25943SOL    HW177853   4.356   8.877   0.421
25943SOL    HW277854   4.270   9.014   0.447
25944SOL     OW77855   5.433   7.833   1.381
25944SOL    HW177856   5.506   7.902   1.385
25944SOL    HW277857   5.461   7.758   1.322
25945SOL     OW77858   3.979   8.796   0.290
25945SOL    HW177859   3.883   8.797   0.263
25945SOL    HW277860   3.991   8.849   0.374
25946SOL     OW77861   3.829   8.461   1.726
25946SOL    HW177862   3.752   8.428   1.780
25946SOL    HW277863   3.914   8.431   1.768
25947SOL     OW77864   4.396   7.651   1.489
25947SOL    HW177865   4.486   7.635   1.449
25947SOL    HW277866   4.404   7.656   1.588
25948SOL     OW77867   5.164   8.304   1.398
25948SOL    HW177868   5.107   8.356   1.335
25948SOL    HW277869   5.260   8.316   1.374
25949SOL     OW77870   3.796   7.614   0.318
25949SOL    HW177871   3.779   7.697   0.264
25949SOL    HW277872   3.886   7.577   0.296
25950SOL     OW77873   4.907   8.783   0.119
25950SOL    HW177874   4.808   8.772   0.121
25950SOL    HW277875   4.941   8.798   0.212
25951SOL     OW77876   4.337   8.290   1.431
25951SOL    HW177877   4.393   8.371   1.414
25951SOL    HW277878   4.396   8.210   1.434
25952SOL     OW77879   5.217   9.215   0.959
25952SOL    HW177880   5.250   9.279   0.890
25952SOL    HW277881   5.283   9.209   1.034
25953SOL     OW77882   4.440   8.013   1.708
25953SOL    HW177883   4.459   8.078   1.782
25953SOL    HW277884   4.500   7.933   1.717
25954SOL     OW77885   5.174   8.668   1.633
25954SOL    HW177886   5.165   8.658   1.732
25954SOL    HW277887   5.270   8.661   1.607
25955SOL     OW77888   4.114   9.189   1.560
25955SOL    HW177889   4.023   9.230   1.558
25955SOL    HW277890   4.107   9.095   1.592
25956SOL     OW77891   5.398   8.331   1.254
25956SOL    HW177892   5.371   8.242   1.217
25956SOL    HW277893   5.399   8.399   1.181
25957SOL     OW77894   4.949   7.773   0.449
25957SOL    HW177895   5.014   7.699   0.438
25957SOL    HW277896   4.969   7.823   0.533
25958SOL     OW77897   4.318   8.193   0.652
25958SOL    HW177898   4.368   8.278   0.633
25958SOL    HW277899   4.230   8.195   0.604
25959SOL     OW77900   5.501   7.790   1.642
25959SOL    HW177901   5.484   7.821   1.548
25959SOL    HW277902   5.417   7.753   1.680
25960SOL     OW77903   5.454   8.382   1.517
25960SOL    HW177904   5.492   8.473   1.532
25960SOL    HW277905   5.446   8.365   1.418
25961SOL     OW77906   4.583   8.822   0.016
25961SOL    HW177907   4.537   8.837   0.104
25961SOL    HW277908   4.627   8.907  -0.014
25962SOL     OW77909   4.385   9.238   0.953
25962SOL    HW177910   4.339   9.326   0.940
25962SOL    HW277911   4.484   9.250   0.946
25963SOL     OW77912   4.583   8.404   0.861
25963SOL    HW177913   4.637   8.335   0.909
25963SOL    HW277914   4.551   8.473   0.927
25964SOL     OW77915   4.807   8.432   0.087
25964SOL    HW177916   4.784   8.485   0.005
25964SOL    HW277917   4.888   8.376   0.068
25965SOL     OW77918   5.585   9.017   0.851
25965SOL    HW177919   5.514   9.005   0.781
25965SOL    HW277920   5.586   8.938   0.911
25966SOL     OW77921   3.945   8.762   1.844
25966SOL    HW177922   3.880   8.689   1.823
25966SOL    HW277923   3.949   8.776   1.942
25967SOL     OW77924   3.803   8.688   0.653
25967SOL    HW177925   3.802   8.641   0.741
25967SOL    HW277926   3.885   8.660   0.602
25968SOL     OW77927   4.396   8.839   1.624
25968SOL    HW177928   4.318   8.789   1.662
25968SOL    HW277929   4.393   8.934   1.655
25969SOL     OW77930   5.548   7.640   1.227
25969SOL    HW177931   5.544   7.550   1.271
25969SOL    HW277932   5.551   7.629   1.128
25970SOL     OW77933   4.152   7.872   0.520
25970SOL    HW177934   4.182   7.800   0.458
25970SOL    HW277935   4.113   7.832   0.603
25971SOL     OW77936   5.429   8.935   1.104
25971SOL    HW177937   5.336   8.910   1.077
25971SOL    HW277938   5.455   8.885   1.186
25972SOL     OW77939   4.041   7.995   1.280
25972SOL    HW177940   4.079   7.936   1.352
25972SOL    HW277941   4.081   7.969   1.192
25973SOL     OW77942   4.536   9.034   0.687
25973SOL    HW177943   4.568   9.044   0.593
25973SOL    HW277944   4.457   8.972   0.689
25974SOL     OW77945   5.148   7.662   1.112
25974SOL    HW177946   5.200   7.597   1.167
25974SOL    HW277947   5.099   7.725   1.173
25975SOL     OW77948   4.725   7.482   1.154
25975SOL    HW177949   4.662   7.410   1.123
25975SOL    HW277950   4.818   7.446   1.154
25976SOL     OW77951   4.494   8.778   0.301
25976SOL    HW177952   4.448   8.691   0.318
25976SOL    HW277953   4.585   8.775   0.342
25977SOL     OW77954   4.342   9.015   1.284
25977SOL    HW177955   4.337   9.097   1.341
25977SOL    HW277956   4.431   9.012   1.239
25978SOL     OW77957   5.076   7.500   0.168
25978SOL    HW177958   5.111   7.459   0.084
25978SOL    HW277959   4.986   7.462   0.188
25979SOL     OW77960   5.024   7.901   0.691
25979SOL    HW177961   4.965   7.981   0.695
25979SOL    HW277962   5.039   7.866   0.784
25980SOL     OW77963   5.317   7.669   0.882
25980SOL    HW177964   5.233   7.668   0.936
25980SOL    HW277965   5.319   7.752   0.826
25981SOL     OW77966   3.763   8.525   0.300
25981SOL    HW177967   3.862   8.514   0.291
25981SOL    HW277968   3.723   8.439   0.332
25982SOL     OW77969   4.599   9.094   0.337
25982SOL    HW177970   4.522   9.059   0.283
25982SOL    HW277971   4.567   9.165   0.399
25983SOL     OW77972   3.954   8.076   1.975
25983SOL    HW177973   3.861   8.074   2.012
25983SOL    HW277974   3.955   8.037   1.883
25984SOL     OW77975   3.949   7.723   2.858
25984SOL    HW177976   3.984   7.706   2.950
25984SOL    HW277977   3.861   7.678   2.846
25985SOL     OW77978   3.743   7.816   2.509
25985SOL    HW177979   3.661   7.859   2.548
25985SOL    HW277980   3.715   7.743   2.446
25986SOL     OW77981   4.293   8.723   3.027
25986SOL    HW177982   4.200   8.716   2.990
25986SOL    HW277983   4.304   8.812   3.071
25987SOL     OW77984   5.279   8.959   2.565
25987SOL    HW177985   5.222   8.943   2.646
25987SOL    HW277986   5.220   8.969   2.485
25988SOL     OW77987   4.859   8.151   2.579
25988SOL    HW177988   4.916   8.229   2.554
25988SOL    HW277989   4.799   8.177   2.655
25989SOL     OW77990   5.479   8.055   2.093
25989SOL    HW177991   5.467   8.042   1.994
25989SOL    HW277992   5.449   7.974   2.142
25990SOL     OW77993   4.492   8.592   2.885
25990SOL    HW177994   4.414   8.609   2.945
25990SOL    HW277995   4.526   8.679   2.849
25991SOL     OW77996   4.574   8.246   3.685
25991SOL    HW177997   4.570   8.322   3.750
25991SOL    HW277998   4.596   8.282   3.594
25992SOL     OW77999   4.409   8.460   2.527
25992SOL    HW178000   4.478   8.444   2.597
25992SOL    HW278001   4.336   8.517   2.565
25993SOL     OW78002   4.410   8.609   3.665
25993SOL    HW178003   4.470   8.688   3.679
25993SOL    HW278004   4.324   8.640   3.624
25994SOL     OW78005   4.059   8.883   2.923
25994SOL    HW178006   3.981   8.852   2.870
25994SOL    HW278007   4.117   8.941   2.866
25995SOL     OW78008   5.184   8.953   3.201
25995SOL    HW178009   5.208   9.047   3.227
25995SOL    HW278010   5.168   8.899   3.283
25996SOL     OW78011   4.162   7.840   3.361
25996SOL    HW178012   4.244   7.784   3.370
25996SOL    HW278013   4.081   7.782   3.365
25997SOL     OW78014   5.327   7.895   2.599
25997SOL    HW178015   5.253   7.941   2.549
25997SOL    HW278016   5.378   7.963   2.652
25998SOL     OW78017   3.955   9.161   2.345
25998SOL    HW178018   3.989   9.238   2.399
25998SOL    HW278019   3.999   9.161   2.255
25999SOL     OW78020   4.851   8.789   3.552
25999SOL    HW178021   4.898   8.789   3.640
25999SOL    HW278022   4.803   8.702   3.541
26000SOL     OW78023   3.954   8.882   2.400
26000SOL    HW178024   3.928   8.978   2.400
26000SOL    HW278025   3.883   8.828   2.445
26001SOL     OW78026   3.964   8.539   2.748
26001SOL    HW178027   3.978   8.455   2.800
26001SOL    HW278028   3.909   8.603   2.803
26002SOL     OW78029   4.344   9.234   3.301
26002SOL    HW178030   4.252   9.217   3.336
26002SOL    HW278031   4.372   9.326   3.327
26003SOL     OW78032   4.330   8.412   1.985
26003SOL    HW178033   4.337   8.496   1.931
26003SOL    HW278034   4.376   8.425   2.073
26004SOL     OW78035   5.318   7.562   3.342
26004SOL    HW178036   5.300   7.629   3.270
26004SOL    HW278037   5.315   7.608   3.431
26005SOL     OW78038   3.846   8.091   2.425
26005SOL    HW178039   3.801   8.003   2.442
26005SOL    HW278040   3.845   8.145   2.509
26006SOL     OW78041   5.566   9.215   2.221
26006SOL    HW178042   5.620   9.186   2.301
26006SOL    HW278043   5.596   9.305   2.192
26007SOL     OW78044   3.751   9.044   1.979
26007SOL    HW178045   3.732   8.948   2.000
26007SOL    HW278046   3.718   9.102   2.054
26008SOL     OW78047   5.413   8.370   2.474
26008SOL    HW178048   5.508   8.341   2.482
26008SOL    HW278049   5.405   8.435   2.399
26009SOL     OW78050   5.365   8.556   2.294
26009SOL    HW178051   5.451   8.558   2.242
26009SOL    HW278052   5.379   8.603   2.382
26010SOL     OW78053   3.837   8.185   3.459
26010SOL    HW178054   3.925   8.172   3.504
26010SOL    HW278055   3.824   8.282   3.437
26011SOL     OW78056   4.337   8.813   2.588
26011SOL    HW178057   4.288   8.726   2.597
26011SOL    HW278058   4.314   8.856   2.501
26012SOL     OW78059   5.017   8.676   3.285
26012SOL    HW178060   5.054   8.603   3.227
26012SOL    HW278061   5.069   8.681   3.370
26013SOL     OW78062   4.533   7.452   2.364
26013SOL    HW178063   4.573   7.543   2.355
26013SOL    HW278064   4.433   7.460   2.370
26014SOL     OW78065   3.921   8.424   3.126
26014SOL    HW178066   4.010   8.379   3.112
26014SOL    HW278067   3.848   8.359   3.107
26015SOL     OW78068   5.249   8.447   2.052
26015SOL    HW178069   5.186   8.371   2.065
26015SOL    HW278070   5.297   8.465   2.138
26016SOL     OW78071   4.911   9.240   3.478
26016SOL    HW178072   4.935   9.300   3.402
26016SOL    HW278073   4.918   9.145   3.448
26017SOL     OW78074   4.041   7.699   3.663
26017SOL    HW178075   4.112   7.770   3.669
26017SOL    HW278076   3.953   7.738   3.691
26018SOL     OW78077   5.190   8.865   2.815
26018SOL    HW178078   5.131   8.871   2.895
26018SOL    HW278079   5.175   8.777   2.769
26019SOL     OW78080   5.391   9.162   2.434
26019SOL    HW178081   5.350   9.139   2.346
26019SOL    HW278082   5.373   9.088   2.499
26020SOL     OW78083   4.322   8.177   2.132
26020SOL    HW178084   4.346   8.246   2.064
26020SOL    HW278085   4.244   8.210   2.186
26021SOL     OW78086   5.005   7.793   2.806
26021SOL    HW178087   4.919   7.743   2.793
26021SOL    HW278088   5.067   7.739   2.862
26022SOL     OW78089   5.300   9.110   2.169
26022SOL    HW178090   5.389   9.156   2.172
26022SOL    HW278091   5.279   9.086   2.074
26023SOL     OW78092   4.531   8.053   3.327
26023SOL    HW178093   4.484   8.050   3.416
26023SOL    HW278094   4.480   7.998   3.261
26024SOL     OW78095   5.118   7.917   3.536
26024SOL    HW178096   5.098   7.960   3.624
26024SOL    HW278097   5.196   7.855   3.545
26025SOL     OW78098   4.697   8.338   3.434
26025SOL    HW178099   4.743   8.254   3.405
26025SOL    HW278100   4.641   8.372   3.359
26026SOL     OW78101   4.715   7.858   3.104
26026SOL    HW178102   4.638   7.892   3.158
26026SOL    HW278103   4.681   7.807   3.025
26027SOL     OW78104   4.765   8.149   2.291
26027SOL    HW178105   4.791   8.145   2.387
26027SOL    HW278106   4.680   8.098   2.277
26028SOL     OW78107   3.800   8.259   2.651
26028SOL    HW178108   3.899   8.247   2.660
26028SOL    HW278109   3.776   8.354   2.672
26029SOL     OW78110   3.854   9.269   3.433
26029SOL    HW178111   3.844   9.254   3.532
26029SOL    HW278112   3.768   9.305   3.397
26030SOL     OW78113   4.589   7.796   2.057
26030SOL    HW178114   4.648   7.859   2.008
26030SOL    HW278115   4.608   7.702   2.028
26031SOL     OW78116   5.443   8.033   3.693
26031SOL    HW178117   5.417   8.122   3.657
26031SOL    HW278118   5.441   7.965   3.620
26032SOL     OW78119   5.086   8.592   2.407
26032SOL    HW178120   5.169   8.563   2.359
26032SOL    HW278121   5.037   8.659   2.351
26033SOL     OW78122   4.274   7.644   2.747
26033SOL    HW178123   4.269   7.639   2.847
26033SOL    HW278124   4.276   7.740   2.718
26034SOL     OW78125   4.732   8.904   2.339
26034SOL    HW178126   4.686   8.976   2.287
26034SOL    HW278127   4.728   8.924   2.437
26035SOL     OW78128   4.075   9.249   2.715
26035SOL    HW178129   4.125   9.163   2.721
26035SOL    HW278130   4.140   9.326   2.712
26036SOL     OW78131   5.519   8.514   2.735
26036SOL    HW178132   5.457   8.499   2.659
26036SOL    HW278133   5.467   8.525   2.820
26037SOL     OW78134   4.951   8.998   3.368
26037SOL    HW178135   4.957   8.921   3.432
26037SOL    HW278136   4.899   8.972   3.288
26038SOL     OW78137   4.045   8.391   2.104
26038SOL    HW178138   4.127   8.430   2.062
26038SOL    HW278139   4.018   8.309   2.055
26039SOL     OW78140   5.182   8.183   2.590
26039SOL    HW178141   5.177   8.118   2.665
26039SOL    HW278142   5.262   8.242   2.603
26040SOL     OW78143   4.185   8.714   3.589
26040SOL    HW178144   4.135   8.715   3.503
26040SOL    HW278145   4.122   8.696   3.665
26041SOL     OW78146   4.835   9.224   2.099
26041SOL    HW178147   4.775   9.162   2.149
26041SOL    HW278148   4.866   9.180   2.014
26042SOL     OW78149   3.926   7.733   3.360
26042SOL    HW178150   3.846   7.793   3.347
26042SOL    HW278151   3.916   7.684   3.446
26043SOL     OW78152   5.356   8.825   1.943
26043SOL    HW178153   5.324   8.919   1.933
26043SOL    HW278154   5.280   8.762   1.931
26044SOL     OW78155   4.188   9.191   2.185
26044SOL    HW178156   4.221   9.230   2.271
26044SOL    HW278157   4.264   9.184   2.120
26045SOL     OW78158   5.124   7.555   2.288
26045SOL    HW178159   5.100   7.518   2.198
26045SOL    HW278160   5.223   7.571   2.292
26046SOL     OW78161   3.973   9.233   3.103
26046SOL    HW178162   4.030   9.168   3.153
26046SOL    HW278163   3.957   9.200   3.010
26047SOL     OW78164   4.664   9.146   2.766
26047SOL    HW178165   4.744   9.089   2.787
26047SOL    HW278166   4.615   9.106   2.689
26048SOL     OW78167   4.106   8.148   2.342
26048SOL    HW178168   4.151   8.058   2.339
26048SOL    HW278169   4.012   8.137   2.375
26049SOL     OW78170   5.271   7.670   3.591
26049SOL    HW178171   5.266   7.707   3.683
26049SOL    HW278172   5.199   7.601   3.579
26050SOL     OW78173   4.338   7.570   1.979
26050SOL    HW178174   4.436   7.548   1.986
26050SOL    HW278175   4.307   7.553   1.886
26051SOL     OW78176   4.612   8.962   3.057
26051SOL    HW178177   4.589   8.937   2.963
26051SOL    HW278178   4.673   8.893   3.096
26052SOL     OW78179   5.075   8.038   3.295
26052SOL    HW178180   5.103   7.995   3.380
26052SOL    HW278181   5.100   8.134   3.296
26053SOL     OW78182   4.527   8.850   2.786
26053SOL    HW178183   4.617   8.864   2.744
26053SOL    HW278184   4.456   8.852   2.715
26054SOL     OW78185   4.646   7.951   2.761
26054SOL    HW178186   4.621   7.942   2.665
26054SOL    HW278187   4.694   7.869   2.792
26055SOL     OW78188   4.263   7.512   2.374
26055SOL    HW178189   4.182   7.513   2.432
26055SOL    HW278190   4.266   7.595   2.319
26056SOL     OW78191   5.158   8.636   1.903
26056SOL    HW178192   5.190   8.560   1.960
26056SOL    HW278193   5.066   8.663   1.933
26057SOL     OW78194   4.021   7.483   2.033
26057SOL    HW178195   4.070   7.567   2.012
26057SOL    HW278196   4.083   7.418   2.078
26058SOL     OW78197   4.659   7.684   2.342
26058SOL    HW178198   4.611   7.725   2.264
26058SOL    HW278199   4.758   7.682   2.323
26059SOL     OW78200   4.800   8.131   3.326
26059SOL    HW178201   4.720   8.070   3.329
26059SOL    HW278202   4.881   8.078   3.302
26060SOL     OW78203   4.951   9.018   2.655
26060SOL    HW178204   4.972   9.092   2.590
26060SOL    HW278205   5.019   9.018   2.728
26061SOL     OW78206   4.183   8.600   2.603
26061SOL    HW178207   4.112   8.573   2.668
26061SOL    HW278208   4.157   8.572   2.510
26062SOL     OW78209   4.995   9.245   2.453
26062SOL    HW178210   5.039   9.309   2.389
26062SOL    HW278211   4.945   9.297   2.523
26063SOL     OW78212   4.756   7.997   1.878
26063SOL    HW178213   4.715   8.079   1.839
26063SOL    HW278214   4.820   8.023   1.951
26064SOL     OW78215   3.802   8.004   3.248
26064SOL    HW178216   3.894   8.003   3.207
26064SOL    HW278217   3.796   8.078   3.315
26065SOL     OW78218   4.285   7.670   3.009
26065SOL    HW178219   4.323   7.586   3.046
26065SOL    HW278220   4.197   7.689   3.053
26066SOL     OW78221   4.590   7.902   2.504
26066SOL    HW178222   4.558   7.974   2.442
26066SOL    HW278223   4.614   7.821   2.451
26067SOL     OW78224   4.741   7.487   2.615
26067SOL    HW178225   4.669   7.492   2.546
26067SOL    HW278226   4.717   7.418   2.684
26068SOL     OW78227   5.153   8.621   2.729
26068SOL    HW178228   5.098   8.537   2.722
26068SOL    HW278229   5.179   8.650   2.637
26069SOL     OW78230   5.190   8.038   2.854
26069SOL    HW178231   5.160   7.943   2.861
26069SOL    HW278232   5.263   8.054   2.920
26070SOL     OW78233   5.581   8.281   2.239
26070SOL    HW178234   5.623   8.217   2.303
26070SOL    HW278235   5.543   8.230   2.161
26071SOL     OW78236   4.212   8.833   2.036
26071SOL    HW178237   4.125   8.818   2.083
26071SOL    HW278238   4.195   8.859   1.941
26072SOL     OW78239   5.388   8.728   2.519
26072SOL    HW178240   5.487   8.736   2.533
26072SOL    HW278241   5.343   8.812   2.550
26073SOL     OW78242   5.114   8.023   1.940
26073SOL    HW178243   5.060   8.002   2.021
26073SOL    HW278244   5.205   7.982   1.949
26074SOL     OW78245   4.251   7.704   2.190
26074SOL    HW178246   4.278   7.645   2.115
26074SOL    HW278247   4.251   7.799   2.159
26075SOL     OW78248   5.478   8.671   3.450
26075SOL    HW178249   5.569   8.632   3.437
26075SOL    HW278250   5.486   8.767   3.474
26076SOL     OW78251   4.788   8.795   3.202
26076SOL    HW178252   4.708   8.772   3.257
26076SOL    HW278253   4.871   8.769   3.251
26077SOL     OW78254   5.316   9.077   3.487
26077SOL    HW178255   5.343   9.111   3.397
26077SOL    HW278256   5.395   9.039   3.533
26078SOL     OW78257   4.835   8.643   2.962
26078SOL    HW178258   4.795   8.687   3.043
26078SOL    HW278259   4.794   8.680   2.879
26079SOL     OW78260   5.362   8.547   2.941
26079SOL    HW178261   5.367   8.628   3.000
26079SOL    HW278262   5.276   8.549   2.890
26080SOL     OW78263   4.639   7.537   3.264
26080SOL    HW178264   4.664   7.517   3.169
26080SOL    HW278265   4.711   7.593   3.306
26081SOL     OW78266   4.704   8.564   3.581
26081SOL    HW178267   4.605   8.570   3.591
26081SOL    HW278268   4.727   8.484   3.525
26082SOL     OW78269   4.429   8.498   2.230
26082SOL    HW178270   4.415   8.505   2.329
26082SOL    HW278271   4.513   8.447   2.212
26083SOL     OW78272   4.134   8.261   3.113
26083SOL    HW178273   4.220   8.273   3.163
26083SOL    HW278274   4.092   8.174   3.140
26084SOL     OW78275   4.998   7.834   3.124
26084SOL    HW178276   5.019   7.908   3.188
26084SOL    HW278277   4.909   7.851   3.081
26085SOL     OW78278   3.788   9.012   3.193
26085SOL    HW178279   3.742   9.094   3.159
26085SOL    HW278280   3.886   9.031   3.202
26086SOL     OW78281   4.091   8.548   2.363
26086SOL    HW178282   4.084   8.631   2.307
26086SOL    HW278283   4.095   8.468   2.303
26087SOL     OW78284   4.290   7.985   2.727
26087SOL    HW178285   4.302   8.051   2.653
26087SOL    HW278286   4.336   8.019   2.810
26088SOL     OW78287   4.976   8.796   2.250
26088SOL    HW178288   5.026   8.873   2.290
26088SOL    HW278289   4.881   8.798   2.282
26089SOL     OW78290   4.996   8.893   3.004
26089SOL    HW178291   5.043   8.906   3.091
26089SOL    HW278292   4.930   8.819   3.013
26090SOL     OW78293   5.306   8.087   2.334
26090SOL    HW178294   5.275   8.148   2.407
26090SOL    HW278295   5.356   8.139   2.265
26091SOL     OW78296   4.078   8.958   3.191
26091SOL    HW178297   4.057   8.914   3.104
26091SOL    HW278298   4.175   8.984   3.194
26092SOL     OW78299   4.126   8.199   3.460
26092SOL    HW178300   4.194   8.254   3.413
26092SOL    HW278301   4.166   8.111   3.487
26093SOL     OW78302   5.311   8.227   3.532
26093SOL    HW178303   5.219   8.265   3.527
26093SOL    HW278304   5.371   8.274   3.467
26094SOL     OW78305   4.737   7.553   3.632
26094SOL    HW178306   4.743   7.638   3.580
26094SOL    HW278307   4.769   7.477   3.575
26095SOL     OW78308   4.228   7.498   3.602
26095SOL    HW178309   4.186   7.441   3.532
26095SOL    HW278310   4.162   7.567   3.634
26096SOL     OW78311   4.297   8.318   2.891
26096SOL    HW178312   4.341   8.407   2.882
26096SOL    HW278313   4.234   8.318   2.968
26097SOL     OW78314   5.084   8.310   2.907
26097SOL    HW178315   5.009   8.310   2.841
26097SOL    HW278316   5.121   8.218   2.916
26098SOL     OW78317   4.933   7.973   2.137
26098SOL    HW178318   4.946   7.889   2.191
26098SOL    HW278319   4.904   8.047   2.197
26099SOL     OW78320   4.031   7.661   3.093
26099SOL    HW178321   4.008   7.698   3.183
26099SOL    HW278322   4.001   7.566   3.087
26100SOL     OW78323   3.761   8.758   3.144
26100SOL    HW178324   3.814   8.709   3.212
26100SOL    HW278325   3.783   8.856   3.149
26101SOL     OW78326   4.456   8.082   2.926
26101SOL    HW178327   4.515   8.056   2.850
26101SOL    HW278328   4.428   8.178   2.915
26102SOL     OW78329   5.452   8.383   3.716
26102SOL    HW178330   5.406   8.376   3.627
26102SOL    HW278331   5.390   8.427   3.782
26103SOL     OW78332   4.031   7.511   2.480
26103SOL    HW178333   4.020   7.605   2.513
26103SOL    HW278334   4.026   7.448   2.557
26104SOL     OW78335   5.346   7.815   2.236
26104SOL    HW178336   5.348   7.739   2.300
26104SOL    HW278337   5.298   7.892   2.276
26105SOL     OW78338   4.747   8.214   2.828
26105SOL    HW178339   4.762   8.235   2.924
26105SOL    HW278340   4.717   8.119   2.819
26106SOL     OW78341   4.704   9.021   3.562
26106SOL    HW178342   4.684   9.065   3.474
26106SOL    HW278343   4.743   8.930   3.546
26107SOL     OW78344   5.583   8.966   3.467
26107SOL    HW178345   5.597   8.993   3.372
26107SOL    HW278346   5.666   8.988   3.520
26108SOL     OW78347   4.074   8.346   3.666
26108SOL    HW178348   4.150   8.390   3.714
26108SOL    HW278349   4.109   8.299   3.584
26109SOL     OW78350   5.264   7.722   1.987
26109SOL    HW178351   5.203   7.647   2.010
26109SOL    HW278352   5.286   7.774   2.070
26110SOL     OW78353   5.027   8.286   1.904
26110SOL    HW178354   5.061   8.193   1.919
26110SOL    HW278355   5.045   8.313   1.809
26111SOL     OW78356   4.792   8.781   2.711
26111SOL    HW178357   4.799   8.697   2.656
26111SOL    HW278358   4.854   8.850   2.675
26112SOL     OW78359   4.043   8.258   2.811
26112SOL    HW178360   4.136   8.294   2.816
26112SOL    HW278361   4.037   8.173   2.863
26113SOL     OW78362   4.063   7.957   2.868
26113SOL    HW178363   4.011   7.874   2.851
26113SOL    HW278364   4.140   7.962   2.804
26114SOL     OW78365   4.862   7.828   3.540
26114SOL    HW178366   4.817   7.891   3.604
26114SOL    HW278367   4.955   7.859   3.523
26115SOL     OW78368   4.884   7.655   3.339
26115SOL    HW178369   4.884   7.719   3.416
26115SOL    HW278370   4.912   7.703   3.256
26116SOL     OW78371   3.732   8.774   2.062
26116SOL    HW178372   3.639   8.795   2.031
26116SOL    HW278373   3.742   8.675   2.075
26117SOL     OW78374   3.812   9.249   2.789
26117SOL    HW178375   3.770   9.163   2.762
26117SOL    HW278376   3.906   9.252   2.755
26118SOL     OW78377   4.228   9.016   2.772
26118SOL    HW178378   4.294   9.090   2.781
26118SOL    HW278379   4.272   8.937   2.730
26119SOL     OW78380   4.726   8.244   3.100
26119SOL    HW178381   4.767   8.212   3.186
26119SOL    HW278382   4.630   8.217   3.097
26120SOL     OW78383   3.764   7.992   2.976
26120SOL    HW178384   3.849   7.959   2.935
26120SOL    HW278385   3.777   8.007   3.074
26121SOL     OW78386   3.913   7.968   3.584
26121SOL    HW178387   3.972   7.928   3.514
26121SOL    HW278388   3.855   8.039   3.543
26122SOL     OW78389   5.093   8.398   3.522
26122SOL    HW178390   5.132   8.487   3.542
26122SOL    HW278391   5.103   8.378   3.425
26123SOL     OW78392   4.539   8.020   2.187
26123SOL    HW178393   4.546   7.931   2.141
26123SOL    HW278394   4.445   8.054   2.179
26124SOL     OW78395   5.381   8.052   3.068
26124SOL    HW178396   5.343   7.983   3.130
26124SOL    HW278397   5.463   8.016   3.024
26125SOL     OW78398   3.976   9.012   3.606
26125SOL    HW178399   3.946   9.069   3.682
26125SOL    HW278400   3.969   8.915   3.632
26126SOL     OW78401   4.395   7.912   3.131
26126SOL    HW178402   4.361   7.823   3.101
26126SOL    HW278403   4.421   7.966   3.051
26127SOL     OW78404   4.654   9.126   3.327
26127SOL    HW178405   4.630   9.108   3.232
26127SOL    HW278406   4.684   9.220   3.337
26128SOL     OW78407   4.197   7.948   2.053
26128SOL    HW178408   4.258   8.028   2.057
26128SOL    HW278409   4.102   7.979   2.060
26129SOL     OW78410   3.883   8.585   3.328
26129SOL    HW178411   3.905   8.524   3.404
26129SOL    HW278412   3.893   8.536   3.242
26130SOL     OW78413   5.071   8.507   3.096
26130SOL    HW178414   5.095   8.444   3.022
26130SOL    HW278415   4.981   8.547   3.078
26131SOL     OW78416   5.026   8.303   2.171
26131SOL    HW178417   4.940   8.272   2.213
26131SOL    HW278418   5.022   8.289   2.072
26132SOL     OW78419   5.483   9.195   3.016
26132SOL    HW178420   5.544   9.225   2.943
26132SOL    HW278421   5.445   9.106   2.994
26133SOL     OW78422   4.976   9.179   2.990
26133SOL    HW178423   5.060   9.184   2.936
26133SOL    HW278424   4.953   9.083   3.008
26134SOL     OW78425   3.807   8.706   2.884
26134SOL    HW178426   3.802   8.705   2.984
26134SOL    HW278427   3.724   8.665   2.846
26135SOL     OW78428   4.412   9.110   3.578
26135SOL    HW178429   4.356   9.191   3.587
26135SOL    HW278430   4.464   9.114   3.492
26136SOL     OW78431   5.450   7.583   2.385
26136SOL    HW178432   5.523   7.566   2.318
26136SOL    HW278433   5.419   7.496   2.423
26137SOL     OW78434   5.112   9.021   2.339
26137SOL    HW178435   5.179   9.033   2.265
26137SOL    HW278436   5.072   9.110   2.362
26138SOL     OW78437   5.004   8.375   2.534
26138SOL    HW178438   5.064   8.294   2.536
26138SOL    HW278439   5.044   8.444   2.474
26139SOL     OW78440   4.554   8.721   3.284
26139SOL    HW178441   4.549   8.754   3.379
26139SOL    HW278442   4.468   8.740   3.238
26140SOL     OW78443   4.396   9.064   2.016
26140SOL    HW178444   4.405   9.074   1.917
26140SOL    HW278445   4.356   8.975   2.037
26141SOL     OW78446   5.374   9.168   3.256
26141SOL    HW178447   5.427   9.178   3.172
26141SOL    HW278448   5.347   9.258   3.290
26142SOL     OW78449   5.565   7.623   2.825
26142SOL    HW178450   5.604   7.538   2.789
26142SOL    HW278451   5.467   7.625   2.806
26143SOL     OW78452   3.987   7.774   2.582
26143SOL    HW178453   3.908   7.825   2.548
26143SOL    HW278454   3.978   7.759   2.680
26144SOL     OW78455   4.918   9.060   1.893
26144SOL    HW178456   4.924   8.967   1.930
26144SOL    HW278457   4.859   9.060   1.813
26145SOL     OW78458   4.546   8.450   3.234
26145SOL    HW178459   4.586   8.449   3.142
26145SOL    HW278460   4.556   8.542   3.274
26146SOL     OW78461   4.640   8.358   2.153
26146SOL    HW178462   4.703   8.396   2.085
26146SOL    HW278463   4.680   8.275   2.192
26147SOL     OW78464   5.228   9.055   1.906
26147SOL    HW178465   5.136   9.092   1.913
26147SOL    HW278466   5.266   9.075   1.816
26148SOL     OW78467   4.096   8.736   3.352
26148SOL    HW178468   4.083   8.829   3.318
26148SOL    HW278469   4.012   8.684   3.339
26149SOL     OW78470   5.338   8.740   3.151
26149SOL    HW178471   5.398   8.743   3.231
26149SOL    HW278472   5.263   8.804   3.164
26150SOL     OW78473   4.763   8.546   2.558
26150SOL    HW178474   4.693   8.499   2.612
26150SOL    HW278475   4.822   8.478   2.515
26151SOL     OW78476   4.738   7.684   2.833
26151SOL    HW178477   4.730   7.648   2.740
26151SOL    HW278478   4.736   7.608   2.898
26152SOL     OW78479   4.314   8.935   2.353
26152SOL    HW178480   4.356   8.877   2.283
26152SOL    HW278481   4.270   9.014   2.309
26153SOL     OW78482   5.433   7.833   3.243
26153SOL    HW178483   5.506   7.902   3.247
26153SOL    HW278484   5.461   7.758   3.184
26154SOL     OW78485   3.979   8.796   2.152
26154SOL    HW178486   3.883   8.797   2.125
26154SOL    HW278487   3.991   8.849   2.236
26155SOL     OW78488   3.829   8.461   3.588
26155SOL    HW178489   3.752   8.428   3.642
26155SOL    HW278490   3.914   8.431   3.630
26156SOL     OW78491   4.396   7.651   3.351
26156SOL    HW178492   4.486   7.635   3.311
26156SOL    HW278493   4.404   7.656   3.450
26157SOL     OW78494   3.799   7.793   1.895
26157SOL    HW178495   3.707   7.765   1.866
26157SOL    HW278496   3.830   7.870   1.839
26158SOL     OW78497   5.164   8.304   3.260
26158SOL    HW178498   5.107   8.356   3.197
26158SOL    HW278499   5.260   8.316   3.236
26159SOL     OW78500   3.796   7.614   2.180
26159SOL    HW178501   3.779   7.697   2.126
26159SOL    HW278502   3.886   7.577   2.158
26160SOL     OW78503   4.907   8.783   1.981
26160SOL    HW178504   4.808   8.772   1.983
26160SOL    HW278505   4.941   8.798   2.074
26161SOL     OW78506   4.337   8.290   3.293
26161SOL    HW178507   4.393   8.371   3.276
26161SOL    HW278508   4.396   8.210   3.296
26162SOL     OW78509   4.440   8.013   3.570
26162SOL    HW178510   4.459   8.078   3.644
26162SOL    HW278511   4.500   7.933   3.579
26163SOL     OW78512   5.174   8.668   3.495
26163SOL    HW178513   5.165   8.658   3.594
26163SOL    HW278514   5.270   8.661   3.469
26164SOL     OW78515   4.114   9.189   3.422
26164SOL    HW178516   4.023   9.230   3.420
26164SOL    HW278517   4.107   9.095   3.454
26165SOL     OW78518   5.398   8.331   3.116
26165SOL    HW178519   5.371   8.242   3.079
26165SOL    HW278520   5.399   8.399   3.043
26166SOL     OW78521   4.949   7.773   2.311
26166SOL    HW178522   5.014   7.699   2.300
26166SOL    HW278523   4.969   7.823   2.395
26167SOL     OW78524   4.318   8.193   2.514
26167SOL    HW178525   4.368   8.278   2.495
26167SOL    HW278526   4.230   8.195   2.466
26168SOL     OW78527   5.501   7.790   3.504
26168SOL    HW178528   5.484   7.821   3.410
26168SOL    HW278529   5.417   7.753   3.542
26169SOL     OW78530   5.454   8.382   3.379
26169SOL    HW178531   5.492   8.473   3.394
26169SOL    HW278532   5.446   8.365   3.280
26170SOL     OW78533   4.583   8.822   1.878
26170SOL    HW178534   4.537   8.837   1.966
26170SOL    HW278535   4.627   8.907   1.848
26171SOL     OW78536   4.385   9.238   2.815
26171SOL    HW178537   4.339   9.326   2.802
26171SOL    HW278538   4.484   9.250   2.808
26172SOL     OW78539   4.583   8.404   2.723
26172SOL    HW178540   4.637   8.335   2.771
26172SOL    HW278541   4.551   8.473   2.789
26173SOL     OW78542   4.807   8.432   1.949
26173SOL    HW178543   4.784   8.485   1.867
26173SOL    HW278544   4.888   8.376   1.930
26174SOL     OW78545   5.585   9.017   2.713
26174SOL    HW178546   5.514   9.005   2.643
26174SOL    HW278547   5.586   8.938   2.773
26175SOL     OW78548   3.945   8.762   3.706
26175SOL    HW178549   3.880   8.689   3.685
26175SOL    HW278550   3.949   8.776   3.804
26176SOL     OW78551   3.803   8.688   2.515
26176SOL    HW178552   3.802   8.641   2.603
26176SOL    HW278553   3.885   8.660   2.464
26177SOL     OW78554   4.396   8.839   3.486
26177SOL    HW178555   4.318   8.789   3.524
26177SOL    HW278556   4.393   8.934   3.517
26178SOL     OW78557   5.548   7.640   3.089
26178SOL    HW178558   5.544   7.550   3.133
26178SOL    HW278559   5.551   7.629   2.990
26179SOL     OW78560   4.152   7.872   2.382
26179SOL    HW178561   4.182   7.800   2.320
26179SOL    HW278562   4.113   7.832   2.465
26180SOL     OW78563   5.429   8.935   2.966
26180SOL    HW178564   5.336   8.910   2.939
26180SOL    HW278565   5.455   8.885   3.048
26181SOL     OW78566   4.041   7.995   3.142
26181SOL    HW178567   4.079   7.936   3.214
26181SOL    HW278568   4.081   7.969   3.054
26182SOL     OW78569   4.536   9.034   2.549
26182SOL    HW178570   4.568   9.044   2.455
26182SOL    HW278571   4.457   8.972   2.551
26183SOL     OW78572   5.148   7.662   2.974
26183SOL    HW178573   5.200   7.597   3.029
26183SOL    HW278574   5.099   7.725   3.035
26184SOL     OW78575   4.725   7.482   3.016
26184SOL    HW178576   4.662   7.410   2.985
26184SOL    HW278577   4.818   7.446   3.016
26185SOL     OW78578   4.494   8.778   2.163
26185SOL    HW178579   4.448   8.691   2.180
26185SOL    HW278580   4.585   8.775   2.204
26186SOL     OW78581   4.342   9.015   3.146
26186SOL    HW178582   4.337   9.097   3.203
26186SOL    HW278583   4.431   9.012   3.101
26187SOL     OW78584   5.076   7.500   2.030
26187SOL    HW178585   5.111   7.459   1.946
26187SOL    HW278586   4.986   7.462   2.050
26188SOL     OW78587   5.024   7.901   2.553
26188SOL    HW178588   4.965   7.981   2.557
26188SOL    HW278589   5.039   7.866   2.646
26189SOL     OW78590   5.317   7.669   2.744
26189SOL    HW178591   5.233   7.668   2.798
26189SOL    HW278592   5.319   7.752   2.688
26190SOL     OW78593   3.763   8.525   2.162
26190SOL    HW178594   3.862   8.514   2.153
26190SOL    HW278595   3.723   8.439   2.194
26191SOL     OW78596   4.599   9.094   2.199
26191SOL    HW178597   4.522   9.059   2.145
26191SOL    HW278598   4.567   9.165   2.261
26192SOL     OW78599   3.954   8.076   3.837
26192SOL    HW178600   3.861   8.074   3.874
26192SOL    HW278601   3.955   8.037   3.745
26193SOL     OW78602   3.949   7.723   4.720
26193SOL    HW178603   3.984   7.706   4.812
26193SOL    HW278604   3.861   7.678   4.708
26194SOL     OW78605   3.743   7.816   4.371
26194SOL    HW178606   3.661   7.859   4.410
26194SOL    HW278607   3.715   7.743   4.308
26195SOL     OW78608   4.293   8.723   4.889
26195SOL    HW178609   4.200   8.716   4.852
26195SOL    HW278610   4.304   8.812   4.933
26196SOL     OW78611   5.279   8.959   4.427
26196SOL    HW178612   5.222   8.943   4.508
26196SOL    HW278613   5.220   8.969   4.347
26197SOL     OW78614   4.859   8.151   4.441
26197SOL    HW178615   4.916   8.229   4.416
26197SOL    HW278616   4.799   8.177   4.517
26198SOL     OW78617   5.479   8.055   3.955
26198SOL    HW178618   5.467   8.042   3.856
26198SOL    HW278619   5.449   7.974   4.004
26199SOL     OW78620   4.492   8.592   4.747
26199SOL    HW178621   4.414   8.609   4.807
26199SOL    HW278622   4.526   8.679   4.711
26200SOL     OW78623   4.574   8.246   5.547
26200SOL    HW178624   4.570   8.322   5.612
26200SOL    HW278625   4.596   8.282   5.456
26201SOL     OW78626   4.409   8.460   4.389
26201SOL    HW178627   4.478   8.444   4.459
26201SOL    HW278628   4.336   8.517   4.427
26202SOL     OW78629   4.410   8.609   5.527
26202SOL    HW178630   4.470   8.688   5.541
26202SOL    HW278631   4.324   8.640   5.486
26203SOL     OW78632   4.059   8.883   4.785
26203SOL    HW178633   3.981   8.852   4.732
26203SOL    HW278634   4.117   8.941   4.728
26204SOL     OW78635   5.184   8.953   5.063
26204SOL    HW178636   5.208   9.047   5.089
26204SOL    HW278637   5.168   8.899   5.145
26205SOL     OW78638   4.162   7.840   5.223
26205SOL    HW178639   4.244   7.784   5.232
26205SOL    HW278640   4.081   7.782   5.227
26206SOL     OW78641   5.327   7.895   4.461
26206SOL    HW178642   5.253   7.941   4.411
26206SOL    HW278643   5.378   7.963   4.514
26207SOL     OW78644   3.955   9.161   4.207
26207SOL    HW178645   3.989   9.238   4.261
26207SOL    HW278646   3.999   9.161   4.117
26208SOL     OW78647   4.851   8.789   5.414
26208SOL    HW178648   4.898   8.789   5.502
26208SOL    HW278649   4.803   8.702   5.403
26209SOL     OW78650   3.954   8.882   4.262
26209SOL    HW178651   3.928   8.978   4.262
26209SOL    HW278652   3.883   8.828   4.307
26210SOL     OW78653   3.964   8.539   4.610
26210SOL    HW178654   3.978   8.455   4.662
26210SOL    HW278655   3.909   8.603   4.665
26211SOL     OW78656   4.344   9.234   5.163
26211SOL    HW178657   4.252   9.217   5.198
26211SOL    HW278658   4.372   9.326   5.189
26212SOL     OW78659   4.330   8.412   3.847
26212SOL    HW178660   4.337   8.496   3.793
26212SOL    HW278661   4.376   8.425   3.935
26213SOL     OW78662   5.318   7.562   5.204
26213SOL    HW178663   5.300   7.629   5.132
26213SOL    HW278664   5.315   7.608   5.293
26214SOL     OW78665   3.846   8.091   4.287
26214SOL    HW178666   3.801   8.003   4.304
26214SOL    HW278667   3.845   8.145   4.371
26215SOL     OW78668   3.751   9.044   3.841
26215SOL    HW178669   3.732   8.948   3.862
26215SOL    HW278670   3.718   9.102   3.916
26216SOL     OW78671   5.413   8.370   4.336
26216SOL    HW178672   5.508   8.341   4.344
26216SOL    HW278673   5.405   8.435   4.261
26217SOL     OW78674   5.365   8.556   4.156
26217SOL    HW178675   5.451   8.558   4.104
26217SOL    HW278676   5.379   8.603   4.244
26218SOL     OW78677   3.837   8.185   5.321
26218SOL    HW178678   3.925   8.172   5.366
26218SOL    HW278679   3.824   8.282   5.299
26219SOL     OW78680   4.337   8.813   4.450
26219SOL    HW178681   4.288   8.726   4.459
26219SOL    HW278682   4.314   8.856   4.363
26220SOL     OW78683   5.017   8.676   5.147
26220SOL    HW178684   5.054   8.603   5.089
26220SOL    HW278685   5.069   8.681   5.232
26221SOL     OW78686   4.533   7.452   4.226
26221SOL    HW178687   4.573   7.543   4.217
26221SOL    HW278688   4.433   7.460   4.232
26222SOL     OW78689   3.921   8.424   4.988
26222SOL    HW178690   4.010   8.379   4.974
26222SOL    HW278691   3.848   8.359   4.969
26223SOL     OW78692   5.249   8.447   3.914
26223SOL    HW178693   5.186   8.371   3.927
26223SOL    HW278694   5.297   8.465   4.000
26224SOL     OW78695   4.911   9.240   5.340
26224SOL    HW178696   4.935   9.300   5.264
26224SOL    HW278697   4.918   9.145   5.310
26225SOL     OW78698   4.041   7.699   5.525
26225SOL    HW178699   4.112   7.770   5.531
26225SOL    HW278700   3.953   7.738   5.553
26226SOL     OW78701   5.190   8.865   4.677
26226SOL    HW178702   5.131   8.871   4.757
26226SOL    HW278703   5.175   8.777   4.631
26227SOL     OW78704   5.391   9.162   4.296
26227SOL    HW178705   5.350   9.139   4.208
26227SOL    HW278706   5.373   9.088   4.361
26228SOL     OW78707   4.322   8.177   3.994
26228SOL    HW178708   4.346   8.246   3.926
26228SOL    HW278709   4.244   8.210   4.048
26229SOL     OW78710   5.005   7.793   4.668
26229SOL    HW178711   4.919   7.743   4.655
26229SOL    HW278712   5.067   7.739   4.724
26230SOL     OW78713   5.300   9.110   4.031
26230SOL    HW178714   5.389   9.156   4.034
26230SOL    HW278715   5.279   9.086   3.936
26231SOL     OW78716   4.531   8.053   5.189
26231SOL    HW178717   4.484   8.050   5.278
26231SOL    HW278718   4.480   7.998   5.123
26232SOL     OW78719   5.118   7.917   5.398
26232SOL    HW178720   5.098   7.960   5.486
26232SOL    HW278721   5.196   7.855   5.407
26233SOL     OW78722   4.697   8.338   5.296
26233SOL    HW178723   4.743   8.254   5.267
26233SOL    HW278724   4.641   8.372   5.221
26234SOL     OW78725   4.715   7.858   4.966
26234SOL    HW178726   4.638   7.892   5.020
26234SOL    HW278727   4.681   7.807   4.887
26235SOL     OW78728   4.765   8.149   4.153
26235SOL    HW178729   4.791   8.145   4.249
26235SOL    HW278730   4.680   8.098   4.139
26236SOL     OW78731   3.800   8.259   4.513
26236SOL    HW178732   3.899   8.247   4.522
26236SOL    HW278733   3.776   8.354   4.534
26237SOL     OW78734   3.854   9.269   5.295
26237SOL    HW178735   3.844   9.254   5.394
26237SOL    HW278736   3.768   9.305   5.259
26238SOL     OW78737   4.589   7.796   3.919
26238SOL    HW178738   4.648   7.859   3.870
26238SOL    HW278739   4.608   7.702   3.890
26239SOL     OW78740   5.443   8.033   5.555
26239SOL    HW178741   5.417   8.122   5.519
26239SOL    HW278742   5.441   7.965   5.482
26240SOL     OW78743   5.086   8.592   4.269
26240SOL    HW178744   5.169   8.563   4.221
26240SOL    HW278745   5.037   8.659   4.213
26241SOL     OW78746   4.274   7.644   4.609
26241SOL    HW178747   4.269   7.639   4.709
26241SOL    HW278748   4.276   7.740   4.580
26242SOL     OW78749   4.732   8.904   4.201
26242SOL    HW178750   4.686   8.976   4.149
26242SOL    HW278751   4.728   8.924   4.299
26243SOL     OW78752   4.075   9.249   4.577
26243SOL    HW178753   4.125   9.163   4.583
26243SOL    HW278754   4.140   9.326   4.574
26244SOL     OW78755   5.519   8.514   4.597
26244SOL    HW178756   5.457   8.499   4.521
26244SOL    HW278757   5.467   8.525   4.682
26245SOL     OW78758   4.951   8.998   5.230
26245SOL    HW178759   4.957   8.921   5.294
26245SOL    HW278760   4.899   8.972   5.150
26246SOL     OW78761   4.045   8.391   3.966
26246SOL    HW178762   4.127   8.430   3.924
26246SOL    HW278763   4.018   8.309   3.917
26247SOL     OW78764   5.182   8.183   4.452
26247SOL    HW178765   5.177   8.118   4.527
26247SOL    HW278766   5.262   8.242   4.465
26248SOL     OW78767   4.185   8.714   5.451
26248SOL    HW178768   4.135   8.715   5.365
26248SOL    HW278769   4.122   8.696   5.527
26249SOL     OW78770   4.835   9.224   3.961
26249SOL    HW178771   4.775   9.162   4.011
26249SOL    HW278772   4.866   9.180   3.876
26250SOL     OW78773   3.926   7.733   5.222
26250SOL    HW178774   3.846   7.793   5.209
26250SOL    HW278775   3.916   7.684   5.308
26251SOL     OW78776   5.356   8.825   3.805
26251SOL    HW178777   5.324   8.919   3.795
26251SOL    HW278778   5.280   8.762   3.793
26252SOL     OW78779   4.188   9.191   4.047
26252SOL    HW178780   4.221   9.230   4.133
26252SOL    HW278781   4.264   9.184   3.982
26253SOL     OW78782   5.124   7.555   4.150
26253SOL    HW178783   5.100   7.518   4.060
26253SOL    HW278784   5.223   7.571   4.154
26254SOL     OW78785   3.973   9.233   4.965
26254SOL    HW178786   4.030   9.168   5.015
26254SOL    HW278787   3.957   9.200   4.872
26255SOL     OW78788   4.664   9.146   4.628
26255SOL    HW178789   4.744   9.089   4.649
26255SOL    HW278790   4.615   9.106   4.551
26256SOL     OW78791   4.106   8.148   4.204
26256SOL    HW178792   4.151   8.058   4.201
26256SOL    HW278793   4.012   8.137   4.237
26257SOL     OW78794   5.271   7.670   5.453
26257SOL    HW178795   5.266   7.707   5.545
26257SOL    HW278796   5.199   7.601   5.441
26258SOL     OW78797   4.338   7.570   3.841
26258SOL    HW178798   4.436   7.548   3.848
26258SOL    HW278799   4.307   7.553   3.748
26259SOL     OW78800   4.505   7.712   5.473
26259SOL    HW178801   4.572   7.651   5.516
26259SOL    HW278802   4.432   7.731   5.538
26260SOL     OW78803   4.612   8.962   4.919
26260SOL    HW178804   4.589   8.937   4.825
26260SOL    HW278805   4.673   8.893   4.958
26261SOL     OW78806   5.075   8.038   5.157
26261SOL    HW178807   5.103   7.995   5.242
26261SOL    HW278808   5.100   8.134   5.158
26262SOL     OW78809   4.527   8.850   4.648
26262SOL    HW178810   4.617   8.864   4.606
26262SOL    HW278811   4.456   8.852   4.577
26263SOL     OW78812   4.646   7.951   4.623
26263SOL    HW178813   4.621   7.942   4.527
26263SOL    HW278814   4.694   7.869   4.654
26264SOL     OW78815   4.263   7.512   4.236
26264SOL    HW178816   4.182   7.513   4.294
26264SOL    HW278817   4.266   7.595   4.181
26265SOL     OW78818   5.158   8.636   3.765
26265SOL    HW178819   5.190   8.560   3.822
26265SOL    HW278820   5.066   8.663   3.795
26266SOL     OW78821   4.021   7.483   3.895
26266SOL    HW178822   4.070   7.567   3.874
26266SOL    HW278823   4.083   7.418   3.940
26267SOL     OW78824   4.659   7.684   4.204
26267SOL    HW178825   4.611   7.725   4.126
26267SOL    HW278826   4.758   7.682   4.185
26268SOL     OW78827   4.800   8.131   5.188
26268SOL    HW178828   4.720   8.070   5.191
26268SOL    HW278829   4.881   8.078   5.164
26269SOL     OW78830   4.951   9.018   4.517
26269SOL    HW178831   4.972   9.092   4.452
26269SOL    HW278832   5.019   9.018   4.590
26270SOL     OW78833   4.183   8.600   4.465
26270SOL    HW178834   4.112   8.573   4.530
26270SOL    HW278835   4.157   8.572   4.372
26271SOL     OW78836   4.995   9.245   4.315
26271SOL    HW178837   5.039   9.309   4.251
26271SOL    HW278838   4.945   9.297   4.385
26272SOL     OW78839   4.756   7.997   3.740
26272SOL    HW178840   4.715   8.079   3.701
26272SOL    HW278841   4.820   8.023   3.813
26273SOL     OW78842   3.802   8.004   5.110
26273SOL    HW178843   3.894   8.003   5.069
26273SOL    HW278844   3.796   8.078   5.177
26274SOL     OW78845   4.285   7.670   4.871
26274SOL    HW178846   4.323   7.586   4.908
26274SOL    HW278847   4.197   7.689   4.915
26275SOL     OW78848   4.590   7.902   4.366
26275SOL    HW178849   4.558   7.974   4.304
26275SOL    HW278850   4.614   7.821   4.313
26276SOL     OW78851   4.741   7.487   4.477
26276SOL    HW178852   4.669   7.492   4.408
26276SOL    HW278853   4.717   7.418   4.546
26277SOL     OW78854   5.153   8.621   4.591
26277SOL    HW178855   5.098   8.537   4.584
26277SOL    HW278856   5.179   8.650   4.499
26278SOL     OW78857   5.190   8.038   4.716
26278SOL    HW178858   5.160   7.943   4.723
26278SOL    HW278859   5.263   8.054   4.782
26279SOL     OW78860   5.581   8.281   4.101
26279SOL    HW178861   5.623   8.217   4.165
26279SOL    HW278862   5.543   8.230   4.023
26280SOL     OW78863   4.212   8.833   3.898
26280SOL    HW178864   4.125   8.818   3.945
26280SOL    HW278865   4.195   8.859   3.803
26281SOL     OW78866   5.388   8.728   4.381
26281SOL    HW178867   5.487   8.736   4.395
26281SOL    HW278868   5.343   8.812   4.412
26282SOL     OW78869   5.114   8.023   3.802
26282SOL    HW178870   5.060   8.002   3.883
26282SOL    HW278871   5.205   7.982   3.811
26283SOL     OW78872   4.251   7.704   4.052
26283SOL    HW178873   4.278   7.645   3.977
26283SOL    HW278874   4.251   7.799   4.021
26284SOL     OW78875   5.478   8.671   5.312
26284SOL    HW178876   5.569   8.632   5.299
26284SOL    HW278877   5.486   8.767   5.336
26285SOL     OW78878   4.788   8.795   5.064
26285SOL    HW178879   4.708   8.772   5.119
26285SOL    HW278880   4.871   8.769   5.113
26286SOL     OW78881   5.316   9.077   5.349
26286SOL    HW178882   5.343   9.111   5.259
26286SOL    HW278883   5.395   9.039   5.395
26287SOL     OW78884   4.835   8.643   4.824
26287SOL    HW178885   4.795   8.687   4.905
26287SOL    HW278886   4.794   8.680   4.741
26288SOL     OW78887   5.362   8.547   4.803
26288SOL    HW178888   5.367   8.628   4.862
26288SOL    HW278889   5.276   8.549   4.752
26289SOL     OW78890   4.639   7.537   5.126
26289SOL    HW178891   4.664   7.517   5.031
26289SOL    HW278892   4.711   7.593   5.168
26290SOL     OW78893   4.704   8.564   5.443
26290SOL    HW178894   4.605   8.570   5.453
26290SOL    HW278895   4.727   8.484   5.387
26291SOL     OW78896   4.429   8.498   4.092
26291SOL    HW178897   4.415   8.505   4.191
26291SOL    HW278898   4.513   8.447   4.074
26292SOL     OW78899   4.134   8.261   4.975
26292SOL    HW178900   4.220   8.273   5.025
26292SOL    HW278901   4.092   8.174   5.002
26293SOL     OW78902   4.998   7.834   4.986
26293SOL    HW178903   5.019   7.908   5.050
26293SOL    HW278904   4.909   7.851   4.943
26294SOL     OW78905   3.788   9.012   5.055
26294SOL    HW178906   3.742   9.094   5.021
26294SOL    HW278907   3.886   9.031   5.064
26295SOL     OW78908   4.091   8.548   4.225
26295SOL    HW178909   4.084   8.631   4.169
26295SOL    HW278910   4.095   8.468   4.165
26296SOL     OW78911   4.290   7.985   4.589
26296SOL    HW178912   4.302   8.051   4.515
26296SOL    HW278913   4.336   8.019   4.672
26297SOL     OW78914   4.976   8.796   4.112
26297SOL    HW178915   5.026   8.873   4.152
26297SOL    HW278916   4.881   8.798   4.144
26298SOL     OW78917   4.996   8.893   4.866
26298SOL    HW178918   5.043   8.906   4.953
26298SOL    HW278919   4.930   8.819   4.875
26299SOL     OW78920   5.306   8.087   4.196
26299SOL    HW178921   5.275   8.148   4.269
26299SOL    HW278922   5.356   8.139   4.127
26300SOL     OW78923   4.078   8.958   5.053
26300SOL    HW178924   4.057   8.914   4.966
26300SOL    HW278925   4.175   8.984   5.056
26301SOL     OW78926   4.126   8.199   5.322
26301SOL    HW178927   4.194   8.254   5.275
26301SOL    HW278928   4.166   8.111   5.349
26302SOL     OW78929   5.311   8.227   5.394
26302SOL    HW178930   5.219   8.265   5.389
26302SOL    HW278931   5.371   8.274   5.329
26303SOL     OW78932   4.737   7.553   5.494
26303SOL    HW178933   4.743   7.638   5.442
26303SOL    HW278934   4.769   7.477   5.437
26304SOL     OW78935   4.228   7.498   5.464
26304SOL    HW178936   4.186   7.441   5.394
26304SOL    HW278937   4.162   7.567   5.496
26305SOL     OW78938   4.297   8.318   4.753
26305SOL    HW178939   4.341   8.407   4.744
26305SOL    HW278940   4.234   8.318   4.830
26306SOL     OW78941   5.084   8.310   4.769
26306SOL    HW178942   5.009   8.310   4.703
26306SOL    HW278943   5.121   8.218   4.778
26307SOL     OW78944   4.933   7.973   3.999
26307SOL    HW178945   4.946   7.889   4.053
26307SOL    HW278946   4.904   8.047   4.059
26308SOL     OW78947   4.031   7.661   4.955
26308SOL    HW178948   4.008   7.698   5.045
26308SOL    HW278949   4.001   7.566   4.949
26309SOL     OW78950   3.761   8.758   5.006
26309SOL    HW178951   3.814   8.709   5.074
26309SOL    HW278952   3.783   8.856   5.011
26310SOL     OW78953   4.456   8.082   4.788
26310SOL    HW178954   4.515   8.056   4.712
26310SOL    HW278955   4.428   8.178   4.777
26311SOL     OW78956   5.452   8.383   5.578
26311SOL    HW178957   5.406   8.376   5.489
26311SOL    HW278958   5.390   8.427   5.644
26312SOL     OW78959   4.031   7.511   4.342
26312SOL    HW178960   4.020   7.605   4.375
26312SOL    HW278961   4.026   7.448   4.419
26313SOL     OW78962   5.346   7.815   4.098
26313SOL    HW178963   5.348   7.739   4.162
26313SOL    HW278964   5.298   7.892   4.138
26314SOL     OW78965   4.747   8.214   4.690
26314SOL    HW178966   4.762   8.235   4.786
26314SOL    HW278967   4.717   8.119   4.681
26315SOL     OW78968   4.704   9.021   5.424
26315SOL    HW178969   4.684   9.065   5.336
26315SOL    HW278970   4.743   8.930   5.408
26316SOL     OW78971   5.583   8.966   5.329
26316SOL    HW178972   5.597   8.993   5.234
26316SOL    HW278973   5.666   8.988   5.382
26317SOL     OW78974   4.074   8.346   5.528
26317SOL    HW178975   4.150   8.390   5.576
26317SOL    HW278976   4.109   8.299   5.446
26318SOL     OW78977   5.264   7.722   3.849
26318SOL    HW178978   5.203   7.647   3.872
26318SOL    HW278979   5.286   7.774   3.932
26319SOL     OW78980   5.027   8.286   3.766
26319SOL    HW178981   5.061   8.193   3.781
26319SOL    HW278982   5.045   8.313   3.671
26320SOL     OW78983   4.792   8.781   4.573
26320SOL    HW178984   4.799   8.697   4.518
26320SOL    HW278985   4.854   8.850   4.537
26321SOL     OW78986   4.043   8.258   4.673
26321SOL    HW178987   4.136   8.294   4.678
26321SOL    HW278988   4.037   8.173   4.725
26322SOL     OW78989   4.063   7.957   4.730
26322SOL    HW178990   4.011   7.874   4.713
26322SOL    HW278991   4.140   7.962   4.666
26323SOL     OW78992   4.862   7.828   5.402
26323SOL    HW178993   4.817   7.891   5.466
26323SOL    HW278994   4.955   7.859   5.385
26324SOL     OW78995   4.884   7.655   5.201
26324SOL    HW178996   4.884   7.719   5.278
26324SOL    HW278997   4.912   7.703   5.118
26325SOL     OW78998   3.732   8.774   3.924
26325SOL    HW178999   3.639   8.795   3.893
26325SOL    HW279000   3.742   8.675   3.937
26326SOL     OW79001   3.812   9.249   4.651
26326SOL    HW179002   3.770   9.163   4.624
26326SOL    HW279003   3.906   9.252   4.617
26327SOL     OW79004   4.228   9.016   4.634
26327SOL    HW179005   4.294   9.090   4.643
26327SOL    HW279006   4.272   8.937   4.592
26328SOL     OW79007   4.726   8.244   4.962
26328SOL    HW179008   4.767   8.212   5.048
26328SOL    HW279009   4.630   8.217   4.959
26329SOL     OW79010   3.764   7.992   4.838
26329SOL    HW179011   3.849   7.959   4.797
26329SOL    HW279012   3.777   8.007   4.936
26330SOL     OW79013   3.913   7.968   5.446
26330SOL    HW179014   3.972   7.928   5.376
26330SOL    HW279015   3.855   8.039   5.405
26331SOL     OW79016   5.093   8.398   5.384
26331SOL    HW179017   5.132   8.487   5.404
26331SOL    HW279018   5.103   8.378   5.287
26332SOL     OW79019   4.539   8.020   4.049
26332SOL    HW179020   4.546   7.931   4.003
26332SOL    HW279021   4.445   8.054   4.041
26333SOL     OW79022   5.381   8.052   4.930
26333SOL    HW179023   5.343   7.983   4.992
26333SOL    HW279024   5.463   8.016   4.886
26334SOL     OW79025   3.976   9.012   5.468
26334SOL    HW179026   3.946   9.069   5.544
26334SOL    HW279027   3.969   8.915   5.494
26335SOL     OW79028   4.395   7.912   4.993
26335SOL    HW179029   4.361   7.823   4.963
26335SOL    HW279030   4.421   7.966   4.913
26336SOL     OW79031   4.654   9.126   5.189
26336SOL    HW179032   4.630   9.108   5.094
26336SOL    HW279033   4.684   9.220   5.199
26337SOL     OW79034   4.197   7.948   3.915
26337SOL    HW179035   4.258   8.028   3.919
26337SOL    HW279036   4.102   7.979   3.922
26338SOL     OW79037   3.883   8.585   5.190
26338SOL    HW179038   3.905   8.524   5.266
26338SOL    HW279039   3.893   8.536   5.104
26339SOL     OW79040   5.071   8.507   4.958
26339SOL    HW179041   5.095   8.444   4.884
26339SOL    HW279042   4.981   8.547   4.940
26340SOL     OW79043   5.026   8.303   4.033
26340SOL    HW179044   4.940   8.272   4.075
26340SOL    HW279045   5.022   8.289   3.934
26341SOL     OW79046   5.483   9.195   4.878
26341SOL    HW179047   5.544   9.225   4.805
26341SOL    HW279048   5.445   9.106   4.856
26342SOL     OW79049   4.976   9.179   4.852
26342SOL    HW179050   5.060   9.184   4.798
26342SOL    HW279051   4.953   9.083   4.870
26343SOL     OW79052   3.807   8.706   4.746
26343SOL    HW179053   3.802   8.705   4.846
26343SOL    HW279054   3.724   8.665   4.708
26344SOL     OW79055   4.412   9.110   5.440
26344SOL    HW179056   4.356   9.191   5.449
26344SOL    HW279057   4.464   9.114   5.354
26345SOL     OW79058   5.450   7.583   4.247
26345SOL    HW179059   5.523   7.566   4.180
26345SOL    HW279060   5.419   7.496   4.285
26346SOL     OW79061   5.112   9.021   4.201
26346SOL    HW179062   5.179   9.033   4.127
26346SOL    HW279063   5.072   9.110   4.224
26347SOL     OW79064   3.854   9.242   5.575
26347SOL    HW179065   3.813   9.168   5.628
26347SOL    HW279066   3.918   9.293   5.633
26348SOL     OW79067   5.004   8.375   4.396
26348SOL    HW179068   5.064   8.294   4.398
26348SOL    HW279069   5.044   8.444   4.336
26349SOL     OW79070   4.554   8.721   5.146
26349SOL    HW179071   4.549   8.754   5.241
26349SOL    HW279072   4.468   8.740   5.100
26350SOL     OW79073   4.396   9.064   3.878
26350SOL    HW179074   4.405   9.074   3.779
26350SOL    HW279075   4.356   8.975   3.899
26351SOL     OW79076   5.374   9.168   5.118
26351SOL    HW179077   5.427   9.178   5.034
26351SOL    HW279078   5.347   9.258   5.152
26352SOL     OW79079   5.565   7.623   4.687
26352SOL    HW179080   5.604   7.538   4.651
26352SOL    HW279081   5.467   7.625   4.668
26353SOL     OW79082   3.987   7.774   4.444
26353SOL    HW179083   3.908   7.825   4.410
26353SOL    HW279084   3.978   7.759   4.542
26354SOL     OW79085   4.918   9.060   3.755
26354SOL    HW179086   4.924   8.967   3.792
26354SOL    HW279087   4.859   9.060   3.675
26355SOL     OW79088   4.546   8.450   5.096
26355SOL    HW179089   4.586   8.449   5.004
26355SOL    HW279090   4.556   8.542   5.136
26356SOL     OW79091   4.640   8.358   4.015
26356SOL    HW179092   4.703   8.396   3.947
26356SOL    HW279093   4.680   8.275   4.054
26357SOL     OW79094   5.228   9.055   3.768
26357SOL    HW179095   5.136   9.092   3.775
26357SOL    HW279096   5.266   9.075   3.678
26358SOL     OW79097   4.096   8.736   5.214
26358SOL    HW179098   4.083   8.829   5.180
26358SOL    HW279099   4.012   8.684   5.201
26359SOL     OW79100   5.338   8.740   5.013
26359SOL    HW179101   5.398   8.743   5.093
26359SOL    HW279102   5.263   8.804   5.026
26360SOL     OW79103   4.763   8.546   4.420
26360SOL    HW179104   4.693   8.499   4.474
26360SOL    HW279105   4.822   8.478   4.377
26361SOL     OW79106   4.738   7.684   4.695
26361SOL    HW179107   4.730   7.648   4.602
26361SOL    HW279108   4.736   7.608   4.760
26362SOL     OW79109   4.314   8.935   4.215
26362SOL    HW179110   4.356   8.877   4.145
26362SOL    HW279111   4.270   9.014   4.171
26363SOL     OW79112   5.433   7.833   5.105
26363SOL    HW179113   5.506   7.902   5.109
26363SOL    HW279114   5.461   7.758   5.046
26364SOL     OW79115   3.979   8.796   4.014
26364SOL    HW179116   3.883   8.797   3.987
26364SOL    HW279117   3.991   8.849   4.098
26365SOL     OW79118   3.829   8.461   5.450
26365SOL    HW179119   3.752   8.428   5.504
26365SOL    HW279120   3.914   8.431   5.492
26366SOL     OW79121   4.396   7.651   5.213
26366SOL    HW179122   4.486   7.635   5.173
26366SOL    HW279123   4.404   7.656   5.312
26367SOL     OW79124   3.799   7.793   3.757
26367SOL    HW179125   3.707   7.765   3.728
26367SOL    HW279126   3.830   7.870   3.701
26368SOL     OW79127   3.796   7.614   4.042
26368SOL    HW179128   3.779   7.697   3.988
26368SOL    HW279129   3.886   7.577   4.020
26369SOL     OW79130   4.907   8.783   3.843
26369SOL    HW179131   4.808   8.772   3.845
26369SOL    HW279132   4.941   8.798   3.936
26370SOL     OW79133   4.337   8.290   5.155
26370SOL    HW179134   4.393   8.371   5.138
26370SOL    HW279135   4.396   8.210   5.158
26371SOL     OW79136   5.217   9.215   4.683
26371SOL    HW179137   5.250   9.279   4.614
26371SOL    HW279138   5.283   9.209   4.758
26372SOL     OW79139   4.440   8.013   5.432
26372SOL    HW179140   4.459   8.078   5.506
26372SOL    HW279141   4.500   7.933   5.441
26373SOL     OW79142   5.174   8.668   5.357
26373SOL    HW179143   5.165   8.658   5.456
26373SOL    HW279144   5.270   8.661   5.331
26374SOL     OW79145   4.114   9.189   5.284
26374SOL    HW179146   4.023   9.230   5.282
26374SOL    HW279147   4.107   9.095   5.316
26375SOL     OW79148   5.398   8.331   4.978
26375SOL    HW179149   5.371   8.242   4.941
26375SOL    HW279150   5.399   8.399   4.905
26376SOL     OW79151   4.949   7.773   4.173
26376SOL    HW179152   5.014   7.699   4.162
26376SOL    HW279153   4.969   7.823   4.257
26377SOL     OW79154   4.318   8.193   4.376
26377SOL    HW179155   4.368   8.278   4.357
26377SOL    HW279156   4.230   8.195   4.328
26378SOL     OW79157   5.501   7.790   5.366
26378SOL    HW179158   5.484   7.821   5.272
26378SOL    HW279159   5.417   7.753   5.404
26379SOL     OW79160   5.454   8.382   5.241
26379SOL    HW179161   5.492   8.473   5.256
26379SOL    HW279162   5.446   8.365   5.142
26380SOL     OW79163   4.583   8.822   3.740
26380SOL    HW179164   4.537   8.837   3.828
26380SOL    HW279165   4.627   8.907   3.710
26381SOL     OW79166   4.385   9.238   4.677
26381SOL    HW179167   4.339   9.326   4.664
26381SOL    HW279168   4.484   9.250   4.670
26382SOL     OW79169   4.583   8.404   4.585
26382SOL    HW179170   4.637   8.335   4.633
26382SOL    HW279171   4.551   8.473   4.651
26383SOL     OW79172   4.807   8.432   3.811
26383SOL    HW179173   4.784   8.485   3.729
26383SOL    HW279174   4.888   8.376   3.792
26384SOL     OW79175   5.585   9.017   4.575
26384SOL    HW179176   5.514   9.005   4.505
26384SOL    HW279177   5.586   8.938   4.635
26385SOL     OW79178   3.945   8.762   5.568
26385SOL    HW179179   3.880   8.689   5.547
26385SOL    HW279180   3.949   8.776   5.666
26386SOL     OW79181   3.803   8.688   4.377
26386SOL    HW179182   3.802   8.641   4.465
26386SOL    HW279183   3.885   8.660   4.326
26387SOL     OW79184   4.396   8.839   5.348
26387SOL    HW179185   4.318   8.789   5.386
26387SOL    HW279186   4.393   8.934   5.379
26388SOL     OW79187   5.548   7.640   4.951
26388SOL    HW179188   5.544   7.550   4.995
26388SOL    HW279189   5.551   7.629   4.852
26389SOL     OW79190   4.152   7.872   4.244
26389SOL    HW179191   4.182   7.800   4.182
26389SOL    HW279192   4.113   7.832   4.327
26390SOL     OW79193   5.429   8.935   4.828
26390SOL    HW179194   5.336   8.910   4.801
26390SOL    HW279195   5.455   8.885   4.910
26391SOL     OW79196   4.041   7.995   5.004
26391SOL    HW179197   4.079   7.936   5.076
26391SOL    HW279198   4.081   7.969   4.916
26392SOL     OW79199   4.536   9.034   4.411
26392SOL    HW179200   4.568   9.044   4.317
26392SOL    HW279201   4.457   8.972   4.413
26393SOL     OW79202   5.148   7.662   4.836
26393SOL    HW179203   5.200   7.597   4.891
26393SOL    HW279204   5.099   7.725   4.897
26394SOL     OW79205   4.725   7.482   4.878
26394SOL    HW179206   4.662   7.410   4.847
26394SOL    HW279207   4.818   7.446   4.878
26395SOL     OW79208   4.494   8.778   4.025
26395SOL    HW179209   4.448   8.691   4.042
26395SOL    HW279210   4.585   8.775   4.066
26396SOL     OW79211   4.342   9.015   5.008
26396SOL    HW179212   4.337   9.097   5.065
26396SOL    HW279213   4.431   9.012   4.963
26397SOL     OW79214   5.076   7.500   3.892
26397SOL    HW179215   5.111   7.459   3.808
26397SOL    HW279216   4.986   7.462   3.912
26398SOL     OW79217   5.024   7.901   4.415
26398SOL    HW179218   4.965   7.981   4.419
26398SOL    HW279219   5.039   7.866   4.508
26399SOL     OW79220   5.317   7.669   4.606
26399SOL    HW179221   5.233   7.668   4.660
26399SOL    HW279222   5.319   7.752   4.550
26400SOL     OW79223   3.763   8.525   4.024
26400SOL    HW179224   3.862   8.514   4.015
26400SOL    HW279225   3.723   8.439   4.056
26401SOL     OW79226   4.599   9.094   4.061
26401SOL    HW179227   4.522   9.059   4.007
26401SOL    HW279228   4.567   9.165   4.123
26402SOL     OW79229   3.954   8.076   5.699
26402SOL    HW179230   3.861   8.074   5.736
26402SOL    HW279231   3.955   8.037   5.607
26403SOL     OW79232   3.949   7.723   6.582
26403SOL    HW179233   3.984   7.706   6.674
26403SOL    HW279234   3.861   7.678   6.570
26404SOL     OW79235   3.743   7.816   6.233
26404SOL    HW179236   3.661   7.859   6.272
26404SOL    HW279237   3.715   7.743   6.170
26405SOL     OW79238   4.293   8.723   6.751
26405SOL    HW179239   4.200   8.716   6.714
26405SOL    HW279240   4.304   8.812   6.795
26406SOL     OW79241   5.279   8.959   6.289
26406SOL    HW179242   5.222   8.943   6.370
26406SOL    HW279243   5.220   8.969   6.209
26407SOL     OW79244   4.859   8.151   6.303
26407SOL    HW179245   4.916   8.229   6.278
26407SOL    HW279246   4.799   8.177   6.379
26408SOL     OW79247   5.479   8.055   5.817
26408SOL    HW179248   5.467   8.042   5.718
26408SOL    HW279249   5.449   7.974   5.866
26409SOL     OW79250   4.574   8.246   7.409
26409SOL    HW179251   4.570   8.322   7.474
26409SOL    HW279252   4.596   8.282   7.318
26410SOL     OW79253   4.409   8.460   6.251
26410SOL    HW179254   4.478   8.444   6.321
26410SOL    HW279255   4.336   8.517   6.289
26411SOL     OW79256   4.410   8.609   7.389
26411SOL    HW179257   4.470   8.688   7.403
26411SOL    HW279258   4.324   8.640   7.348
26412SOL     OW79259   4.059   8.883   6.647
26412SOL    HW179260   3.981   8.852   6.594
26412SOL    HW279261   4.117   8.941   6.590
26413SOL     OW79262   5.184   8.953   6.925
26413SOL    HW179263   5.208   9.047   6.951
26413SOL    HW279264   5.168   8.899   7.007
26414SOL     OW79265   4.162   7.840   7.085
26414SOL    HW179266   4.244   7.784   7.094
26414SOL    HW279267   4.081   7.782   7.089
26415SOL     OW79268   5.327   7.895   6.323
26415SOL    HW179269   5.253   7.941   6.273
26415SOL    HW279270   5.378   7.963   6.376
26416SOL     OW79271   3.955   9.161   6.069
26416SOL    HW179272   3.989   9.238   6.123
26416SOL    HW279273   3.999   9.161   5.979
26417SOL     OW79274   4.851   8.789   7.276
26417SOL    HW179275   4.898   8.789   7.364
26417SOL    HW279276   4.803   8.702   7.265
26418SOL     OW79277   3.954   8.882   6.124
26418SOL    HW179278   3.928   8.978   6.124
26418SOL    HW279279   3.883   8.828   6.169
26419SOL     OW79280   3.964   8.539   6.472
26419SOL    HW179281   3.978   8.455   6.524
26419SOL    HW279282   3.909   8.603   6.527
26420SOL     OW79283   4.344   9.234   7.025
26420SOL    HW179284   4.252   9.217   7.060
26420SOL    HW279285   4.372   9.326   7.051
26421SOL     OW79286   4.330   8.412   5.709
26421SOL    HW179287   4.337   8.496   5.655
26421SOL    HW279288   4.376   8.425   5.797
26422SOL     OW79289   5.318   7.562   7.066
26422SOL    HW179290   5.300   7.629   6.994
26422SOL    HW279291   5.315   7.608   7.155
26423SOL     OW79292   3.846   8.091   6.149
26423SOL    HW179293   3.801   8.003   6.166
26423SOL    HW279294   3.845   8.145   6.233
26424SOL     OW79295   5.566   9.215   5.945
26424SOL    HW179296   5.620   9.186   6.025
26424SOL    HW279297   5.596   9.305   5.916
26425SOL     OW79298   3.751   9.044   5.703
26425SOL    HW179299   3.732   8.948   5.724
26425SOL    HW279300   3.718   9.102   5.778
26426SOL     OW79301   5.413   8.370   6.198
26426SOL    HW179302   5.508   8.341   6.206
26426SOL    HW279303   5.405   8.435   6.123
26427SOL     OW79304   5.365   8.556   6.018
26427SOL    HW179305   5.451   8.558   5.966
26427SOL    HW279306   5.379   8.603   6.106
26428SOL     OW79307   3.837   8.185   7.183
26428SOL    HW179308   3.925   8.172   7.228
26428SOL    HW279309   3.824   8.282   7.161
26429SOL     OW79310   4.337   8.813   6.312
26429SOL    HW179311   4.288   8.726   6.321
26429SOL    HW279312   4.314   8.856   6.225
26430SOL     OW79313   5.017   8.676   7.009
26430SOL    HW179314   5.054   8.603   6.951
26430SOL    HW279315   5.069   8.681   7.094
26431SOL     OW79316   4.533   7.452   6.088
26431SOL    HW179317   4.573   7.543   6.079
26431SOL    HW279318   4.433   7.460   6.094
26432SOL     OW79319   3.921   8.424   6.850
26432SOL    HW179320   4.010   8.379   6.836
26432SOL    HW279321   3.848   8.359   6.831
26433SOL     OW79322   5.249   8.447   5.776
26433SOL    HW179323   5.186   8.371   5.789
26433SOL    HW279324   5.297   8.465   5.862
26434SOL     OW79325   4.911   9.240   7.202
26434SOL    HW179326   4.935   9.300   7.126
26434SOL    HW279327   4.918   9.145   7.172
26435SOL     OW79328   4.041   7.699   7.387
26435SOL    HW179329   4.112   7.770   7.393
26435SOL    HW279330   3.953   7.738   7.415
26436SOL     OW79331   5.190   8.865   6.539
26436SOL    HW179332   5.131   8.871   6.619
26436SOL    HW279333   5.175   8.777   6.493
26437SOL     OW79334   5.391   9.162   6.158
26437SOL    HW179335   5.350   9.139   6.070
26437SOL    HW279336   5.373   9.088   6.223
26438SOL     OW79337   4.322   8.177   5.856
26438SOL    HW179338   4.346   8.246   5.788
26438SOL    HW279339   4.244   8.210   5.910
26439SOL     OW79340   5.005   7.793   6.530
26439SOL    HW179341   4.919   7.743   6.517
26439SOL    HW279342   5.067   7.739   6.586
26440SOL     OW79343   5.300   9.110   5.893
26440SOL    HW179344   5.389   9.156   5.896
26440SOL    HW279345   5.279   9.086   5.798
26441SOL     OW79346   4.531   8.053   7.051
26441SOL    HW179347   4.484   8.050   7.140
26441SOL    HW279348   4.480   7.998   6.985
26442SOL     OW79349   5.118   7.917   7.260
26442SOL    HW179350   5.098   7.960   7.348
26442SOL    HW279351   5.196   7.855   7.269
26443SOL     OW79352   4.697   8.338   7.158
26443SOL    HW179353   4.743   8.254   7.129
26443SOL    HW279354   4.641   8.372   7.083
26444SOL     OW79355   4.715   7.858   6.828
26444SOL    HW179356   4.638   7.892   6.882
26444SOL    HW279357   4.681   7.807   6.749
26445SOL     OW79358   4.765   8.149   6.015
26445SOL    HW179359   4.791   8.145   6.111
26445SOL    HW279360   4.680   8.098   6.001
26446SOL     OW79361   3.800   8.259   6.375
26446SOL    HW179362   3.899   8.247   6.384
26446SOL    HW279363   3.776   8.354   6.396
26447SOL     OW79364   3.854   9.269   7.157
26447SOL    HW179365   3.844   9.254   7.256
26447SOL    HW279366   3.768   9.305   7.121
26448SOL     OW79367   4.589   7.796   5.781
26448SOL    HW179368   4.648   7.859   5.732
26448SOL    HW279369   4.608   7.702   5.752
26449SOL     OW79370   5.443   8.033   7.417
26449SOL    HW179371   5.417   8.122   7.381
26449SOL    HW279372   5.441   7.965   7.344
26450SOL     OW79373   5.086   8.592   6.131
26450SOL    HW179374   5.169   8.563   6.083
26450SOL    HW279375   5.037   8.659   6.075
26451SOL     OW79376   4.274   7.644   6.471
26451SOL    HW179377   4.269   7.639   6.571
26451SOL    HW279378   4.276   7.740   6.442
26452SOL     OW79379   4.732   8.904   6.063
26452SOL    HW179380   4.686   8.976   6.011
26452SOL    HW279381   4.728   8.924   6.161
26453SOL     OW79382   4.075   9.249   6.439
26453SOL    HW179383   4.125   9.163   6.445
26453SOL    HW279384   4.140   9.326   6.436
26454SOL     OW79385   5.519   8.514   6.459
26454SOL    HW179386   5.457   8.499   6.383
26454SOL    HW279387   5.467   8.525   6.544
26455SOL     OW79388   4.951   8.998   7.092
26455SOL    HW179389   4.957   8.921   7.156
26455SOL    HW279390   4.899   8.972   7.012
26456SOL     OW79391   4.045   8.391   5.828
26456SOL    HW179392   4.127   8.430   5.786
26456SOL    HW279393   4.018   8.309   5.779
26457SOL     OW79394   5.182   8.183   6.314
26457SOL    HW179395   5.177   8.118   6.389
26457SOL    HW279396   5.262   8.242   6.327
26458SOL     OW79397   4.185   8.714   7.313
26458SOL    HW179398   4.135   8.715   7.227
26458SOL    HW279399   4.122   8.696   7.389
26459SOL     OW79400   4.835   9.224   5.823
26459SOL    HW179401   4.775   9.162   5.873
26459SOL    HW279402   4.866   9.180   5.738
26460SOL     OW79403   3.926   7.733   7.084
26460SOL    HW179404   3.846   7.793   7.071
26460SOL    HW279405   3.916   7.684   7.170
26461SOL     OW79406   5.356   8.825   5.667
26461SOL    HW179407   5.324   8.919   5.657
26461SOL    HW279408   5.280   8.762   5.655
26462SOL     OW79409   4.188   9.191   5.909
26462SOL    HW179410   4.221   9.230   5.995
26462SOL    HW279411   4.264   9.184   5.844
26463SOL     OW79412   5.124   7.555   6.012
26463SOL    HW179413   5.100   7.518   5.922
26463SOL    HW279414   5.223   7.571   6.016
26464SOL     OW79415   3.973   9.233   6.827
26464SOL    HW179416   4.030   9.168   6.877
26464SOL    HW279417   3.957   9.200   6.734
26465SOL     OW79418   4.664   9.146   6.490
26465SOL    HW179419   4.744   9.089   6.511
26465SOL    HW279420   4.615   9.106   6.413
26466SOL     OW79421   4.106   8.148   6.066
26466SOL    HW179422   4.151   8.058   6.063
26466SOL    HW279423   4.012   8.137   6.099
26467SOL     OW79424   5.271   7.670   7.315
26467SOL    HW179425   5.266   7.707   7.407
26467SOL    HW279426   5.199   7.601   7.303
26468SOL     OW79427   4.505   7.712   7.335
26468SOL    HW179428   4.572   7.651   7.378
26468SOL    HW279429   4.432   7.731   7.400
26469SOL     OW79430   4.612   8.962   6.781
26469SOL    HW179431   4.589   8.937   6.687
26469SOL    HW279432   4.673   8.893   6.820
26470SOL     OW79433   5.075   8.038   7.019
26470SOL    HW179434   5.103   7.995   7.104
26470SOL    HW279435   5.100   8.134   7.020
26471SOL     OW79436   4.527   8.850   6.510
26471SOL    HW179437   4.617   8.864   6.468
26471SOL    HW279438   4.456   8.852   6.439
26472SOL     OW79439   4.646   7.951   6.485
26472SOL    HW179440   4.621   7.942   6.389
26472SOL    HW279441   4.694   7.869   6.516
26473SOL     OW79442   4.263   7.512   6.098
26473SOL    HW179443   4.182   7.513   6.156
26473SOL    HW279444   4.266   7.595   6.043
26474SOL     OW79445   5.158   8.636   5.627
26474SOL    HW179446   5.190   8.560   5.684
26474SOL    HW279447   5.066   8.663   5.657
26475SOL     OW79448   4.021   7.483   5.757
26475SOL    HW179449   4.070   7.567   5.736
26475SOL    HW279450   4.083   7.418   5.802
26476SOL     OW79451   4.659   7.684   6.066
26476SOL    HW179452   4.611   7.725   5.988
26476SOL    HW279453   4.758   7.682   6.047
26477SOL     OW79454   4.800   8.131   7.050
26477SOL    HW179455   4.720   8.070   7.053
26477SOL    HW279456   4.881   8.078   7.026
26478SOL     OW79457   4.951   9.018   6.379
26478SOL    HW179458   4.972   9.092   6.314
26478SOL    HW279459   5.019   9.018   6.452
26479SOL     OW79460   4.183   8.600   6.327
26479SOL    HW179461   4.112   8.573   6.392
26479SOL    HW279462   4.157   8.572   6.234
26480SOL     OW79463   4.995   9.245   6.177
26480SOL    HW179464   5.039   9.309   6.113
26480SOL    HW279465   4.945   9.297   6.247
26481SOL     OW79466   4.756   7.997   5.602
26481SOL    HW179467   4.715   8.079   5.563
26481SOL    HW279468   4.820   8.023   5.675
26482SOL     OW79469   3.802   8.004   6.972
26482SOL    HW179470   3.894   8.003   6.931
26482SOL    HW279471   3.796   8.078   7.039
26483SOL     OW79472   4.285   7.670   6.733
26483SOL    HW179473   4.323   7.586   6.770
26483SOL    HW279474   4.197   7.689   6.777
26484SOL     OW79475   4.590   7.902   6.228
26484SOL    HW179476   4.558   7.974   6.166
26484SOL    HW279477   4.614   7.821   6.175
26485SOL     OW79478   4.741   7.487   6.339
26485SOL    HW179479   4.669   7.492   6.270
26485SOL    HW279480   4.717   7.418   6.408
26486SOL     OW79481   5.153   8.621   6.453
26486SOL    HW179482   5.098   8.537   6.446
26486SOL    HW279483   5.179   8.650   6.361
26487SOL     OW79484   5.190   8.038   6.578
26487SOL    HW179485   5.160   7.943   6.585
26487SOL    HW279486   5.263   8.054   6.644
26488SOL     OW79487   5.581   8.281   5.963
26488SOL    HW179488   5.623   8.217   6.027
26488SOL    HW279489   5.543   8.230   5.885
26489SOL     OW79490   4.212   8.833   5.760
26489SOL    HW179491   4.125   8.818   5.807
26489SOL    HW279492   4.195   8.859   5.665
26490SOL     OW79493   5.388   8.728   6.243
26490SOL    HW179494   5.487   8.736   6.257
26490SOL    HW279495   5.343   8.812   6.274
26491SOL     OW79496   5.114   8.023   5.664
26491SOL    HW179497   5.060   8.002   5.745
26491SOL    HW279498   5.205   7.982   5.673
26492SOL     OW79499   4.251   7.704   5.914
26492SOL    HW179500   4.278   7.645   5.839
26492SOL    HW279501   4.251   7.799   5.883
26493SOL     OW79502   5.478   8.671   7.174
26493SOL    HW179503   5.569   8.632   7.161
26493SOL    HW279504   5.486   8.767   7.198
26494SOL     OW79505   4.788   8.795   6.926
26494SOL    HW179506   4.708   8.772   6.981
26494SOL    HW279507   4.871   8.769   6.975
26495SOL     OW79508   5.316   9.077   7.211
26495SOL    HW179509   5.343   9.111   7.121
26495SOL    HW279510   5.395   9.039   7.257
26496SOL     OW79511   4.835   8.643   6.686
26496SOL    HW179512   4.795   8.687   6.767
26496SOL    HW279513   4.794   8.680   6.603
26497SOL     OW79514   5.362   8.547   6.665
26497SOL    HW179515   5.367   8.628   6.724
26497SOL    HW279516   5.276   8.549   6.614
26498SOL     OW79517   4.639   7.537   6.988
26498SOL    HW179518   4.664   7.517   6.893
26498SOL    HW279519   4.711   7.593   7.030
26499SOL     OW79520   4.704   8.564   7.305
26499SOL    HW179521   4.605   8.570   7.315
26499SOL    HW279522   4.727   8.484   7.249
26500SOL     OW79523   4.429   8.498   5.954
26500SOL    HW179524   4.415   8.505   6.053
26500SOL    HW279525   4.513   8.447   5.936
26501SOL     OW79526   4.134   8.261   6.837
26501SOL    HW179527   4.220   8.273   6.887
26501SOL    HW279528   4.092   8.174   6.864
26502SOL     OW79529   4.998   7.834   6.848
26502SOL    HW179530   5.019   7.908   6.912
26502SOL    HW279531   4.909   7.851   6.805
26503SOL     OW79532   3.788   9.012   6.917
26503SOL    HW179533   3.742   9.094   6.883
26503SOL    HW279534   3.886   9.031   6.926
26504SOL     OW79535   4.091   8.548   6.087
26504SOL    HW179536   4.084   8.631   6.031
26504SOL    HW279537   4.095   8.468   6.027
26505SOL     OW79538   4.290   7.985   6.451
26505SOL    HW179539   4.302   8.051   6.377
26505SOL    HW279540   4.336   8.019   6.534
26506SOL     OW79541   4.976   8.796   5.974
26506SOL    HW179542   5.026   8.873   6.014
26506SOL    HW279543   4.881   8.798   6.006
26507SOL     OW79544   4.996   8.893   6.728
26507SOL    HW179545   5.043   8.906   6.815
26507SOL    HW279546   4.930   8.819   6.737
26508SOL     OW79547   5.306   8.087   6.058
26508SOL    HW179548   5.275   8.148   6.131
26508SOL    HW279549   5.356   8.139   5.989
26509SOL     OW79550   4.078   8.958   6.915
26509SOL    HW179551   4.057   8.914   6.828
26509SOL    HW279552   4.175   8.984   6.918
26510SOL     OW79553   4.126   8.199   7.184
26510SOL    HW179554   4.194   8.254   7.137
26510SOL    HW279555   4.166   8.111   7.211
26511SOL     OW79556   5.311   8.227   7.256
26511SOL    HW179557   5.219   8.265   7.251
26511SOL    HW279558   5.371   8.274   7.191
26512SOL     OW79559   4.737   7.553   7.356
26512SOL    HW179560   4.743   7.638   7.304
26512SOL    HW279561   4.769   7.477   7.299
26513SOL     OW79562   4.228   7.498   7.326
26513SOL    HW179563   4.186   7.441   7.256
26513SOL    HW279564   4.162   7.567   7.358
26514SOL     OW79565   4.297   8.318   6.615
26514SOL    HW179566   4.341   8.407   6.606
26514SOL    HW279567   4.234   8.318   6.692
26515SOL     OW79568   5.084   8.310   6.631
26515SOL    HW179569   5.009   8.310   6.565
26515SOL    HW279570   5.121   8.218   6.640
26516SOL     OW79571   4.933   7.973   5.861
26516SOL    HW179572   4.946   7.889   5.915
26516SOL    HW279573   4.904   8.047   5.921
26517SOL     OW79574   4.031   7.661   6.817
26517SOL    HW179575   4.008   7.698   6.907
26517SOL    HW279576   4.001   7.566   6.811
26518SOL     OW79577   3.761   8.758   6.868
26518SOL    HW179578   3.814   8.709   6.936
26518SOL    HW279579   3.783   8.856   6.873
26519SOL     OW79580   4.456   8.082   6.650
26519SOL    HW179581   4.515   8.056   6.574
26519SOL    HW279582   4.428   8.178   6.639
26520SOL     OW79583   5.452   8.383   7.440
26520SOL    HW179584   5.406   8.376   7.351
26520SOL    HW279585   5.390   8.427   7.506
26521SOL     OW79586   4.031   7.511   6.204
26521SOL    HW179587   4.020   7.605   6.237
26521SOL    HW279588   4.026   7.448   6.281
26522SOL     OW79589   5.346   7.815   5.960
26522SOL    HW179590   5.348   7.739   6.024
26522SOL    HW279591   5.298   7.892   6.000
26523SOL     OW79592   4.747   8.214   6.552
26523SOL    HW179593   4.762   8.235   6.648
26523SOL    HW279594   4.717   8.119   6.543
26524SOL     OW79595   4.704   9.021   7.286
26524SOL    HW179596   4.684   9.065   7.198
26524SOL    HW279597   4.743   8.930   7.270
26525SOL     OW79598   5.583   8.966   7.191
26525SOL    HW179599   5.597   8.993   7.096
26525SOL    HW279600   5.666   8.988   7.244
26526SOL     OW79601   4.074   8.346   7.390
26526SOL    HW179602   4.150   8.390   7.438
26526SOL    HW279603   4.109   8.299   7.308
26527SOL     OW79604   5.264   7.722   5.711
26527SOL    HW179605   5.203   7.647   5.734
26527SOL    HW279606   5.286   7.774   5.794
26528SOL     OW79607   5.027   8.286   5.628
26528SOL    HW179608   5.061   8.193   5.643
26528SOL    HW279609   5.045   8.313   5.533
26529SOL     OW79610   4.792   8.781   6.435
26529SOL    HW179611   4.799   8.697   6.380
26529SOL    HW279612   4.854   8.850   6.399
26530SOL     OW79613   4.043   8.258   6.535
26530SOL    HW179614   4.136   8.294   6.540
26530SOL    HW279615   4.037   8.173   6.587
26531SOL     OW79616   4.063   7.957   6.592
26531SOL    HW179617   4.011   7.874   6.575
26531SOL    HW279618   4.140   7.962   6.528
26532SOL     OW79619   4.862   7.828   7.264
26532SOL    HW179620   4.817   7.891   7.328
26532SOL    HW279621   4.955   7.859   7.247
26533SOL     OW79622   4.884   7.655   7.063
26533SOL    HW179623   4.884   7.719   7.140
26533SOL    HW279624   4.912   7.703   6.980
26534SOL     OW79625   3.732   8.774   5.786
26534SOL    HW179626   3.639   8.795   5.755
26534SOL    HW279627   3.742   8.675   5.799
26535SOL     OW79628   3.812   9.249   6.513
26535SOL    HW179629   3.770   9.163   6.486
26535SOL    HW279630   3.906   9.252   6.479
26536SOL     OW79631   4.228   9.016   6.496
26536SOL    HW179632   4.294   9.090   6.505
26536SOL    HW279633   4.272   8.937   6.454
26537SOL     OW79634   4.726   8.244   6.824
26537SOL    HW179635   4.767   8.212   6.910
26537SOL    HW279636   4.630   8.217   6.821
26538SOL     OW79637   3.764   7.992   6.700
26538SOL    HW179638   3.849   7.959   6.659
26538SOL    HW279639   3.777   8.007   6.798
26539SOL     OW79640   3.913   7.968   7.308
26539SOL    HW179641   3.972   7.928   7.238
26539SOL    HW279642   3.855   8.039   7.267
26540SOL     OW79643   5.093   8.398   7.246
26540SOL    HW179644   5.132   8.487   7.266
26540SOL    HW279645   5.103   8.378   7.149
26541SOL     OW79646   4.539   8.020   5.911
26541SOL    HW179647   4.546   7.931   5.865
26541SOL    HW279648   4.445   8.054   5.903
26542SOL     OW79649   5.381   8.052   6.792
26542SOL    HW179650   5.343   7.983   6.854
26542SOL    HW279651   5.463   8.016   6.748
26543SOL     OW79652   3.976   9.012   7.330
26543SOL    HW179653   3.946   9.069   7.406
26543SOL    HW279654   3.969   8.915   7.356
26544SOL     OW79655   4.395   7.912   6.855
26544SOL    HW179656   4.361   7.823   6.825
26544SOL    HW279657   4.421   7.966   6.775
26545SOL     OW79658   4.654   9.126   7.051
26545SOL    HW179659   4.630   9.108   6.956
26545SOL    HW279660   4.684   9.220   7.061
26546SOL     OW79661   4.197   7.948   5.777
26546SOL    HW179662   4.258   8.028   5.781
26546SOL    HW279663   4.102   7.979   5.784
26547SOL     OW79664   3.883   8.585   7.052
26547SOL    HW179665   3.905   8.524   7.128
26547SOL    HW279666   3.893   8.536   6.966
26548SOL     OW79667   5.071   8.507   6.820
26548SOL    HW179668   5.095   8.444   6.746
26548SOL    HW279669   4.981   8.547   6.802
26549SOL     OW79670   5.026   8.303   5.895
26549SOL    HW179671   4.940   8.272   5.937
26549SOL    HW279672   5.022   8.289   5.796
26550SOL     OW79673   5.483   9.195   6.740
26550SOL    HW179674   5.544   9.225   6.667
26550SOL    HW279675   5.445   9.106   6.718
26551SOL     OW79676   4.976   9.179   6.714
26551SOL    HW179677   5.060   9.184   6.660
26551SOL    HW279678   4.953   9.083   6.732
26552SOL     OW79679   3.807   8.706   6.608
26552SOL    HW179680   3.802   8.705   6.708
26552SOL    HW279681   3.724   8.665   6.570
26553SOL     OW79682   4.412   9.110   7.302
26553SOL    HW179683   4.356   9.191   7.311
26553SOL    HW279684   4.464   9.114   7.216
26554SOL     OW79685   5.450   7.583   6.109
26554SOL    HW179686   5.523   7.566   6.042
26554SOL    HW279687   5.419   7.496   6.147
26555SOL     OW79688   5.112   9.021   6.063
26555SOL    HW179689   5.179   9.033   5.989
26555SOL    HW279690   5.072   9.110   6.086
26556SOL     OW79691   3.854   9.242   7.437
26556SOL    HW179692   3.813   9.168   7.490
26556SOL    HW279693   3.918   9.293   7.495
26557SOL     OW79694   5.004   8.375   6.258
26557SOL    HW179695   5.064   8.294   6.260
26557SOL    HW279696   5.044   8.444   6.198
26558SOL     OW79697   4.554   8.721   7.008
26558SOL    HW179698   4.549   8.754   7.103
26558SOL    HW279699   4.468   8.740   6.962
26559SOL     OW79700   4.396   9.064   5.740
26559SOL    HW179701   4.405   9.074   5.641
26559SOL    HW279702   4.356   8.975   5.761
26560SOL     OW79703   5.374   9.168   6.980
26560SOL    HW179704   5.427   9.178   6.896
26560SOL    HW279705   5.347   9.258   7.014
26561SOL     OW79706   5.565   7.623   6.549
26561SOL    HW179707   5.604   7.538   6.513
26561SOL    HW279708   5.467   7.625   6.530
26562SOL     OW79709   3.987   7.774   6.306
26562SOL    HW179710   3.908   7.825   6.272
26562SOL    HW279711   3.978   7.759   6.404
26563SOL     OW79712   4.918   9.060   5.617
26563SOL    HW179713   4.924   8.967   5.654
26563SOL    HW279714   4.859   9.060   5.537
26564SOL     OW79715   4.546   8.450   6.958
26564SOL    HW179716   4.586   8.449   6.866
26564SOL    HW279717   4.556   8.542   6.998
26565SOL     OW79718   4.640   8.358   5.877
26565SOL    HW179719   4.703   8.396   5.809
26565SOL    HW279720   4.680   8.275   5.916
26566SOL     OW79721   5.228   9.055   5.630
26566SOL    HW179722   5.136   9.092   5.637
26566SOL    HW279723   5.266   9.075   5.540
26567SOL     OW79724   4.096   8.736   7.076
26567SOL    HW179725   4.083   8.829   7.042
26567SOL    HW279726   4.012   8.684   7.063
26568SOL     OW79727   5.338   8.740   6.875
26568SOL    HW179728   5.398   8.743   6.955
26568SOL    HW279729   5.263   8.804   6.888
26569SOL     OW79730   4.763   8.546   6.282
26569SOL    HW179731   4.693   8.499   6.336
26569SOL    HW279732   4.822   8.478   6.239
26570SOL     OW79733   4.738   7.684   6.557
26570SOL    HW179734   4.730   7.648   6.464
26570SOL    HW279735   4.736   7.608   6.622
26571SOL     OW79736   4.314   8.935   6.077
26571SOL    HW179737   4.356   8.877   6.007
26571SOL    HW279738   4.270   9.014   6.033
26572SOL     OW79739   5.433   7.833   6.967
26572SOL    HW179740   5.506   7.902   6.971
26572SOL    HW279741   5.461   7.758   6.908
26573SOL     OW79742   3.979   8.796   5.876
26573SOL    HW179743   3.883   8.797   5.849
26573SOL    HW279744   3.991   8.849   5.960
26574SOL     OW79745   3.829   8.461   7.312
26574SOL    HW179746   3.752   8.428   7.366
26574SOL    HW279747   3.914   8.431   7.354
26575SOL     OW79748   4.396   7.651   7.075
26575SOL    HW179749   4.486   7.635   7.035
26575SOL    HW279750   4.404   7.656   7.174
26576SOL     OW79751   3.799   7.793   5.619
26576SOL    HW179752   3.707   7.765   5.590
26576SOL    HW279753   3.830   7.870   5.563
26577SOL     OW79754   5.164   8.304   6.984
26577SOL    HW179755   5.107   8.356   6.921
26577SOL    HW279756   5.260   8.316   6.960
26578SOL     OW79757   3.796   7.614   5.904
26578SOL    HW179758   3.779   7.697   5.850
26578SOL    HW279759   3.886   7.577   5.882
26579SOL     OW79760   4.907   8.783   5.705
26579SOL    HW179761   4.808   8.772   5.707
26579SOL    HW279762   4.941   8.798   5.798
26580SOL     OW79763   4.337   8.290   7.017
26580SOL    HW179764   4.393   8.371   7.000
26580SOL    HW279765   4.396   8.210   7.020
26581SOL     OW79766   5.217   9.215   6.545
26581SOL    HW179767   5.250   9.279   6.476
26581SOL    HW279768   5.283   9.209   6.620
26582SOL     OW79769   4.440   8.013   7.294
26582SOL    HW179770   4.459   8.078   7.368
26582SOL    HW279771   4.500   7.933   7.303
26583SOL     OW79772   5.174   8.668   7.219
26583SOL    HW179773   5.165   8.658   7.318
26583SOL    HW279774   5.270   8.661   7.193
26584SOL     OW79775   4.114   9.189   7.146
26584SOL    HW179776   4.023   9.230   7.144
26584SOL    HW279777   4.107   9.095   7.178
26585SOL     OW79778   5.398   8.331   6.840
26585SOL    HW179779   5.371   8.242   6.803
26585SOL    HW279780   5.399   8.399   6.767
26586SOL     OW79781   4.949   7.773   6.035
26586SOL    HW179782   5.014   7.699   6.024
26586SOL    HW279783   4.969   7.823   6.119
26587SOL     OW79784   4.318   8.193   6.238
26587SOL    HW179785   4.368   8.278   6.219
26587SOL    HW279786   4.230   8.195   6.190
26588SOL     OW79787   5.501   7.790   7.228
26588SOL    HW179788   5.484   7.821   7.134
26588SOL    HW279789   5.417   7.753   7.266
26589SOL     OW79790   5.454   8.382   7.103
26589SOL    HW179791   5.492   8.473   7.118
26589SOL    HW279792   5.446   8.365   7.004
26590SOL     OW79793   4.583   8.822   5.602
26590SOL    HW179794   4.537   8.837   5.690
26590SOL    HW279795   4.627   8.907   5.572
26591SOL     OW79796   4.385   9.238   6.539
26591SOL    HW179797   4.339   9.326   6.526
26591SOL    HW279798   4.484   9.250   6.532
26592SOL     OW79799   4.583   8.404   6.447
26592SOL    HW179800   4.637   8.335   6.495
26592SOL    HW279801   4.551   8.473   6.513
26593SOL     OW79802   4.807   8.432   5.673
26593SOL    HW179803   4.784   8.485   5.591
26593SOL    HW279804   4.888   8.376   5.654
26594SOL     OW79805   5.585   9.017   6.437
26594SOL    HW179806   5.514   9.005   6.367
26594SOL    HW279807   5.586   8.938   6.497
26595SOL     OW79808   3.945   8.762   7.430
26595SOL    HW179809   3.880   8.689   7.409
26595SOL    HW279810   3.949   8.776   7.528
26596SOL     OW79811   3.803   8.688   6.239
26596SOL    HW179812   3.802   8.641   6.327
26596SOL    HW279813   3.885   8.660   6.188
26597SOL     OW79814   4.396   8.839   7.210
26597SOL    HW179815   4.318   8.789   7.248
26597SOL    HW279816   4.393   8.934   7.241
26598SOL     OW79817   5.548   7.640   6.813
26598SOL    HW179818   5.544   7.550   6.857
26598SOL    HW279819   5.551   7.629   6.714
26599SOL     OW79820   4.152   7.872   6.106
26599SOL    HW179821   4.182   7.800   6.044
26599SOL    HW279822   4.113   7.832   6.189
26600SOL     OW79823   5.429   8.935   6.690
26600SOL    HW179824   5.336   8.910   6.663
26600SOL    HW279825   5.455   8.885   6.772
26601SOL     OW79826   4.041   7.995   6.866
26601SOL    HW179827   4.079   7.936   6.938
26601SOL    HW279828   4.081   7.969   6.778
26602SOL     OW79829   4.536   9.034   6.273
26602SOL    HW179830   4.568   9.044   6.179
26602SOL    HW279831   4.457   8.972   6.275
26603SOL     OW79832   5.148   7.662   6.698
26603SOL    HW179833   5.200   7.597   6.753
26603SOL    HW279834   5.099   7.725   6.759
26604SOL     OW79835   4.725   7.482   6.740
26604SOL    HW179836   4.662   7.410   6.709
26604SOL    HW279837   4.818   7.446   6.740
26605SOL     OW79838   4.494   8.778   5.887
26605SOL    HW179839   4.448   8.691   5.904
26605SOL    HW279840   4.585   8.775   5.928
26606SOL     OW79841   4.342   9.015   6.870
26606SOL    HW179842   4.337   9.097   6.927
26606SOL    HW279843   4.431   9.012   6.825
26607SOL     OW79844   5.076   7.500   5.754
26607SOL    HW179845   5.111   7.459   5.670
26607SOL    HW279846   4.986   7.462   5.774
26608SOL     OW79847   5.024   7.901   6.277
26608SOL    HW179848   4.965   7.981   6.281
26608SOL    HW279849   5.039   7.866   6.370
26609SOL     OW79850   5.317   7.669   6.468
26609SOL    HW179851   5.233   7.668   6.522
26609SOL    HW279852   5.319   7.752   6.412
26610SOL     OW79853   3.763   8.525   5.886
26610SOL    HW179854   3.862   8.514   5.877
26610SOL    HW279855   3.723   8.439   5.918
26611SOL     OW79856   4.599   9.094   5.923
26611SOL    HW179857   4.522   9.059   5.869
26611SOL    HW279858   4.567   9.165   5.985
26612SOL     OW79859   3.954   8.076   7.561
26612SOL    HW179860   3.861   8.074   7.598
26612SOL    HW279861   3.955   8.037   7.469
26613SOL     OW79862   3.949   7.723   8.444
26613SOL    HW179863   3.984   7.706   8.536
26613SOL    HW279864   3.861   7.678   8.432
26614SOL     OW79865   3.743   7.816   8.095
26614SOL    HW179866   3.661   7.859   8.134
26614SOL    HW279867   3.715   7.743   8.032
26615SOL     OW79868   4.293   8.723   8.613
26615SOL    HW179869   4.200   8.716   8.576
26615SOL    HW279870   4.304   8.812   8.657
26616SOL     OW79871   5.279   8.959   8.151
26616SOL    HW179872   5.222   8.943   8.232
26616SOL    HW279873   5.220   8.969   8.071
26617SOL     OW79874   4.859   8.151   8.165
26617SOL    HW179875   4.916   8.229   8.140
26617SOL    HW279876   4.799   8.177   8.241
26618SOL     OW79877   5.479   8.055   7.679
26618SOL    HW179878   5.467   8.042   7.580
26618SOL    HW279879   5.449   7.974   7.728
26619SOL     OW79880   4.492   8.592   8.471
26619SOL    HW179881   4.414   8.609   8.531
26619SOL    HW279882   4.526   8.679   8.435
26620SOL     OW79883   4.574   8.246   9.271
26620SOL    HW179884   4.570   8.322   9.336
26620SOL    HW279885   4.596   8.282   9.180
26621SOL     OW79886   4.409   8.460   8.113
26621SOL    HW179887   4.478   8.444   8.183
26621SOL    HW279888   4.336   8.517   8.151
26622SOL     OW79889   4.410   8.609   9.251
26622SOL    HW179890   4.470   8.688   9.265
26622SOL    HW279891   4.324   8.640   9.210
26623SOL     OW79892   4.059   8.883   8.509
26623SOL    HW179893   3.981   8.852   8.456
26623SOL    HW279894   4.117   8.941   8.452
26624SOL     OW79895   5.184   8.953   8.787
26624SOL    HW179896   5.208   9.047   8.813
26624SOL    HW279897   5.168   8.899   8.869
26625SOL     OW79898   4.162   7.840   8.947
26625SOL    HW179899   4.244   7.784   8.956
26625SOL    HW279900   4.081   7.782   8.951
26626SOL     OW79901   5.327   7.895   8.185
26626SOL    HW179902   5.253   7.941   8.135
26626SOL    HW279903   5.378   7.963   8.238
26627SOL     OW79904   3.955   9.161   7.931
26627SOL    HW179905   3.989   9.238   7.985
26627SOL    HW279906   3.999   9.161   7.841
26628SOL     OW79907   4.851   8.789   9.138
26628SOL    HW179908   4.898   8.789   9.226
26628SOL    HW279909   4.803   8.702   9.127
26629SOL     OW79910   3.954   8.882   7.986
26629SOL    HW179911   3.928   8.978   7.986
26629SOL    HW279912   3.883   8.828   8.031
26630SOL     OW79913   3.964   8.539   8.334
26630SOL    HW179914   3.978   8.455   8.386
26630SOL    HW279915   3.909   8.603   8.389
26631SOL     OW79916   4.344   9.234   8.887
26631SOL    HW179917   4.252   9.217   8.922
26631SOL    HW279918   4.372   9.326   8.913
26632SOL     OW79919   4.330   8.412   7.571
26632SOL    HW179920   4.337   8.496   7.517
26632SOL    HW279921   4.376   8.425   7.659
26633SOL     OW79922   5.318   7.562   8.928
26633SOL    HW179923   5.300   7.629   8.856
26633SOL    HW279924   5.315   7.608   9.017
26634SOL     OW79925   3.846   8.091   8.011
26634SOL    HW179926   3.801   8.003   8.028
26634SOL    HW279927   3.845   8.145   8.095
26635SOL     OW79928   5.566   9.215   7.807
26635SOL    HW179929   5.620   9.186   7.887
26635SOL    HW279930   5.596   9.305   7.778
26636SOL     OW79931   3.751   9.044   7.565
26636SOL    HW179932   3.732   8.948   7.586
26636SOL    HW279933   3.718   9.102   7.640
26637SOL     OW79934   5.413   8.370   8.060
26637SOL    HW179935   5.508   8.341   8.068
26637SOL    HW279936   5.405   8.435   7.985
26638SOL     OW79937   5.365   8.556   7.880
26638SOL    HW179938   5.451   8.558   7.828
26638SOL    HW279939   5.379   8.603   7.968
26639SOL     OW79940   3.837   8.185   9.045
26639SOL    HW179941   3.925   8.172   9.090
26639SOL    HW279942   3.824   8.282   9.023
26640SOL     OW79943   4.337   8.813   8.174
26640SOL    HW179944   4.288   8.726   8.183
26640SOL    HW279945   4.314   8.856   8.087
26641SOL     OW79946   5.017   8.676   8.871
26641SOL    HW179947   5.054   8.603   8.813
26641SOL    HW279948   5.069   8.681   8.956
26642SOL     OW79949   4.533   7.452   7.950
26642SOL    HW179950   4.573   7.543   7.941
26642SOL    HW279951   4.433   7.460   7.956
26643SOL     OW79952   5.249   8.447   7.638
26643SOL    HW179953   5.186   8.371   7.651
26643SOL    HW279954   5.297   8.465   7.724
26644SOL     OW79955   4.911   9.240   9.064
26644SOL    HW179956   4.935   9.300   8.988
26644SOL    HW279957   4.918   9.145   9.034
26645SOL     OW79958   4.041   7.699   9.249
26645SOL    HW179959   4.112   7.770   9.255
26645SOL    HW279960   3.953   7.738   9.277
26646SOL     OW79961   5.190   8.865   8.401
26646SOL    HW179962   5.131   8.871   8.481
26646SOL    HW279963   5.175   8.777   8.355
26647SOL     OW79964   5.391   9.162   8.020
26647SOL    HW179965   5.350   9.139   7.932
26647SOL    HW279966   5.373   9.088   8.085
26648SOL     OW79967   4.322   8.177   7.718
26648SOL    HW179968   4.346   8.246   7.650
26648SOL    HW279969   4.244   8.210   7.772
26649SOL     OW79970   5.005   7.793   8.392
26649SOL    HW179971   4.919   7.743   8.379
26649SOL    HW279972   5.067   7.739   8.448
26650SOL     OW79973   5.300   9.110   7.755
26650SOL    HW179974   5.389   9.156   7.758
26650SOL    HW279975   5.279   9.086   7.660
26651SOL     OW79976   4.531   8.053   8.913
26651SOL    HW179977   4.484   8.050   9.002
26651SOL    HW279978   4.480   7.998   8.847
26652SOL     OW79979   5.118   7.917   9.122
26652SOL    HW179980   5.098   7.960   9.210
26652SOL    HW279981   5.196   7.855   9.131
26653SOL     OW79982   4.697   8.338   9.020
26653SOL    HW179983   4.743   8.254   8.991
26653SOL    HW279984   4.641   8.372   8.945
26654SOL     OW79985   4.715   7.858   8.690
26654SOL    HW179986   4.638   7.892   8.744
26654SOL    HW279987   4.681   7.807   8.611
26655SOL     OW79988   4.765   8.149   7.877
26655SOL    HW179989   4.791   8.145   7.973
26655SOL    HW279990   4.680   8.098   7.863
26656SOL     OW79991   3.800   8.259   8.237
26656SOL    HW179992   3.899   8.247   8.246
26656SOL    HW279993   3.776   8.354   8.258
26657SOL     OW79994   3.854   9.269   9.019
26657SOL    HW179995   3.844   9.254   9.118
26657SOL    HW279996   3.768   9.305   8.983
26658SOL     OW79997   4.589   7.796   7.643
26658SOL    HW179998   4.648   7.859   7.594
26658SOL    HW279999   4.608   7.702   7.614
26659SOL     OW80000   5.443   8.033   9.279
26659SOL    HW180001   5.417   8.122   9.243
26659SOL    HW280002   5.441   7.965   9.206
26660SOL     OW80003   5.086   8.592   7.993
26660SOL    HW180004   5.169   8.563   7.945
26660SOL    HW280005   5.037   8.659   7.937
26661SOL     OW80006   4.274   7.644   8.333
26661SOL    HW180007   4.269   7.639   8.433
26661SOL    HW280008   4.276   7.740   8.304
26662SOL     OW80009   4.732   8.904   7.925
26662SOL    HW180010   4.686   8.976   7.873
26662SOL    HW280011   4.728   8.924   8.023
26663SOL     OW80012   4.075   9.249   8.301
26663SOL    HW180013   4.125   9.163   8.307
26663SOL    HW280014   4.140   9.326   8.298
26664SOL     OW80015   5.519   8.514   8.321
26664SOL    HW180016   5.457   8.499   8.245
26664SOL    HW280017   5.467   8.525   8.406
26665SOL     OW80018   4.951   8.998   8.954
26665SOL    HW180019   4.957   8.921   9.018
26665SOL    HW280020   4.899   8.972   8.874
26666SOL     OW80021   4.045   8.391   7.690
26666SOL    HW180022   4.127   8.430   7.648
26666SOL    HW280023   4.018   8.309   7.641
26667SOL     OW80024   5.182   8.183   8.176
26667SOL    HW180025   5.177   8.118   8.251
26667SOL    HW280026   5.262   8.242   8.189
26668SOL     OW80027   4.185   8.714   9.175
26668SOL    HW180028   4.135   8.715   9.089
26668SOL    HW280029   4.122   8.696   9.251
26669SOL     OW80030   4.835   9.224   7.685
26669SOL    HW180031   4.775   9.162   7.735
26669SOL    HW280032   4.866   9.180   7.600
26670SOL     OW80033   3.926   7.733   8.946
26670SOL    HW180034   3.846   7.793   8.933
26670SOL    HW280035   3.916   7.684   9.032
26671SOL     OW80036   5.356   8.825   7.529
26671SOL    HW180037   5.324   8.919   7.519
26671SOL    HW280038   5.280   8.762   7.517
26672SOL     OW80039   4.188   9.191   7.771
26672SOL    HW180040   4.221   9.230   7.857
26672SOL    HW280041   4.264   9.184   7.706
26673SOL     OW80042   5.124   7.555   7.874
26673SOL    HW180043   5.100   7.518   7.784
26673SOL    HW280044   5.223   7.571   7.878
26674SOL     OW80045   3.973   9.233   8.689
26674SOL    HW180046   4.030   9.168   8.739
26674SOL    HW280047   3.957   9.200   8.596
26675SOL     OW80048   4.664   9.146   8.352
26675SOL    HW180049   4.744   9.089   8.373
26675SOL    HW280050   4.615   9.106   8.275
26676SOL     OW80051   4.106   8.148   7.928
26676SOL    HW180052   4.151   8.058   7.925
26676SOL    HW280053   4.012   8.137   7.961
26677SOL     OW80054   5.271   7.670   9.177
26677SOL    HW180055   5.266   7.707   9.269
26677SOL    HW280056   5.199   7.601   9.165
26678SOL     OW80057   4.338   7.570   7.565
26678SOL    HW180058   4.436   7.548   7.572
26678SOL    HW280059   4.307   7.553   7.472
26679SOL     OW80060   4.505   7.712   9.197
26679SOL    HW180061   4.572   7.651   9.240
26679SOL    HW280062   4.432   7.731   9.262
26680SOL     OW80063   4.612   8.962   8.643
26680SOL    HW180064   4.589   8.937   8.549
26680SOL    HW280065   4.673   8.893   8.682
26681SOL     OW80066   5.075   8.038   8.881
26681SOL    HW180067   5.103   7.995   8.966
26681SOL    HW280068   5.100   8.134   8.882
26682SOL     OW80069   4.527   8.850   8.372
26682SOL    HW180070   4.617   8.864   8.330
26682SOL    HW280071   4.456   8.852   8.301
26683SOL     OW80072   4.646   7.951   8.347
26683SOL    HW180073   4.621   7.942   8.251
26683SOL    HW280074   4.694   7.869   8.378
26684SOL     OW80075   4.263   7.512   7.960
26684SOL    HW180076   4.182   7.513   8.018
26684SOL    HW280077   4.266   7.595   7.905
26685SOL     OW80078   5.158   8.636   7.489
26685SOL    HW180079   5.190   8.560   7.546
26685SOL    HW280080   5.066   8.663   7.519
26686SOL     OW80081   4.021   7.483   7.619
26686SOL    HW180082   4.070   7.567   7.598
26686SOL    HW280083   4.083   7.418   7.664
26687SOL     OW80084   4.659   7.684   7.928
26687SOL    HW180085   4.611   7.725   7.850
26687SOL    HW280086   4.758   7.682   7.909
26688SOL     OW80087   4.800   8.131   8.912
26688SOL    HW180088   4.720   8.070   8.915
26688SOL    HW280089   4.881   8.078   8.888
26689SOL     OW80090   4.183   8.600   8.189
26689SOL    HW180091   4.112   8.573   8.254
26689SOL    HW280092   4.157   8.572   8.096
26690SOL     OW80093   4.995   9.245   8.039
26690SOL    HW180094   5.039   9.309   7.975
26690SOL    HW280095   4.945   9.297   8.109
26691SOL     OW80096   4.756   7.997   7.464
26691SOL    HW180097   4.715   8.079   7.425
26691SOL    HW280098   4.820   8.023   7.537
26692SOL     OW80099   3.802   8.004   8.834
26692SOL    HW180100   3.894   8.003   8.793
26692SOL    HW280101   3.796   8.078   8.901
26693SOL     OW80102   4.285   7.670   8.595
26693SOL    HW180103   4.323   7.586   8.632
26693SOL    HW280104   4.197   7.689   8.639
26694SOL     OW80105   4.590   7.902   8.090
26694SOL    HW180106   4.558   7.974   8.028
26694SOL    HW280107   4.614   7.821   8.037
26695SOL     OW80108   4.741   7.487   8.201
26695SOL    HW180109   4.669   7.492   8.132
26695SOL    HW280110   4.717   7.418   8.270
26696SOL     OW80111   5.153   8.621   8.315
26696SOL    HW180112   5.098   8.537   8.308
26696SOL    HW280113   5.179   8.650   8.223
26697SOL     OW80114   5.190   8.038   8.440
26697SOL    HW180115   5.160   7.943   8.447
26697SOL    HW280116   5.263   8.054   8.506
26698SOL     OW80117   5.581   8.281   7.825
26698SOL    HW180118   5.623   8.217   7.889
26698SOL    HW280119   5.543   8.230   7.747
26699SOL     OW80120   4.212   8.833   7.622
26699SOL    HW180121   4.125   8.818   7.669
26699SOL    HW280122   4.195   8.859   7.527
26700SOL     OW80123   5.388   8.728   8.105
26700SOL    HW180124   5.487   8.736   8.119
26700SOL    HW280125   5.343   8.812   8.136
26701SOL     OW80126   5.114   8.023   7.526
26701SOL    HW180127   5.060   8.002   7.607
26701SOL    HW280128   5.205   7.982   7.535
26702SOL     OW80129   4.251   7.704   7.776
26702SOL    HW180130   4.278   7.645   7.701
26702SOL    HW280131   4.251   7.799   7.745
26703SOL     OW80132   5.478   8.671   9.036
26703SOL    HW180133   5.569   8.632   9.023
26703SOL    HW280134   5.486   8.767   9.060
26704SOL     OW80135   4.788   8.795   8.788
26704SOL    HW180136   4.708   8.772   8.843
26704SOL    HW280137   4.871   8.769   8.837
26705SOL     OW80138   5.316   9.077   9.073
26705SOL    HW180139   5.343   9.111   8.983
26705SOL    HW280140   5.395   9.039   9.119
26706SOL     OW80141   4.835   8.643   8.548
26706SOL    HW180142   4.795   8.687   8.629
26706SOL    HW280143   4.794   8.680   8.465
26707SOL     OW80144   5.362   8.547   8.527
26707SOL    HW180145   5.367   8.628   8.586
26707SOL    HW280146   5.276   8.549   8.476
26708SOL     OW80147   4.639   7.537   8.850
26708SOL    HW180148   4.664   7.517   8.755
26708SOL    HW280149   4.711   7.593   8.892
26709SOL     OW80150   4.704   8.564   9.167
26709SOL    HW180151   4.605   8.570   9.177
26709SOL    HW280152   4.727   8.484   9.111
26710SOL     OW80153   4.429   8.498   7.816
26710SOL    HW180154   4.415   8.505   7.915
26710SOL    HW280155   4.513   8.447   7.798
26711SOL     OW80156   4.134   8.261   8.699
26711SOL    HW180157   4.220   8.273   8.749
26711SOL    HW280158   4.092   8.174   8.726
26712SOL     OW80159   4.998   7.834   8.710
26712SOL    HW180160   5.019   7.908   8.774
26712SOL    HW280161   4.909   7.851   8.667
26713SOL     OW80162   3.788   9.012   8.779
26713SOL    HW180163   3.742   9.094   8.745
26713SOL    HW280164   3.886   9.031   8.788
26714SOL     OW80165   4.091   8.548   7.949
26714SOL    HW180166   4.084   8.631   7.893
26714SOL    HW280167   4.095   8.468   7.889
26715SOL     OW80168   4.290   7.985   8.313
26715SOL    HW180169   4.302   8.051   8.239
26715SOL    HW280170   4.336   8.019   8.396
26716SOL     OW80171   4.976   8.796   7.836
26716SOL    HW180172   5.026   8.873   7.876
26716SOL    HW280173   4.881   8.798   7.868
26717SOL     OW80174   4.996   8.893   8.590
26717SOL    HW180175   5.043   8.906   8.677
26717SOL    HW280176   4.930   8.819   8.599
26718SOL     OW80177   5.306   8.087   7.920
26718SOL    HW180178   5.275   8.148   7.993
26718SOL    HW280179   5.356   8.139   7.851
26719SOL     OW80180   4.078   8.958   8.777
26719SOL    HW180181   4.057   8.914   8.690
26719SOL    HW280182   4.175   8.984   8.780
26720SOL     OW80183   4.126   8.199   9.046
26720SOL    HW180184   4.194   8.254   8.999
26720SOL    HW280185   4.166   8.111   9.073
26721SOL     OW80186   5.311   8.227   9.118
26721SOL    HW180187   5.219   8.265   9.113
26721SOL    HW280188   5.371   8.274   9.053
26722SOL     OW80189   4.737   7.553   9.218
26722SOL    HW180190   4.743   7.638   9.166
26722SOL    HW280191   4.769   7.477   9.161
26723SOL     OW80192   4.228   7.498   9.188
26723SOL    HW180193   4.186   7.441   9.118
26723SOL    HW280194   4.162   7.567   9.220
26724SOL     OW80195   4.297   8.318   8.477
26724SOL    HW180196   4.341   8.407   8.468
26724SOL    HW280197   4.234   8.318   8.554
26725SOL     OW80198   5.084   8.310   8.493
26725SOL    HW180199   5.009   8.310   8.427
26725SOL    HW280200   5.121   8.218   8.502
26726SOL     OW80201   4.933   7.973   7.723
26726SOL    HW180202   4.946   7.889   7.777
26726SOL    HW280203   4.904   8.047   7.783
26727SOL     OW80204   4.031   7.661   8.679
26727SOL    HW180205   4.008   7.698   8.769
26727SOL    HW280206   4.001   7.566   8.673
26728SOL     OW80207   3.761   8.758   8.730
26728SOL    HW180208   3.814   8.709   8.798
26728SOL    HW280209   3.783   8.856   8.735
26729SOL     OW80210   4.456   8.082   8.512
26729SOL    HW180211   4.515   8.056   8.436
26729SOL    HW280212   4.428   8.178   8.501
26730SOL     OW80213   5.452   8.383   9.302
26730SOL    HW180214   5.406   8.376   9.213
26730SOL    HW280215   5.390   8.427   9.368
26731SOL     OW80216   4.031   7.511   8.066
26731SOL    HW180217   4.020   7.605   8.099
26731SOL    HW280218   4.026   7.448   8.143
26732SOL     OW80219   5.346   7.815   7.822
26732SOL    HW180220   5.348   7.739   7.886
26732SOL    HW280221   5.298   7.892   7.862
26733SOL     OW80222   4.747   8.214   8.414
26733SOL    HW180223   4.762   8.235   8.510
26733SOL    HW280224   4.717   8.119   8.405
26734SOL     OW80225   4.704   9.021   9.148
26734SOL    HW180226   4.684   9.065   9.060
26734SOL    HW280227   4.743   8.930   9.132
26735SOL     OW80228   5.583   8.966   9.053
26735SOL    HW180229   5.597   8.993   8.958
26735SOL    HW280230   5.666   8.988   9.106
26736SOL     OW80231   4.074   8.346   9.252
26736SOL    HW180232   4.150   8.390   9.300
26736SOL    HW280233   4.109   8.299   9.170
26737SOL     OW80234   5.264   7.722   7.573
26737SOL    HW180235   5.203   7.647   7.596
26737SOL    HW280236   5.286   7.774   7.656
26738SOL     OW80237   5.027   8.286   7.490
26738SOL    HW180238   5.061   8.193   7.505
26738SOL    HW280239   5.045   8.313   7.395
26739SOL     OW80240   4.792   8.781   8.297
26739SOL    HW180241   4.799   8.697   8.242
26739SOL    HW280242   4.854   8.850   8.261
26740SOL     OW80243   4.043   8.258   8.397
26740SOL    HW180244   4.136   8.294   8.402
26740SOL    HW280245   4.037   8.173   8.449
26741SOL     OW80246   4.063   7.957   8.454
26741SOL    HW180247   4.011   7.874   8.437
26741SOL    HW280248   4.140   7.962   8.390
26742SOL     OW80249   4.862   7.828   9.126
26742SOL    HW180250   4.817   7.891   9.190
26742SOL    HW280251   4.955   7.859   9.109
26743SOL     OW80252   4.884   7.655   8.925
26743SOL    HW180253   4.884   7.719   9.002
26743SOL    HW280254   4.912   7.703   8.842
26744SOL     OW80255   3.732   8.774   7.648
26744SOL    HW180256   3.639   8.795   7.617
26744SOL    HW280257   3.742   8.675   7.661
26745SOL     OW80258   3.812   9.249   8.375
26745SOL    HW180259   3.770   9.163   8.348
26745SOL    HW280260   3.906   9.252   8.341
26746SOL     OW80261   4.228   9.016   8.358
26746SOL    HW180262   4.294   9.090   8.367
26746SOL    HW280263   4.272   8.937   8.316
26747SOL     OW80264   4.726   8.244   8.686
26747SOL    HW180265   4.767   8.212   8.772
26747SOL    HW280266   4.630   8.217   8.683
26748SOL     OW80267   3.764   7.992   8.562
26748SOL    HW180268   3.849   7.959   8.521
26748SOL    HW280269   3.777   8.007   8.660
26749SOL     OW80270   3.913   7.968   9.170
26749SOL    HW180271   3.972   7.928   9.100
26749SOL    HW280272   3.855   8.039   9.129
26750SOL     OW80273   5.093   8.398   9.108
26750SOL    HW180274   5.132   8.487   9.128
26750SOL    HW280275   5.103   8.378   9.011
26751SOL     OW80276   4.539   8.020   7.773
26751SOL    HW180277   4.546   7.931   7.727
26751SOL    HW280278   4.445   8.054   7.765
26752SOL     OW80279   5.381   8.052   8.654
26752SOL    HW180280   5.343   7.983   8.716
26752SOL    HW280281   5.463   8.016   8.610
26753SOL     OW80282   3.976   9.012   9.192
26753SOL    HW180283   3.946   9.069   9.268
26753SOL    HW280284   3.969   8.915   9.218
26754SOL     OW80285   4.395   7.912   8.717
26754SOL    HW180286   4.361   7.823   8.687
26754SOL    HW280287   4.421   7.966   8.637
26755SOL     OW80288   4.654   9.126   8.913
26755SOL    HW180289   4.630   9.108   8.818
26755SOL    HW280290   4.684   9.220   8.923
26756SOL     OW80291   4.197   7.948   7.639
26756SOL    HW180292   4.258   8.028   7.643
26756SOL    HW280293   4.102   7.979   7.646
26757SOL     OW80294   3.883   8.585   8.914
26757SOL    HW180295   3.905   8.524   8.990
26757SOL    HW280296   3.893   8.536   8.828
26758SOL     OW80297   5.071   8.507   8.682
26758SOL    HW180298   5.095   8.444   8.608
26758SOL    HW280299   4.981   8.547   8.664
26759SOL     OW80300   5.026   8.303   7.757
26759SOL    HW180301   4.940   8.272   7.799
26759SOL    HW280302   5.022   8.289   7.658
26760SOL     OW80303   5.483   9.195   8.602
26760SOL    HW180304   5.544   9.225   8.529
26760SOL    HW280305   5.445   9.106   8.580
26761SOL     OW80306   4.976   9.179   8.576
26761SOL    HW180307   5.060   9.184   8.522
26761SOL    HW280308   4.953   9.083   8.594
26762SOL     OW80309   3.807   8.706   8.470
26762SOL    HW180310   3.802   8.705   8.570
26762SOL    HW280311   3.724   8.665   8.432
26763SOL     OW80312   4.412   9.110   9.164
26763SOL    HW180313   4.356   9.191   9.173
26763SOL    HW280314   4.464   9.114   9.078
26764SOL     OW80315   5.450   7.583   7.971
26764SOL    HW180316   5.523   7.566   7.904
26764SOL    HW280317   5.419   7.496   8.009
26765SOL     OW80318   5.112   9.021   7.925
26765SOL    HW180319   5.179   9.033   7.851
26765SOL    HW280320   5.072   9.110   7.948
26766SOL     OW80321   3.854   9.242   9.299
26766SOL    HW180322   3.813   9.168   9.352
26766SOL    HW280323   3.918   9.293   9.357
26767SOL     OW80324   5.004   8.375   8.120
26767SOL    HW180325   5.064   8.294   8.122
26767SOL    HW280326   5.044   8.444   8.060
26768SOL     OW80327   4.554   8.721   8.870
26768SOL    HW180328   4.549   8.754   8.965
26768SOL    HW280329   4.468   8.740   8.824
26769SOL     OW80330   4.396   9.064   7.602
26769SOL    HW180331   4.405   9.074   7.503
26769SOL    HW280332   4.356   8.975   7.623
26770SOL     OW80333   5.374   9.168   8.842
26770SOL    HW180334   5.427   9.178   8.758
26770SOL    HW280335   5.347   9.258   8.876
26771SOL     OW80336   5.565   7.623   8.411
26771SOL    HW180337   5.604   7.538   8.375
26771SOL    HW280338   5.467   7.625   8.392
26772SOL     OW80339   3.987   7.774   8.168
26772SOL    HW180340   3.908   7.825   8.134
26772SOL    HW280341   3.978   7.759   8.266
26773SOL     OW80342   4.918   9.060   7.479
26773SOL    HW180343   4.924   8.967   7.516
26773SOL    HW280344   4.859   9.060   7.399
26774SOL     OW80345   4.546   8.450   8.820
26774SOL    HW180346   4.586   8.449   8.728
26774SOL    HW280347   4.556   8.542   8.860
26775SOL     OW80348   4.640   8.358   7.739
26775SOL    HW180349   4.703   8.396   7.671
26775SOL    HW280350   4.680   8.275   7.778
26776SOL     OW80351   5.228   9.055   7.492
26776SOL    HW180352   5.136   9.092   7.499
26776SOL    HW280353   5.266   9.075   7.402
26777SOL     OW80354   4.096   8.736   8.938
26777SOL    HW180355   4.083   8.829   8.904
26777SOL    HW280356   4.012   8.684   8.925
26778SOL     OW80357   5.338   8.740   8.737
26778SOL    HW180358   5.398   8.743   8.817
26778SOL    HW280359   5.263   8.804   8.750
26779SOL     OW80360   4.763   8.546   8.144
26779SOL    HW180361   4.693   8.499   8.198
26779SOL    HW280362   4.822   8.478   8.101
26780SOL     OW80363   4.738   7.684   8.419
26780SOL    HW180364   4.730   7.648   8.326
26780SOL    HW280365   4.736   7.608   8.484
26781SOL     OW80366   4.314   8.935   7.939
26781SOL    HW180367   4.356   8.877   7.869
26781SOL    HW280368   4.270   9.014   7.895
26782SOL     OW80369   5.433   7.833   8.829
26782SOL    HW180370   5.506   7.902   8.833
26782SOL    HW280371   5.461   7.758   8.770
26783SOL     OW80372   3.979   8.796   7.738
26783SOL    HW180373   3.883   8.797   7.711
26783SOL    HW280374   3.991   8.849   7.822
26784SOL     OW80375   3.829   8.461   9.174
26784SOL    HW180376   3.752   8.428   9.228
26784SOL    HW280377   3.914   8.431   9.216
26785SOL     OW80378   4.396   7.651   8.937
26785SOL    HW180379   4.486   7.635   8.897
26785SOL    HW280380   4.404   7.656   9.036
26786SOL     OW80381   3.799   7.793   7.481
26786SOL    HW180382   3.707   7.765   7.452
26786SOL    HW280383   3.830   7.870   7.425
26787SOL     OW80384   5.164   8.304   8.846
26787SOL    HW180385   5.107   8.356   8.783
26787SOL    HW280386   5.260   8.316   8.822
26788SOL     OW80387   3.796   7.614   7.766
26788SOL    HW180388   3.779   7.697   7.712
26788SOL    HW280389   3.886   7.577   7.744
26789SOL     OW80390   4.907   8.783   7.567
26789SOL    HW180391   4.808   8.772   7.569
26789SOL    HW280392   4.941   8.798   7.660
26790SOL     OW80393   4.337   8.290   8.879
26790SOL    HW180394   4.393   8.371   8.862
26790SOL    HW280395   4.396   8.210   8.882
26791SOL     OW80396   5.217   9.215   8.407
26791SOL    HW180397   5.250   9.279   8.338
26791SOL    HW280398   5.283   9.209   8.482
26792SOL     OW80399   4.440   8.013   9.156
26792SOL    HW180400   4.459   8.078   9.230
26792SOL    HW280401   4.500   7.933   9.165
26793SOL     OW80402   5.174   8.668   9.081
26793SOL    HW180403   5.165   8.658   9.180
26793SOL    HW280404   5.270   8.661   9.055
26794SOL     OW80405   4.114   9.189   9.008
26794SOL    HW180406   4.023   9.230   9.006
26794SOL    HW280407   4.107   9.095   9.040
26795SOL     OW80408   5.398   8.331   8.702
26795SOL    HW180409   5.371   8.242   8.665
26795SOL    HW280410   5.399   8.399   8.629
26796SOL     OW80411   4.949   7.773   7.897
26796SOL    HW180412   5.014   7.699   7.886
26796SOL    HW280413   4.969   7.823   7.981
26797SOL     OW80414   4.318   8.193   8.100
26797SOL    HW180415   4.368   8.278   8.081
26797SOL    HW280416   4.230   8.195   8.052
26798SOL     OW80417   5.501   7.790   9.090
26798SOL    HW180418   5.484   7.821   8.996
26798SOL    HW280419   5.417   7.753   9.128
26799SOL     OW80420   5.454   8.382   8.965
26799SOL    HW180421   5.492   8.473   8.980
26799SOL    HW280422   5.446   8.365   8.866
26800SOL     OW80423   4.583   8.822   7.464
26800SOL    HW180424   4.537   8.837   7.552
26800SOL    HW280425   4.627   8.907   7.434
26801SOL     OW80426   4.385   9.238   8.401
26801SOL    HW180427   4.339   9.326   8.388
26801SOL    HW280428   4.484   9.250   8.394
26802SOL     OW80429   4.583   8.404   8.309
26802SOL    HW180430   4.637   8.335   8.357
26802SOL    HW280431   4.551   8.473   8.375
26803SOL     OW80432   4.807   8.432   7.535
26803SOL    HW180433   4.784   8.485   7.453
26803SOL    HW280434   4.888   8.376   7.516
26804SOL     OW80435   5.585   9.017   8.299
26804SOL    HW180436   5.514   9.005   8.229
26804SOL    HW280437   5.586   8.938   8.359
26805SOL     OW80438   3.945   8.762   9.292
26805SOL    HW180439   3.880   8.689   9.271
26805SOL    HW280440   3.949   8.776   9.390
26806SOL     OW80441   3.803   8.688   8.101
26806SOL    HW180442   3.802   8.641   8.189
26806SOL    HW280443   3.885   8.660   8.050
26807SOL     OW80444   4.396   8.839   9.072
26807SOL    HW180445   4.318   8.789   9.110
26807SOL    HW280446   4.393   8.934   9.103
26808SOL     OW80447   5.548   7.640   8.675
26808SOL    HW180448   5.544   7.550   8.719
26808SOL    HW280449   5.551   7.629   8.576
26809SOL     OW80450   4.152   7.872   7.968
26809SOL    HW180451   4.182   7.800   7.906
26809SOL    HW280452   4.113   7.832   8.051
26810SOL     OW80453   5.429   8.935   8.552
26810SOL    HW180454   5.336   8.910   8.525
26810SOL    HW280455   5.455   8.885   8.634
26811SOL     OW80456   4.041   7.995   8.728
26811SOL    HW180457   4.079   7.936   8.800
26811SOL    HW280458   4.081   7.969   8.640
26812SOL     OW80459   4.536   9.034   8.135
26812SOL    HW180460   4.568   9.044   8.041
26812SOL    HW280461   4.457   8.972   8.137
26813SOL     OW80462   5.148   7.662   8.560
26813SOL    HW180463   5.200   7.597   8.615
26813SOL    HW280464   5.099   7.725   8.621
26814SOL     OW80465   4.725   7.482   8.602
26814SOL    HW180466   4.662   7.410   8.571
26814SOL    HW280467   4.818   7.446   8.602
26815SOL     OW80468   4.494   8.778   7.749
26815SOL    HW180469   4.448   8.691   7.766
26815SOL    HW280470   4.585   8.775   7.790
26816SOL     OW80471   4.342   9.015   8.732
26816SOL    HW180472   4.337   9.097   8.789
26816SOL    HW280473   4.431   9.012   8.687
26817SOL     OW80474   5.076   7.500   7.616
26817SOL    HW180475   5.111   7.459   7.532
26817SOL    HW280476   4.986   7.462   7.636
26818SOL     OW80477   5.024   7.901   8.139
26818SOL    HW180478   4.965   7.981   8.143
26818SOL    HW280479   5.039   7.866   8.232
26819SOL     OW80480   5.317   7.669   8.330
26819SOL    HW180481   5.233   7.668   8.384
26819SOL    HW280482   5.319   7.752   8.274
26820SOL     OW80483   3.763   8.525   7.748
26820SOL    HW180484   3.862   8.514   7.739
26820SOL    HW280485   3.723   8.439   7.780
26821SOL     OW80486   4.599   9.094   7.785
26821SOL    HW180487   4.522   9.059   7.731
26821SOL    HW280488   4.567   9.165   7.847
26822SOL     OW80489   3.954   8.076   9.423
26822SOL    HW180490   3.861   8.074   9.460
26822SOL    HW280491   3.955   8.037   9.331
26823SOL     OW80492   3.949   7.723  10.306
26823SOL    HW180493   3.984   7.706  10.398
26823SOL    HW280494   3.861   7.678  10.294
26824SOL     OW80495   3.743   7.816   9.957
26824SOL    HW180496   3.661   7.859   9.996
26824SOL    HW280497   3.715   7.743   9.894
26825SOL     OW80498   4.293   8.723  10.475
26825SOL    HW180499   4.200   8.716  10.438
26825SOL    HW280500   4.304   8.812  10.519
26826SOL     OW80501   5.279   8.959  10.013
26826SOL    HW180502   5.222   8.943  10.094
26826SOL    HW280503   5.220   8.969   9.933
26827SOL     OW80504   4.859   8.151  10.027
26827SOL    HW180505   4.916   8.229  10.002
26827SOL    HW280506   4.799   8.177  10.103
26828SOL     OW80507   5.479   8.055   9.541
26828SOL    HW180508   5.467   8.042   9.442
26828SOL    HW280509   5.449   7.974   9.590
26829SOL     OW80510   4.492   8.592  10.333
26829SOL    HW180511   4.414   8.609  10.393
26829SOL    HW280512   4.526   8.679  10.297
26830SOL     OW80513   4.574   8.246  11.133
26830SOL    HW180514   4.570   8.322  11.198
26830SOL    HW280515   4.596   8.282  11.042
26831SOL     OW80516   4.409   8.460   9.975
26831SOL    HW180517   4.478   8.444  10.045
26831SOL    HW280518   4.336   8.517  10.013
26832SOL     OW80519   4.410   8.609  11.113
26832SOL    HW180520   4.470   8.688  11.127
26832SOL    HW280521   4.324   8.640  11.072
26833SOL     OW80522   4.059   8.883  10.371
26833SOL    HW180523   3.981   8.852  10.318
26833SOL    HW280524   4.117   8.941  10.314
26834SOL     OW80525   5.184   8.953  10.649
26834SOL    HW180526   5.208   9.047  10.675
26834SOL    HW280527   5.168   8.899  10.731
26835SOL     OW80528   4.162   7.840  10.809
26835SOL    HW180529   4.244   7.784  10.818
26835SOL    HW280530   4.081   7.782  10.813
26836SOL     OW80531   5.327   7.895  10.047
26836SOL    HW180532   5.253   7.941   9.997
26836SOL    HW280533   5.378   7.963  10.100
26837SOL     OW80534   3.955   9.161   9.793
26837SOL    HW180535   3.989   9.238   9.847
26837SOL    HW280536   3.999   9.161   9.703
26838SOL     OW80537   4.851   8.789  11.000
26838SOL    HW180538   4.898   8.789  11.088
26838SOL    HW280539   4.803   8.702  10.989
26839SOL     OW80540   3.954   8.882   9.848
26839SOL    HW180541   3.928   8.978   9.848
26839SOL    HW280542   3.883   8.828   9.893
26840SOL     OW80543   3.964   8.539  10.196
26840SOL    HW180544   3.978   8.455  10.248
26840SOL    HW280545   3.909   8.603  10.251
26841SOL     OW80546   4.344   9.234  10.749
26841SOL    HW180547   4.252   9.217  10.784
26841SOL    HW280548   4.372   9.326  10.775
26842SOL     OW80549   4.330   8.412   9.433
26842SOL    HW180550   4.337   8.496   9.379
26842SOL    HW280551   4.376   8.425   9.521
26843SOL     OW80552   5.318   7.562  10.790
26843SOL    HW180553   5.300   7.629  10.718
26843SOL    HW280554   5.315   7.608  10.879
26844SOL     OW80555   3.846   8.091   9.873
26844SOL    HW180556   3.801   8.003   9.890
26844SOL    HW280557   3.845   8.145   9.957
26845SOL     OW80558   5.566   9.215   9.669
26845SOL    HW180559   5.620   9.186   9.749
26845SOL    HW280560   5.596   9.305   9.640
26846SOL     OW80561   3.751   9.044   9.427
26846SOL    HW180562   3.732   8.948   9.448
26846SOL    HW280563   3.718   9.102   9.502
26847SOL     OW80564   5.413   8.370   9.922
26847SOL    HW180565   5.508   8.341   9.930
26847SOL    HW280566   5.405   8.435   9.847
26848SOL     OW80567   5.365   8.556   9.742
26848SOL    HW180568   5.451   8.558   9.690
26848SOL    HW280569   5.379   8.603   9.830
26849SOL     OW80570   3.837   8.185  10.907
26849SOL    HW180571   3.925   8.172  10.952
26849SOL    HW280572   3.824   8.282  10.885
26850SOL     OW80573   4.337   8.813  10.036
26850SOL    HW180574   4.288   8.726  10.045
26850SOL    HW280575   4.314   8.856   9.949
26851SOL     OW80576   5.017   8.676  10.733
26851SOL    HW180577   5.054   8.603  10.675
26851SOL    HW280578   5.069   8.681  10.818
26852SOL     OW80579   4.533   7.452   9.812
26852SOL    HW180580   4.573   7.543   9.803
26852SOL    HW280581   4.433   7.460   9.818
26853SOL     OW80582   3.921   8.424  10.574
26853SOL    HW180583   4.010   8.379  10.560
26853SOL    HW280584   3.848   8.359  10.555
26854SOL     OW80585   5.249   8.447   9.500
26854SOL    HW180586   5.186   8.371   9.513
26854SOL    HW280587   5.297   8.465   9.586
26855SOL     OW80588   4.911   9.240  10.926
26855SOL    HW180589   4.935   9.300  10.850
26855SOL    HW280590   4.918   9.145  10.896
26856SOL     OW80591   4.041   7.699  11.111
26856SOL    HW180592   4.112   7.770  11.117
26856SOL    HW280593   3.953   7.738  11.139
26857SOL     OW80594   5.190   8.865  10.263
26857SOL    HW180595   5.131   8.871  10.343
26857SOL    HW280596   5.175   8.777  10.217
26858SOL     OW80597   5.391   9.162   9.882
26858SOL    HW180598   5.350   9.139   9.794
26858SOL    HW280599   5.373   9.088   9.947
26859SOL     OW80600   4.322   8.177   9.580
26859SOL    HW180601   4.346   8.246   9.512
26859SOL    HW280602   4.244   8.210   9.634
26860SOL     OW80603   5.005   7.793  10.254
26860SOL    HW180604   4.919   7.743  10.241
26860SOL    HW280605   5.067   7.739  10.310
26861SOL     OW80606   5.300   9.110   9.617
26861SOL    HW180607   5.389   9.156   9.620
26861SOL    HW280608   5.279   9.086   9.522
26862SOL     OW80609   4.531   8.053  10.775
26862SOL    HW180610   4.484   8.050  10.864
26862SOL    HW280611   4.480   7.998  10.709
26863SOL     OW80612   5.118   7.917  10.984
26863SOL    HW180613   5.098   7.960  11.072
26863SOL    HW280614   5.196   7.855  10.993
26864SOL     OW80615   4.697   8.338  10.882
26864SOL    HW180616   4.743   8.254  10.853
26864SOL    HW280617   4.641   8.372  10.807
26865SOL     OW80618   4.715   7.858  10.552
26865SOL    HW180619   4.638   7.892  10.606
26865SOL    HW280620   4.681   7.807  10.473
26866SOL     OW80621   4.765   8.149   9.739
26866SOL    HW180622   4.791   8.145   9.835
26866SOL    HW280623   4.680   8.098   9.725
26867SOL     OW80624   3.800   8.259  10.099
26867SOL    HW180625   3.899   8.247  10.108
26867SOL    HW280626   3.776   8.354  10.120
26868SOL     OW80627   3.854   9.269  10.881
26868SOL    HW180628   3.844   9.254  10.980
26868SOL    HW280629   3.768   9.305  10.845
26869SOL     OW80630   4.589   7.796   9.505
26869SOL    HW180631   4.648   7.859   9.456
26869SOL    HW280632   4.608   7.702   9.476
26870SOL     OW80633   5.443   8.033  11.141
26870SOL    HW180634   5.417   8.122  11.105
26870SOL    HW280635   5.441   7.965  11.068
26871SOL     OW80636   5.086   8.592   9.855
26871SOL    HW180637   5.169   8.563   9.807
26871SOL    HW280638   5.037   8.659   9.799
26872SOL     OW80639   4.274   7.644  10.195
26872SOL    HW180640   4.269   7.639  10.295
26872SOL    HW280641   4.276   7.740  10.166
26873SOL     OW80642   4.732   8.904   9.787
26873SOL    HW180643   4.686   8.976   9.735
26873SOL    HW280644   4.728   8.924   9.885
26874SOL     OW80645   4.075   9.249  10.163
26874SOL    HW180646   4.125   9.163  10.169
26874SOL    HW280647   4.140   9.326  10.160
26875SOL     OW80648   5.519   8.514  10.183
26875SOL    HW180649   5.457   8.499  10.107
26875SOL    HW280650   5.467   8.525  10.268
26876SOL     OW80651   4.951   8.998  10.816
26876SOL    HW180652   4.957   8.921  10.880
26876SOL    HW280653   4.899   8.972  10.736
26877SOL     OW80654   4.045   8.391   9.552
26877SOL    HW180655   4.127   8.430   9.510
26877SOL    HW280656   4.018   8.309   9.503
26878SOL     OW80657   5.182   8.183  10.038
26878SOL    HW180658   5.177   8.118  10.113
26878SOL    HW280659   5.262   8.242  10.051
26879SOL     OW80660   4.185   8.714  11.037
26879SOL    HW180661   4.135   8.715  10.951
26879SOL    HW280662   4.122   8.696  11.113
26880SOL     OW80663   4.835   9.224   9.547
26880SOL    HW180664   4.775   9.162   9.597
26880SOL    HW280665   4.866   9.180   9.462
26881SOL     OW80666   3.926   7.733  10.808
26881SOL    HW180667   3.846   7.793  10.795
26881SOL    HW280668   3.916   7.684  10.894
26882SOL     OW80669   5.356   8.825   9.391
26882SOL    HW180670   5.324   8.919   9.381
26882SOL    HW280671   5.280   8.762   9.379
26883SOL     OW80672   4.188   9.191   9.633
26883SOL    HW180673   4.221   9.230   9.719
26883SOL    HW280674   4.264   9.184   9.568
26884SOL     OW80675   5.124   7.555   9.736
26884SOL    HW180676   5.100   7.518   9.646
26884SOL    HW280677   5.223   7.571   9.740
26885SOL     OW80678   3.973   9.233  10.551
26885SOL    HW180679   4.030   9.168  10.601
26885SOL    HW280680   3.957   9.200  10.458
26886SOL     OW80681   4.664   9.146  10.214
26886SOL    HW180682   4.744   9.089  10.235
26886SOL    HW280683   4.615   9.106  10.137
26887SOL     OW80684   4.106   8.148   9.790
26887SOL    HW180685   4.151   8.058   9.787
26887SOL    HW280686   4.012   8.137   9.823
26888SOL     OW80687   5.271   7.670  11.039
26888SOL    HW180688   5.266   7.707  11.131
26888SOL    HW280689   5.199   7.601  11.027
26889SOL     OW80690   4.338   7.570   9.427
26889SOL    HW180691   4.436   7.548   9.434
26889SOL    HW280692   4.307   7.553   9.334
26890SOL     OW80693   4.505   7.712  11.059
26890SOL    HW180694   4.572   7.651  11.102
26890SOL    HW280695   4.432   7.731  11.124
26891SOL     OW80696   4.612   8.962  10.505
26891SOL    HW180697   4.589   8.937  10.411
26891SOL    HW280698   4.673   8.893  10.544
26892SOL     OW80699   5.075   8.038  10.743
26892SOL    HW180700   5.103   7.995  10.828
26892SOL    HW280701   5.100   8.134  10.744
26893SOL     OW80702   4.527   8.850  10.234
26893SOL    HW180703   4.617   8.864  10.192
26893SOL    HW280704   4.456   8.852  10.163
26894SOL     OW80705   4.646   7.951  10.209
26894SOL    HW180706   4.621   7.942  10.113
26894SOL    HW280707   4.694   7.869  10.240
26895SOL     OW80708   4.263   7.512   9.822
26895SOL    HW180709   4.182   7.513   9.880
26895SOL    HW280710   4.266   7.595   9.767
26896SOL     OW80711   5.158   8.636   9.351
26896SOL    HW180712   5.190   8.560   9.408
26896SOL    HW280713   5.066   8.663   9.381
26897SOL     OW80714   4.021   7.483   9.481
26897SOL    HW180715   4.070   7.567   9.460
26897SOL    HW280716   4.083   7.418   9.526
26898SOL     OW80717   4.659   7.684   9.790
26898SOL    HW180718   4.611   7.725   9.712
26898SOL    HW280719   4.758   7.682   9.771
26899SOL     OW80720   4.800   8.131  10.774
26899SOL    HW180721   4.720   8.070  10.777
26899SOL    HW280722   4.881   8.078  10.750
26900SOL     OW80723   4.951   9.018  10.103
26900SOL    HW180724   4.972   9.092  10.038
26900SOL    HW280725   5.019   9.018  10.176
26901SOL     OW80726   4.183   8.600  10.051
26901SOL    HW180727   4.112   8.573  10.116
26901SOL    HW280728   4.157   8.572   9.958
26902SOL     OW80729   4.995   9.245   9.901
26902SOL    HW180730   5.039   9.309   9.837
26902SOL    HW280731   4.945   9.297   9.971
26903SOL     OW80732   4.756   7.997   9.326
26903SOL    HW180733   4.715   8.079   9.287
26903SOL    HW280734   4.820   8.023   9.399
26904SOL     OW80735   3.802   8.004  10.696
26904SOL    HW180736   3.894   8.003  10.655
26904SOL    HW280737   3.796   8.078  10.763
26905SOL     OW80738   4.285   7.670  10.457
26905SOL    HW180739   4.323   7.586  10.494
26905SOL    HW280740   4.197   7.689  10.501
26906SOL     OW80741   4.590   7.902   9.952
26906SOL    HW180742   4.558   7.974   9.890
26906SOL    HW280743   4.614   7.821   9.899
26907SOL     OW80744   4.741   7.487  10.063
26907SOL    HW180745   4.669   7.492   9.994
26907SOL    HW280746   4.717   7.418  10.132
26908SOL     OW80747   5.153   8.621  10.177
26908SOL    HW180748   5.098   8.537  10.170
26908SOL    HW280749   5.179   8.650  10.085
26909SOL     OW80750   5.190   8.038  10.302
26909SOL    HW180751   5.160   7.943  10.309
26909SOL    HW280752   5.263   8.054  10.368
26910SOL     OW80753   5.581   8.281   9.687
26910SOL    HW180754   5.623   8.217   9.751
26910SOL    HW280755   5.543   8.230   9.609
26911SOL     OW80756   4.212   8.833   9.484
26911SOL    HW180757   4.125   8.818   9.531
26911SOL    HW280758   4.195   8.859   9.389
26912SOL     OW80759   5.388   8.728   9.967
26912SOL    HW180760   5.487   8.736   9.981
26912SOL    HW280761   5.343   8.812   9.998
26913SOL     OW80762   5.114   8.023   9.388
26913SOL    HW180763   5.060   8.002   9.469
26913SOL    HW280764   5.205   7.982   9.397
26914SOL     OW80765   4.251   7.704   9.638
26914SOL    HW180766   4.278   7.645   9.563
26914SOL    HW280767   4.251   7.799   9.607
26915SOL     OW80768   5.478   8.671  10.898
26915SOL    HW180769   5.569   8.632  10.885
26915SOL    HW280770   5.486   8.767  10.922
26916SOL     OW80771   4.788   8.795  10.650
26916SOL    HW180772   4.708   8.772  10.705
26916SOL    HW280773   4.871   8.769  10.699
26917SOL     OW80774   5.316   9.077  10.935
26917SOL    HW180775   5.343   9.111  10.845
26917SOL    HW280776   5.395   9.039  10.981
26918SOL     OW80777   4.835   8.643  10.410
26918SOL    HW180778   4.795   8.687  10.491
26918SOL    HW280779   4.794   8.680  10.327
26919SOL     OW80780   5.362   8.547  10.389
26919SOL    HW180781   5.367   8.628  10.448
26919SOL    HW280782   5.276   8.549  10.338
26920SOL     OW80783   4.639   7.537  10.712
26920SOL    HW180784   4.664   7.517  10.617
26920SOL    HW280785   4.711   7.593  10.754
26921SOL     OW80786   4.704   8.564  11.029
26921SOL    HW180787   4.605   8.570  11.039
26921SOL    HW280788   4.727   8.484  10.973
26922SOL     OW80789   4.429   8.498   9.678
26922SOL    HW180790   4.415   8.505   9.777
26922SOL    HW280791   4.513   8.447   9.660
26923SOL     OW80792   4.134   8.261  10.561
26923SOL    HW180793   4.220   8.273  10.611
26923SOL    HW280794   4.092   8.174  10.588
26924SOL     OW80795   4.998   7.834  10.572
26924SOL    HW180796   5.019   7.908  10.636
26924SOL    HW280797   4.909   7.851  10.529
26925SOL     OW80798   3.788   9.012  10.641
26925SOL    HW180799   3.742   9.094  10.607
26925SOL    HW280800   3.886   9.031  10.650
26926SOL     OW80801   4.091   8.548   9.811
26926SOL    HW180802   4.084   8.631   9.755
26926SOL    HW280803   4.095   8.468   9.751
26927SOL     OW80804   4.290   7.985  10.175
26927SOL    HW180805   4.302   8.051  10.101
26927SOL    HW280806   4.336   8.019  10.258
26928SOL     OW80807   4.976   8.796   9.698
26928SOL    HW180808   5.026   8.873   9.738
26928SOL    HW280809   4.881   8.798   9.730
26929SOL     OW80810   4.996   8.893  10.452
26929SOL    HW180811   5.043   8.906  10.539
26929SOL    HW280812   4.930   8.819  10.461
26930SOL     OW80813   5.306   8.087   9.782
26930SOL    HW180814   5.275   8.148   9.855
26930SOL    HW280815   5.356   8.139   9.713
26931SOL     OW80816   4.078   8.958  10.639
26931SOL    HW180817   4.057   8.914  10.552
26931SOL    HW280818   4.175   8.984  10.642
26932SOL     OW80819   4.126   8.199  10.908
26932SOL    HW180820   4.194   8.254  10.861
26932SOL    HW280821   4.166   8.111  10.935
26933SOL     OW80822   5.311   8.227  10.980
26933SOL    HW180823   5.219   8.265  10.975
26933SOL    HW280824   5.371   8.274  10.915
26934SOL     OW80825   4.737   7.553  11.080
26934SOL    HW180826   4.743   7.638  11.028
26934SOL    HW280827   4.769   7.477  11.023
26935SOL     OW80828   4.228   7.498  11.050
26935SOL    HW180829   4.186   7.441  10.980
26935SOL    HW280830   4.162   7.567  11.082
26936SOL     OW80831   4.297   8.318  10.339
26936SOL    HW180832   4.341   8.407  10.330
26936SOL    HW280833   4.234   8.318  10.416
26937SOL     OW80834   5.084   8.310  10.355
26937SOL    HW180835   5.009   8.310  10.289
26937SOL    HW280836   5.121   8.218  10.364
26938SOL     OW80837   4.933   7.973   9.585
26938SOL    HW180838   4.946   7.889   9.639
26938SOL    HW280839   4.904   8.047   9.645
26939SOL     OW80840   4.031   7.661  10.541
26939SOL    HW180841   4.008   7.698  10.631
26939SOL    HW280842   4.001   7.566  10.535
26940SOL     OW80843   3.761   8.758  10.592
26940SOL    HW180844   3.814   8.709  10.660
26940SOL    HW280845   3.783   8.856  10.597
26941SOL     OW80846   4.456   8.082  10.374
26941SOL    HW180847   4.515   8.056  10.298
26941SOL    HW280848   4.428   8.178  10.363
26942SOL     OW80849   5.452   8.383  11.164
26942SOL    HW180850   5.406   8.376  11.075
26942SOL    HW280851   5.390   8.427  11.230
26943SOL     OW80852   4.031   7.511   9.928
26943SOL    HW180853   4.020   7.605   9.961
26943SOL    HW280854   4.026   7.448  10.005
26944SOL     OW80855   5.346   7.815   9.684
26944SOL    HW180856   5.348   7.739   9.748
26944SOL    HW280857   5.298   7.892   9.724
26945SOL     OW80858   4.747   8.214  10.276
26945SOL    HW180859   4.762   8.235  10.372
26945SOL    HW280860   4.717   8.119  10.267
26946SOL     OW80861   4.704   9.021  11.010
26946SOL    HW180862   4.684   9.065  10.922
26946SOL    HW280863   4.743   8.930  10.994
26947SOL     OW80864   5.583   8.966  10.915
26947SOL    HW180865   5.597   8.993  10.820
26947SOL    HW280866   5.666   8.988  10.968
26948SOL     OW80867   4.074   8.346  11.114
26948SOL    HW180868   4.150   8.390  11.162
26948SOL    HW280869   4.109   8.299  11.032
26949SOL     OW80870   5.264   7.722   9.435
26949SOL    HW180871   5.203   7.647   9.458
26949SOL    HW280872   5.286   7.774   9.518
26950SOL     OW80873   5.027   8.286   9.352
26950SOL    HW180874   5.061   8.193   9.367
26950SOL    HW280875   5.045   8.313   9.257
26951SOL     OW80876   4.792   8.781  10.159
26951SOL    HW180877   4.799   8.697  10.104
26951SOL    HW280878   4.854   8.850  10.123
26952SOL     OW80879   4.043   8.258  10.259
26952SOL    HW180880   4.136   8.294  10.264
26952SOL    HW280881   4.037   8.173  10.311
26953SOL     OW80882   4.063   7.957  10.316
26953SOL    HW180883   4.011   7.874  10.299
26953SOL    HW280884   4.140   7.962  10.252
26954SOL     OW80885   4.862   7.828  10.988
26954SOL    HW180886   4.817   7.891  11.052
26954SOL    HW280887   4.955   7.859  10.971
26955SOL     OW80888   4.884   7.655  10.787
26955SOL    HW180889   4.884   7.719  10.864
26955SOL    HW280890   4.912   7.703  10.704
26956SOL     OW80891   3.732   8.774   9.510
26956SOL    HW180892   3.639   8.795   9.479
26956SOL    HW280893   3.742   8.675   9.523
26957SOL     OW80894   3.812   9.249  10.237
26957SOL    HW180895   3.770   9.163  10.210
26957SOL    HW280896   3.906   9.252  10.203
26958SOL     OW80897   4.228   9.016  10.220
26958SOL    HW180898   4.294   9.090  10.229
26958SOL    HW280899   4.272   8.937  10.178
26959SOL     OW80900   4.726   8.244  10.548
26959SOL    HW180901   4.767   8.212  10.634
26959SOL    HW280902   4.630   8.217  10.545
26960SOL     OW80903   3.764   7.992  10.424
26960SOL    HW180904   3.849   7.959  10.383
26960SOL    HW280905   3.777   8.007  10.522
26961SOL     OW80906   3.913   7.968  11.032
26961SOL    HW180907   3.972   7.928  10.962
26961SOL    HW280908   3.855   8.039  10.991
26962SOL     OW80909   5.093   8.398  10.970
26962SOL    HW180910   5.132   8.487  10.990
26962SOL    HW280911   5.103   8.378  10.873
26963SOL     OW80912   4.539   8.020   9.635
26963SOL    HW180913   4.546   7.931   9.589
26963SOL    HW280914   4.445   8.054   9.627
26964SOL     OW80915   5.381   8.052  10.516
26964SOL    HW180916   5.343   7.983  10.578
26964SOL    HW280917   5.463   8.016  10.472
26965SOL     OW80918   3.976   9.012  11.054
26965SOL    HW180919   3.946   9.069  11.130
26965SOL    HW280920   3.969   8.915  11.080
26966SOL     OW80921   4.395   7.912  10.579
26966SOL    HW180922   4.361   7.823  10.549
26966SOL    HW280923   4.421   7.966  10.499
26967SOL     OW80924   4.654   9.126  10.775
26967SOL    HW180925   4.630   9.108  10.680
26967SOL    HW280926   4.684   9.220  10.785
26968SOL     OW80927   4.197   7.948   9.501
26968SOL    HW180928   4.258   8.028   9.505
26968SOL    HW280929   4.102   7.979   9.508
26969SOL     OW80930   3.883   8.585  10.776
26969SOL    HW180931   3.905   8.524  10.852
26969SOL    HW280932   3.893   8.536  10.690
26970SOL     OW80933   5.071   8.507  10.544
26970SOL    HW180934   5.095   8.444  10.470
26970SOL    HW280935   4.981   8.547  10.526
26971SOL     OW80936   5.026   8.303   9.619
26971SOL    HW180937   4.940   8.272   9.661
26971SOL    HW280938   5.022   8.289   9.520
26972SOL     OW80939   5.483   9.195  10.464
26972SOL    HW180940   5.544   9.225  10.391
26972SOL    HW280941   5.445   9.106  10.442
26973SOL     OW80942   4.976   9.179  10.438
26973SOL    HW180943   5.060   9.184  10.384
26973SOL    HW280944   4.953   9.083  10.456
26974SOL     OW80945   3.807   8.706  10.332
26974SOL    HW180946   3.802   8.705  10.432
26974SOL    HW280947   3.724   8.665  10.294
26975SOL     OW80948   4.412   9.110  11.026
26975SOL    HW180949   4.356   9.191  11.035
26975SOL    HW280950   4.464   9.114  10.940
26976SOL     OW80951   5.450   7.583   9.833
26976SOL    HW180952   5.523   7.566   9.766
26976SOL    HW280953   5.419   7.496   9.871
26977SOL     OW80954   5.112   9.021   9.787
26977SOL    HW180955   5.179   9.033   9.713
26977SOL    HW280956   5.072   9.110   9.810
26978SOL     OW80957   3.854   9.242  11.161
26978SOL    HW180958   3.813   9.168  11.214
26978SOL    HW280959   3.918   9.293  11.219
26979SOL     OW80960   5.004   8.375   9.982
26979SOL    HW180961   5.064   8.294   9.984
26979SOL    HW280962   5.044   8.444   9.922
26980SOL     OW80963   4.554   8.721  10.732
26980SOL    HW180964   4.549   8.754  10.827
26980SOL    HW280965   4.468   8.740  10.686
26981SOL     OW80966   4.396   9.064   9.464
26981SOL    HW180967   4.405   9.074   9.365
26981SOL    HW280968   4.356   8.975   9.485
26982SOL     OW80969   5.374   9.168  10.704
26982SOL    HW180970   5.427   9.178  10.620
26982SOL    HW280971   5.347   9.258  10.738
26983SOL     OW80972   5.565   7.623  10.273
26983SOL    HW180973   5.604   7.538  10.237
26983SOL    HW280974   5.467   7.625  10.254
26984SOL     OW80975   3.987   7.774  10.030
26984SOL    HW180976   3.908   7.825   9.996
26984SOL    HW280977   3.978   7.759  10.128
26985SOL     OW80978   4.918   9.060   9.341
26985SOL    HW180979   4.924   8.967   9.378
26985SOL    HW280980   4.859   9.060   9.261
26986SOL     OW80981   4.546   8.450  10.682
26986SOL    HW180982   4.586   8.449  10.590
26986SOL    HW280983   4.556   8.542  10.722
26987SOL     OW80984   4.640   8.358   9.601
26987SOL    HW180985   4.703   8.396   9.533
26987SOL    HW280986   4.680   8.275   9.640
26988SOL     OW80987   5.228   9.055   9.354
26988SOL    HW180988   5.136   9.092   9.361
26988SOL    HW280989   5.266   9.075   9.264
26989SOL     OW80990   4.096   8.736  10.800
26989SOL    HW180991   4.083   8.829  10.766
26989SOL    HW280992   4.012   8.684  10.787
26990SOL     OW80993   5.338   8.740  10.599
26990SOL    HW180994   5.398   8.743  10.679
26990SOL    HW280995   5.263   8.804  10.612
26991SOL     OW80996   4.763   8.546  10.006
26991SOL    HW180997   4.693   8.499  10.060
26991SOL    HW280998   4.822   8.478   9.963
26992SOL     OW80999   4.738   7.684  10.281
26992SOL    HW181000   4.730   7.648  10.188
26992SOL    HW281001   4.736   7.608  10.346
26993SOL     OW81002   4.314   8.935   9.801
26993SOL    HW181003   4.356   8.877   9.731
26993SOL    HW281004   4.270   9.014   9.757
26994SOL     OW81005   5.433   7.833  10.691
26994SOL    HW181006   5.506   7.902  10.695
26994SOL    HW281007   5.461   7.758  10.632
26995SOL     OW81008   3.979   8.796   9.600
26995SOL    HW181009   3.883   8.797   9.573
26995SOL    HW281010   3.991   8.849   9.684
26996SOL     OW81011   3.829   8.461  11.036
26996SOL    HW181012   3.752   8.428  11.090
26996SOL    HW281013   3.914   8.431  11.078
26997SOL     OW81014   4.396   7.651  10.799
26997SOL    HW181015   4.486   7.635  10.759
26997SOL    HW281016   4.404   7.656  10.898
26998SOL     OW81017   3.799   7.793   9.343
26998SOL    HW181018   3.707   7.765   9.314
26998SOL    HW281019   3.830   7.870   9.287
26999SOL     OW81020   5.164   8.304  10.708
26999SOL    HW181021   5.107   8.356  10.645
26999SOL    HW281022   5.260   8.316  10.684
27000SOL     OW81023   4.907   8.783   9.429
27000SOL    HW181024   4.808   8.772   9.431
27000SOL    HW281025   4.941   8.798   9.522
27001SOL     OW81026   4.337   8.290  10.741
27001SOL    HW181027   4.393   8.371  10.724
27001SOL    HW281028   4.396   8.210  10.744
27002SOL     OW81029   5.217   9.215  10.269
27002SOL    HW181030   5.250   9.279  10.200
27002SOL    HW281031   5.283   9.209  10.344
27003SOL     OW81032   4.440   8.013  11.018
27003SOL    HW181033   4.459   8.078  11.092
27003SOL    HW281034   4.500   7.933  11.027
27004SOL     OW81035   5.174   8.668  10.943
27004SOL    HW181036   5.165   8.658  11.042
27004SOL    HW281037   5.270   8.661  10.917
27005SOL     OW81038   4.114   9.189  10.870
27005SOL    HW181039   4.023   9.230  10.868
27005SOL    HW281040   4.107   9.095  10.902
27006SOL     OW81041   5.398   8.331  10.564
27006SOL    HW181042   5.371   8.242  10.527
27006SOL    HW281043   5.399   8.399  10.491
27007SOL     OW81044   4.949   7.773   9.759
27007SOL    HW181045   5.014   7.699   9.748
27007SOL    HW281046   4.969   7.823   9.843
27008SOL     OW81047   4.318   8.193   9.962
27008SOL    HW181048   4.368   8.278   9.943
27008SOL    HW281049   4.230   8.195   9.914
27009SOL     OW81050   5.501   7.790  10.952
27009SOL    HW181051   5.484   7.821  10.858
27009SOL    HW281052   5.417   7.753  10.990
27010SOL     OW81053   5.454   8.382  10.827
27010SOL    HW181054   5.492   8.473  10.842
27010SOL    HW281055   5.446   8.365  10.728
27011SOL     OW81056   4.583   8.822   9.326
27011SOL    HW181057   4.537   8.837   9.414
27011SOL    HW281058   4.627   8.907   9.296
27012SOL     OW81059   4.385   9.238  10.263
27012SOL    HW181060   4.339   9.326  10.250
27012SOL    HW281061   4.484   9.250  10.256
27013SOL     OW81062   4.583   8.404  10.171
27013SOL    HW181063   4.637   8.335  10.219
27013SOL    HW281064   4.551   8.473  10.237
27014SOL     OW81065   4.807   8.432   9.397
27014SOL    HW181066   4.784   8.485   9.315
27014SOL    HW281067   4.888   8.376   9.378
27015SOL     OW81068   5.585   9.017  10.161
27015SOL    HW181069   5.514   9.005  10.091
27015SOL    HW281070   5.586   8.938  10.221
27016SOL     OW81071   3.945   8.762  11.154
27016SOL    HW181072   3.880   8.689  11.133
27016SOL    HW281073   3.949   8.776  11.252
27017SOL     OW81074   3.803   8.688   9.963
27017SOL    HW181075   3.802   8.641  10.051
27017SOL    HW281076   3.885   8.660   9.912
27018SOL     OW81077   4.396   8.839  10.934
27018SOL    HW181078   4.318   8.789  10.972
27018SOL    HW281079   4.393   8.934  10.965
27019SOL     OW81080   5.548   7.640  10.537
27019SOL    HW181081   5.544   7.550  10.581
27019SOL    HW281082   5.551   7.629  10.438
27020SOL     OW81083   4.152   7.872   9.830
27020SOL    HW181084   4.182   7.800   9.768
27020SOL    HW281085   4.113   7.832   9.913
27021SOL     OW81086   5.429   8.935  10.414
27021SOL    HW181087   5.336   8.910  10.387
27021SOL    HW281088   5.455   8.885  10.496
27022SOL     OW81089   4.041   7.995  10.590
27022SOL    HW181090   4.079   7.936  10.662
27022SOL    HW281091   4.081   7.969  10.502
27023SOL     OW81092   4.536   9.034   9.997
27023SOL    HW181093   4.568   9.044   9.903
27023SOL    HW281094   4.457   8.972   9.999
27024SOL     OW81095   5.148   7.662  10.422
27024SOL    HW181096   5.200   7.597  10.477
27024SOL    HW281097   5.099   7.725  10.483
27025SOL     OW81098   4.725   7.482  10.464
27025SOL    HW181099   4.662   7.410  10.433
27025SOL    HW281100   4.818   7.446  10.464
27026SOL     OW81101   4.494   8.778   9.611
27026SOL    HW181102   4.448   8.691   9.628
27026SOL    HW281103   4.585   8.775   9.652
27027SOL     OW81104   4.342   9.015  10.594
27027SOL    HW181105   4.337   9.097  10.651
27027SOL    HW281106   4.431   9.012  10.549
27028SOL     OW81107   5.076   7.500   9.478
27028SOL    HW181108   5.111   7.459   9.394
27028SOL    HW281109   4.986   7.462   9.498
27029SOL     OW81110   5.024   7.901  10.001
27029SOL    HW181111   4.965   7.981  10.005
27029SOL    HW281112   5.039   7.866  10.094
27030SOL     OW81113   5.317   7.669  10.192
27030SOL    HW181114   5.233   7.668  10.246
27030SOL    HW281115   5.319   7.752  10.136
27031SOL     OW81116   3.763   8.525   9.610
27031SOL    HW181117   3.862   8.514   9.601
27031SOL    HW281118   3.723   8.439   9.642
27032SOL     OW81119   4.599   9.094   9.647
27032SOL    HW181120   4.522   9.059   9.593
27032SOL    HW281121   4.567   9.165   9.709
27033SOL     OW81122   3.954   8.076  11.285
27033SOL    HW181123   3.861   8.074  11.322
27033SOL    HW281124   3.955   8.037  11.193
27034SOL     OW81125   3.949   7.723  12.168
27034SOL    HW181126   3.984   7.706  12.260
27034SOL    HW281127   3.861   7.678  12.156
27035SOL     OW81128   3.743   7.816  11.819
27035SOL    HW181129   3.661   7.859  11.858
27035SOL    HW281130   3.715   7.743  11.756
27036SOL     OW81131   4.293   8.723  12.337
27036SOL    HW181132   4.200   8.716  12.300
27036SOL    HW281133   4.304   8.812  12.381
27037SOL     OW81134   5.279   8.959  11.875
27037SOL    HW181135   5.222   8.943  11.956
27037SOL    HW281136   5.220   8.969  11.795
27038SOL     OW81137   4.859   8.151  11.889
27038SOL    HW181138   4.916   8.229  11.864
27038SOL    HW281139   4.799   8.177  11.965
27039SOL     OW81140   5.479   8.055  11.403
27039SOL    HW181141   5.467   8.042  11.304
27039SOL    HW281142   5.449   7.974  11.452
27040SOL     OW81143   4.492   8.592  12.195
27040SOL    HW181144   4.414   8.609  12.255
27040SOL    HW281145   4.526   8.679  12.159
27041SOL     OW81146   4.409   8.460  11.837
27041SOL    HW181147   4.478   8.444  11.907
27041SOL    HW281148   4.336   8.517  11.875
27042SOL     OW81149   4.059   8.883  12.233
27042SOL    HW181150   3.981   8.852  12.180
27042SOL    HW281151   4.117   8.941  12.176
27043SOL     OW81152   5.184   8.953  12.511
27043SOL    HW181153   5.208   9.047  12.537
27043SOL    HW281154   5.168   8.899  12.593
27044SOL     OW81155   4.162   7.840  12.671
27044SOL    HW181156   4.244   7.784  12.680
27044SOL    HW281157   4.081   7.782  12.675
27045SOL     OW81158   5.327   7.895  11.909
27045SOL    HW181159   5.253   7.941  11.859
27045SOL    HW281160   5.378   7.963  11.962
27046SOL     OW81161   3.955   9.161  11.655
27046SOL    HW181162   3.989   9.238  11.709
27046SOL    HW281163   3.999   9.161  11.565
27047SOL     OW81164   3.954   8.882  11.710
27047SOL    HW181165   3.928   8.978  11.710
27047SOL    HW281166   3.883   8.828  11.755
27048SOL     OW81167   3.964   8.539  12.058
27048SOL    HW181168   3.978   8.455  12.110
27048SOL    HW281169   3.909   8.603  12.113
27049SOL     OW81170   4.344   9.234  12.611
27049SOL    HW181171   4.252   9.217  12.646
27049SOL    HW281172   4.372   9.326  12.637
27050SOL     OW81173   4.330   8.412  11.295
27050SOL    HW181174   4.337   8.496  11.241
27050SOL    HW281175   4.376   8.425  11.383
27051SOL     OW81176   5.318   7.562  12.652
27051SOL    HW181177   5.300   7.629  12.580
27051SOL    HW281178   5.315   7.608  12.741
27052SOL     OW81179   3.846   8.091  11.735
27052SOL    HW181180   3.801   8.003  11.752
27052SOL    HW281181   3.845   8.145  11.819
27053SOL     OW81182   5.566   9.215  11.531
27053SOL    HW181183   5.620   9.186  11.611
27053SOL    HW281184   5.596   9.305  11.502
27054SOL     OW81185   3.751   9.044  11.289
27054SOL    HW181186   3.732   8.948  11.310
27054SOL    HW281187   3.718   9.102  11.364
27055SOL     OW81188   5.413   8.370  11.784
27055SOL    HW181189   5.508   8.341  11.792
27055SOL    HW281190   5.405   8.435  11.709
27056SOL     OW81191   5.365   8.556  11.604
27056SOL    HW181192   5.451   8.558  11.552
27056SOL    HW281193   5.379   8.603  11.692
27057SOL     OW81194   3.837   8.185  12.769
27057SOL    HW181195   3.925   8.172  12.814
27057SOL    HW281196   3.824   8.282  12.747
27058SOL     OW81197   4.337   8.813  11.898
27058SOL    HW181198   4.288   8.726  11.907
27058SOL    HW281199   4.314   8.856  11.811
27059SOL     OW81200   5.017   8.676  12.595
27059SOL    HW181201   5.054   8.603  12.537
27059SOL    HW281202   5.069   8.681  12.680
27060SOL     OW81203   4.533   7.452  11.674
27060SOL    HW181204   4.573   7.543  11.665
27060SOL    HW281205   4.433   7.460  11.680
27061SOL     OW81206   3.921   8.424  12.436
27061SOL    HW181207   4.010   8.379  12.422
27061SOL    HW281208   3.848   8.359  12.417
27062SOL     OW81209   5.249   8.447  11.362
27062SOL    HW181210   5.186   8.371  11.375
27062SOL    HW281211   5.297   8.465  11.448
27063SOL     OW81212   5.190   8.865  12.125
27063SOL    HW181213   5.131   8.871  12.205
27063SOL    HW281214   5.175   8.777  12.079
27064SOL     OW81215   5.391   9.162  11.744
27064SOL    HW181216   5.350   9.139  11.656
27064SOL    HW281217   5.373   9.088  11.809
27065SOL     OW81218   4.322   8.177  11.442
27065SOL    HW181219   4.346   8.246  11.374
27065SOL    HW281220   4.244   8.210  11.496
27066SOL     OW81221   5.005   7.793  12.116
27066SOL    HW181222   4.919   7.743  12.103
27066SOL    HW281223   5.067   7.739  12.172
27067SOL     OW81224   5.300   9.110  11.479
27067SOL    HW181225   5.389   9.156  11.482
27067SOL    HW281226   5.279   9.086  11.384
27068SOL     OW81227   4.531   8.053  12.637
27068SOL    HW181228   4.484   8.050  12.726
27068SOL    HW281229   4.480   7.998  12.571
27069SOL     OW81230   4.697   8.338  12.744
27069SOL    HW181231   4.743   8.254  12.715
27069SOL    HW281232   4.641   8.372  12.669
27070SOL     OW81233   4.715   7.858  12.414
27070SOL    HW181234   4.638   7.892  12.468
27070SOL    HW281235   4.681   7.807  12.335
27071SOL     OW81236   4.765   8.149  11.601
27071SOL    HW181237   4.791   8.145  11.697
27071SOL    HW281238   4.680   8.098  11.587
27072SOL     OW81239   3.800   8.259  11.961
27072SOL    HW181240   3.899   8.247  11.970
27072SOL    HW281241   3.776   8.354  11.982
27073SOL     OW81242   3.854   9.269  12.743
27073SOL    HW181243   3.844   9.254  12.842
27073SOL    HW281244   3.768   9.305  12.707
27074SOL     OW81245   4.589   7.796  11.367
27074SOL    HW181246   4.648   7.859  11.318
27074SOL    HW281247   4.608   7.702  11.338
27075SOL     OW81248   5.086   8.592  11.717
27075SOL    HW181249   5.169   8.563  11.669
27075SOL    HW281250   5.037   8.659  11.661
27076SOL     OW81251   4.274   7.644  12.057
27076SOL    HW181252   4.269   7.639  12.157
27076SOL    HW281253   4.276   7.740  12.028
27077SOL     OW81254   4.732   8.904  11.649
27077SOL    HW181255   4.686   8.976  11.597
27077SOL    HW281256   4.728   8.924  11.747
27078SOL     OW81257   4.075   9.249  12.025
27078SOL    HW181258   4.125   9.163  12.031
27078SOL    HW281259   4.140   9.326  12.022
27079SOL     OW81260   5.519   8.514  12.045
27079SOL    HW181261   5.457   8.499  11.969
27079SOL    HW281262   5.467   8.525  12.130
27080SOL     OW81263   4.951   8.998  12.678
27080SOL    HW181264   4.957   8.921  12.742
27080SOL    HW281265   4.899   8.972  12.598
27081SOL     OW81266   4.045   8.391  11.414
27081SOL    HW181267   4.127   8.430  11.372
27081SOL    HW281268   4.018   8.309  11.365
27082SOL     OW81269   5.182   8.183  11.900
27082SOL    HW181270   5.177   8.118  11.975
27082SOL    HW281271   5.262   8.242  11.913
27083SOL     OW81272   4.835   9.224  11.409
27083SOL    HW181273   4.775   9.162  11.459
27083SOL    HW281274   4.866   9.180  11.324
27084SOL     OW81275   3.926   7.733  12.670
27084SOL    HW181276   3.846   7.793  12.657
27084SOL    HW281277   3.916   7.684  12.756
27085SOL     OW81278   5.356   8.825  11.253
27085SOL    HW181279   5.324   8.919  11.243
27085SOL    HW281280   5.280   8.762  11.241
27086SOL     OW81281   4.188   9.191  11.495
27086SOL    HW181282   4.221   9.230  11.581
27086SOL    HW281283   4.264   9.184  11.430
27087SOL     OW81284   5.124   7.555  11.598
27087SOL    HW181285   5.100   7.518  11.508
27087SOL    HW281286   5.223   7.571  11.602
27088SOL     OW81287   3.973   9.233  12.413
27088SOL    HW181288   4.030   9.168  12.463
27088SOL    HW281289   3.957   9.200  12.320
27089SOL     OW81290   4.664   9.146  12.076
27089SOL    HW181291   4.744   9.089  12.097
27089SOL    HW281292   4.615   9.106  11.999
27090SOL     OW81293   4.106   8.148  11.652
27090SOL    HW181294   4.151   8.058  11.649
27090SOL    HW281295   4.012   8.137  11.685
27091SOL     OW81296   4.338   7.570  11.289
27091SOL    HW181297   4.436   7.548  11.296
27091SOL    HW281298   4.307   7.553  11.196
27092SOL     OW81299   4.612   8.962  12.367
27092SOL    HW181300   4.589   8.937  12.273
27092SOL    HW281301   4.673   8.893  12.406
27093SOL     OW81302   5.075   8.038  12.605
27093SOL    HW181303   5.103   7.995  12.690
27093SOL    HW281304   5.100   8.134  12.606
27094SOL     OW81305   4.527   8.850  12.096
27094SOL    HW181306   4.617   8.864  12.054
27094SOL    HW281307   4.456   8.852  12.025
27095SOL     OW81308   4.646   7.951  12.071
27095SOL    HW181309   4.621   7.942  11.975
27095SOL    HW281310   4.694   7.869  12.102
27096SOL     OW81311   4.263   7.512  11.684
27096SOL    HW181312   4.182   7.513  11.742
27096SOL    HW281313   4.266   7.595  11.629
27097SOL     OW81314   5.158   8.636  11.213
27097SOL    HW181315   5.190   8.560  11.270
27097SOL    HW281316   5.066   8.663  11.243
27098SOL     OW81317   4.021   7.483  11.343
27098SOL    HW181318   4.070   7.567  11.322
27098SOL    HW281319   4.083   7.418  11.388
27099SOL     OW81320   4.659   7.684  11.652
27099SOL    HW181321   4.611   7.725  11.574
27099SOL    HW281322   4.758   7.682  11.633
27100SOL     OW81323   4.800   8.131  12.636
27100SOL    HW181324   4.720   8.070  12.639
27100SOL    HW281325   4.881   8.078  12.612
27101SOL     OW81326   4.951   9.018  11.965
27101SOL    HW181327   4.972   9.092  11.900
27101SOL    HW281328   5.019   9.018  12.038
27102SOL     OW81329   4.183   8.600  11.913
27102SOL    HW181330   4.112   8.573  11.978
27102SOL    HW281331   4.157   8.572  11.820
27103SOL     OW81332   4.995   9.245  11.763
27103SOL    HW181333   5.039   9.309  11.699
27103SOL    HW281334   4.945   9.297  11.833
27104SOL     OW81335   4.756   7.997  11.188
27104SOL    HW181336   4.715   8.079  11.149
27104SOL    HW281337   4.820   8.023  11.261
27105SOL     OW81338   3.802   8.004  12.558
27105SOL    HW181339   3.894   8.003  12.517
27105SOL    HW281340   3.796   8.078  12.625
27106SOL     OW81341   4.285   7.670  12.319
27106SOL    HW181342   4.323   7.586  12.356
27106SOL    HW281343   4.197   7.689  12.363
27107SOL     OW81344   4.590   7.902  11.814
27107SOL    HW181345   4.558   7.974  11.752
27107SOL    HW281346   4.614   7.821  11.761
27108SOL     OW81347   4.741   7.487  11.925
27108SOL    HW181348   4.669   7.492  11.856
27108SOL    HW281349   4.717   7.418  11.994
27109SOL     OW81350   5.153   8.621  12.039
27109SOL    HW181351   5.098   8.537  12.032
27109SOL    HW281352   5.179   8.650  11.947
27110SOL     OW81353   5.190   8.038  12.164
27110SOL    HW181354   5.160   7.943  12.171
27110SOL    HW281355   5.263   8.054  12.230
27111SOL     OW81356   5.581   8.281  11.549
27111SOL    HW181357   5.623   8.217  11.613
27111SOL    HW281358   5.543   8.230  11.471
27112SOL     OW81359   4.212   8.833  11.346
27112SOL    HW181360   4.125   8.818  11.393
27112SOL    HW281361   4.195   8.859  11.251
27113SOL     OW81362   5.388   8.728  11.829
27113SOL    HW181363   5.487   8.736  11.843
27113SOL    HW281364   5.343   8.812  11.860
27114SOL     OW81365   5.114   8.023  11.250
27114SOL    HW181366   5.060   8.002  11.331
27114SOL    HW281367   5.205   7.982  11.259
27115SOL     OW81368   4.251   7.704  11.500
27115SOL    HW181369   4.278   7.645  11.425
27115SOL    HW281370   4.251   7.799  11.469
27116SOL     OW81371   5.478   8.671  12.760
27116SOL    HW181372   5.569   8.632  12.747
27116SOL    HW281373   5.486   8.767  12.784
27117SOL     OW81374   4.788   8.795  12.512
27117SOL    HW181375   4.708   8.772  12.567
27117SOL    HW281376   4.871   8.769  12.561
27118SOL     OW81377   4.835   8.643  12.272
27118SOL    HW181378   4.795   8.687  12.353
27118SOL    HW281379   4.794   8.680  12.189
27119SOL     OW81380   5.362   8.547  12.251
27119SOL    HW181381   5.367   8.628  12.310
27119SOL    HW281382   5.276   8.549  12.200
27120SOL     OW81383   4.639   7.537  12.574
27120SOL    HW181384   4.664   7.517  12.479
27120SOL    HW281385   4.711   7.593  12.616
27121SOL     OW81386   4.429   8.498  11.540
27121SOL    HW181387   4.415   8.505  11.639
27121SOL    HW281388   4.513   8.447  11.522
27122SOL     OW81389   4.134   8.261  12.423
27122SOL    HW181390   4.220   8.273  12.473
27122SOL    HW281391   4.092   8.174  12.450
27123SOL     OW81392   4.998   7.834  12.434
27123SOL    HW181393   5.019   7.908  12.498
27123SOL    HW281394   4.909   7.851  12.391
27124SOL     OW81395   3.788   9.012  12.503
27124SOL    HW181396   3.742   9.094  12.469
27124SOL    HW281397   3.886   9.031  12.512
27125SOL     OW81398   4.091   8.548  11.673
27125SOL    HW181399   4.084   8.631  11.617
27125SOL    HW281400   4.095   8.468  11.613
27126SOL     OW81401   4.290   7.985  12.037
27126SOL    HW181402   4.302   8.051  11.963
27126SOL    HW281403   4.336   8.019  12.120
27127SOL     OW81404   4.976   8.796  11.560
27127SOL    HW181405   5.026   8.873  11.600
27127SOL    HW281406   4.881   8.798  11.592
27128SOL     OW81407   4.996   8.893  12.314
27128SOL    HW181408   5.043   8.906  12.401
27128SOL    HW281409   4.930   8.819  12.323
27129SOL     OW81410   5.306   8.087  11.644
27129SOL    HW181411   5.275   8.148  11.717
27129SOL    HW281412   5.356   8.139  11.575
27130SOL     OW81413   4.078   8.958  12.501
27130SOL    HW181414   4.057   8.914  12.414
27130SOL    HW281415   4.175   8.984  12.504
27131SOL     OW81416   4.126   8.199  12.770
27131SOL    HW181417   4.194   8.254  12.723
27131SOL    HW281418   4.166   8.111  12.797
27132SOL     OW81419   5.311   8.227  12.842
27132SOL    HW181420   5.219   8.265  12.837
27132SOL    HW281421   5.371   8.274  12.777
27133SOL     OW81422   4.297   8.318  12.201
27133SOL    HW181423   4.341   8.407  12.192
27133SOL    HW281424   4.234   8.318  12.278
27134SOL     OW81425   5.084   8.310  12.217
27134SOL    HW181426   5.009   8.310  12.151
27134SOL    HW281427   5.121   8.218  12.226
27135SOL     OW81428   4.933   7.973  11.447
27135SOL    HW181429   4.946   7.889  11.501
27135SOL    HW281430   4.904   8.047  11.507
27136SOL     OW81431   4.031   7.661  12.403
27136SOL    HW181432   4.008   7.698  12.493
27136SOL    HW281433   4.001   7.566  12.397
27137SOL     OW81434   3.761   8.758  12.454
27137SOL    HW181435   3.814   8.709  12.522
27137SOL    HW281436   3.783   8.856  12.459
27138SOL     OW81437   4.456   8.082  12.236
27138SOL    HW181438   4.515   8.056  12.160
27138SOL    HW281439   4.428   8.178  12.225
27139SOL     OW81440   4.031   7.511  11.790
27139SOL    HW181441   4.020   7.605  11.823
27139SOL    HW281442   4.026   7.448  11.867
27140SOL     OW81443   5.346   7.815  11.546
27140SOL    HW181444   5.348   7.739  11.610
27140SOL    HW281445   5.298   7.892  11.586
27141SOL     OW81446   4.747   8.214  12.138
27141SOL    HW181447   4.762   8.235  12.234
27141SOL    HW281448   4.717   8.119  12.129
27142SOL     OW81449   5.264   7.722  11.297
27142SOL    HW181450   5.203   7.647  11.320
27142SOL    HW281451   5.286   7.774  11.380
27143SOL     OW81452   5.027   8.286  11.214
27143SOL    HW181453   5.061   8.193  11.229
27143SOL    HW281454   5.045   8.313  11.119
27144SOL     OW81455   4.792   8.781  12.021
27144SOL    HW181456   4.799   8.697  11.966
27144SOL    HW281457   4.854   8.850  11.985
27145SOL     OW81458   4.043   8.258  12.121
27145SOL    HW181459   4.136   8.294  12.126
27145SOL    HW281460   4.037   8.173  12.173
27146SOL     OW81461   4.063   7.957  12.178
27146SOL    HW181462   4.011   7.874  12.161
27146SOL    HW281463   4.140   7.962  12.114
27147SOL     OW81464   4.884   7.655  12.649
27147SOL    HW181465   4.884   7.719  12.726
27147SOL    HW281466   4.912   7.703  12.566
27148SOL     OW81467   3.732   8.774  11.372
27148SOL    HW181468   3.639   8.795  11.341
27148SOL    HW281469   3.742   8.675  11.385
27149SOL     OW81470   3.812   9.249  12.099
27149SOL    HW181471   3.770   9.163  12.072
27149SOL    HW281472   3.906   9.252  12.065
27150SOL     OW81473   4.228   9.016  12.082
27150SOL    HW181474   4.294   9.090  12.091
27150SOL    HW281475   4.272   8.937  12.040
27151SOL     OW81476   4.726   8.244  12.410
27151SOL    HW181477   4.767   8.212  12.496
27151SOL    HW281478   4.630   8.217  12.407
27152SOL     OW81479   3.764   7.992  12.286
27152SOL    HW181480   3.849   7.959  12.245
27152SOL    HW281481   3.777   8.007  12.384
27153SOL     OW81482   4.539   8.020  11.497
27153SOL    HW181483   4.546   7.931  11.451
27153SOL    HW281484   4.445   8.054  11.489
27154SOL     OW81485   5.381   8.052  12.378
27154SOL    HW181486   5.343   7.983  12.440
27154SOL    HW281487   5.463   8.016  12.334
27155SOL     OW81488   3.976   9.012  12.916
27155SOL    HW181489   3.946   9.069  12.992
27155SOL    HW281490   3.969   8.915  12.942
27156SOL     OW81491   4.395   7.912  12.441
27156SOL    HW181492   4.361   7.823  12.411
27156SOL    HW281493   4.421   7.966  12.361
27157SOL     OW81494   4.654   9.126  12.637
27157SOL    HW181495   4.630   9.108  12.542
27157SOL    HW281496   4.684   9.220  12.647
27158SOL     OW81497   4.197   7.948  11.363
27158SOL    HW181498   4.258   8.028  11.367
27158SOL    HW281499   4.102   7.979  11.370
27159SOL     OW81500   3.883   8.585  12.638
27159SOL    HW181501   3.905   8.524  12.714
27159SOL    HW281502   3.893   8.536  12.552
27160SOL     OW81503   5.071   8.507  12.406
27160SOL    HW181504   5.095   8.444  12.332
27160SOL    HW281505   4.981   8.547  12.388
27161SOL     OW81506   5.026   8.303  11.481
27161SOL    HW181507   4.940   8.272  11.523
27161SOL    HW281508   5.022   8.289  11.382
27162SOL     OW81509   5.483   9.195  12.326
27162SOL    HW181510   5.544   9.225  12.253
27162SOL    HW281511   5.445   9.106  12.304
27163SOL     OW81512   4.976   9.179  12.300
27163SOL    HW181513   5.060   9.184  12.246
27163SOL    HW281514   4.953   9.083  12.318
27164SOL     OW81515   3.807   8.706  12.194
27164SOL    HW181516   3.802   8.705  12.294
27164SOL    HW281517   3.724   8.665  12.156
27165SOL     OW81518   5.450   7.583  11.695
27165SOL    HW181519   5.523   7.566  11.628
27165SOL    HW281520   5.419   7.496  11.733
27166SOL     OW81521   5.112   9.021  11.649
27166SOL    HW181522   5.179   9.033  11.575
27166SOL    HW281523   5.072   9.110  11.672
27167SOL     OW81524   5.004   8.375  11.844
27167SOL    HW181525   5.064   8.294  11.846
27167SOL    HW281526   5.044   8.444  11.784
27168SOL     OW81527   4.554   8.721  12.594
27168SOL    HW181528   4.549   8.754  12.689
27168SOL    HW281529   4.468   8.740  12.548
27169SOL     OW81530   4.396   9.064  11.326
27169SOL    HW181531   4.405   9.074  11.227
27169SOL    HW281532   4.356   8.975  11.347
27170SOL     OW81533   5.374   9.168  12.566
27170SOL    HW181534   5.427   9.178  12.482
27170SOL    HW281535   5.347   9.258  12.600
27171SOL     OW81536   5.565   7.623  12.135
27171SOL    HW181537   5.604   7.538  12.099
27171SOL    HW281538   5.467   7.625  12.116
27172SOL     OW81539   3.987   7.774  11.892
27172SOL    HW181540   3.908   7.825  11.858
27172SOL    HW281541   3.978   7.759  11.990
27173SOL     OW81542   4.918   9.060  11.203
27173SOL    HW181543   4.924   8.967  11.240
27173SOL    HW281544   4.859   9.060  11.123
27174SOL     OW81545   4.546   8.450  12.544
27174SOL    HW181546   4.586   8.449  12.452
27174SOL    HW281547   4.556   8.542  12.584
27175SOL     OW81548   4.640   8.358  11.463
27175SOL    HW181549   4.703   8.396  11.395
27175SOL    HW281550   4.680   8.275  11.502
27176SOL     OW81551   5.228   9.055  11.216
27176SOL    HW181552   5.136   9.092  11.223
27176SOL    HW281553   5.266   9.075  11.126
27177SOL     OW81554   4.096   8.736  12.662
27177SOL    HW181555   4.083   8.829  12.628
27177SOL    HW281556   4.012   8.684  12.649
27178SOL     OW81557   5.338   8.740  12.461
27178SOL    HW181558   5.398   8.743  12.541
27178SOL    HW281559   5.263   8.804  12.474
27179SOL     OW81560   4.763   8.546  11.868
27179SOL    HW181561   4.693   8.499  11.922
27179SOL    HW281562   4.822   8.478  11.825
27180SOL     OW81563   4.738   7.684  12.143
27180SOL    HW181564   4.730   7.648  12.050
27180SOL    HW281565   4.736   7.608  12.208
27181SOL     OW81566   4.314   8.935  11.663
27181SOL    HW181567   4.356   8.877  11.593
27181SOL    HW281568   4.270   9.014  11.619
27182SOL     OW81569   5.433   7.833  12.553
27182SOL    HW181570   5.506   7.902  12.557
27182SOL    HW281571   5.461   7.758  12.494
27183SOL     OW81572   3.979   8.796  11.462
27183SOL    HW181573   3.883   8.797  11.435
27183SOL    HW281574   3.991   8.849  11.546
27184SOL     OW81575   3.829   8.461  12.898
27184SOL    HW181576   3.752   8.428  12.952
27184SOL    HW281577   3.914   8.431  12.940
27185SOL     OW81578   3.799   7.793  11.205
27185SOL    HW181579   3.707   7.765  11.176
27185SOL    HW281580   3.830   7.870  11.149
27186SOL     OW81581   5.164   8.304  12.570
27186SOL    HW181582   5.107   8.356  12.507
27186SOL    HW281583   5.260   8.316  12.546
27187SOL     OW81584   3.796   7.614  11.490
27187SOL    HW181585   3.779   7.697  11.436
27187SOL    HW281586   3.886   7.577  11.468
27188SOL     OW81587   4.907   8.783  11.291
27188SOL    HW181588   4.808   8.772  11.293
27188SOL    HW281589   4.941   8.798  11.384
27189SOL     OW81590   4.337   8.290  12.603
27189SOL    HW181591   4.393   8.371  12.586
27189SOL    HW281592   4.396   8.210  12.606
27190SOL     OW81593   5.217   9.215  12.131
27190SOL    HW181594   5.250   9.279  12.062
27190SOL    HW281595   5.283   9.209  12.206
27191SOL     OW81596   4.440   8.013  12.880
27191SOL    HW181597   4.459   8.078  12.954
27191SOL    HW281598   4.500   7.933  12.889
27192SOL     OW81599   4.114   9.189  12.732
27192SOL    HW181600   4.023   9.230  12.730
27192SOL    HW281601   4.107   9.095  12.764
27193SOL     OW81602   5.398   8.331  12.426
27193SOL    HW181603   5.371   8.242  12.389
27193SOL    HW281604   5.399   8.399  12.353
27194SOL     OW81605   4.949   7.773  11.621
27194SOL    HW181606   5.014   7.699  11.610
27194SOL    HW281607   4.969   7.823  11.705
27195SOL     OW81608   4.318   8.193  11.824
27195SOL    HW181609   4.368   8.278  11.805
27195SOL    HW281610   4.230   8.195  11.776
27196SOL     OW81611   5.501   7.790  12.814
27196SOL    HW181612   5.484   7.821  12.720
27196SOL    HW281613   5.417   7.753  12.852
27197SOL     OW81614   5.454   8.382  12.689
27197SOL    HW181615   5.492   8.473  12.704
27197SOL    HW281616   5.446   8.365  12.590
27198SOL     OW81617   4.583   8.822  11.188
27198SOL    HW181618   4.537   8.837  11.276
27198SOL    HW281619   4.627   8.907  11.158
27199SOL     OW81620   4.385   9.238  12.125
27199SOL    HW181621   4.339   9.326  12.112
27199SOL    HW281622   4.484   9.250  12.118
27200SOL     OW81623   4.583   8.404  12.033
27200SOL    HW181624   4.637   8.335  12.081
27200SOL    HW281625   4.551   8.473  12.099
27201SOL     OW81626   4.807   8.432  11.259
27201SOL    HW181627   4.784   8.485  11.177
27201SOL    HW281628   4.888   8.376  11.240
27202SOL     OW81629   5.585   9.017  12.023
27202SOL    HW181630   5.514   9.005  11.953
27202SOL    HW281631   5.586   8.938  12.083
27203SOL     OW81632   3.803   8.688  11.825
27203SOL    HW181633   3.802   8.641  11.913
27203SOL    HW281634   3.885   8.660  11.774
27204SOL     OW81635   4.396   8.839  12.796
27204SOL    HW181636   4.318   8.789  12.834
27204SOL    HW281637   4.393   8.934  12.827
27205SOL     OW81638   5.548   7.640  12.399
27205SOL    HW181639   5.544   7.550  12.443
27205SOL    HW281640   5.551   7.629  12.300
27206SOL     OW81641   4.152   7.872  11.692
27206SOL    HW181642   4.182   7.800  11.630
27206SOL    HW281643   4.113   7.832  11.775
27207SOL     OW81644   5.429   8.935  12.276
27207SOL    HW181645   5.336   8.910  12.249
27207SOL    HW281646   5.455   8.885  12.358
27208SOL     OW81647   4.041   7.995  12.452
27208SOL    HW181648   4.079   7.936  12.524
27208SOL    HW281649   4.081   7.969  12.364
27209SOL     OW81650   4.536   9.034  11.859
27209SOL    HW181651   4.568   9.044  11.765
27209SOL    HW281652   4.457   8.972  11.861
27210SOL     OW81653   5.148   7.662  12.284
27210SOL    HW181654   5.200   7.597  12.339
27210SOL    HW281655   5.099   7.725  12.345
27211SOL     OW81656   4.725   7.482  12.326
27211SOL    HW181657   4.662   7.410  12.295
27211SOL    HW281658   4.818   7.446  12.326
27212SOL     OW81659   4.494   8.778  11.473
27212SOL    HW181660   4.448   8.691  11.490
27212SOL    HW281661   4.585   8.775  11.514
27213SOL     OW81662   4.342   9.015  12.456
27213SOL    HW181663   4.337   9.097  12.513
27213SOL    HW281664   4.431   9.012  12.411
27214SOL     OW81665   5.076   7.500  11.340
27214SOL    HW181666   5.111   7.459  11.256
27214SOL    HW281667   4.986   7.462  11.360
27215SOL     OW81668   5.024   7.901  11.863
27215SOL    HW181669   4.965   7.981  11.867
27215SOL    HW281670   5.039   7.866  11.956
27216SOL     OW81671   5.317   7.669  12.054
27216SOL    HW181672   5.233   7.668  12.108
27216SOL    HW281673   5.319   7.752  11.998
27217SOL     OW81674   3.763   8.525  11.472
27217SOL    HW181675   3.862   8.514  11.463
27217SOL    HW281676   3.723   8.439  11.504
27218SOL     OW81677   4.599   9.094  11.509
27218SOL    HW181678   4.522   9.059  11.455
27218SOL    HW281679   4.567   9.165  11.571
27219SOL     OW81680   3.954   9.938   0.113
27219SOL    HW181681   3.861   9.936   0.150
27219SOL    HW281682   3.955   9.899   0.021
27220SOL     OW81683   3.949   9.585   0.996
27220SOL    HW181684   3.984   9.568   1.088
27220SOL    HW281685   3.861   9.540   0.984
27221SOL     OW81686   3.743   9.678   0.647
27221SOL    HW181687   3.661   9.721   0.686
27221SOL    HW281688   3.715   9.605   0.584
27222SOL     OW81689   4.293  10.585   1.165
27222SOL    HW181690   4.200  10.578   1.128
27222SOL    HW281691   4.304  10.674   1.209
27223SOL     OW81692   5.279  10.821   0.703
27223SOL    HW181693   5.222  10.805   0.784
27223SOL    HW281694   5.220  10.831   0.623
27224SOL     OW81695   4.859  10.013   0.717
27224SOL    HW181696   4.916  10.091   0.692
27224SOL    HW281697   4.799  10.039   0.793
27225SOL     OW81698   5.479   9.917   0.231
27225SOL    HW181699   5.467   9.904   0.132
27225SOL    HW281700   5.449   9.836   0.280
27226SOL     OW81701   4.492  10.454   1.023
27226SOL    HW181702   4.414  10.471   1.083
27226SOL    HW281703   4.526  10.541   0.987
27227SOL     OW81704   4.574  10.108   1.823
27227SOL    HW181705   4.570  10.184   1.888
27227SOL    HW281706   4.596  10.144   1.732
27228SOL     OW81707   4.409  10.322   0.665
27228SOL    HW181708   4.478  10.306   0.735
27228SOL    HW281709   4.336  10.379   0.703
27229SOL     OW81710   4.410  10.471   1.803
27229SOL    HW181711   4.470  10.550   1.817
27229SOL    HW281712   4.324  10.502   1.762
27230SOL     OW81713   4.059  10.745   1.061
27230SOL    HW181714   3.981  10.714   1.008
27230SOL    HW281715   4.117  10.803   1.004
27231SOL     OW81716   5.184  10.815   1.339
27231SOL    HW181717   5.208  10.909   1.365
27231SOL    HW281718   5.168  10.761   1.421
27232SOL     OW81719   4.162   9.702   1.499
27232SOL    HW181720   4.244   9.646   1.508
27232SOL    HW281721   4.081   9.644   1.503
27233SOL     OW81722   5.327   9.757   0.737
27233SOL    HW181723   5.253   9.803   0.687
27233SOL    HW281724   5.378   9.825   0.790
27234SOL     OW81725   3.955  11.023   0.483
27234SOL    HW181726   3.989  11.100   0.537
27234SOL    HW281727   3.999  11.023   0.393
27235SOL     OW81728   4.851  10.651   1.690
27235SOL    HW181729   4.898  10.651   1.778
27235SOL    HW281730   4.803  10.564   1.679
27236SOL     OW81731   3.954  10.744   0.538
27236SOL    HW181732   3.928  10.840   0.538
27236SOL    HW281733   3.883  10.690   0.583
27237SOL     OW81734   3.964  10.401   0.886
27237SOL    HW181735   3.978  10.317   0.938
27237SOL    HW281736   3.909  10.465   0.941
27238SOL     OW81737   4.344  11.096   1.439
27238SOL    HW181738   4.252  11.079   1.474
27238SOL    HW281739   4.372  11.188   1.465
27239SOL     OW81740   4.330  10.274   0.123
27239SOL    HW181741   4.337  10.358   0.069
27239SOL    HW281742   4.376  10.287   0.211
27240SOL     OW81743   5.318   9.424   1.480
27240SOL    HW181744   5.300   9.491   1.408
27240SOL    HW281745   5.315   9.470   1.569
27241SOL     OW81746   3.846   9.953   0.563
27241SOL    HW181747   3.801   9.865   0.580
27241SOL    HW281748   3.845  10.007   0.647
27242SOL     OW81749   5.566  11.077   0.359
27242SOL    HW181750   5.620  11.048   0.439
27242SOL    HW281751   5.596  11.167   0.330
27243SOL     OW81752   3.751  10.906   0.117
27243SOL    HW181753   3.732  10.810   0.138
27243SOL    HW281754   3.718  10.964   0.192
27244SOL     OW81755   5.413  10.232   0.612
27244SOL    HW181756   5.508  10.203   0.620
27244SOL    HW281757   5.405  10.297   0.537
27245SOL     OW81758   5.365  10.418   0.432
27245SOL    HW181759   5.451  10.420   0.380
27245SOL    HW281760   5.379  10.465   0.520
27246SOL     OW81761   3.837  10.047   1.597
27246SOL    HW181762   3.925  10.034   1.642
27246SOL    HW281763   3.824  10.144   1.575
27247SOL     OW81764   4.337  10.675   0.726
27247SOL    HW181765   4.288  10.588   0.735
27247SOL    HW281766   4.314  10.718   0.639
27248SOL     OW81767   5.017  10.538   1.423
27248SOL    HW181768   5.054  10.465   1.365
27248SOL    HW281769   5.069  10.543   1.508
27249SOL     OW81770   4.533   9.314   0.502
27249SOL    HW181771   4.573   9.405   0.493
27249SOL    HW281772   4.433   9.322   0.508
27250SOL     OW81773   3.921  10.286   1.264
27250SOL    HW181774   4.010  10.241   1.250
27250SOL    HW281775   3.848  10.221   1.245
27251SOL     OW81776   5.249  10.309   0.190
27251SOL    HW181777   5.186  10.233   0.203
27251SOL    HW281778   5.297  10.327   0.276
27252SOL     OW81779   4.911  11.102   1.616
27252SOL    HW181780   4.935  11.162   1.540
27252SOL    HW281781   4.918  11.007   1.586
27253SOL     OW81782   4.041   9.561   1.801
27253SOL    HW181783   4.112   9.632   1.807
27253SOL    HW281784   3.953   9.600   1.829
27254SOL     OW81785   5.190  10.727   0.953
27254SOL    HW181786   5.131  10.733   1.033
27254SOL    HW281787   5.175  10.639   0.907
27255SOL     OW81788   5.391  11.024   0.572
27255SOL    HW181789   5.350  11.001   0.484
27255SOL    HW281790   5.373  10.950   0.637
27256SOL     OW81791   4.322  10.039   0.270
27256SOL    HW181792   4.346  10.108   0.202
27256SOL    HW281793   4.244  10.072   0.324
27257SOL     OW81794   5.005   9.655   0.944
27257SOL    HW181795   4.919   9.605   0.931
27257SOL    HW281796   5.067   9.601   1.000
27258SOL     OW81797   5.300  10.972   0.307
27258SOL    HW181798   5.389  11.018   0.310
27258SOL    HW281799   5.279  10.948   0.212
27259SOL     OW81800   4.531   9.915   1.465
27259SOL    HW181801   4.484   9.912   1.554
27259SOL    HW281802   4.480   9.860   1.399
27260SOL     OW81803   5.118   9.779   1.674
27260SOL    HW181804   5.098   9.822   1.762
27260SOL    HW281805   5.196   9.717   1.683
27261SOL     OW81806   4.697  10.200   1.572
27261SOL    HW181807   4.743  10.116   1.543
27261SOL    HW281808   4.641  10.234   1.497
27262SOL     OW81809   4.715   9.720   1.242
27262SOL    HW181810   4.638   9.754   1.296
27262SOL    HW281811   4.681   9.669   1.163
27263SOL     OW81812   4.765  10.011   0.429
27263SOL    HW181813   4.791  10.007   0.525
27263SOL    HW281814   4.680   9.960   0.415
27264SOL     OW81815   3.800  10.121   0.789
27264SOL    HW181816   3.899  10.109   0.798
27264SOL    HW281817   3.776  10.216   0.810
27265SOL     OW81818   3.854  11.131   1.571
27265SOL    HW181819   3.844  11.116   1.670
27265SOL    HW281820   3.768  11.167   1.535
27266SOL     OW81821   4.589   9.658   0.195
27266SOL    HW181822   4.648   9.721   0.146
27266SOL    HW281823   4.608   9.564   0.166
27267SOL     OW81824   5.443   9.895   1.831
27267SOL    HW181825   5.417   9.984   1.795
27267SOL    HW281826   5.441   9.827   1.758
27268SOL     OW81827   5.086  10.454   0.545
27268SOL    HW181828   5.169  10.425   0.497
27268SOL    HW281829   5.037  10.521   0.489
27269SOL     OW81830   4.274   9.506   0.885
27269SOL    HW181831   4.269   9.501   0.985
27269SOL    HW281832   4.276   9.602   0.856
27270SOL     OW81833   4.732  10.766   0.477
27270SOL    HW181834   4.686  10.838   0.425
27270SOL    HW281835   4.728  10.786   0.575
27271SOL     OW81836   4.075  11.111   0.853
27271SOL    HW181837   4.125  11.025   0.859
27271SOL    HW281838   4.140  11.188   0.850
27272SOL     OW81839   5.519  10.376   0.873
27272SOL    HW181840   5.457  10.361   0.797
27272SOL    HW281841   5.467  10.387   0.958
27273SOL     OW81842   4.951  10.860   1.506
27273SOL    HW181843   4.957  10.783   1.570
27273SOL    HW281844   4.899  10.834   1.426
27274SOL     OW81845   4.045  10.253   0.242
27274SOL    HW181846   4.127  10.292   0.200
27274SOL    HW281847   4.018  10.171   0.193
27275SOL     OW81848   5.182  10.045   0.728
27275SOL    HW181849   5.177   9.980   0.803
27275SOL    HW281850   5.262  10.104   0.741
27276SOL     OW81851   4.185  10.576   1.727
27276SOL    HW181852   4.135  10.577   1.641
27276SOL    HW281853   4.122  10.558   1.803
27277SOL     OW81854   4.835  11.086   0.237
27277SOL    HW181855   4.775  11.024   0.287
27277SOL    HW281856   4.866  11.042   0.152
27278SOL     OW81857   3.926   9.595   1.498
27278SOL    HW181858   3.846   9.655   1.485
27278SOL    HW281859   3.916   9.546   1.584
27279SOL     OW81860   5.356  10.687   0.081
27279SOL    HW181861   5.324  10.781   0.071
27279SOL    HW281862   5.280  10.624   0.069
27280SOL     OW81863   4.188  11.053   0.323
27280SOL    HW181864   4.221  11.092   0.409
27280SOL    HW281865   4.264  11.046   0.258
27281SOL     OW81866   5.124   9.417   0.426
27281SOL    HW181867   5.100   9.380   0.336
27281SOL    HW281868   5.223   9.433   0.430
27282SOL     OW81869   3.973  11.095   1.241
27282SOL    HW181870   4.030  11.030   1.291
27282SOL    HW281871   3.957  11.062   1.148
27283SOL     OW81872   4.664  11.008   0.904
27283SOL    HW181873   4.744  10.951   0.925
27283SOL    HW281874   4.615  10.968   0.827
27284SOL     OW81875   4.106  10.010   0.480
27284SOL    HW181876   4.151   9.920   0.477
27284SOL    HW281877   4.012   9.999   0.513
27285SOL     OW81878   5.271   9.532   1.729
27285SOL    HW181879   5.266   9.569   1.821
27285SOL    HW281880   5.199   9.463   1.717
27286SOL     OW81881   4.338   9.432   0.117
27286SOL    HW181882   4.436   9.410   0.124
27286SOL    HW281883   4.307   9.415   0.024
27287SOL     OW81884   4.505   9.574   1.749
27287SOL    HW181885   4.572   9.513   1.792
27287SOL    HW281886   4.432   9.593   1.814
27288SOL     OW81887   4.612  10.824   1.195
27288SOL    HW181888   4.589  10.799   1.101
27288SOL    HW281889   4.673  10.755   1.234
27289SOL     OW81890   5.075   9.900   1.433
27289SOL    HW181891   5.103   9.857   1.518
27289SOL    HW281892   5.100   9.996   1.434
27290SOL     OW81893   4.527  10.712   0.924
27290SOL    HW181894   4.617  10.726   0.882
27290SOL    HW281895   4.456  10.714   0.853
27291SOL     OW81896   4.646   9.813   0.899
27291SOL    HW181897   4.621   9.804   0.803
27291SOL    HW281898   4.694   9.731   0.930
27292SOL     OW81899   4.263   9.374   0.512
27292SOL    HW181900   4.182   9.375   0.570
27292SOL    HW281901   4.266   9.457   0.457
27293SOL     OW81902   5.158  10.498   0.041
27293SOL    HW181903   5.190  10.422   0.098
27293SOL    HW281904   5.066  10.525   0.071
27294SOL     OW81905   4.021   9.345   0.171
27294SOL    HW181906   4.070   9.429   0.150
27294SOL    HW281907   4.083   9.280   0.216
27295SOL     OW81908   4.659   9.546   0.480
27295SOL    HW181909   4.611   9.587   0.402
27295SOL    HW281910   4.758   9.544   0.461
27296SOL     OW81911   4.800   9.993   1.464
27296SOL    HW181912   4.720   9.932   1.467
27296SOL    HW281913   4.881   9.940   1.440
27297SOL     OW81914   4.951  10.880   0.793
27297SOL    HW181915   4.972  10.954   0.728
27297SOL    HW281916   5.019  10.880   0.866
27298SOL     OW81917   4.183  10.462   0.741
27298SOL    HW181918   4.112  10.435   0.806
27298SOL    HW281919   4.157  10.434   0.648
27299SOL     OW81920   4.995  11.107   0.591
27299SOL    HW181921   5.039  11.171   0.527
27299SOL    HW281922   4.945  11.159   0.661
27300SOL     OW81923   4.756   9.859   0.016
27300SOL    HW181924   4.715   9.941  -0.023
27300SOL    HW281925   4.820   9.885   0.089
27301SOL     OW81926   3.802   9.866   1.386
27301SOL    HW181927   3.894   9.865   1.345
27301SOL    HW281928   3.796   9.940   1.453
27302SOL     OW81929   4.285   9.532   1.147
27302SOL    HW181930   4.323   9.448   1.184
27302SOL    HW281931   4.197   9.551   1.191
27303SOL     OW81932   4.590   9.764   0.642
27303SOL    HW181933   4.558   9.836   0.580
27303SOL    HW281934   4.614   9.683   0.589
27304SOL     OW81935   4.741   9.349   0.753
27304SOL    HW181936   4.669   9.354   0.684
27304SOL    HW281937   4.717   9.280   0.822
27305SOL     OW81938   5.153  10.483   0.867
27305SOL    HW181939   5.098  10.399   0.860
27305SOL    HW281940   5.179  10.512   0.775
27306SOL     OW81941   5.190   9.900   0.992
27306SOL    HW181942   5.160   9.805   0.999
27306SOL    HW281943   5.263   9.916   1.058
27307SOL     OW81944   5.581  10.143   0.377
27307SOL    HW181945   5.623  10.079   0.441
27307SOL    HW281946   5.543  10.092   0.299
27308SOL     OW81947   4.212  10.695   0.174
27308SOL    HW181948   4.125  10.680   0.221
27308SOL    HW281949   4.195  10.721   0.079
27309SOL     OW81950   5.388  10.590   0.657
27309SOL    HW181951   5.487  10.598   0.671
27309SOL    HW281952   5.343  10.674   0.688
27310SOL     OW81953   5.114   9.885   0.078
27310SOL    HW181954   5.060   9.864   0.159
27310SOL    HW281955   5.205   9.844   0.087
27311SOL     OW81956   4.251   9.566   0.328
27311SOL    HW181957   4.278   9.507   0.253
27311SOL    HW281958   4.251   9.661   0.297
27312SOL     OW81959   5.478  10.533   1.588
27312SOL    HW181960   5.569  10.494   1.575
27312SOL    HW281961   5.486  10.629   1.612
27313SOL     OW81962   4.788  10.657   1.340
27313SOL    HW181963   4.708  10.634   1.395
27313SOL    HW281964   4.871  10.631   1.389
27314SOL     OW81965   5.316  10.939   1.625
27314SOL    HW181966   5.343  10.973   1.535
27314SOL    HW281967   5.395  10.901   1.671
27315SOL     OW81968   4.835  10.505   1.100
27315SOL    HW181969   4.795  10.549   1.181
27315SOL    HW281970   4.794  10.542   1.017
27316SOL     OW81971   5.362  10.409   1.079
27316SOL    HW181972   5.367  10.490   1.138
27316SOL    HW281973   5.276  10.411   1.028
27317SOL     OW81974   4.639   9.399   1.402
27317SOL    HW181975   4.664   9.379   1.307
27317SOL    HW281976   4.711   9.455   1.444
27318SOL     OW81977   4.704  10.426   1.719
27318SOL    HW181978   4.605  10.432   1.729
27318SOL    HW281979   4.727  10.346   1.663
27319SOL     OW81980   4.429  10.360   0.368
27319SOL    HW181981   4.415  10.367   0.467
27319SOL    HW281982   4.513  10.309   0.350
27320SOL     OW81983   4.134  10.123   1.251
27320SOL    HW181984   4.220  10.135   1.301
27320SOL    HW281985   4.092  10.036   1.278
27321SOL     OW81986   4.998   9.696   1.262
27321SOL    HW181987   5.019   9.770   1.326
27321SOL    HW281988   4.909   9.713   1.219
27322SOL     OW81989   3.788  10.874   1.331
27322SOL    HW181990   3.742  10.956   1.297
27322SOL    HW281991   3.886  10.893   1.340
27323SOL     OW81992   4.091  10.410   0.501
27323SOL    HW181993   4.084  10.493   0.445
27323SOL    HW281994   4.095  10.330   0.441
27324SOL     OW81995   4.290   9.847   0.865
27324SOL    HW181996   4.302   9.913   0.791
27324SOL    HW281997   4.336   9.881   0.948
27325SOL     OW81998   4.976  10.658   0.388
27325SOL    HW181999   5.026  10.735   0.428
27325SOL    HW282000   4.881  10.660   0.420
27326SOL     OW82001   4.996  10.755   1.142
27326SOL    HW182002   5.043  10.768   1.229
27326SOL    HW282003   4.930  10.681   1.151
27327SOL     OW82004   5.306   9.949   0.472
27327SOL    HW182005   5.275  10.010   0.545
27327SOL    HW282006   5.356  10.001   0.403
27328SOL     OW82007   4.078  10.820   1.329
27328SOL    HW182008   4.057  10.776   1.242
27328SOL    HW282009   4.175  10.846   1.332
27329SOL     OW82010   4.126  10.061   1.598
27329SOL    HW182011   4.194  10.116   1.551
27329SOL    HW282012   4.166   9.973   1.625
27330SOL     OW82013   5.311  10.089   1.670
27330SOL    HW182014   5.219  10.127   1.665
27330SOL    HW282015   5.371  10.136   1.605
27331SOL     OW82016   4.737   9.415   1.770
27331SOL    HW182017   4.743   9.500   1.718
27331SOL    HW282018   4.769   9.339   1.713
27332SOL     OW82019   4.228   9.360   1.740
27332SOL    HW182020   4.186   9.303   1.670
27332SOL    HW282021   4.162   9.429   1.772
27333SOL     OW82022   4.297  10.180   1.029
27333SOL    HW182023   4.341  10.269   1.020
27333SOL    HW282024   4.234  10.180   1.106
27334SOL     OW82025   5.084  10.172   1.045
27334SOL    HW182026   5.009  10.172   0.979
27334SOL    HW282027   5.121  10.080   1.054
27335SOL     OW82028   4.933   9.835   0.275
27335SOL    HW182029   4.946   9.751   0.329
27335SOL    HW282030   4.904   9.909   0.335
27336SOL     OW82031   4.031   9.523   1.231
27336SOL    HW182032   4.008   9.560   1.321
27336SOL    HW282033   4.001   9.428   1.225
27337SOL     OW82034   3.761  10.620   1.282
27337SOL    HW182035   3.814  10.571   1.350
27337SOL    HW282036   3.783  10.718   1.287
27338SOL     OW82037   4.456   9.944   1.064
27338SOL    HW182038   4.515   9.918   0.988
27338SOL    HW282039   4.428  10.040   1.053
27339SOL     OW82040   5.452  10.245   1.854
27339SOL    HW182041   5.406  10.238   1.765
27339SOL    HW282042   5.390  10.289   1.920
27340SOL     OW82043   4.031   9.373   0.618
27340SOL    HW182044   4.020   9.467   0.651
27340SOL    HW282045   4.026   9.310   0.695
27341SOL     OW82046   5.346   9.677   0.374
27341SOL    HW182047   5.348   9.601   0.438
27341SOL    HW282048   5.298   9.754   0.414
27342SOL     OW82049   4.747  10.076   0.966
27342SOL    HW182050   4.762  10.097   1.062
27342SOL    HW282051   4.717   9.981   0.957
27343SOL     OW82052   4.704  10.883   1.700
27343SOL    HW182053   4.684  10.927   1.612
27343SOL    HW282054   4.743  10.792   1.684
27344SOL     OW82055   5.583  10.828   1.605
27344SOL    HW182056   5.597  10.855   1.510
27344SOL    HW282057   5.666  10.850   1.658
27345SOL     OW82058   4.074  10.208   1.804
27345SOL    HW182059   4.150  10.252   1.852
27345SOL    HW282060   4.109  10.161   1.722
27346SOL     OW82061   5.264   9.584   0.125
27346SOL    HW182062   5.203   9.509   0.148
27346SOL    HW282063   5.286   9.636   0.208
27347SOL     OW82064   5.027  10.148   0.042
27347SOL    HW182065   5.061  10.055   0.057
27347SOL    HW282066   5.045  10.175  -0.053
27348SOL     OW82067   4.792  10.643   0.849
27348SOL    HW182068   4.799  10.559   0.794
27348SOL    HW282069   4.854  10.712   0.813
27349SOL     OW82070   4.043  10.120   0.949
27349SOL    HW182071   4.136  10.156   0.954
27349SOL    HW282072   4.037  10.035   1.001
27350SOL     OW82073   4.063   9.819   1.006
27350SOL    HW182074   4.011   9.736   0.989
27350SOL    HW282075   4.140   9.824   0.942
27351SOL     OW82076   4.862   9.690   1.678
27351SOL    HW182077   4.817   9.753   1.742
27351SOL    HW282078   4.955   9.721   1.661
27352SOL     OW82079   4.884   9.517   1.477
27352SOL    HW182080   4.884   9.581   1.554
27352SOL    HW282081   4.912   9.565   1.394
27353SOL     OW82082   3.732  10.636   0.200
27353SOL    HW182083   3.639  10.657   0.169
27353SOL    HW282084   3.742  10.537   0.213
27354SOL     OW82085   3.812  11.111   0.927
27354SOL    HW182086   3.770  11.025   0.900
27354SOL    HW282087   3.906  11.114   0.893
27355SOL     OW82088   4.228  10.878   0.910
27355SOL    HW182089   4.294  10.952   0.919
27355SOL    HW282090   4.272  10.799   0.868
27356SOL     OW82091   4.726  10.106   1.238
27356SOL    HW182092   4.767  10.074   1.324
27356SOL    HW282093   4.630  10.079   1.235
27357SOL     OW82094   3.764   9.854   1.114
27357SOL    HW182095   3.849   9.821   1.073
27357SOL    HW282096   3.777   9.869   1.212
27358SOL     OW82097   3.913   9.830   1.722
27358SOL    HW182098   3.972   9.790   1.652
27358SOL    HW282099   3.855   9.901   1.681
27359SOL     OW82100   5.093  10.260   1.660
27359SOL    HW182101   5.132  10.349   1.680
27359SOL    HW282102   5.103  10.240   1.563
27360SOL     OW82103   4.539   9.882   0.325
27360SOL    HW182104   4.546   9.793   0.279
27360SOL    HW282105   4.445   9.916   0.317
27361SOL     OW82106   5.381   9.914   1.206
27361SOL    HW182107   5.343   9.845   1.268
27361SOL    HW282108   5.463   9.878   1.162
27362SOL     OW82109   3.976  10.874   1.744
27362SOL    HW182110   3.946  10.931   1.820
27362SOL    HW282111   3.969  10.777   1.770
27363SOL     OW82112   4.654  10.988   1.465
27363SOL    HW182113   4.630  10.970   1.370
27363SOL    HW282114   4.684  11.082   1.475
27364SOL     OW82115   4.197   9.810   0.191
27364SOL    HW182116   4.258   9.890   0.195
27364SOL    HW282117   4.102   9.841   0.198
27365SOL     OW82118   3.883  10.447   1.466
27365SOL    HW182119   3.905  10.386   1.542
27365SOL    HW282120   3.893  10.398   1.380
27366SOL     OW82121   5.071  10.369   1.234
27366SOL    HW182122   5.095  10.306   1.160
27366SOL    HW282123   4.981  10.409   1.216
27367SOL     OW82124   5.026  10.165   0.309
27367SOL    HW182125   4.940  10.134   0.351
27367SOL    HW282126   5.022  10.151   0.210
27368SOL     OW82127   5.483  11.057   1.154
27368SOL    HW182128   5.544  11.087   1.081
27368SOL    HW282129   5.445  10.968   1.132
27369SOL     OW82130   4.976  11.041   1.128
27369SOL    HW182131   5.060  11.046   1.074
27369SOL    HW282132   4.953  10.945   1.146
27370SOL     OW82133   3.807  10.568   1.022
27370SOL    HW182134   3.802  10.567   1.122
27370SOL    HW282135   3.724  10.527   0.984
27371SOL     OW82136   4.412  10.972   1.716
27371SOL    HW182137   4.356  11.053   1.725
27371SOL    HW282138   4.464  10.976   1.630
27372SOL     OW82139   4.627   9.396   0.133
27372SOL    HW182140   4.678   9.397   0.047
27372SOL    HW282141   4.683   9.354   0.204
27373SOL     OW82142   5.450   9.445   0.523
27373SOL    HW182143   5.523   9.428   0.456
27373SOL    HW282144   5.419   9.358   0.561
27374SOL     OW82145   5.112  10.883   0.477
27374SOL    HW182146   5.179  10.895   0.403
27374SOL    HW282147   5.072  10.972   0.500
27375SOL     OW82148   3.854  11.104   1.851
27375SOL    HW182149   3.813  11.030   1.904
27375SOL    HW282150   3.918  11.155   1.909
27376SOL     OW82151   5.004  10.237   0.672
27376SOL    HW182152   5.064  10.156   0.674
27376SOL    HW282153   5.044  10.306   0.612
27377SOL     OW82154   4.554  10.583   1.422
27377SOL    HW182155   4.549  10.616   1.517
27377SOL    HW282156   4.468  10.602   1.376
27378SOL     OW82157   4.396  10.926   0.154
27378SOL    HW182158   4.405  10.936   0.055
27378SOL    HW282159   4.356  10.837   0.175
27379SOL     OW82160   5.374  11.030   1.394
27379SOL    HW182161   5.427  11.040   1.310
27379SOL    HW282162   5.347  11.120   1.428
27380SOL     OW82163   5.565   9.485   0.963
27380SOL    HW182164   5.604   9.400   0.927
27380SOL    HW282165   5.467   9.487   0.944
27381SOL     OW82166   3.987   9.636   0.720
27381SOL    HW182167   3.908   9.687   0.686
27381SOL    HW282168   3.978   9.621   0.818
27382SOL     OW82169   4.918  10.922   0.031
27382SOL    HW182170   4.924  10.829   0.068
27382SOL    HW282171   4.859  10.922  -0.049
27383SOL     OW82172   4.546  10.312   1.372
27383SOL    HW182173   4.586  10.311   1.280
27383SOL    HW282174   4.556  10.404   1.412
27384SOL     OW82175   4.640  10.220   0.291
27384SOL    HW182176   4.703  10.258   0.223
27384SOL    HW282177   4.680  10.137   0.330
27385SOL     OW82178   5.228  10.917   0.044
27385SOL    HW182179   5.136  10.954   0.051
27385SOL    HW282180   5.266  10.937  -0.046
27386SOL     OW82181   4.096  10.598   1.490
27386SOL    HW182182   4.083  10.691   1.456
27386SOL    HW282183   4.012  10.546   1.477
27387SOL     OW82184   5.338  10.602   1.289
27387SOL    HW182185   5.398  10.605   1.369
27387SOL    HW282186   5.263  10.666   1.302
27388SOL     OW82187   4.763  10.408   0.696
27388SOL    HW182188   4.693  10.361   0.750
27388SOL    HW282189   4.822  10.340   0.653
27389SOL     OW82190   4.738   9.546   0.971
27389SOL    HW182191   4.730   9.510   0.878
27389SOL    HW282192   4.736   9.470   1.036
27390SOL     OW82193   4.314  10.797   0.491
27390SOL    HW182194   4.356  10.739   0.421
27390SOL    HW282195   4.270  10.876   0.447
27391SOL     OW82196   5.433   9.695   1.381
27391SOL    HW182197   5.506   9.764   1.385
27391SOL    HW282198   5.461   9.620   1.322
27392SOL     OW82199   3.979  10.658   0.290
27392SOL    HW182200   3.883  10.659   0.263
27392SOL    HW282201   3.991  10.711   0.374
27393SOL     OW82202   3.829  10.323   1.726
27393SOL    HW182203   3.752  10.290   1.780
27393SOL    HW282204   3.914  10.293   1.768
27394SOL     OW82205   4.396   9.513   1.489
27394SOL    HW182206   4.486   9.497   1.449
27394SOL    HW282207   4.404   9.518   1.588
27395SOL     OW82208   3.799   9.655   0.033
27395SOL    HW182209   3.707   9.627   0.004
27395SOL    HW282210   3.830   9.732  -0.023
27396SOL     OW82211   5.164  10.166   1.398
27396SOL    HW182212   5.107  10.218   1.335
27396SOL    HW282213   5.260  10.178   1.374
27397SOL     OW82214   3.796   9.476   0.318
27397SOL    HW182215   3.779   9.559   0.264
27397SOL    HW282216   3.886   9.439   0.296
27398SOL     OW82217   4.907  10.645   0.119
27398SOL    HW182218   4.808  10.634   0.121
27398SOL    HW282219   4.941  10.660   0.212
27399SOL     OW82220   4.337  10.152   1.431
27399SOL    HW182221   4.393  10.233   1.414
27399SOL    HW282222   4.396  10.072   1.434
27400SOL     OW82223   5.217  11.077   0.959
27400SOL    HW182224   5.250  11.141   0.890
27400SOL    HW282225   5.283  11.071   1.034
27401SOL     OW82226   4.440   9.875   1.708
27401SOL    HW182227   4.459   9.940   1.782
27401SOL    HW282228   4.500   9.795   1.717
27402SOL     OW82229   5.174  10.530   1.633
27402SOL    HW182230   5.165  10.520   1.732
27402SOL    HW282231   5.270  10.523   1.607
27403SOL     OW82232   4.114  11.051   1.560
27403SOL    HW182233   4.023  11.092   1.558
27403SOL    HW282234   4.107  10.957   1.592
27404SOL     OW82235   5.398  10.193   1.254
27404SOL    HW182236   5.371  10.104   1.217
27404SOL    HW282237   5.399  10.261   1.181
27405SOL     OW82238   4.949   9.635   0.449
27405SOL    HW182239   5.014   9.561   0.438
27405SOL    HW282240   4.969   9.685   0.533
27406SOL     OW82241   4.318  10.055   0.652
27406SOL    HW182242   4.368  10.140   0.633
27406SOL    HW282243   4.230  10.057   0.604
27407SOL     OW82244   5.501   9.652   1.642
27407SOL    HW182245   5.484   9.683   1.548
27407SOL    HW282246   5.417   9.615   1.680
27408SOL     OW82247   5.454  10.244   1.517
27408SOL    HW182248   5.492  10.335   1.532
27408SOL    HW282249   5.446  10.227   1.418
27409SOL     OW82250   4.583  10.684   0.016
27409SOL    HW182251   4.537  10.699   0.104
27409SOL    HW282252   4.627  10.769  -0.014
27410SOL     OW82253   4.385  11.100   0.953
27410SOL    HW182254   4.339  11.188   0.940
27410SOL    HW282255   4.484  11.112   0.946
27411SOL     OW82256   4.583  10.266   0.861
27411SOL    HW182257   4.637  10.197   0.909
27411SOL    HW282258   4.551  10.335   0.927
27412SOL     OW82259   4.807  10.294   0.087
27412SOL    HW182260   4.784  10.347   0.005
27412SOL    HW282261   4.888  10.238   0.068
27413SOL     OW82262   5.585  10.879   0.851
27413SOL    HW182263   5.514  10.867   0.781
27413SOL    HW282264   5.586  10.800   0.911
27414SOL     OW82265   3.945  10.624   1.844
27414SOL    HW182266   3.880  10.551   1.823
27414SOL    HW282267   3.949  10.638   1.942
27415SOL     OW82268   3.803  10.550   0.653
27415SOL    HW182269   3.802  10.503   0.741
27415SOL    HW282270   3.885  10.522   0.602
27416SOL     OW82271   4.396  10.701   1.624
27416SOL    HW182272   4.318  10.651   1.662
27416SOL    HW282273   4.393  10.796   1.655
27417SOL     OW82274   5.548   9.502   1.227
27417SOL    HW182275   5.544   9.412   1.271
27417SOL    HW282276   5.551   9.491   1.128
27418SOL     OW82277   4.152   9.734   0.520
27418SOL    HW182278   4.182   9.662   0.458
27418SOL    HW282279   4.113   9.694   0.603
27419SOL     OW82280   5.429  10.797   1.104
27419SOL    HW182281   5.336  10.772   1.077
27419SOL    HW282282   5.455  10.747   1.186
27420SOL     OW82283   4.041   9.857   1.280
27420SOL    HW182284   4.079   9.798   1.352
27420SOL    HW282285   4.081   9.831   1.192
27421SOL     OW82286   4.536  10.896   0.687
27421SOL    HW182287   4.568  10.906   0.593
27421SOL    HW282288   4.457  10.834   0.689
27422SOL     OW82289   5.148   9.524   1.112
27422SOL    HW182290   5.200   9.459   1.167
27422SOL    HW282291   5.099   9.587   1.173
27423SOL     OW82292   4.725   9.344   1.154
27423SOL    HW182293   4.662   9.272   1.123
27423SOL    HW282294   4.818   9.308   1.154
27424SOL     OW82295   4.494  10.640   0.301
27424SOL    HW182296   4.448  10.553   0.318
27424SOL    HW282297   4.585  10.637   0.342
27425SOL     OW82298   4.342  10.877   1.284
27425SOL    HW182299   4.337  10.959   1.341
27425SOL    HW282300   4.431  10.874   1.239
27426SOL     OW82301   5.076   9.362   0.168
27426SOL    HW182302   5.111   9.321   0.084
27426SOL    HW282303   4.986   9.324   0.188
27427SOL     OW82304   5.024   9.763   0.691
27427SOL    HW182305   4.965   9.843   0.695
27427SOL    HW282306   5.039   9.728   0.784
27428SOL     OW82307   5.317   9.531   0.882
27428SOL    HW182308   5.233   9.530   0.936
27428SOL    HW282309   5.319   9.614   0.826
27429SOL     OW82310   3.763  10.387   0.300
27429SOL    HW182311   3.862  10.376   0.291
27429SOL    HW282312   3.723  10.301   0.332
27430SOL     OW82313   4.599  10.956   0.337
27430SOL    HW182314   4.522  10.921   0.283
27430SOL    HW282315   4.567  11.027   0.399
27431SOL     OW82316   3.954   9.938   1.975
27431SOL    HW182317   3.861   9.936   2.012
27431SOL    HW282318   3.955   9.899   1.883
27432SOL     OW82319   3.949   9.585   2.858
27432SOL    HW182320   3.984   9.568   2.950
27432SOL    HW282321   3.861   9.540   2.846
27433SOL     OW82322   3.743   9.678   2.509
27433SOL    HW182323   3.661   9.721   2.548
27433SOL    HW282324   3.715   9.605   2.446
27434SOL     OW82325   4.293  10.585   3.027
27434SOL    HW182326   4.200  10.578   2.990
27434SOL    HW282327   4.304  10.674   3.071
27435SOL     OW82328   5.279  10.821   2.565
27435SOL    HW182329   5.222  10.805   2.646
27435SOL    HW282330   5.220  10.831   2.485
27436SOL     OW82331   4.859  10.013   2.579
27436SOL    HW182332   4.916  10.091   2.554
27436SOL    HW282333   4.799  10.039   2.655
27437SOL     OW82334   5.479   9.917   2.093
27437SOL    HW182335   5.467   9.904   1.994
27437SOL    HW282336   5.449   9.836   2.142
27438SOL     OW82337   4.492  10.454   2.885
27438SOL    HW182338   4.414  10.471   2.945
27438SOL    HW282339   4.526  10.541   2.849
27439SOL     OW82340   4.574  10.108   3.685
27439SOL    HW182341   4.570  10.184   3.750
27439SOL    HW282342   4.596  10.144   3.594
27440SOL     OW82343   4.409  10.322   2.527
27440SOL    HW182344   4.478  10.306   2.597
27440SOL    HW282345   4.336  10.379   2.565
27441SOL     OW82346   4.410  10.471   3.665
27441SOL    HW182347   4.470  10.550   3.679
27441SOL    HW282348   4.324  10.502   3.624
27442SOL     OW82349   4.059  10.745   2.923
27442SOL    HW182350   3.981  10.714   2.870
27442SOL    HW282351   4.117  10.803   2.866
27443SOL     OW82352   5.184  10.815   3.201
27443SOL    HW182353   5.208  10.909   3.227
27443SOL    HW282354   5.168  10.761   3.283
27444SOL     OW82355   4.162   9.702   3.361
27444SOL    HW182356   4.244   9.646   3.370
27444SOL    HW282357   4.081   9.644   3.365
27445SOL     OW82358   5.327   9.757   2.599
27445SOL    HW182359   5.253   9.803   2.549
27445SOL    HW282360   5.378   9.825   2.652
27446SOL     OW82361   3.955  11.023   2.345
27446SOL    HW182362   3.989  11.100   2.399
27446SOL    HW282363   3.999  11.023   2.255
27447SOL     OW82364   4.851  10.651   3.552
27447SOL    HW182365   4.898  10.651   3.640
27447SOL    HW282366   4.803  10.564   3.541
27448SOL     OW82367   3.954  10.744   2.400
27448SOL    HW182368   3.928  10.840   2.400
27448SOL    HW282369   3.883  10.690   2.445
27449SOL     OW82370   3.964  10.401   2.748
27449SOL    HW182371   3.978  10.317   2.800
27449SOL    HW282372   3.909  10.465   2.803
27450SOL     OW82373   4.344  11.096   3.301
27450SOL    HW182374   4.252  11.079   3.336
27450SOL    HW282375   4.372  11.188   3.327
27451SOL     OW82376   4.330  10.274   1.985
27451SOL    HW182377   4.337  10.358   1.931
27451SOL    HW282378   4.376  10.287   2.073
27452SOL     OW82379   5.318   9.424   3.342
27452SOL    HW182380   5.300   9.491   3.270
27452SOL    HW282381   5.315   9.470   3.431
27453SOL     OW82382   3.846   9.953   2.425
27453SOL    HW182383   3.801   9.865   2.442
27453SOL    HW282384   3.845  10.007   2.509
27454SOL     OW82385   5.566  11.077   2.221
27454SOL    HW182386   5.620  11.048   2.301
27454SOL    HW282387   5.596  11.167   2.192
27455SOL     OW82388   3.751  10.906   1.979
27455SOL    HW182389   3.732  10.810   2.000
27455SOL    HW282390   3.718  10.964   2.054
27456SOL     OW82391   5.413  10.232   2.474
27456SOL    HW182392   5.508  10.203   2.482
27456SOL    HW282393   5.405  10.297   2.399
27457SOL     OW82394   5.365  10.418   2.294
27457SOL    HW182395   5.451  10.420   2.242
27457SOL    HW282396   5.379  10.465   2.382
27458SOL     OW82397   3.837  10.047   3.459
27458SOL    HW182398   3.925  10.034   3.504
27458SOL    HW282399   3.824  10.144   3.437
27459SOL     OW82400   4.337  10.675   2.588
27459SOL    HW182401   4.288  10.588   2.597
27459SOL    HW282402   4.314  10.718   2.501
27460SOL     OW82403   5.017  10.538   3.285
27460SOL    HW182404   5.054  10.465   3.227
27460SOL    HW282405   5.069  10.543   3.370
27461SOL     OW82406   4.533   9.314   2.364
27461SOL    HW182407   4.573   9.405   2.355
27461SOL    HW282408   4.433   9.322   2.370
27462SOL     OW82409   3.921  10.286   3.126
27462SOL    HW182410   4.010  10.241   3.112
27462SOL    HW282411   3.848  10.221   3.107
27463SOL     OW82412   5.249  10.309   2.052
27463SOL    HW182413   5.186  10.233   2.065
27463SOL    HW282414   5.297  10.327   2.138
27464SOL     OW82415   4.911  11.102   3.478
27464SOL    HW182416   4.935  11.162   3.402
27464SOL    HW282417   4.918  11.007   3.448
27465SOL     OW82418   4.041   9.561   3.663
27465SOL    HW182419   4.112   9.632   3.669
27465SOL    HW282420   3.953   9.600   3.691
27466SOL     OW82421   5.190  10.727   2.815
27466SOL    HW182422   5.131  10.733   2.895
27466SOL    HW282423   5.175  10.639   2.769
27467SOL     OW82424   5.391  11.024   2.434
27467SOL    HW182425   5.350  11.001   2.346
27467SOL    HW282426   5.373  10.950   2.499
27468SOL     OW82427   4.322  10.039   2.132
27468SOL    HW182428   4.346  10.108   2.064
27468SOL    HW282429   4.244  10.072   2.186
27469SOL     OW82430   5.005   9.655   2.806
27469SOL    HW182431   4.919   9.605   2.793
27469SOL    HW282432   5.067   9.601   2.862
27470SOL     OW82433   5.300  10.972   2.169
27470SOL    HW182434   5.389  11.018   2.172
27470SOL    HW282435   5.279  10.948   2.074
27471SOL     OW82436   4.531   9.915   3.327
27471SOL    HW182437   4.484   9.912   3.416
27471SOL    HW282438   4.480   9.860   3.261
27472SOL     OW82439   5.118   9.779   3.536
27472SOL    HW182440   5.098   9.822   3.624
27472SOL    HW282441   5.196   9.717   3.545
27473SOL     OW82442   4.697  10.200   3.434
27473SOL    HW182443   4.743  10.116   3.405
27473SOL    HW282444   4.641  10.234   3.359
27474SOL     OW82445   4.715   9.720   3.104
27474SOL    HW182446   4.638   9.754   3.158
27474SOL    HW282447   4.681   9.669   3.025
27475SOL     OW82448   4.765  10.011   2.291
27475SOL    HW182449   4.791  10.007   2.387
27475SOL    HW282450   4.680   9.960   2.277
27476SOL     OW82451   3.800  10.121   2.651
27476SOL    HW182452   3.899  10.109   2.660
27476SOL    HW282453   3.776  10.216   2.672
27477SOL     OW82454   3.854  11.131   3.433
27477SOL    HW182455   3.844  11.116   3.532
27477SOL    HW282456   3.768  11.167   3.397
27478SOL     OW82457   4.589   9.658   2.057
27478SOL    HW182458   4.648   9.721   2.008
27478SOL    HW282459   4.608   9.564   2.028
27479SOL     OW82460   5.443   9.895   3.693
27479SOL    HW182461   5.417   9.984   3.657
27479SOL    HW282462   5.441   9.827   3.620
27480SOL     OW82463   5.086  10.454   2.407
27480SOL    HW182464   5.169  10.425   2.359
27480SOL    HW282465   5.037  10.521   2.351
27481SOL     OW82466   4.274   9.506   2.747
27481SOL    HW182467   4.269   9.501   2.847
27481SOL    HW282468   4.276   9.602   2.718
27482SOL     OW82469   4.732  10.766   2.339
27482SOL    HW182470   4.686  10.838   2.287
27482SOL    HW282471   4.728  10.786   2.437
27483SOL     OW82472   4.075  11.111   2.715
27483SOL    HW182473   4.125  11.025   2.721
27483SOL    HW282474   4.140  11.188   2.712
27484SOL     OW82475   5.519  10.376   2.735
27484SOL    HW182476   5.457  10.361   2.659
27484SOL    HW282477   5.467  10.387   2.820
27485SOL     OW82478   4.951  10.860   3.368
27485SOL    HW182479   4.957  10.783   3.432
27485SOL    HW282480   4.899  10.834   3.288
27486SOL     OW82481   4.045  10.253   2.104
27486SOL    HW182482   4.127  10.292   2.062
27486SOL    HW282483   4.018  10.171   2.055
27487SOL     OW82484   5.182  10.045   2.590
27487SOL    HW182485   5.177   9.980   2.665
27487SOL    HW282486   5.262  10.104   2.603
27488SOL     OW82487   4.185  10.576   3.589
27488SOL    HW182488   4.135  10.577   3.503
27488SOL    HW282489   4.122  10.558   3.665
27489SOL     OW82490   4.835  11.086   2.099
27489SOL    HW182491   4.775  11.024   2.149
27489SOL    HW282492   4.866  11.042   2.014
27490SOL     OW82493   3.926   9.595   3.360
27490SOL    HW182494   3.846   9.655   3.347
27490SOL    HW282495   3.916   9.546   3.446
27491SOL     OW82496   5.356  10.687   1.943
27491SOL    HW182497   5.324  10.781   1.933
27491SOL    HW282498   5.280  10.624   1.931
27492SOL     OW82499   4.188  11.053   2.185
27492SOL    HW182500   4.221  11.092   2.271
27492SOL    HW282501   4.264  11.046   2.120
27493SOL     OW82502   5.124   9.417   2.288
27493SOL    HW182503   5.100   9.380   2.198
27493SOL    HW282504   5.223   9.433   2.292
27494SOL     OW82505   3.973  11.095   3.103
27494SOL    HW182506   4.030  11.030   3.153
27494SOL    HW282507   3.957  11.062   3.010
27495SOL     OW82508   4.664  11.008   2.766
27495SOL    HW182509   4.744  10.951   2.787
27495SOL    HW282510   4.615  10.968   2.689
27496SOL     OW82511   4.106  10.010   2.342
27496SOL    HW182512   4.151   9.920   2.339
27496SOL    HW282513   4.012   9.999   2.375
27497SOL     OW82514   5.271   9.532   3.591
27497SOL    HW182515   5.266   9.569   3.683
27497SOL    HW282516   5.199   9.463   3.579
27498SOL     OW82517   4.338   9.432   1.979
27498SOL    HW182518   4.436   9.410   1.986
27498SOL    HW282519   4.307   9.415   1.886
27499SOL     OW82520   4.505   9.574   3.611
27499SOL    HW182521   4.572   9.513   3.654
27499SOL    HW282522   4.432   9.593   3.676
27500SOL     OW82523   4.612  10.824   3.057
27500SOL    HW182524   4.589  10.799   2.963
27500SOL    HW282525   4.673  10.755   3.096
27501SOL     OW82526   5.075   9.900   3.295
27501SOL    HW182527   5.103   9.857   3.380
27501SOL    HW282528   5.100   9.996   3.296
27502SOL     OW82529   4.527  10.712   2.786
27502SOL    HW182530   4.617  10.726   2.744
27502SOL    HW282531   4.456  10.714   2.715
27503SOL     OW82532   4.646   9.813   2.761
27503SOL    HW182533   4.621   9.804   2.665
27503SOL    HW282534   4.694   9.731   2.792
27504SOL     OW82535   4.263   9.374   2.374
27504SOL    HW182536   4.182   9.375   2.432
27504SOL    HW282537   4.266   9.457   2.319
27505SOL     OW82538   5.158  10.498   1.903
27505SOL    HW182539   5.190  10.422   1.960
27505SOL    HW282540   5.066  10.525   1.933
27506SOL     OW82541   4.021   9.345   2.033
27506SOL    HW182542   4.070   9.429   2.012
27506SOL    HW282543   4.083   9.280   2.078
27507SOL     OW82544   4.659   9.546   2.342
27507SOL    HW182545   4.611   9.587   2.264
27507SOL    HW282546   4.758   9.544   2.323
27508SOL     OW82547   4.800   9.993   3.326
27508SOL    HW182548   4.720   9.932   3.329
27508SOL    HW282549   4.881   9.940   3.302
27509SOL     OW82550   4.951  10.880   2.655
27509SOL    HW182551   4.972  10.954   2.590
27509SOL    HW282552   5.019  10.880   2.728
27510SOL     OW82553   4.183  10.462   2.603
27510SOL    HW182554   4.112  10.435   2.668
27510SOL    HW282555   4.157  10.434   2.510
27511SOL     OW82556   4.995  11.107   2.453
27511SOL    HW182557   5.039  11.171   2.389
27511SOL    HW282558   4.945  11.159   2.523
27512SOL     OW82559   4.756   9.859   1.878
27512SOL    HW182560   4.715   9.941   1.839
27512SOL    HW282561   4.820   9.885   1.951
27513SOL     OW82562   3.802   9.866   3.248
27513SOL    HW182563   3.894   9.865   3.207
27513SOL    HW282564   3.796   9.940   3.315
27514SOL     OW82565   4.285   9.532   3.009
27514SOL    HW182566   4.323   9.448   3.046
27514SOL    HW282567   4.197   9.551   3.053
27515SOL     OW82568   4.590   9.764   2.504
27515SOL    HW182569   4.558   9.836   2.442
27515SOL    HW282570   4.614   9.683   2.451
27516SOL     OW82571   4.741   9.349   2.615
27516SOL    HW182572   4.669   9.354   2.546
27516SOL    HW282573   4.717   9.280   2.684
27517SOL     OW82574   5.153  10.483   2.729
27517SOL    HW182575   5.098  10.399   2.722
27517SOL    HW282576   5.179  10.512   2.637
27518SOL     OW82577   5.190   9.900   2.854
27518SOL    HW182578   5.160   9.805   2.861
27518SOL    HW282579   5.263   9.916   2.920
27519SOL     OW82580   5.581  10.143   2.239
27519SOL    HW182581   5.623  10.079   2.303
27519SOL    HW282582   5.543  10.092   2.161
27520SOL     OW82583   4.212  10.695   2.036
27520SOL    HW182584   4.125  10.680   2.083
27520SOL    HW282585   4.195  10.721   1.941
27521SOL     OW82586   5.388  10.590   2.519
27521SOL    HW182587   5.487  10.598   2.533
27521SOL    HW282588   5.343  10.674   2.550
27522SOL     OW82589   5.114   9.885   1.940
27522SOL    HW182590   5.060   9.864   2.021
27522SOL    HW282591   5.205   9.844   1.949
27523SOL     OW82592   4.251   9.566   2.190
27523SOL    HW182593   4.278   9.507   2.115
27523SOL    HW282594   4.251   9.661   2.159
27524SOL     OW82595   5.478  10.533   3.450
27524SOL    HW182596   5.569  10.494   3.437
27524SOL    HW282597   5.486  10.629   3.474
27525SOL     OW82598   4.788  10.657   3.202
27525SOL    HW182599   4.708  10.634   3.257
27525SOL    HW282600   4.871  10.631   3.251
27526SOL     OW82601   5.316  10.939   3.487
27526SOL    HW182602   5.343  10.973   3.397
27526SOL    HW282603   5.395  10.901   3.533
27527SOL     OW82604   4.835  10.505   2.962
27527SOL    HW182605   4.795  10.549   3.043
27527SOL    HW282606   4.794  10.542   2.879
27528SOL     OW82607   5.362  10.409   2.941
27528SOL    HW182608   5.367  10.490   3.000
27528SOL    HW282609   5.276  10.411   2.890
27529SOL     OW82610   4.639   9.399   3.264
27529SOL    HW182611   4.664   9.379   3.169
27529SOL    HW282612   4.711   9.455   3.306
27530SOL     OW82613   4.704  10.426   3.581
27530SOL    HW182614   4.605  10.432   3.591
27530SOL    HW282615   4.727  10.346   3.525
27531SOL     OW82616   4.429  10.360   2.230
27531SOL    HW182617   4.415  10.367   2.329
27531SOL    HW282618   4.513  10.309   2.212
27532SOL     OW82619   4.134  10.123   3.113
27532SOL    HW182620   4.220  10.135   3.163
27532SOL    HW282621   4.092  10.036   3.140
27533SOL     OW82622   4.998   9.696   3.124
27533SOL    HW182623   5.019   9.770   3.188
27533SOL    HW282624   4.909   9.713   3.081
27534SOL     OW82625   3.788  10.874   3.193
27534SOL    HW182626   3.742  10.956   3.159
27534SOL    HW282627   3.886  10.893   3.202
27535SOL     OW82628   4.091  10.410   2.363
27535SOL    HW182629   4.084  10.493   2.307
27535SOL    HW282630   4.095  10.330   2.303
27536SOL     OW82631   4.290   9.847   2.727
27536SOL    HW182632   4.302   9.913   2.653
27536SOL    HW282633   4.336   9.881   2.810
27537SOL     OW82634   4.976  10.658   2.250
27537SOL    HW182635   5.026  10.735   2.290
27537SOL    HW282636   4.881  10.660   2.282
27538SOL     OW82637   4.996  10.755   3.004
27538SOL    HW182638   5.043  10.768   3.091
27538SOL    HW282639   4.930  10.681   3.013
27539SOL     OW82640   5.306   9.949   2.334
27539SOL    HW182641   5.275  10.010   2.407
27539SOL    HW282642   5.356  10.001   2.265
27540SOL     OW82643   4.078  10.820   3.191
27540SOL    HW182644   4.057  10.776   3.104
27540SOL    HW282645   4.175  10.846   3.194
27541SOL     OW82646   4.126  10.061   3.460
27541SOL    HW182647   4.194  10.116   3.413
27541SOL    HW282648   4.166   9.973   3.487
27542SOL     OW82649   5.311  10.089   3.532
27542SOL    HW182650   5.219  10.127   3.527
27542SOL    HW282651   5.371  10.136   3.467
27543SOL     OW82652   4.737   9.415   3.632
27543SOL    HW182653   4.743   9.500   3.580
27543SOL    HW282654   4.769   9.339   3.575
27544SOL     OW82655   4.228   9.360   3.602
27544SOL    HW182656   4.186   9.303   3.532
27544SOL    HW282657   4.162   9.429   3.634
27545SOL     OW82658   4.297  10.180   2.891
27545SOL    HW182659   4.341  10.269   2.882
27545SOL    HW282660   4.234  10.180   2.968
27546SOL     OW82661   5.084  10.172   2.907
27546SOL    HW182662   5.009  10.172   2.841
27546SOL    HW282663   5.121  10.080   2.916
27547SOL     OW82664   4.933   9.835   2.137
27547SOL    HW182665   4.946   9.751   2.191
27547SOL    HW282666   4.904   9.909   2.197
27548SOL     OW82667   4.031   9.523   3.093
27548SOL    HW182668   4.008   9.560   3.183
27548SOL    HW282669   4.001   9.428   3.087
27549SOL     OW82670   3.761  10.620   3.144
27549SOL    HW182671   3.814  10.571   3.212
27549SOL    HW282672   3.783  10.718   3.149
27550SOL     OW82673   4.456   9.944   2.926
27550SOL    HW182674   4.515   9.918   2.850
27550SOL    HW282675   4.428  10.040   2.915
27551SOL     OW82676   5.452  10.245   3.716
27551SOL    HW182677   5.406  10.238   3.627
27551SOL    HW282678   5.390  10.289   3.782
27552SOL     OW82679   4.031   9.373   2.480
27552SOL    HW182680   4.020   9.467   2.513
27552SOL    HW282681   4.026   9.310   2.557
27553SOL     OW82682   5.346   9.677   2.236
27553SOL    HW182683   5.348   9.601   2.300
27553SOL    HW282684   5.298   9.754   2.276
27554SOL     OW82685   4.747  10.076   2.828
27554SOL    HW182686   4.762  10.097   2.924
27554SOL    HW282687   4.717   9.981   2.819
27555SOL     OW82688   4.704  10.883   3.562
27555SOL    HW182689   4.684  10.927   3.474
27555SOL    HW282690   4.743  10.792   3.546
27556SOL     OW82691   5.583  10.828   3.467
27556SOL    HW182692   5.597  10.855   3.372
27556SOL    HW282693   5.666  10.850   3.520
27557SOL     OW82694   4.074  10.208   3.666
27557SOL    HW182695   4.150  10.252   3.714
27557SOL    HW282696   4.109  10.161   3.584
27558SOL     OW82697   5.264   9.584   1.987
27558SOL    HW182698   5.203   9.509   2.010
27558SOL    HW282699   5.286   9.636   2.070
27559SOL     OW82700   5.027  10.148   1.904
27559SOL    HW182701   5.061  10.055   1.919
27559SOL    HW282702   5.045  10.175   1.809
27560SOL     OW82703   4.792  10.643   2.711
27560SOL    HW182704   4.799  10.559   2.656
27560SOL    HW282705   4.854  10.712   2.675
27561SOL     OW82706   4.043  10.120   2.811
27561SOL    HW182707   4.136  10.156   2.816
27561SOL    HW282708   4.037  10.035   2.863
27562SOL     OW82709   4.063   9.819   2.868
27562SOL    HW182710   4.011   9.736   2.851
27562SOL    HW282711   4.140   9.824   2.804
27563SOL     OW82712   4.862   9.690   3.540
27563SOL    HW182713   4.817   9.753   3.604
27563SOL    HW282714   4.955   9.721   3.523
27564SOL     OW82715   4.884   9.517   3.339
27564SOL    HW182716   4.884   9.581   3.416
27564SOL    HW282717   4.912   9.565   3.256
27565SOL     OW82718   3.732  10.636   2.062
27565SOL    HW182719   3.639  10.657   2.031
27565SOL    HW282720   3.742  10.537   2.075
27566SOL     OW82721   3.812  11.111   2.789
27566SOL    HW182722   3.770  11.025   2.762
27566SOL    HW282723   3.906  11.114   2.755
27567SOL     OW82724   4.228  10.878   2.772
27567SOL    HW182725   4.294  10.952   2.781
27567SOL    HW282726   4.272  10.799   2.730
27568SOL     OW82727   4.726  10.106   3.100
27568SOL    HW182728   4.767  10.074   3.186
27568SOL    HW282729   4.630  10.079   3.097
27569SOL     OW82730   3.764   9.854   2.976
27569SOL    HW182731   3.849   9.821   2.935
27569SOL    HW282732   3.777   9.869   3.074
27570SOL     OW82733   3.913   9.830   3.584
27570SOL    HW182734   3.972   9.790   3.514
27570SOL    HW282735   3.855   9.901   3.543
27571SOL     OW82736   5.093  10.260   3.522
27571SOL    HW182737   5.132  10.349   3.542
27571SOL    HW282738   5.103  10.240   3.425
27572SOL     OW82739   4.539   9.882   2.187
27572SOL    HW182740   4.546   9.793   2.141
27572SOL    HW282741   4.445   9.916   2.179
27573SOL     OW82742   5.381   9.914   3.068
27573SOL    HW182743   5.343   9.845   3.130
27573SOL    HW282744   5.463   9.878   3.024
27574SOL     OW82745   3.976  10.874   3.606
27574SOL    HW182746   3.946  10.931   3.682
27574SOL    HW282747   3.969  10.777   3.632
27575SOL     OW82748   4.395   9.774   3.131
27575SOL    HW182749   4.361   9.685   3.101
27575SOL    HW282750   4.421   9.828   3.051
27576SOL     OW82751   4.654  10.988   3.327
27576SOL    HW182752   4.630  10.970   3.232
27576SOL    HW282753   4.684  11.082   3.337
27577SOL     OW82754   4.197   9.810   2.053
27577SOL    HW182755   4.258   9.890   2.057
27577SOL    HW282756   4.102   9.841   2.060
27578SOL     OW82757   3.883  10.447   3.328
27578SOL    HW182758   3.905  10.386   3.404
27578SOL    HW282759   3.893  10.398   3.242
27579SOL     OW82760   5.071  10.369   3.096
27579SOL    HW182761   5.095  10.306   3.022
27579SOL    HW282762   4.981  10.409   3.078
27580SOL     OW82763   5.026  10.165   2.171
27580SOL    HW182764   4.940  10.134   2.213
27580SOL    HW282765   5.022  10.151   2.072
27581SOL     OW82766   5.483  11.057   3.016
27581SOL    HW182767   5.544  11.087   2.943
27581SOL    HW282768   5.445  10.968   2.994
27582SOL     OW82769   4.976  11.041   2.990
27582SOL    HW182770   5.060  11.046   2.936
27582SOL    HW282771   4.953  10.945   3.008
27583SOL     OW82772   3.807  10.568   2.884
27583SOL    HW182773   3.802  10.567   2.984
27583SOL    HW282774   3.724  10.527   2.846
27584SOL     OW82775   4.412  10.972   3.578
27584SOL    HW182776   4.356  11.053   3.587
27584SOL    HW282777   4.464  10.976   3.492
27585SOL     OW82778   5.450   9.445   2.385
27585SOL    HW182779   5.523   9.428   2.318
27585SOL    HW282780   5.419   9.358   2.423
27586SOL     OW82781   5.112  10.883   2.339
27586SOL    HW182782   5.179  10.895   2.265
27586SOL    HW282783   5.072  10.972   2.362
27587SOL     OW82784   3.854  11.104   3.713
27587SOL    HW182785   3.813  11.030   3.766
27587SOL    HW282786   3.918  11.155   3.771
27588SOL     OW82787   5.004  10.237   2.534
27588SOL    HW182788   5.064  10.156   2.536
27588SOL    HW282789   5.044  10.306   2.474
27589SOL     OW82790   4.554  10.583   3.284
27589SOL    HW182791   4.549  10.616   3.379
27589SOL    HW282792   4.468  10.602   3.238
27590SOL     OW82793   4.396  10.926   2.016
27590SOL    HW182794   4.405  10.936   1.917
27590SOL    HW282795   4.356  10.837   2.037
27591SOL     OW82796   5.374  11.030   3.256
27591SOL    HW182797   5.427  11.040   3.172
27591SOL    HW282798   5.347  11.120   3.290
27592SOL     OW82799   5.565   9.485   2.825
27592SOL    HW182800   5.604   9.400   2.789
27592SOL    HW282801   5.467   9.487   2.806
27593SOL     OW82802   3.987   9.636   2.582
27593SOL    HW182803   3.908   9.687   2.548
27593SOL    HW282804   3.978   9.621   2.680
27594SOL     OW82805   4.918  10.922   1.893
27594SOL    HW182806   4.924  10.829   1.930
27594SOL    HW282807   4.859  10.922   1.813
27595SOL     OW82808   4.546  10.312   3.234
27595SOL    HW182809   4.586  10.311   3.142
27595SOL    HW282810   4.556  10.404   3.274
27596SOL     OW82811   4.640  10.220   2.153
27596SOL    HW182812   4.703  10.258   2.085
27596SOL    HW282813   4.680  10.137   2.192
27597SOL     OW82814   5.228  10.917   1.906
27597SOL    HW182815   5.136  10.954   1.913
27597SOL    HW282816   5.266  10.937   1.816
27598SOL     OW82817   4.096  10.598   3.352
27598SOL    HW182818   4.083  10.691   3.318
27598SOL    HW282819   4.012  10.546   3.339
27599SOL     OW82820   5.338  10.602   3.151
27599SOL    HW182821   5.398  10.605   3.231
27599SOL    HW282822   5.263  10.666   3.164
27600SOL     OW82823   4.763  10.408   2.558
27600SOL    HW182824   4.693  10.361   2.612
27600SOL    HW282825   4.822  10.340   2.515
27601SOL     OW82826   4.738   9.546   2.833
27601SOL    HW182827   4.730   9.510   2.740
27601SOL    HW282828   4.736   9.470   2.898
27602SOL     OW82829   4.314  10.797   2.353
27602SOL    HW182830   4.356  10.739   2.283
27602SOL    HW282831   4.270  10.876   2.309
27603SOL     OW82832   5.433   9.695   3.243
27603SOL    HW182833   5.506   9.764   3.247
27603SOL    HW282834   5.461   9.620   3.184
27604SOL     OW82835   3.979  10.658   2.152
27604SOL    HW182836   3.883  10.659   2.125
27604SOL    HW282837   3.991  10.711   2.236
27605SOL     OW82838   3.829  10.323   3.588
27605SOL    HW182839   3.752  10.290   3.642
27605SOL    HW282840   3.914  10.293   3.630
27606SOL     OW82841   4.396   9.513   3.351
27606SOL    HW182842   4.486   9.497   3.311
27606SOL    HW282843   4.404   9.518   3.450
27607SOL     OW82844   3.799   9.655   1.895
27607SOL    HW182845   3.707   9.627   1.866
27607SOL    HW282846   3.830   9.732   1.839
27608SOL     OW82847   5.164  10.166   3.260
27608SOL    HW182848   5.107  10.218   3.197
27608SOL    HW282849   5.260  10.178   3.236
27609SOL     OW82850   3.796   9.476   2.180
27609SOL    HW182851   3.779   9.559   2.126
27609SOL    HW282852   3.886   9.439   2.158
27610SOL     OW82853   4.907  10.645   1.981
27610SOL    HW182854   4.808  10.634   1.983
27610SOL    HW282855   4.941  10.660   2.074
27611SOL     OW82856   4.337  10.152   3.293
27611SOL    HW182857   4.393  10.233   3.276
27611SOL    HW282858   4.396  10.072   3.296
27612SOL     OW82859   5.217  11.077   2.821
27612SOL    HW182860   5.250  11.141   2.752
27612SOL    HW282861   5.283  11.071   2.896
27613SOL     OW82862   4.440   9.875   3.570
27613SOL    HW182863   4.459   9.940   3.644
27613SOL    HW282864   4.500   9.795   3.579
27614SOL     OW82865   5.174  10.530   3.495
27614SOL    HW182866   5.165  10.520   3.594
27614SOL    HW282867   5.270  10.523   3.469
27615SOL     OW82868   4.114  11.051   3.422
27615SOL    HW182869   4.023  11.092   3.420
27615SOL    HW282870   4.107  10.957   3.454
27616SOL     OW82871   5.398  10.193   3.116
27616SOL    HW182872   5.371  10.104   3.079
27616SOL    HW282873   5.399  10.261   3.043
27617SOL     OW82874   4.949   9.635   2.311
27617SOL    HW182875   5.014   9.561   2.300
27617SOL    HW282876   4.969   9.685   2.395
27618SOL     OW82877   4.318  10.055   2.514
27618SOL    HW182878   4.368  10.140   2.495
27618SOL    HW282879   4.230  10.057   2.466
27619SOL     OW82880   5.501   9.652   3.504
27619SOL    HW182881   5.484   9.683   3.410
27619SOL    HW282882   5.417   9.615   3.542
27620SOL     OW82883   5.454  10.244   3.379
27620SOL    HW182884   5.492  10.335   3.394
27620SOL    HW282885   5.446  10.227   3.280
27621SOL     OW82886   4.583  10.684   1.878
27621SOL    HW182887   4.537  10.699   1.966
27621SOL    HW282888   4.627  10.769   1.848
27622SOL     OW82889   4.385  11.100   2.815
27622SOL    HW182890   4.339  11.188   2.802
27622SOL    HW282891   4.484  11.112   2.808
27623SOL     OW82892   4.583  10.266   2.723
27623SOL    HW182893   4.637  10.197   2.771
27623SOL    HW282894   4.551  10.335   2.789
27624SOL     OW82895   4.807  10.294   1.949
27624SOL    HW182896   4.784  10.347   1.867
27624SOL    HW282897   4.888  10.238   1.930
27625SOL     OW82898   5.585  10.879   2.713
27625SOL    HW182899   5.514  10.867   2.643
27625SOL    HW282900   5.586  10.800   2.773
27626SOL     OW82901   3.945  10.624   3.706
27626SOL    HW182902   3.880  10.551   3.685
27626SOL    HW282903   3.949  10.638   3.804
27627SOL     OW82904   3.803  10.550   2.515
27627SOL    HW182905   3.802  10.503   2.603
27627SOL    HW282906   3.885  10.522   2.464
27628SOL     OW82907   4.396  10.701   3.486
27628SOL    HW182908   4.318  10.651   3.524
27628SOL    HW282909   4.393  10.796   3.517
27629SOL     OW82910   5.548   9.502   3.089
27629SOL    HW182911   5.544   9.412   3.133
27629SOL    HW282912   5.551   9.491   2.990
27630SOL     OW82913   4.152   9.734   2.382
27630SOL    HW182914   4.182   9.662   2.320
27630SOL    HW282915   4.113   9.694   2.465
27631SOL     OW82916   5.429  10.797   2.966
27631SOL    HW182917   5.336  10.772   2.939
27631SOL    HW282918   5.455  10.747   3.048
27632SOL     OW82919   4.041   9.857   3.142
27632SOL    HW182920   4.079   9.798   3.214
27632SOL    HW282921   4.081   9.831   3.054
27633SOL     OW82922   4.536  10.896   2.549
27633SOL    HW182923   4.568  10.906   2.455
27633SOL    HW282924   4.457  10.834   2.551
27634SOL     OW82925   5.148   9.524   2.974
27634SOL    HW182926   5.200   9.459   3.029
27634SOL    HW282927   5.099   9.587   3.035
27635SOL     OW82928   4.725   9.344   3.016
27635SOL    HW182929   4.662   9.272   2.985
27635SOL    HW282930   4.818   9.308   3.016
27636SOL     OW82931   4.494  10.640   2.163
27636SOL    HW182932   4.448  10.553   2.180
27636SOL    HW282933   4.585  10.637   2.204
27637SOL     OW82934   4.342  10.877   3.146
27637SOL    HW182935   4.337  10.959   3.203
27637SOL    HW282936   4.431  10.874   3.101
27638SOL     OW82937   5.076   9.362   2.030
27638SOL    HW182938   5.111   9.321   1.946
27638SOL    HW282939   4.986   9.324   2.050
27639SOL     OW82940   5.024   9.763   2.553
27639SOL    HW182941   4.965   9.843   2.557
27639SOL    HW282942   5.039   9.728   2.646
27640SOL     OW82943   5.317   9.531   2.744
27640SOL    HW182944   5.233   9.530   2.798
27640SOL    HW282945   5.319   9.614   2.688
27641SOL     OW82946   3.763  10.387   2.162
27641SOL    HW182947   3.862  10.376   2.153
27641SOL    HW282948   3.723  10.301   2.194
27642SOL     OW82949   4.599  10.956   2.199
27642SOL    HW182950   4.522  10.921   2.145
27642SOL    HW282951   4.567  11.027   2.261
27643SOL     OW82952   3.954   9.938   3.837
27643SOL    HW182953   3.861   9.936   3.874
27643SOL    HW282954   3.955   9.899   3.745
27644SOL     OW82955   3.949   9.585   4.720
27644SOL    HW182956   3.984   9.568   4.812
27644SOL    HW282957   3.861   9.540   4.708
27645SOL     OW82958   3.743   9.678   4.371
27645SOL    HW182959   3.661   9.721   4.410
27645SOL    HW282960   3.715   9.605   4.308
27646SOL     OW82961   4.293  10.585   4.889
27646SOL    HW182962   4.200  10.578   4.852
27646SOL    HW282963   4.304  10.674   4.933
27647SOL     OW82964   5.279  10.821   4.427
27647SOL    HW182965   5.222  10.805   4.508
27647SOL    HW282966   5.220  10.831   4.347
27648SOL     OW82967   4.859  10.013   4.441
27648SOL    HW182968   4.916  10.091   4.416
27648SOL    HW282969   4.799  10.039   4.517
27649SOL     OW82970   5.479   9.917   3.955
27649SOL    HW182971   5.467   9.904   3.856
27649SOL    HW282972   5.449   9.836   4.004
27650SOL     OW82973   4.492  10.454   4.747
27650SOL    HW182974   4.414  10.471   4.807
27650SOL    HW282975   4.526  10.541   4.711
27651SOL     OW82976   4.574  10.108   5.547
27651SOL    HW182977   4.570  10.184   5.612
27651SOL    HW282978   4.596  10.144   5.456
27652SOL     OW82979   4.409  10.322   4.389
27652SOL    HW182980   4.478  10.306   4.459
27652SOL    HW282981   4.336  10.379   4.427
27653SOL     OW82982   4.410  10.471   5.527
27653SOL    HW182983   4.470  10.550   5.541
27653SOL    HW282984   4.324  10.502   5.486
27654SOL     OW82985   4.059  10.745   4.785
27654SOL    HW182986   3.981  10.714   4.732
27654SOL    HW282987   4.117  10.803   4.728
27655SOL     OW82988   5.184  10.815   5.063
27655SOL    HW182989   5.208  10.909   5.089
27655SOL    HW282990   5.168  10.761   5.145
27656SOL     OW82991   4.162   9.702   5.223
27656SOL    HW182992   4.244   9.646   5.232
27656SOL    HW282993   4.081   9.644   5.227
27657SOL     OW82994   5.327   9.757   4.461
27657SOL    HW182995   5.253   9.803   4.411
27657SOL    HW282996   5.378   9.825   4.514
27658SOL     OW82997   3.955  11.023   4.207
27658SOL    HW182998   3.989  11.100   4.261
27658SOL    HW282999   3.999  11.023   4.117
27659SOL     OW83000   4.851  10.651   5.414
27659SOL    HW183001   4.898  10.651   5.502
27659SOL    HW283002   4.803  10.564   5.403
27660SOL     OW83003   3.954  10.744   4.262
27660SOL    HW183004   3.928  10.840   4.262
27660SOL    HW283005   3.883  10.690   4.307
27661SOL     OW83006   3.964  10.401   4.610
27661SOL    HW183007   3.978  10.317   4.662
27661SOL    HW283008   3.909  10.465   4.665
27662SOL     OW83009   4.344  11.096   5.163
27662SOL    HW183010   4.252  11.079   5.198
27662SOL    HW283011   4.372  11.188   5.189
27663SOL     OW83012   4.330  10.274   3.847
27663SOL    HW183013   4.337  10.358   3.793
27663SOL    HW283014   4.376  10.287   3.935
27664SOL     OW83015   5.318   9.424   5.204
27664SOL    HW183016   5.300   9.491   5.132
27664SOL    HW283017   5.315   9.470   5.293
27665SOL     OW83018   3.846   9.953   4.287
27665SOL    HW183019   3.801   9.865   4.304
27665SOL    HW283020   3.845  10.007   4.371
27666SOL     OW83021   5.566  11.077   4.083
27666SOL    HW183022   5.620  11.048   4.163
27666SOL    HW283023   5.596  11.167   4.054
27667SOL     OW83024   3.751  10.906   3.841
27667SOL    HW183025   3.732  10.810   3.862
27667SOL    HW283026   3.718  10.964   3.916
27668SOL     OW83027   5.413  10.232   4.336
27668SOL    HW183028   5.508  10.203   4.344
27668SOL    HW283029   5.405  10.297   4.261
27669SOL     OW83030   5.365  10.418   4.156
27669SOL    HW183031   5.451  10.420   4.104
27669SOL    HW283032   5.379  10.465   4.244
27670SOL     OW83033   3.837  10.047   5.321
27670SOL    HW183034   3.925  10.034   5.366
27670SOL    HW283035   3.824  10.144   5.299
27671SOL     OW83036   4.337  10.675   4.450
27671SOL    HW183037   4.288  10.588   4.459
27671SOL    HW283038   4.314  10.718   4.363
27672SOL     OW83039   5.017  10.538   5.147
27672SOL    HW183040   5.054  10.465   5.089
27672SOL    HW283041   5.069  10.543   5.232
27673SOL     OW83042   4.533   9.314   4.226
27673SOL    HW183043   4.573   9.405   4.217
27673SOL    HW283044   4.433   9.322   4.232
27674SOL     OW83045   3.921  10.286   4.988
27674SOL    HW183046   4.010  10.241   4.974
27674SOL    HW283047   3.848  10.221   4.969
27675SOL     OW83048   5.249  10.309   3.914
27675SOL    HW183049   5.186  10.233   3.927
27675SOL    HW283050   5.297  10.327   4.000
27676SOL     OW83051   4.911  11.102   5.340
27676SOL    HW183052   4.935  11.162   5.264
27676SOL    HW283053   4.918  11.007   5.310
27677SOL     OW83054   4.041   9.561   5.525
27677SOL    HW183055   4.112   9.632   5.531
27677SOL    HW283056   3.953   9.600   5.553
27678SOL     OW83057   5.190  10.727   4.677
27678SOL    HW183058   5.131  10.733   4.757
27678SOL    HW283059   5.175  10.639   4.631
27679SOL     OW83060   5.391  11.024   4.296
27679SOL    HW183061   5.350  11.001   4.208
27679SOL    HW283062   5.373  10.950   4.361
27680SOL     OW83063   4.322  10.039   3.994
27680SOL    HW183064   4.346  10.108   3.926
27680SOL    HW283065   4.244  10.072   4.048
27681SOL     OW83066   5.005   9.655   4.668
27681SOL    HW183067   4.919   9.605   4.655
27681SOL    HW283068   5.067   9.601   4.724
27682SOL     OW83069   5.300  10.972   4.031
27682SOL    HW183070   5.389  11.018   4.034
27682SOL    HW283071   5.279  10.948   3.936
27683SOL     OW83072   4.531   9.915   5.189
27683SOL    HW183073   4.484   9.912   5.278
27683SOL    HW283074   4.480   9.860   5.123
27684SOL     OW83075   5.118   9.779   5.398
27684SOL    HW183076   5.098   9.822   5.486
27684SOL    HW283077   5.196   9.717   5.407
27685SOL     OW83078   4.697  10.200   5.296
27685SOL    HW183079   4.743  10.116   5.267
27685SOL    HW283080   4.641  10.234   5.221
27686SOL     OW83081   4.715   9.720   4.966
27686SOL    HW183082   4.638   9.754   5.020
27686SOL    HW283083   4.681   9.669   4.887
27687SOL     OW83084   4.765  10.011   4.153
27687SOL    HW183085   4.791  10.007   4.249
27687SOL    HW283086   4.680   9.960   4.139
27688SOL     OW83087   3.800  10.121   4.513
27688SOL    HW183088   3.899  10.109   4.522
27688SOL    HW283089   3.776  10.216   4.534
27689SOL     OW83090   3.854  11.131   5.295
27689SOL    HW183091   3.844  11.116   5.394
27689SOL    HW283092   3.768  11.167   5.259
27690SOL     OW83093   4.589   9.658   3.919
27690SOL    HW183094   4.648   9.721   3.870
27690SOL    HW283095   4.608   9.564   3.890
27691SOL     OW83096   5.443   9.895   5.555
27691SOL    HW183097   5.417   9.984   5.519
27691SOL    HW283098   5.441   9.827   5.482
27692SOL     OW83099   5.086  10.454   4.269
27692SOL    HW183100   5.169  10.425   4.221
27692SOL    HW283101   5.037  10.521   4.213
27693SOL     OW83102   4.274   9.506   4.609
27693SOL    HW183103   4.269   9.501   4.709
27693SOL    HW283104   4.276   9.602   4.580
27694SOL     OW83105   4.732  10.766   4.201
27694SOL    HW183106   4.686  10.838   4.149
27694SOL    HW283107   4.728  10.786   4.299
27695SOL     OW83108   4.075  11.111   4.577
27695SOL    HW183109   4.125  11.025   4.583
27695SOL    HW283110   4.140  11.188   4.574
27696SOL     OW83111   5.519  10.376   4.597
27696SOL    HW183112   5.457  10.361   4.521
27696SOL    HW283113   5.467  10.387   4.682
27697SOL     OW83114   4.951  10.860   5.230
27697SOL    HW183115   4.957  10.783   5.294
27697SOL    HW283116   4.899  10.834   5.150
27698SOL     OW83117   4.045  10.253   3.966
27698SOL    HW183118   4.127  10.292   3.924
27698SOL    HW283119   4.018  10.171   3.917
27699SOL     OW83120   5.182  10.045   4.452
27699SOL    HW183121   5.177   9.980   4.527
27699SOL    HW283122   5.262  10.104   4.465
27700SOL     OW83123   4.185  10.576   5.451
27700SOL    HW183124   4.135  10.577   5.365
27700SOL    HW283125   4.122  10.558   5.527
27701SOL     OW83126   4.835  11.086   3.961
27701SOL    HW183127   4.775  11.024   4.011
27701SOL    HW283128   4.866  11.042   3.876
27702SOL     OW83129   3.926   9.595   5.222
27702SOL    HW183130   3.846   9.655   5.209
27702SOL    HW283131   3.916   9.546   5.308
27703SOL     OW83132   5.356  10.687   3.805
27703SOL    HW183133   5.324  10.781   3.795
27703SOL    HW283134   5.280  10.624   3.793
27704SOL     OW83135   4.188  11.053   4.047
27704SOL    HW183136   4.221  11.092   4.133
27704SOL    HW283137   4.264  11.046   3.982
27705SOL     OW83138   5.124   9.417   4.150
27705SOL    HW183139   5.100   9.380   4.060
27705SOL    HW283140   5.223   9.433   4.154
27706SOL     OW83141   3.973  11.095   4.965
27706SOL    HW183142   4.030  11.030   5.015
27706SOL    HW283143   3.957  11.062   4.872
27707SOL     OW83144   4.664  11.008   4.628
27707SOL    HW183145   4.744  10.951   4.649
27707SOL    HW283146   4.615  10.968   4.551
27708SOL     OW83147   4.106  10.010   4.204
27708SOL    HW183148   4.151   9.920   4.201
27708SOL    HW283149   4.012   9.999   4.237
27709SOL     OW83150   5.271   9.532   5.453
27709SOL    HW183151   5.266   9.569   5.545
27709SOL    HW283152   5.199   9.463   5.441
27710SOL     OW83153   4.338   9.432   3.841
27710SOL    HW183154   4.436   9.410   3.848
27710SOL    HW283155   4.307   9.415   3.748
27711SOL     OW83156   4.505   9.574   5.473
27711SOL    HW183157   4.572   9.513   5.516
27711SOL    HW283158   4.432   9.593   5.538
27712SOL     OW83159   4.612  10.824   4.919
27712SOL    HW183160   4.589  10.799   4.825
27712SOL    HW283161   4.673  10.755   4.958
27713SOL     OW83162   5.075   9.900   5.157
27713SOL    HW183163   5.103   9.857   5.242
27713SOL    HW283164   5.100   9.996   5.158
27714SOL     OW83165   4.527  10.712   4.648
27714SOL    HW183166   4.617  10.726   4.606
27714SOL    HW283167   4.456  10.714   4.577
27715SOL     OW83168   4.646   9.813   4.623
27715SOL    HW183169   4.621   9.804   4.527
27715SOL    HW283170   4.694   9.731   4.654
27716SOL     OW83171   4.263   9.374   4.236
27716SOL    HW183172   4.182   9.375   4.294
27716SOL    HW283173   4.266   9.457   4.181
27717SOL     OW83174   5.158  10.498   3.765
27717SOL    HW183175   5.190  10.422   3.822
27717SOL    HW283176   5.066  10.525   3.795
27718SOL     OW83177   4.021   9.345   3.895
27718SOL    HW183178   4.070   9.429   3.874
27718SOL    HW283179   4.083   9.280   3.940
27719SOL     OW83180   4.659   9.546   4.204
27719SOL    HW183181   4.611   9.587   4.126
27719SOL    HW283182   4.758   9.544   4.185
27720SOL     OW83183   4.800   9.993   5.188
27720SOL    HW183184   4.720   9.932   5.191
27720SOL    HW283185   4.881   9.940   5.164
27721SOL     OW83186   4.951  10.880   4.517
27721SOL    HW183187   4.972  10.954   4.452
27721SOL    HW283188   5.019  10.880   4.590
27722SOL     OW83189   4.183  10.462   4.465
27722SOL    HW183190   4.112  10.435   4.530
27722SOL    HW283191   4.157  10.434   4.372
27723SOL     OW83192   4.995  11.107   4.315
27723SOL    HW183193   5.039  11.171   4.251
27723SOL    HW283194   4.945  11.159   4.385
27724SOL     OW83195   4.756   9.859   3.740
27724SOL    HW183196   4.715   9.941   3.701
27724SOL    HW283197   4.820   9.885   3.813
27725SOL     OW83198   3.802   9.866   5.110
27725SOL    HW183199   3.894   9.865   5.069
27725SOL    HW283200   3.796   9.940   5.177
27726SOL     OW83201   4.285   9.532   4.871
27726SOL    HW183202   4.323   9.448   4.908
27726SOL    HW283203   4.197   9.551   4.915
27727SOL     OW83204   4.590   9.764   4.366
27727SOL    HW183205   4.558   9.836   4.304
27727SOL    HW283206   4.614   9.683   4.313
27728SOL     OW83207   4.741   9.349   4.477
27728SOL    HW183208   4.669   9.354   4.408
27728SOL    HW283209   4.717   9.280   4.546
27729SOL     OW83210   5.153  10.483   4.591
27729SOL    HW183211   5.098  10.399   4.584
27729SOL    HW283212   5.179  10.512   4.499
27730SOL     OW83213   5.190   9.900   4.716
27730SOL    HW183214   5.160   9.805   4.723
27730SOL    HW283215   5.263   9.916   4.782
27731SOL     OW83216   5.581  10.143   4.101
27731SOL    HW183217   5.623  10.079   4.165
27731SOL    HW283218   5.543  10.092   4.023
27732SOL     OW83219   4.212  10.695   3.898
27732SOL    HW183220   4.125  10.680   3.945
27732SOL    HW283221   4.195  10.721   3.803
27733SOL     OW83222   5.388  10.590   4.381
27733SOL    HW183223   5.487  10.598   4.395
27733SOL    HW283224   5.343  10.674   4.412
27734SOL     OW83225   5.114   9.885   3.802
27734SOL    HW183226   5.060   9.864   3.883
27734SOL    HW283227   5.205   9.844   3.811
27735SOL     OW83228   4.251   9.566   4.052
27735SOL    HW183229   4.278   9.507   3.977
27735SOL    HW283230   4.251   9.661   4.021
27736SOL     OW83231   5.478  10.533   5.312
27736SOL    HW183232   5.569  10.494   5.299
27736SOL    HW283233   5.486  10.629   5.336
27737SOL     OW83234   4.788  10.657   5.064
27737SOL    HW183235   4.708  10.634   5.119
27737SOL    HW283236   4.871  10.631   5.113
27738SOL     OW83237   5.316  10.939   5.349
27738SOL    HW183238   5.343  10.973   5.259
27738SOL    HW283239   5.395  10.901   5.395
27739SOL     OW83240   4.835  10.505   4.824
27739SOL    HW183241   4.795  10.549   4.905
27739SOL    HW283242   4.794  10.542   4.741
27740SOL     OW83243   5.362  10.409   4.803
27740SOL    HW183244   5.367  10.490   4.862
27740SOL    HW283245   5.276  10.411   4.752
27741SOL     OW83246   4.639   9.399   5.126
27741SOL    HW183247   4.664   9.379   5.031
27741SOL    HW283248   4.711   9.455   5.168
27742SOL     OW83249   4.704  10.426   5.443
27742SOL    HW183250   4.605  10.432   5.453
27742SOL    HW283251   4.727  10.346   5.387
27743SOL     OW83252   4.429  10.360   4.092
27743SOL    HW183253   4.415  10.367   4.191
27743SOL    HW283254   4.513  10.309   4.074
27744SOL     OW83255   4.134  10.123   4.975
27744SOL    HW183256   4.220  10.135   5.025
27744SOL    HW283257   4.092  10.036   5.002
27745SOL     OW83258   4.998   9.696   4.986
27745SOL    HW183259   5.019   9.770   5.050
27745SOL    HW283260   4.909   9.713   4.943
27746SOL     OW83261   3.788  10.874   5.055
27746SOL    HW183262   3.742  10.956   5.021
27746SOL    HW283263   3.886  10.893   5.064
27747SOL     OW83264   4.091  10.410   4.225
27747SOL    HW183265   4.084  10.493   4.169
27747SOL    HW283266   4.095  10.330   4.165
27748SOL     OW83267   4.290   9.847   4.589
27748SOL    HW183268   4.302   9.913   4.515
27748SOL    HW283269   4.336   9.881   4.672
27749SOL     OW83270   4.976  10.658   4.112
27749SOL    HW183271   5.026  10.735   4.152
27749SOL    HW283272   4.881  10.660   4.144
27750SOL     OW83273   4.996  10.755   4.866
27750SOL    HW183274   5.043  10.768   4.953
27750SOL    HW283275   4.930  10.681   4.875
27751SOL     OW83276   5.306   9.949   4.196
27751SOL    HW183277   5.275  10.010   4.269
27751SOL    HW283278   5.356  10.001   4.127
27752SOL     OW83279   4.078  10.820   5.053
27752SOL    HW183280   4.057  10.776   4.966
27752SOL    HW283281   4.175  10.846   5.056
27753SOL     OW83282   4.126  10.061   5.322
27753SOL    HW183283   4.194  10.116   5.275
27753SOL    HW283284   4.166   9.973   5.349
27754SOL     OW83285   5.311  10.089   5.394
27754SOL    HW183286   5.219  10.127   5.389
27754SOL    HW283287   5.371  10.136   5.329
27755SOL     OW83288   4.737   9.415   5.494
27755SOL    HW183289   4.743   9.500   5.442
27755SOL    HW283290   4.769   9.339   5.437
27756SOL     OW83291   4.228   9.360   5.464
27756SOL    HW183292   4.186   9.303   5.394
27756SOL    HW283293   4.162   9.429   5.496
27757SOL     OW83294   4.297  10.180   4.753
27757SOL    HW183295   4.341  10.269   4.744
27757SOL    HW283296   4.234  10.180   4.830
27758SOL     OW83297   5.084  10.172   4.769
27758SOL    HW183298   5.009  10.172   4.703
27758SOL    HW283299   5.121  10.080   4.778
27759SOL     OW83300   4.933   9.835   3.999
27759SOL    HW183301   4.946   9.751   4.053
27759SOL    HW283302   4.904   9.909   4.059
27760SOL     OW83303   4.031   9.523   4.955
27760SOL    HW183304   4.008   9.560   5.045
27760SOL    HW283305   4.001   9.428   4.949
27761SOL     OW83306   3.761  10.620   5.006
27761SOL    HW183307   3.814  10.571   5.074
27761SOL    HW283308   3.783  10.718   5.011
27762SOL     OW83309   4.456   9.944   4.788
27762SOL    HW183310   4.515   9.918   4.712
27762SOL    HW283311   4.428  10.040   4.777
27763SOL     OW83312   5.452  10.245   5.578
27763SOL    HW183313   5.406  10.238   5.489
27763SOL    HW283314   5.390  10.289   5.644
27764SOL     OW83315   4.031   9.373   4.342
27764SOL    HW183316   4.020   9.467   4.375
27764SOL    HW283317   4.026   9.310   4.419
27765SOL     OW83318   5.346   9.677   4.098
27765SOL    HW183319   5.348   9.601   4.162
27765SOL    HW283320   5.298   9.754   4.138
27766SOL     OW83321   4.747  10.076   4.690
27766SOL    HW183322   4.762  10.097   4.786
27766SOL    HW283323   4.717   9.981   4.681
27767SOL     OW83324   4.704  10.883   5.424
27767SOL    HW183325   4.684  10.927   5.336
27767SOL    HW283326   4.743  10.792   5.408
27768SOL     OW83327   5.583  10.828   5.329
27768SOL    HW183328   5.597  10.855   5.234
27768SOL    HW283329   5.666  10.850   5.382
27769SOL     OW83330   4.074  10.208   5.528
27769SOL    HW183331   4.150  10.252   5.576
27769SOL    HW283332   4.109  10.161   5.446
27770SOL     OW83333   5.264   9.584   3.849
27770SOL    HW183334   5.203   9.509   3.872
27770SOL    HW283335   5.286   9.636   3.932
27771SOL     OW83336   5.027  10.148   3.766
27771SOL    HW183337   5.061  10.055   3.781
27771SOL    HW283338   5.045  10.175   3.671
27772SOL     OW83339   4.792  10.643   4.573
27772SOL    HW183340   4.799  10.559   4.518
27772SOL    HW283341   4.854  10.712   4.537
27773SOL     OW83342   4.043  10.120   4.673
27773SOL    HW183343   4.136  10.156   4.678
27773SOL    HW283344   4.037  10.035   4.725
27774SOL     OW83345   4.063   9.819   4.730
27774SOL    HW183346   4.011   9.736   4.713
27774SOL    HW283347   4.140   9.824   4.666
27775SOL     OW83348   4.862   9.690   5.402
27775SOL    HW183349   4.817   9.753   5.466
27775SOL    HW283350   4.955   9.721   5.385
27776SOL     OW83351   4.884   9.517   5.201
27776SOL    HW183352   4.884   9.581   5.278
27776SOL    HW283353   4.912   9.565   5.118
27777SOL     OW83354   3.732  10.636   3.924
27777SOL    HW183355   3.639  10.657   3.893
27777SOL    HW283356   3.742  10.537   3.937
27778SOL     OW83357   3.812  11.111   4.651
27778SOL    HW183358   3.770  11.025   4.624
27778SOL    HW283359   3.906  11.114   4.617
27779SOL     OW83360   4.228  10.878   4.634
27779SOL    HW183361   4.294  10.952   4.643
27779SOL    HW283362   4.272  10.799   4.592
27780SOL     OW83363   4.726  10.106   4.962
27780SOL    HW183364   4.767  10.074   5.048
27780SOL    HW283365   4.630  10.079   4.959
27781SOL     OW83366   3.764   9.854   4.838
27781SOL    HW183367   3.849   9.821   4.797
27781SOL    HW283368   3.777   9.869   4.936
27782SOL     OW83369   3.913   9.830   5.446
27782SOL    HW183370   3.972   9.790   5.376
27782SOL    HW283371   3.855   9.901   5.405
27783SOL     OW83372   5.093  10.260   5.384
27783SOL    HW183373   5.132  10.349   5.404
27783SOL    HW283374   5.103  10.240   5.287
27784SOL     OW83375   4.539   9.882   4.049
27784SOL    HW183376   4.546   9.793   4.003
27784SOL    HW283377   4.445   9.916   4.041
27785SOL     OW83378   5.381   9.914   4.930
27785SOL    HW183379   5.343   9.845   4.992
27785SOL    HW283380   5.463   9.878   4.886
27786SOL     OW83381   3.976  10.874   5.468
27786SOL    HW183382   3.946  10.931   5.544
27786SOL    HW283383   3.969  10.777   5.494
27787SOL     OW83384   4.395   9.774   4.993
27787SOL    HW183385   4.361   9.685   4.963
27787SOL    HW283386   4.421   9.828   4.913
27788SOL     OW83387   4.654  10.988   5.189
27788SOL    HW183388   4.630  10.970   5.094
27788SOL    HW283389   4.684  11.082   5.199
27789SOL     OW83390   4.197   9.810   3.915
27789SOL    HW183391   4.258   9.890   3.919
27789SOL    HW283392   4.102   9.841   3.922
27790SOL     OW83393   3.883  10.447   5.190
27790SOL    HW183394   3.905  10.386   5.266
27790SOL    HW283395   3.893  10.398   5.104
27791SOL     OW83396   5.071  10.369   4.958
27791SOL    HW183397   5.095  10.306   4.884
27791SOL    HW283398   4.981  10.409   4.940
27792SOL     OW83399   5.026  10.165   4.033
27792SOL    HW183400   4.940  10.134   4.075
27792SOL    HW283401   5.022  10.151   3.934
27793SOL     OW83402   5.483  11.057   4.878
27793SOL    HW183403   5.544  11.087   4.805
27793SOL    HW283404   5.445  10.968   4.856
27794SOL     OW83405   4.976  11.041   4.852
27794SOL    HW183406   5.060  11.046   4.798
27794SOL    HW283407   4.953  10.945   4.870
27795SOL     OW83408   3.807  10.568   4.746
27795SOL    HW183409   3.802  10.567   4.846
27795SOL    HW283410   3.724  10.527   4.708
27796SOL     OW83411   4.412  10.972   5.440
27796SOL    HW183412   4.356  11.053   5.449
27796SOL    HW283413   4.464  10.976   5.354
27797SOL     OW83414   5.450   9.445   4.247
27797SOL    HW183415   5.523   9.428   4.180
27797SOL    HW283416   5.419   9.358   4.285
27798SOL     OW83417   5.112  10.883   4.201
27798SOL    HW183418   5.179  10.895   4.127
27798SOL    HW283419   5.072  10.972   4.224
27799SOL     OW83420   3.854  11.104   5.575
27799SOL    HW183421   3.813  11.030   5.628
27799SOL    HW283422   3.918  11.155   5.633
27800SOL     OW83423   5.004  10.237   4.396
27800SOL    HW183424   5.064  10.156   4.398
27800SOL    HW283425   5.044  10.306   4.336
27801SOL     OW83426   4.554  10.583   5.146
27801SOL    HW183427   4.549  10.616   5.241
27801SOL    HW283428   4.468  10.602   5.100
27802SOL     OW83429   4.396  10.926   3.878
27802SOL    HW183430   4.405  10.936   3.779
27802SOL    HW283431   4.356  10.837   3.899
27803SOL     OW83432   5.374  11.030   5.118
27803SOL    HW183433   5.427  11.040   5.034
27803SOL    HW283434   5.347  11.120   5.152
27804SOL     OW83435   5.565   9.485   4.687
27804SOL    HW183436   5.604   9.400   4.651
27804SOL    HW283437   5.467   9.487   4.668
27805SOL     OW83438   3.987   9.636   4.444
27805SOL    HW183439   3.908   9.687   4.410
27805SOL    HW283440   3.978   9.621   4.542
27806SOL     OW83441   4.918  10.922   3.755
27806SOL    HW183442   4.924  10.829   3.792
27806SOL    HW283443   4.859  10.922   3.675
27807SOL     OW83444   4.546  10.312   5.096
27807SOL    HW183445   4.586  10.311   5.004
27807SOL    HW283446   4.556  10.404   5.136
27808SOL     OW83447   4.640  10.220   4.015
27808SOL    HW183448   4.703  10.258   3.947
27808SOL    HW283449   4.680  10.137   4.054
27809SOL     OW83450   5.228  10.917   3.768
27809SOL    HW183451   5.136  10.954   3.775
27809SOL    HW283452   5.266  10.937   3.678
27810SOL     OW83453   5.338  10.602   5.013
27810SOL    HW183454   5.398  10.605   5.093
27810SOL    HW283455   5.263  10.666   5.026
27811SOL     OW83456   4.763  10.408   4.420
27811SOL    HW183457   4.693  10.361   4.474
27811SOL    HW283458   4.822  10.340   4.377
27812SOL     OW83459   4.738   9.546   4.695
27812SOL    HW183460   4.730   9.510   4.602
27812SOL    HW283461   4.736   9.470   4.760
27813SOL     OW83462   4.314  10.797   4.215
27813SOL    HW183463   4.356  10.739   4.145
27813SOL    HW283464   4.270  10.876   4.171
27814SOL     OW83465   5.433   9.695   5.105
27814SOL    HW183466   5.506   9.764   5.109
27814SOL    HW283467   5.461   9.620   5.046
27815SOL     OW83468   3.979  10.658   4.014
27815SOL    HW183469   3.883  10.659   3.987
27815SOL    HW283470   3.991  10.711   4.098
27816SOL     OW83471   3.829  10.323   5.450
27816SOL    HW183472   3.752  10.290   5.504
27816SOL    HW283473   3.914  10.293   5.492
27817SOL     OW83474   4.396   9.513   5.213
27817SOL    HW183475   4.486   9.497   5.173
27817SOL    HW283476   4.404   9.518   5.312
27818SOL     OW83477   3.799   9.655   3.757
27818SOL    HW183478   3.707   9.627   3.728
27818SOL    HW283479   3.830   9.732   3.701
27819SOL     OW83480   5.164  10.166   5.122
27819SOL    HW183481   5.107  10.218   5.059
27819SOL    HW283482   5.260  10.178   5.098
27820SOL     OW83483   3.796   9.476   4.042
27820SOL    HW183484   3.779   9.559   3.988
27820SOL    HW283485   3.886   9.439   4.020
27821SOL     OW83486   4.907  10.645   3.843
27821SOL    HW183487   4.808  10.634   3.845
27821SOL    HW283488   4.941  10.660   3.936
27822SOL     OW83489   4.337  10.152   5.155
27822SOL    HW183490   4.393  10.233   5.138
27822SOL    HW283491   4.396  10.072   5.158
27823SOL     OW83492   5.217  11.077   4.683
27823SOL    HW183493   5.250  11.141   4.614
27823SOL    HW283494   5.283  11.071   4.758
27824SOL     OW83495   4.440   9.875   5.432
27824SOL    HW183496   4.459   9.940   5.506
27824SOL    HW283497   4.500   9.795   5.441
27825SOL     OW83498   5.174  10.530   5.357
27825SOL    HW183499   5.165  10.520   5.456
27825SOL    HW283500   5.270  10.523   5.331
27826SOL     OW83501   4.114  11.051   5.284
27826SOL    HW183502   4.023  11.092   5.282
27826SOL    HW283503   4.107  10.957   5.316
27827SOL     OW83504   5.398  10.193   4.978
27827SOL    HW183505   5.371  10.104   4.941
27827SOL    HW283506   5.399  10.261   4.905
27828SOL     OW83507   4.949   9.635   4.173
27828SOL    HW183508   5.014   9.561   4.162
27828SOL    HW283509   4.969   9.685   4.257
27829SOL     OW83510   4.318  10.055   4.376
27829SOL    HW183511   4.368  10.140   4.357
27829SOL    HW283512   4.230  10.057   4.328
27830SOL     OW83513   5.501   9.652   5.366
27830SOL    HW183514   5.484   9.683   5.272
27830SOL    HW283515   5.417   9.615   5.404
27831SOL     OW83516   5.454  10.244   5.241
27831SOL    HW183517   5.492  10.335   5.256
27831SOL    HW283518   5.446  10.227   5.142
27832SOL     OW83519   4.583  10.684   3.740
27832SOL    HW183520   4.537  10.699   3.828
27832SOL    HW283521   4.627  10.769   3.710
27833SOL     OW83522   4.385  11.100   4.677
27833SOL    HW183523   4.339  11.188   4.664
27833SOL    HW283524   4.484  11.112   4.670
27834SOL     OW83525   4.583  10.266   4.585
27834SOL    HW183526   4.637  10.197   4.633
27834SOL    HW283527   4.551  10.335   4.651
27835SOL     OW83528   4.807  10.294   3.811
27835SOL    HW183529   4.784  10.347   3.729
27835SOL    HW283530   4.888  10.238   3.792
27836SOL     OW83531   5.585  10.879   4.575
27836SOL    HW183532   5.514  10.867   4.505
27836SOL    HW283533   5.586  10.800   4.635
27837SOL     OW83534   3.945  10.624   5.568
27837SOL    HW183535   3.880  10.551   5.547
27837SOL    HW283536   3.949  10.638   5.666
27838SOL     OW83537   3.803  10.550   4.377
27838SOL    HW183538   3.802  10.503   4.465
27838SOL    HW283539   3.885  10.522   4.326
27839SOL     OW83540   4.396  10.701   5.348
27839SOL    HW183541   4.318  10.651   5.386
27839SOL    HW283542   4.393  10.796   5.379
27840SOL     OW83543   5.548   9.502   4.951
27840SOL    HW183544   5.544   9.412   4.995
27840SOL    HW283545   5.551   9.491   4.852
27841SOL     OW83546   4.152   9.734   4.244
27841SOL    HW183547   4.182   9.662   4.182
27841SOL    HW283548   4.113   9.694   4.327
27842SOL     OW83549   5.429  10.797   4.828
27842SOL    HW183550   5.336  10.772   4.801
27842SOL    HW283551   5.455  10.747   4.910
27843SOL     OW83552   4.041   9.857   5.004
27843SOL    HW183553   4.079   9.798   5.076
27843SOL    HW283554   4.081   9.831   4.916
27844SOL     OW83555   4.536  10.896   4.411
27844SOL    HW183556   4.568  10.906   4.317
27844SOL    HW283557   4.457  10.834   4.413
27845SOL     OW83558   5.148   9.524   4.836
27845SOL    HW183559   5.200   9.459   4.891
27845SOL    HW283560   5.099   9.587   4.897
27846SOL     OW83561   4.725   9.344   4.878
27846SOL    HW183562   4.662   9.272   4.847
27846SOL    HW283563   4.818   9.308   4.878
27847SOL     OW83564   4.494  10.640   4.025
27847SOL    HW183565   4.448  10.553   4.042
27847SOL    HW283566   4.585  10.637   4.066
27848SOL     OW83567   4.342  10.877   5.008
27848SOL    HW183568   4.337  10.959   5.065
27848SOL    HW283569   4.431  10.874   4.963
27849SOL     OW83570   5.076   9.362   3.892
27849SOL    HW183571   5.111   9.321   3.808
27849SOL    HW283572   4.986   9.324   3.912
27850SOL     OW83573   5.024   9.763   4.415
27850SOL    HW183574   4.965   9.843   4.419
27850SOL    HW283575   5.039   9.728   4.508
27851SOL     OW83576   5.317   9.531   4.606
27851SOL    HW183577   5.233   9.530   4.660
27851SOL    HW283578   5.319   9.614   4.550
27852SOL     OW83579   3.763  10.387   4.024
27852SOL    HW183580   3.862  10.376   4.015
27852SOL    HW283581   3.723  10.301   4.056
27853SOL     OW83582   4.599  10.956   4.061
27853SOL    HW183583   4.522  10.921   4.007
27853SOL    HW283584   4.567  11.027   4.123
27854SOL     OW83585   3.954   9.938   5.699
27854SOL    HW183586   3.861   9.936   5.736
27854SOL    HW283587   3.955   9.899   5.607
27855SOL     OW83588   3.949   9.585   6.582
27855SOL    HW183589   3.984   9.568   6.674
27855SOL    HW283590   3.861   9.540   6.570
27856SOL     OW83591   3.743   9.678   6.233
27856SOL    HW183592   3.661   9.721   6.272
27856SOL    HW283593   3.715   9.605   6.170
27857SOL     OW83594   4.293  10.585   6.751
27857SOL    HW183595   4.200  10.578   6.714
27857SOL    HW283596   4.304  10.674   6.795
27858SOL     OW83597   5.279  10.821   6.289
27858SOL    HW183598   5.222  10.805   6.370
27858SOL    HW283599   5.220  10.831   6.209
27859SOL     OW83600   4.859  10.013   6.303
27859SOL    HW183601   4.916  10.091   6.278
27859SOL    HW283602   4.799  10.039   6.379
27860SOL     OW83603   5.479   9.917   5.817
27860SOL    HW183604   5.467   9.904   5.718
27860SOL    HW283605   5.449   9.836   5.866
27861SOL     OW83606   4.492  10.454   6.609
27861SOL    HW183607   4.414  10.471   6.669
27861SOL    HW283608   4.526  10.541   6.573
27862SOL     OW83609   4.574  10.108   7.409
27862SOL    HW183610   4.570  10.184   7.474
27862SOL    HW283611   4.596  10.144   7.318
27863SOL     OW83612   4.409  10.322   6.251
27863SOL    HW183613   4.478  10.306   6.321
27863SOL    HW283614   4.336  10.379   6.289
27864SOL     OW83615   4.410  10.471   7.389
27864SOL    HW183616   4.470  10.550   7.403
27864SOL    HW283617   4.324  10.502   7.348
27865SOL     OW83618   4.059  10.745   6.647
27865SOL    HW183619   3.981  10.714   6.594
27865SOL    HW283620   4.117  10.803   6.590
27866SOL     OW83621   5.184  10.815   6.925
27866SOL    HW183622   5.208  10.909   6.951
27866SOL    HW283623   5.168  10.761   7.007
27867SOL     OW83624   4.162   9.702   7.085
27867SOL    HW183625   4.244   9.646   7.094
27867SOL    HW283626   4.081   9.644   7.089
27868SOL     OW83627   5.327   9.757   6.323
27868SOL    HW183628   5.253   9.803   6.273
27868SOL    HW283629   5.378   9.825   6.376
27869SOL     OW83630   3.955  11.023   6.069
27869SOL    HW183631   3.989  11.100   6.123
27869SOL    HW283632   3.999  11.023   5.979
27870SOL     OW83633   4.851  10.651   7.276
27870SOL    HW183634   4.898  10.651   7.364
27870SOL    HW283635   4.803  10.564   7.265
27871SOL     OW83636   3.954  10.744   6.124
27871SOL    HW183637   3.928  10.840   6.124
27871SOL    HW283638   3.883  10.690   6.169
27872SOL     OW83639   3.964  10.401   6.472
27872SOL    HW183640   3.978  10.317   6.524
27872SOL    HW283641   3.909  10.465   6.527
27873SOL     OW83642   4.344  11.096   7.025
27873SOL    HW183643   4.252  11.079   7.060
27873SOL    HW283644   4.372  11.188   7.051
27874SOL     OW83645   4.330  10.274   5.709
27874SOL    HW183646   4.337  10.358   5.655
27874SOL    HW283647   4.376  10.287   5.797
27875SOL     OW83648   5.318   9.424   7.066
27875SOL    HW183649   5.300   9.491   6.994
27875SOL    HW283650   5.315   9.470   7.155
27876SOL     OW83651   3.846   9.953   6.149
27876SOL    HW183652   3.801   9.865   6.166
27876SOL    HW283653   3.845  10.007   6.233
27877SOL     OW83654   5.566  11.077   5.945
27877SOL    HW183655   5.620  11.048   6.025
27877SOL    HW283656   5.596  11.167   5.916
27878SOL     OW83657   3.751  10.906   5.703
27878SOL    HW183658   3.732  10.810   5.724
27878SOL    HW283659   3.718  10.964   5.778
27879SOL     OW83660   5.413  10.232   6.198
27879SOL    HW183661   5.508  10.203   6.206
27879SOL    HW283662   5.405  10.297   6.123
27880SOL     OW83663   5.365  10.418   6.018
27880SOL    HW183664   5.451  10.420   5.966
27880SOL    HW283665   5.379  10.465   6.106
27881SOL     OW83666   3.837  10.047   7.183
27881SOL    HW183667   3.925  10.034   7.228
27881SOL    HW283668   3.824  10.144   7.161
27882SOL     OW83669   4.337  10.675   6.312
27882SOL    HW183670   4.288  10.588   6.321
27882SOL    HW283671   4.314  10.718   6.225
27883SOL     OW83672   5.017  10.538   7.009
27883SOL    HW183673   5.054  10.465   6.951
27883SOL    HW283674   5.069  10.543   7.094
27884SOL     OW83675   4.533   9.314   6.088
27884SOL    HW183676   4.573   9.405   6.079
27884SOL    HW283677   4.433   9.322   6.094
27885SOL     OW83678   3.921  10.286   6.850
27885SOL    HW183679   4.010  10.241   6.836
27885SOL    HW283680   3.848  10.221   6.831
27886SOL     OW83681   5.249  10.309   5.776
27886SOL    HW183682   5.186  10.233   5.789
27886SOL    HW283683   5.297  10.327   5.862
27887SOL     OW83684   4.911  11.102   7.202
27887SOL    HW183685   4.935  11.162   7.126
27887SOL    HW283686   4.918  11.007   7.172
27888SOL     OW83687   4.041   9.561   7.387
27888SOL    HW183688   4.112   9.632   7.393
27888SOL    HW283689   3.953   9.600   7.415
27889SOL     OW83690   5.190  10.727   6.539
27889SOL    HW183691   5.131  10.733   6.619
27889SOL    HW283692   5.175  10.639   6.493
27890SOL     OW83693   5.391  11.024   6.158
27890SOL    HW183694   5.350  11.001   6.070
27890SOL    HW283695   5.373  10.950   6.223
27891SOL     OW83696   4.322  10.039   5.856
27891SOL    HW183697   4.346  10.108   5.788
27891SOL    HW283698   4.244  10.072   5.910
27892SOL     OW83699   5.005   9.655   6.530
27892SOL    HW183700   4.919   9.605   6.517
27892SOL    HW283701   5.067   9.601   6.586
27893SOL     OW83702   5.300  10.972   5.893
27893SOL    HW183703   5.389  11.018   5.896
27893SOL    HW283704   5.279  10.948   5.798
27894SOL     OW83705   4.531   9.915   7.051
27894SOL    HW183706   4.484   9.912   7.140
27894SOL    HW283707   4.480   9.860   6.985
27895SOL     OW83708   5.118   9.779   7.260
27895SOL    HW183709   5.098   9.822   7.348
27895SOL    HW283710   5.196   9.717   7.269
27896SOL     OW83711   4.697  10.200   7.158
27896SOL    HW183712   4.743  10.116   7.129
27896SOL    HW283713   4.641  10.234   7.083
27897SOL     OW83714   4.715   9.720   6.828
27897SOL    HW183715   4.638   9.754   6.882
27897SOL    HW283716   4.681   9.669   6.749
27898SOL     OW83717   4.765  10.011   6.015
27898SOL    HW183718   4.791  10.007   6.111
27898SOL    HW283719   4.680   9.960   6.001
27899SOL     OW83720   3.800  10.121   6.375
27899SOL    HW183721   3.899  10.109   6.384
27899SOL    HW283722   3.776  10.216   6.396
27900SOL     OW83723   3.854  11.131   7.157
27900SOL    HW183724   3.844  11.116   7.256
27900SOL    HW283725   3.768  11.167   7.121
27901SOL     OW83726   4.589   9.658   5.781
27901SOL    HW183727   4.648   9.721   5.732
27901SOL    HW283728   4.608   9.564   5.752
27902SOL     OW83729   5.443   9.895   7.417
27902SOL    HW183730   5.417   9.984   7.381
27902SOL    HW283731   5.441   9.827   7.344
27903SOL     OW83732   5.086  10.454   6.131
27903SOL    HW183733   5.169  10.425   6.083
27903SOL    HW283734   5.037  10.521   6.075
27904SOL     OW83735   4.274   9.506   6.471
27904SOL    HW183736   4.269   9.501   6.571
27904SOL    HW283737   4.276   9.602   6.442
27905SOL     OW83738   4.732  10.766   6.063
27905SOL    HW183739   4.686  10.838   6.011
27905SOL    HW283740   4.728  10.786   6.161
27906SOL     OW83741   4.075  11.111   6.439
27906SOL    HW183742   4.125  11.025   6.445
27906SOL    HW283743   4.140  11.188   6.436
27907SOL     OW83744   5.519  10.376   6.459
27907SOL    HW183745   5.457  10.361   6.383
27907SOL    HW283746   5.467  10.387   6.544
27908SOL     OW83747   4.951  10.860   7.092
27908SOL    HW183748   4.957  10.783   7.156
27908SOL    HW283749   4.899  10.834   7.012
27909SOL     OW83750   4.045  10.253   5.828
27909SOL    HW183751   4.127  10.292   5.786
27909SOL    HW283752   4.018  10.171   5.779
27910SOL     OW83753   5.182  10.045   6.314
27910SOL    HW183754   5.177   9.980   6.389
27910SOL    HW283755   5.262  10.104   6.327
27911SOL     OW83756   4.185  10.576   7.313
27911SOL    HW183757   4.135  10.577   7.227
27911SOL    HW283758   4.122  10.558   7.389
27912SOL     OW83759   4.835  11.086   5.823
27912SOL    HW183760   4.775  11.024   5.873
27912SOL    HW283761   4.866  11.042   5.738
27913SOL     OW83762   3.926   9.595   7.084
27913SOL    HW183763   3.846   9.655   7.071
27913SOL    HW283764   3.916   9.546   7.170
27914SOL     OW83765   5.356  10.687   5.667
27914SOL    HW183766   5.324  10.781   5.657
27914SOL    HW283767   5.280  10.624   5.655
27915SOL     OW83768   4.188  11.053   5.909
27915SOL    HW183769   4.221  11.092   5.995
27915SOL    HW283770   4.264  11.046   5.844
27916SOL     OW83771   5.124   9.417   6.012
27916SOL    HW183772   5.100   9.380   5.922
27916SOL    HW283773   5.223   9.433   6.016
27917SOL     OW83774   3.973  11.095   6.827
27917SOL    HW183775   4.030  11.030   6.877
27917SOL    HW283776   3.957  11.062   6.734
27918SOL     OW83777   4.664  11.008   6.490
27918SOL    HW183778   4.744  10.951   6.511
27918SOL    HW283779   4.615  10.968   6.413
27919SOL     OW83780   4.106  10.010   6.066
27919SOL    HW183781   4.151   9.920   6.063
27919SOL    HW283782   4.012   9.999   6.099
27920SOL     OW83783   5.271   9.532   7.315
27920SOL    HW183784   5.266   9.569   7.407
27920SOL    HW283785   5.199   9.463   7.303
27921SOL     OW83786   4.338   9.432   5.703
27921SOL    HW183787   4.436   9.410   5.710
27921SOL    HW283788   4.307   9.415   5.610
27922SOL     OW83789   4.505   9.574   7.335
27922SOL    HW183790   4.572   9.513   7.378
27922SOL    HW283791   4.432   9.593   7.400
27923SOL     OW83792   4.612  10.824   6.781
27923SOL    HW183793   4.589  10.799   6.687
27923SOL    HW283794   4.673  10.755   6.820
27924SOL     OW83795   5.075   9.900   7.019
27924SOL    HW183796   5.103   9.857   7.104
27924SOL    HW283797   5.100   9.996   7.020
27925SOL     OW83798   4.527  10.712   6.510
27925SOL    HW183799   4.617  10.726   6.468
27925SOL    HW283800   4.456  10.714   6.439
27926SOL     OW83801   4.646   9.813   6.485
27926SOL    HW183802   4.621   9.804   6.389
27926SOL    HW283803   4.694   9.731   6.516
27927SOL     OW83804   4.263   9.374   6.098
27927SOL    HW183805   4.182   9.375   6.156
27927SOL    HW283806   4.266   9.457   6.043
27928SOL     OW83807   5.158  10.498   5.627
27928SOL    HW183808   5.190  10.422   5.684
27928SOL    HW283809   5.066  10.525   5.657
27929SOL     OW83810   4.021   9.345   5.757
27929SOL    HW183811   4.070   9.429   5.736
27929SOL    HW283812   4.083   9.280   5.802
27930SOL     OW83813   4.659   9.546   6.066
27930SOL    HW183814   4.611   9.587   5.988
27930SOL    HW283815   4.758   9.544   6.047
27931SOL     OW83816   4.800   9.993   7.050
27931SOL    HW183817   4.720   9.932   7.053
27931SOL    HW283818   4.881   9.940   7.026
27932SOL     OW83819   4.951  10.880   6.379
27932SOL    HW183820   4.972  10.954   6.314
27932SOL    HW283821   5.019  10.880   6.452
27933SOL     OW83822   4.183  10.462   6.327
27933SOL    HW183823   4.112  10.435   6.392
27933SOL    HW283824   4.157  10.434   6.234
27934SOL     OW83825   4.995  11.107   6.177
27934SOL    HW183826   5.039  11.171   6.113
27934SOL    HW283827   4.945  11.159   6.247
27935SOL     OW83828   4.756   9.859   5.602
27935SOL    HW183829   4.715   9.941   5.563
27935SOL    HW283830   4.820   9.885   5.675
27936SOL     OW83831   3.802   9.866   6.972
27936SOL    HW183832   3.894   9.865   6.931
27936SOL    HW283833   3.796   9.940   7.039
27937SOL     OW83834   4.285   9.532   6.733
27937SOL    HW183835   4.323   9.448   6.770
27937SOL    HW283836   4.197   9.551   6.777
27938SOL     OW83837   4.590   9.764   6.228
27938SOL    HW183838   4.558   9.836   6.166
27938SOL    HW283839   4.614   9.683   6.175
27939SOL     OW83840   4.741   9.349   6.339
27939SOL    HW183841   4.669   9.354   6.270
27939SOL    HW283842   4.717   9.280   6.408
27940SOL     OW83843   5.153  10.483   6.453
27940SOL    HW183844   5.098  10.399   6.446
27940SOL    HW283845   5.179  10.512   6.361
27941SOL     OW83846   5.190   9.900   6.578
27941SOL    HW183847   5.160   9.805   6.585
27941SOL    HW283848   5.263   9.916   6.644
27942SOL     OW83849   5.581  10.143   5.963
27942SOL    HW183850   5.623  10.079   6.027
27942SOL    HW283851   5.543  10.092   5.885
27943SOL     OW83852   4.212  10.695   5.760
27943SOL    HW183853   4.125  10.680   5.807
27943SOL    HW283854   4.195  10.721   5.665
27944SOL     OW83855   5.388  10.590   6.243
27944SOL    HW183856   5.487  10.598   6.257
27944SOL    HW283857   5.343  10.674   6.274
27945SOL     OW83858   5.114   9.885   5.664
27945SOL    HW183859   5.060   9.864   5.745
27945SOL    HW283860   5.205   9.844   5.673
27946SOL     OW83861   4.251   9.566   5.914
27946SOL    HW183862   4.278   9.507   5.839
27946SOL    HW283863   4.251   9.661   5.883
27947SOL     OW83864   5.478  10.533   7.174
27947SOL    HW183865   5.569  10.494   7.161
27947SOL    HW283866   5.486  10.629   7.198
27948SOL     OW83867   4.788  10.657   6.926
27948SOL    HW183868   4.708  10.634   6.981
27948SOL    HW283869   4.871  10.631   6.975
27949SOL     OW83870   5.316  10.939   7.211
27949SOL    HW183871   5.343  10.973   7.121
27949SOL    HW283872   5.395  10.901   7.257
27950SOL     OW83873   4.835  10.505   6.686
27950SOL    HW183874   4.795  10.549   6.767
27950SOL    HW283875   4.794  10.542   6.603
27951SOL     OW83876   5.362  10.409   6.665
27951SOL    HW183877   5.367  10.490   6.724
27951SOL    HW283878   5.276  10.411   6.614
27952SOL     OW83879   4.639   9.399   6.988
27952SOL    HW183880   4.664   9.379   6.893
27952SOL    HW283881   4.711   9.455   7.030
27953SOL     OW83882   4.704  10.426   7.305
27953SOL    HW183883   4.605  10.432   7.315
27953SOL    HW283884   4.727  10.346   7.249
27954SOL     OW83885   4.429  10.360   5.954
27954SOL    HW183886   4.415  10.367   6.053
27954SOL    HW283887   4.513  10.309   5.936
27955SOL     OW83888   4.134  10.123   6.837
27955SOL    HW183889   4.220  10.135   6.887
27955SOL    HW283890   4.092  10.036   6.864
27956SOL     OW83891   4.998   9.696   6.848
27956SOL    HW183892   5.019   9.770   6.912
27956SOL    HW283893   4.909   9.713   6.805
27957SOL     OW83894   3.788  10.874   6.917
27957SOL    HW183895   3.742  10.956   6.883
27957SOL    HW283896   3.886  10.893   6.926
27958SOL     OW83897   4.091  10.410   6.087
27958SOL    HW183898   4.084  10.493   6.031
27958SOL    HW283899   4.095  10.330   6.027
27959SOL     OW83900   4.290   9.847   6.451
27959SOL    HW183901   4.302   9.913   6.377
27959SOL    HW283902   4.336   9.881   6.534
27960SOL     OW83903   4.976  10.658   5.974
27960SOL    HW183904   5.026  10.735   6.014
27960SOL    HW283905   4.881  10.660   6.006
27961SOL     OW83906   4.996  10.755   6.728
27961SOL    HW183907   5.043  10.768   6.815
27961SOL    HW283908   4.930  10.681   6.737
27962SOL     OW83909   5.306   9.949   6.058
27962SOL    HW183910   5.275  10.010   6.131
27962SOL    HW283911   5.356  10.001   5.989
27963SOL     OW83912   4.078  10.820   6.915
27963SOL    HW183913   4.057  10.776   6.828
27963SOL    HW283914   4.175  10.846   6.918
27964SOL     OW83915   4.126  10.061   7.184
27964SOL    HW183916   4.194  10.116   7.137
27964SOL    HW283917   4.166   9.973   7.211
27965SOL     OW83918   5.311  10.089   7.256
27965SOL    HW183919   5.219  10.127   7.251
27965SOL    HW283920   5.371  10.136   7.191
27966SOL     OW83921   4.737   9.415   7.356
27966SOL    HW183922   4.743   9.500   7.304
27966SOL    HW283923   4.769   9.339   7.299
27967SOL     OW83924   4.228   9.360   7.326
27967SOL    HW183925   4.186   9.303   7.256
27967SOL    HW283926   4.162   9.429   7.358
27968SOL     OW83927   4.297  10.180   6.615
27968SOL    HW183928   4.341  10.269   6.606
27968SOL    HW283929   4.234  10.180   6.692
27969SOL     OW83930   5.084  10.172   6.631
27969SOL    HW183931   5.009  10.172   6.565
27969SOL    HW283932   5.121  10.080   6.640
27970SOL     OW83933   4.933   9.835   5.861
27970SOL    HW183934   4.946   9.751   5.915
27970SOL    HW283935   4.904   9.909   5.921
27971SOL     OW83936   4.031   9.523   6.817
27971SOL    HW183937   4.008   9.560   6.907
27971SOL    HW283938   4.001   9.428   6.811
27972SOL     OW83939   3.761  10.620   6.868
27972SOL    HW183940   3.814  10.571   6.936
27972SOL    HW283941   3.783  10.718   6.873
27973SOL     OW83942   4.456   9.944   6.650
27973SOL    HW183943   4.515   9.918   6.574
27973SOL    HW283944   4.428  10.040   6.639
27974SOL     OW83945   5.452  10.245   7.440
27974SOL    HW183946   5.406  10.238   7.351
27974SOL    HW283947   5.390  10.289   7.506
27975SOL     OW83948   4.031   9.373   6.204
27975SOL    HW183949   4.020   9.467   6.237
27975SOL    HW283950   4.026   9.310   6.281
27976SOL     OW83951   5.346   9.677   5.960
27976SOL    HW183952   5.348   9.601   6.024
27976SOL    HW283953   5.298   9.754   6.000
27977SOL     OW83954   4.747  10.076   6.552
27977SOL    HW183955   4.762  10.097   6.648
27977SOL    HW283956   4.717   9.981   6.543
27978SOL     OW83957   4.704  10.883   7.286
27978SOL    HW183958   4.684  10.927   7.198
27978SOL    HW283959   4.743  10.792   7.270
27979SOL     OW83960   5.583  10.828   7.191
27979SOL    HW183961   5.597  10.855   7.096
27979SOL    HW283962   5.666  10.850   7.244
27980SOL     OW83963   4.074  10.208   7.390
27980SOL    HW183964   4.150  10.252   7.438
27980SOL    HW283965   4.109  10.161   7.308
27981SOL     OW83966   5.264   9.584   5.711
27981SOL    HW183967   5.203   9.509   5.734
27981SOL    HW283968   5.286   9.636   5.794
27982SOL     OW83969   5.027  10.148   5.628
27982SOL    HW183970   5.061  10.055   5.643
27982SOL    HW283971   5.045  10.175   5.533
27983SOL     OW83972   4.792  10.643   6.435
27983SOL    HW183973   4.799  10.559   6.380
27983SOL    HW283974   4.854  10.712   6.399
27984SOL     OW83975   4.043  10.120   6.535
27984SOL    HW183976   4.136  10.156   6.540
27984SOL    HW283977   4.037  10.035   6.587
27985SOL     OW83978   4.063   9.819   6.592
27985SOL    HW183979   4.011   9.736   6.575
27985SOL    HW283980   4.140   9.824   6.528
27986SOL     OW83981   4.862   9.690   7.264
27986SOL    HW183982   4.817   9.753   7.328
27986SOL    HW283983   4.955   9.721   7.247
27987SOL     OW83984   4.884   9.517   7.063
27987SOL    HW183985   4.884   9.581   7.140
27987SOL    HW283986   4.912   9.565   6.980
27988SOL     OW83987   3.732  10.636   5.786
27988SOL    HW183988   3.639  10.657   5.755
27988SOL    HW283989   3.742  10.537   5.799
27989SOL     OW83990   3.812  11.111   6.513
27989SOL    HW183991   3.770  11.025   6.486
27989SOL    HW283992   3.906  11.114   6.479
27990SOL     OW83993   4.228  10.878   6.496
27990SOL    HW183994   4.294  10.952   6.505
27990SOL    HW283995   4.272  10.799   6.454
27991SOL     OW83996   4.726  10.106   6.824
27991SOL    HW183997   4.767  10.074   6.910
27991SOL    HW283998   4.630  10.079   6.821
27992SOL     OW83999   3.764   9.854   6.700
27992SOL    HW184000   3.849   9.821   6.659
27992SOL    HW284001   3.777   9.869   6.798
27993SOL     OW84002   3.913   9.830   7.308
27993SOL    HW184003   3.972   9.790   7.238
27993SOL    HW284004   3.855   9.901   7.267
27994SOL     OW84005   5.093  10.260   7.246
27994SOL    HW184006   5.132  10.349   7.266
27994SOL    HW284007   5.103  10.240   7.149
27995SOL     OW84008   4.539   9.882   5.911
27995SOL    HW184009   4.546   9.793   5.865
27995SOL    HW284010   4.445   9.916   5.903
27996SOL     OW84011   5.381   9.914   6.792
27996SOL    HW184012   5.343   9.845   6.854
27996SOL    HW284013   5.463   9.878   6.748
27997SOL     OW84014   3.976  10.874   7.330
27997SOL    HW184015   3.946  10.931   7.406
27997SOL    HW284016   3.969  10.777   7.356
27998SOL     OW84017   4.395   9.774   6.855
27998SOL    HW184018   4.361   9.685   6.825
27998SOL    HW284019   4.421   9.828   6.775
27999SOL     OW84020   4.654  10.988   7.051
27999SOL    HW184021   4.630  10.970   6.956
27999SOL    HW284022   4.684  11.082   7.061
28000SOL     OW84023   4.197   9.810   5.777
28000SOL    HW184024   4.258   9.890   5.781
28000SOL    HW284025   4.102   9.841   5.784
28001SOL     OW84026   3.883  10.447   7.052
28001SOL    HW184027   3.905  10.386   7.128
28001SOL    HW284028   3.893  10.398   6.966
28002SOL     OW84029   5.071  10.369   6.820
28002SOL    HW184030   5.095  10.306   6.746
28002SOL    HW284031   4.981  10.409   6.802
28003SOL     OW84032   5.026  10.165   5.895
28003SOL    HW184033   4.940  10.134   5.937
28003SOL    HW284034   5.022  10.151   5.796
28004SOL     OW84035   5.483  11.057   6.740
28004SOL    HW184036   5.544  11.087   6.667
28004SOL    HW284037   5.445  10.968   6.718
28005SOL     OW84038   4.976  11.041   6.714
28005SOL    HW184039   5.060  11.046   6.660
28005SOL    HW284040   4.953  10.945   6.732
28006SOL     OW84041   3.807  10.568   6.608
28006SOL    HW184042   3.802  10.567   6.708
28006SOL    HW284043   3.724  10.527   6.570
28007SOL     OW84044   4.412  10.972   7.302
28007SOL    HW184045   4.356  11.053   7.311
28007SOL    HW284046   4.464  10.976   7.216
28008SOL     OW84047   5.450   9.445   6.109
28008SOL    HW184048   5.523   9.428   6.042
28008SOL    HW284049   5.419   9.358   6.147
28009SOL     OW84050   5.112  10.883   6.063
28009SOL    HW184051   5.179  10.895   5.989
28009SOL    HW284052   5.072  10.972   6.086
28010SOL     OW84053   3.854  11.104   7.437
28010SOL    HW184054   3.813  11.030   7.490
28010SOL    HW284055   3.918  11.155   7.495
28011SOL     OW84056   5.004  10.237   6.258
28011SOL    HW184057   5.064  10.156   6.260
28011SOL    HW284058   5.044  10.306   6.198
28012SOL     OW84059   4.554  10.583   7.008
28012SOL    HW184060   4.549  10.616   7.103
28012SOL    HW284061   4.468  10.602   6.962
28013SOL     OW84062   4.396  10.926   5.740
28013SOL    HW184063   4.405  10.936   5.641
28013SOL    HW284064   4.356  10.837   5.761
28014SOL     OW84065   5.374  11.030   6.980
28014SOL    HW184066   5.427  11.040   6.896
28014SOL    HW284067   5.347  11.120   7.014
28015SOL     OW84068   5.565   9.485   6.549
28015SOL    HW184069   5.604   9.400   6.513
28015SOL    HW284070   5.467   9.487   6.530
28016SOL     OW84071   3.987   9.636   6.306
28016SOL    HW184072   3.908   9.687   6.272
28016SOL    HW284073   3.978   9.621   6.404
28017SOL     OW84074   4.918  10.922   5.617
28017SOL    HW184075   4.924  10.829   5.654
28017SOL    HW284076   4.859  10.922   5.537
28018SOL     OW84077   4.546  10.312   6.958
28018SOL    HW184078   4.586  10.311   6.866
28018SOL    HW284079   4.556  10.404   6.998
28019SOL     OW84080   4.640  10.220   5.877
28019SOL    HW184081   4.703  10.258   5.809
28019SOL    HW284082   4.680  10.137   5.916
28020SOL     OW84083   5.228  10.917   5.630
28020SOL    HW184084   5.136  10.954   5.637
28020SOL    HW284085   5.266  10.937   5.540
28021SOL     OW84086   4.096  10.598   7.076
28021SOL    HW184087   4.083  10.691   7.042
28021SOL    HW284088   4.012  10.546   7.063
28022SOL     OW84089   5.338  10.602   6.875
28022SOL    HW184090   5.398  10.605   6.955
28022SOL    HW284091   5.263  10.666   6.888
28023SOL     OW84092   4.763  10.408   6.282
28023SOL    HW184093   4.693  10.361   6.336
28023SOL    HW284094   4.822  10.340   6.239
28024SOL     OW84095   4.738   9.546   6.557
28024SOL    HW184096   4.730   9.510   6.464
28024SOL    HW284097   4.736   9.470   6.622
28025SOL     OW84098   4.314  10.797   6.077
28025SOL    HW184099   4.356  10.739   6.007
28025SOL    HW284100   4.270  10.876   6.033
28026SOL     OW84101   5.433   9.695   6.967
28026SOL    HW184102   5.506   9.764   6.971
28026SOL    HW284103   5.461   9.620   6.908
28027SOL     OW84104   3.979  10.658   5.876
28027SOL    HW184105   3.883  10.659   5.849
28027SOL    HW284106   3.991  10.711   5.960
28028SOL     OW84107   3.829  10.323   7.312
28028SOL    HW184108   3.752  10.290   7.366
28028SOL    HW284109   3.914  10.293   7.354
28029SOL     OW84110   4.396   9.513   7.075
28029SOL    HW184111   4.486   9.497   7.035
28029SOL    HW284112   4.404   9.518   7.174
28030SOL     OW84113   3.799   9.655   5.619
28030SOL    HW184114   3.707   9.627   5.590
28030SOL    HW284115   3.830   9.732   5.563
28031SOL     OW84116   5.164  10.166   6.984
28031SOL    HW184117   5.107  10.218   6.921
28031SOL    HW284118   5.260  10.178   6.960
28032SOL     OW84119   3.796   9.476   5.904
28032SOL    HW184120   3.779   9.559   5.850
28032SOL    HW284121   3.886   9.439   5.882
28033SOL     OW84122   4.907  10.645   5.705
28033SOL    HW184123   4.808  10.634   5.707
28033SOL    HW284124   4.941  10.660   5.798
28034SOL     OW84125   4.337  10.152   7.017
28034SOL    HW184126   4.393  10.233   7.000
28034SOL    HW284127   4.396  10.072   7.020
28035SOL     OW84128   5.217  11.077   6.545
28035SOL    HW184129   5.250  11.141   6.476
28035SOL    HW284130   5.283  11.071   6.620
28036SOL     OW84131   4.440   9.875   7.294
28036SOL    HW184132   4.459   9.940   7.368
28036SOL    HW284133   4.500   9.795   7.303
28037SOL     OW84134   5.174  10.530   7.219
28037SOL    HW184135   5.165  10.520   7.318
28037SOL    HW284136   5.270  10.523   7.193
28038SOL     OW84137   4.114  11.051   7.146
28038SOL    HW184138   4.023  11.092   7.144
28038SOL    HW284139   4.107  10.957   7.178
28039SOL     OW84140   5.398  10.193   6.840
28039SOL    HW184141   5.371  10.104   6.803
28039SOL    HW284142   5.399  10.261   6.767
28040SOL     OW84143   4.949   9.635   6.035
28040SOL    HW184144   5.014   9.561   6.024
28040SOL    HW284145   4.969   9.685   6.119
28041SOL     OW84146   4.318  10.055   6.238
28041SOL    HW184147   4.368  10.140   6.219
28041SOL    HW284148   4.230  10.057   6.190
28042SOL     OW84149   5.501   9.652   7.228
28042SOL    HW184150   5.484   9.683   7.134
28042SOL    HW284151   5.417   9.615   7.266
28043SOL     OW84152   5.454  10.244   7.103
28043SOL    HW184153   5.492  10.335   7.118
28043SOL    HW284154   5.446  10.227   7.004
28044SOL     OW84155   4.583  10.684   5.602
28044SOL    HW184156   4.537  10.699   5.690
28044SOL    HW284157   4.627  10.769   5.572
28045SOL     OW84158   4.385  11.100   6.539
28045SOL    HW184159   4.339  11.188   6.526
28045SOL    HW284160   4.484  11.112   6.532
28046SOL     OW84161   4.583  10.266   6.447
28046SOL    HW184162   4.637  10.197   6.495
28046SOL    HW284163   4.551  10.335   6.513
28047SOL     OW84164   4.807  10.294   5.673
28047SOL    HW184165   4.784  10.347   5.591
28047SOL    HW284166   4.888  10.238   5.654
28048SOL     OW84167   5.585  10.879   6.437
28048SOL    HW184168   5.514  10.867   6.367
28048SOL    HW284169   5.586  10.800   6.497
28049SOL     OW84170   3.945  10.624   7.430
28049SOL    HW184171   3.880  10.551   7.409
28049SOL    HW284172   3.949  10.638   7.528
28050SOL     OW84173   3.803  10.550   6.239
28050SOL    HW184174   3.802  10.503   6.327
28050SOL    HW284175   3.885  10.522   6.188
28051SOL     OW84176   4.396  10.701   7.210
28051SOL    HW184177   4.318  10.651   7.248
28051SOL    HW284178   4.393  10.796   7.241
28052SOL     OW84179   5.548   9.502   6.813
28052SOL    HW184180   5.544   9.412   6.857
28052SOL    HW284181   5.551   9.491   6.714
28053SOL     OW84182   4.152   9.734   6.106
28053SOL    HW184183   4.182   9.662   6.044
28053SOL    HW284184   4.113   9.694   6.189
28054SOL     OW84185   5.429  10.797   6.690
28054SOL    HW184186   5.336  10.772   6.663
28054SOL    HW284187   5.455  10.747   6.772
28055SOL     OW84188   4.041   9.857   6.866
28055SOL    HW184189   4.079   9.798   6.938
28055SOL    HW284190   4.081   9.831   6.778
28056SOL     OW84191   4.536  10.896   6.273
28056SOL    HW184192   4.568  10.906   6.179
28056SOL    HW284193   4.457  10.834   6.275
28057SOL     OW84194   5.148   9.524   6.698
28057SOL    HW184195   5.200   9.459   6.753
28057SOL    HW284196   5.099   9.587   6.759
28058SOL     OW84197   4.725   9.344   6.740
28058SOL    HW184198   4.662   9.272   6.709
28058SOL    HW284199   4.818   9.308   6.740
28059SOL     OW84200   4.494  10.640   5.887
28059SOL    HW184201   4.448  10.553   5.904
28059SOL    HW284202   4.585  10.637   5.928
28060SOL     OW84203   4.342  10.877   6.870
28060SOL    HW184204   4.337  10.959   6.927
28060SOL    HW284205   4.431  10.874   6.825
28061SOL     OW84206   5.076   9.362   5.754
28061SOL    HW184207   5.111   9.321   5.670
28061SOL    HW284208   4.986   9.324   5.774
28062SOL     OW84209   5.024   9.763   6.277
28062SOL    HW184210   4.965   9.843   6.281
28062SOL    HW284211   5.039   9.728   6.370
28063SOL     OW84212   5.317   9.531   6.468
28063SOL    HW184213   5.233   9.530   6.522
28063SOL    HW284214   5.319   9.614   6.412
28064SOL     OW84215   3.763  10.387   5.886
28064SOL    HW184216   3.862  10.376   5.877
28064SOL    HW284217   3.723  10.301   5.918
28065SOL     OW84218   4.599  10.956   5.923
28065SOL    HW184219   4.522  10.921   5.869
28065SOL    HW284220   4.567  11.027   5.985
28066SOL     OW84221   3.954   9.938   7.561
28066SOL    HW184222   3.861   9.936   7.598
28066SOL    HW284223   3.955   9.899   7.469
28067SOL     OW84224   3.949   9.585   8.444
28067SOL    HW184225   3.984   9.568   8.536
28067SOL    HW284226   3.861   9.540   8.432
28068SOL     OW84227   3.743   9.678   8.095
28068SOL    HW184228   3.661   9.721   8.134
28068SOL    HW284229   3.715   9.605   8.032
28069SOL     OW84230   4.293  10.585   8.613
28069SOL    HW184231   4.200  10.578   8.576
28069SOL    HW284232   4.304  10.674   8.657
28070SOL     OW84233   5.279  10.821   8.151
28070SOL    HW184234   5.222  10.805   8.232
28070SOL    HW284235   5.220  10.831   8.071
28071SOL     OW84236   4.859  10.013   8.165
28071SOL    HW184237   4.916  10.091   8.140
28071SOL    HW284238   4.799  10.039   8.241
28072SOL     OW84239   5.479   9.917   7.679
28072SOL    HW184240   5.467   9.904   7.580
28072SOL    HW284241   5.449   9.836   7.728
28073SOL     OW84242   4.492  10.454   8.471
28073SOL    HW184243   4.414  10.471   8.531
28073SOL    HW284244   4.526  10.541   8.435
28074SOL     OW84245   4.574  10.108   9.271
28074SOL    HW184246   4.570  10.184   9.336
28074SOL    HW284247   4.596  10.144   9.180
28075SOL     OW84248   4.409  10.322   8.113
28075SOL    HW184249   4.478  10.306   8.183
28075SOL    HW284250   4.336  10.379   8.151
28076SOL     OW84251   4.410  10.471   9.251
28076SOL    HW184252   4.470  10.550   9.265
28076SOL    HW284253   4.324  10.502   9.210
28077SOL     OW84254   4.059  10.745   8.509
28077SOL    HW184255   3.981  10.714   8.456
28077SOL    HW284256   4.117  10.803   8.452
28078SOL     OW84257   5.184  10.815   8.787
28078SOL    HW184258   5.208  10.909   8.813
28078SOL    HW284259   5.168  10.761   8.869
28079SOL     OW84260   4.162   9.702   8.947
28079SOL    HW184261   4.244   9.646   8.956
28079SOL    HW284262   4.081   9.644   8.951
28080SOL     OW84263   5.327   9.757   8.185
28080SOL    HW184264   5.253   9.803   8.135
28080SOL    HW284265   5.378   9.825   8.238
28081SOL     OW84266   3.955  11.023   7.931
28081SOL    HW184267   3.989  11.100   7.985
28081SOL    HW284268   3.999  11.023   7.841
28082SOL     OW84269   4.851  10.651   9.138
28082SOL    HW184270   4.898  10.651   9.226
28082SOL    HW284271   4.803  10.564   9.127
28083SOL     OW84272   3.954  10.744   7.986
28083SOL    HW184273   3.928  10.840   7.986
28083SOL    HW284274   3.883  10.690   8.031
28084SOL     OW84275   3.964  10.401   8.334
28084SOL    HW184276   3.978  10.317   8.386
28084SOL    HW284277   3.909  10.465   8.389
28085SOL     OW84278   4.344  11.096   8.887
28085SOL    HW184279   4.252  11.079   8.922
28085SOL    HW284280   4.372  11.188   8.913
28086SOL     OW84281   4.330  10.274   7.571
28086SOL    HW184282   4.337  10.358   7.517
28086SOL    HW284283   4.376  10.287   7.659
28087SOL     OW84284   5.318   9.424   8.928
28087SOL    HW184285   5.300   9.491   8.856
28087SOL    HW284286   5.315   9.470   9.017
28088SOL     OW84287   3.846   9.953   8.011
28088SOL    HW184288   3.801   9.865   8.028
28088SOL    HW284289   3.845  10.007   8.095
28089SOL     OW84290   5.566  11.077   7.807
28089SOL    HW184291   5.620  11.048   7.887
28089SOL    HW284292   5.596  11.167   7.778
28090SOL     OW84293   3.751  10.906   7.565
28090SOL    HW184294   3.732  10.810   7.586
28090SOL    HW284295   3.718  10.964   7.640
28091SOL     OW84296   5.413  10.232   8.060
28091SOL    HW184297   5.508  10.203   8.068
28091SOL    HW284298   5.405  10.297   7.985
28092SOL     OW84299   5.365  10.418   7.880
28092SOL    HW184300   5.451  10.420   7.828
28092SOL    HW284301   5.379  10.465   7.968
28093SOL     OW84302   3.837  10.047   9.045
28093SOL    HW184303   3.925  10.034   9.090
28093SOL    HW284304   3.824  10.144   9.023
28094SOL     OW84305   4.337  10.675   8.174
28094SOL    HW184306   4.288  10.588   8.183
28094SOL    HW284307   4.314  10.718   8.087
28095SOL     OW84308   5.017  10.538   8.871
28095SOL    HW184309   5.054  10.465   8.813
28095SOL    HW284310   5.069  10.543   8.956
28096SOL     OW84311   4.533   9.314   7.950
28096SOL    HW184312   4.573   9.405   7.941
28096SOL    HW284313   4.433   9.322   7.956
28097SOL     OW84314   3.921  10.286   8.712
28097SOL    HW184315   4.010  10.241   8.698
28097SOL    HW284316   3.848  10.221   8.693
28098SOL     OW84317   5.249  10.309   7.638
28098SOL    HW184318   5.186  10.233   7.651
28098SOL    HW284319   5.297  10.327   7.724
28099SOL     OW84320   4.911  11.102   9.064
28099SOL    HW184321   4.935  11.162   8.988
28099SOL    HW284322   4.918  11.007   9.034
28100SOL     OW84323   4.041   9.561   9.249
28100SOL    HW184324   4.112   9.632   9.255
28100SOL    HW284325   3.953   9.600   9.277
28101SOL     OW84326   5.190  10.727   8.401
28101SOL    HW184327   5.131  10.733   8.481
28101SOL    HW284328   5.175  10.639   8.355
28102SOL     OW84329   5.391  11.024   8.020
28102SOL    HW184330   5.350  11.001   7.932
28102SOL    HW284331   5.373  10.950   8.085
28103SOL     OW84332   4.322  10.039   7.718
28103SOL    HW184333   4.346  10.108   7.650
28103SOL    HW284334   4.244  10.072   7.772
28104SOL     OW84335   5.005   9.655   8.392
28104SOL    HW184336   4.919   9.605   8.379
28104SOL    HW284337   5.067   9.601   8.448
28105SOL     OW84338   5.300  10.972   7.755
28105SOL    HW184339   5.389  11.018   7.758
28105SOL    HW284340   5.279  10.948   7.660
28106SOL     OW84341   4.531   9.915   8.913
28106SOL    HW184342   4.484   9.912   9.002
28106SOL    HW284343   4.480   9.860   8.847
28107SOL     OW84344   5.118   9.779   9.122
28107SOL    HW184345   5.098   9.822   9.210
28107SOL    HW284346   5.196   9.717   9.131
28108SOL     OW84347   4.697  10.200   9.020
28108SOL    HW184348   4.743  10.116   8.991
28108SOL    HW284349   4.641  10.234   8.945
28109SOL     OW84350   4.715   9.720   8.690
28109SOL    HW184351   4.638   9.754   8.744
28109SOL    HW284352   4.681   9.669   8.611
28110SOL     OW84353   4.765  10.011   7.877
28110SOL    HW184354   4.791  10.007   7.973
28110SOL    HW284355   4.680   9.960   7.863
28111SOL     OW84356   3.800  10.121   8.237
28111SOL    HW184357   3.899  10.109   8.246
28111SOL    HW284358   3.776  10.216   8.258
28112SOL     OW84359   3.854  11.131   9.019
28112SOL    HW184360   3.844  11.116   9.118
28112SOL    HW284361   3.768  11.167   8.983
28113SOL     OW84362   4.589   9.658   7.643
28113SOL    HW184363   4.648   9.721   7.594
28113SOL    HW284364   4.608   9.564   7.614
28114SOL     OW84365   5.443   9.895   9.279
28114SOL    HW184366   5.417   9.984   9.243
28114SOL    HW284367   5.441   9.827   9.206
28115SOL     OW84368   5.086  10.454   7.993
28115SOL    HW184369   5.169  10.425   7.945
28115SOL    HW284370   5.037  10.521   7.937
28116SOL     OW84371   4.274   9.506   8.333
28116SOL    HW184372   4.269   9.501   8.433
28116SOL    HW284373   4.276   9.602   8.304
28117SOL     OW84374   4.732  10.766   7.925
28117SOL    HW184375   4.686  10.838   7.873
28117SOL    HW284376   4.728  10.786   8.023
28118SOL     OW84377   4.075  11.111   8.301
28118SOL    HW184378   4.125  11.025   8.307
28118SOL    HW284379   4.140  11.188   8.298
28119SOL     OW84380   5.519  10.376   8.321
28119SOL    HW184381   5.457  10.361   8.245
28119SOL    HW284382   5.467  10.387   8.406
28120SOL     OW84383   4.951  10.860   8.954
28120SOL    HW184384   4.957  10.783   9.018
28120SOL    HW284385   4.899  10.834   8.874
28121SOL     OW84386   4.045  10.253   7.690
28121SOL    HW184387   4.127  10.292   7.648
28121SOL    HW284388   4.018  10.171   7.641
28122SOL     OW84389   5.182  10.045   8.176
28122SOL    HW184390   5.177   9.980   8.251
28122SOL    HW284391   5.262  10.104   8.189
28123SOL     OW84392   4.185  10.576   9.175
28123SOL    HW184393   4.135  10.577   9.089
28123SOL    HW284394   4.122  10.558   9.251
28124SOL     OW84395   4.835  11.086   7.685
28124SOL    HW184396   4.775  11.024   7.735
28124SOL    HW284397   4.866  11.042   7.600
28125SOL     OW84398   3.926   9.595   8.946
28125SOL    HW184399   3.846   9.655   8.933
28125SOL    HW284400   3.916   9.546   9.032
28126SOL     OW84401   5.356  10.687   7.529
28126SOL    HW184402   5.324  10.781   7.519
28126SOL    HW284403   5.280  10.624   7.517
28127SOL     OW84404   4.188  11.053   7.771
28127SOL    HW184405   4.221  11.092   7.857
28127SOL    HW284406   4.264  11.046   7.706
28128SOL     OW84407   5.124   9.417   7.874
28128SOL    HW184408   5.100   9.380   7.784
28128SOL    HW284409   5.223   9.433   7.878
28129SOL     OW84410   3.973  11.095   8.689
28129SOL    HW184411   4.030  11.030   8.739
28129SOL    HW284412   3.957  11.062   8.596
28130SOL     OW84413   4.664  11.008   8.352
28130SOL    HW184414   4.744  10.951   8.373
28130SOL    HW284415   4.615  10.968   8.275
28131SOL     OW84416   4.106  10.010   7.928
28131SOL    HW184417   4.151   9.920   7.925
28131SOL    HW284418   4.012   9.999   7.961
28132SOL     OW84419   5.271   9.532   9.177
28132SOL    HW184420   5.266   9.569   9.269
28132SOL    HW284421   5.199   9.463   9.165
28133SOL     OW84422   4.338   9.432   7.565
28133SOL    HW184423   4.436   9.410   7.572
28133SOL    HW284424   4.307   9.415   7.472
28134SOL     OW84425   4.505   9.574   9.197
28134SOL    HW184426   4.572   9.513   9.240
28134SOL    HW284427   4.432   9.593   9.262
28135SOL     OW84428   4.612  10.824   8.643
28135SOL    HW184429   4.589  10.799   8.549
28135SOL    HW284430   4.673  10.755   8.682
28136SOL     OW84431   5.075   9.900   8.881
28136SOL    HW184432   5.103   9.857   8.966
28136SOL    HW284433   5.100   9.996   8.882
28137SOL     OW84434   4.527  10.712   8.372
28137SOL    HW184435   4.617  10.726   8.330
28137SOL    HW284436   4.456  10.714   8.301
28138SOL     OW84437   4.646   9.813   8.347
28138SOL    HW184438   4.621   9.804   8.251
28138SOL    HW284439   4.694   9.731   8.378
28139SOL     OW84440   4.263   9.374   7.960
28139SOL    HW184441   4.182   9.375   8.018
28139SOL    HW284442   4.266   9.457   7.905
28140SOL     OW84443   5.158  10.498   7.489
28140SOL    HW184444   5.190  10.422   7.546
28140SOL    HW284445   5.066  10.525   7.519
28141SOL     OW84446   4.021   9.345   7.619
28141SOL    HW184447   4.070   9.429   7.598
28141SOL    HW284448   4.083   9.280   7.664
28142SOL     OW84449   4.659   9.546   7.928
28142SOL    HW184450   4.611   9.587   7.850
28142SOL    HW284451   4.758   9.544   7.909
28143SOL     OW84452   4.800   9.993   8.912
28143SOL    HW184453   4.720   9.932   8.915
28143SOL    HW284454   4.881   9.940   8.888
28144SOL     OW84455   4.951  10.880   8.241
28144SOL    HW184456   4.972  10.954   8.176
28144SOL    HW284457   5.019  10.880   8.314
28145SOL     OW84458   4.183  10.462   8.189
28145SOL    HW184459   4.112  10.435   8.254
28145SOL    HW284460   4.157  10.434   8.096
28146SOL     OW84461   4.995  11.107   8.039
28146SOL    HW184462   5.039  11.171   7.975
28146SOL    HW284463   4.945  11.159   8.109
28147SOL     OW84464   4.756   9.859   7.464
28147SOL    HW184465   4.715   9.941   7.425
28147SOL    HW284466   4.820   9.885   7.537
28148SOL     OW84467   3.802   9.866   8.834
28148SOL    HW184468   3.894   9.865   8.793
28148SOL    HW284469   3.796   9.940   8.901
28149SOL     OW84470   4.285   9.532   8.595
28149SOL    HW184471   4.323   9.448   8.632
28149SOL    HW284472   4.197   9.551   8.639
28150SOL     OW84473   4.590   9.764   8.090
28150SOL    HW184474   4.558   9.836   8.028
28150SOL    HW284475   4.614   9.683   8.037
28151SOL     OW84476   4.741   9.349   8.201
28151SOL    HW184477   4.669   9.354   8.132
28151SOL    HW284478   4.717   9.280   8.270
28152SOL     OW84479   5.153  10.483   8.315
28152SOL    HW184480   5.098  10.399   8.308
28152SOL    HW284481   5.179  10.512   8.223
28153SOL     OW84482   5.190   9.900   8.440
28153SOL    HW184483   5.160   9.805   8.447
28153SOL    HW284484   5.263   9.916   8.506
28154SOL     OW84485   5.581  10.143   7.825
28154SOL    HW184486   5.623  10.079   7.889
28154SOL    HW284487   5.543  10.092   7.747
28155SOL     OW84488   4.212  10.695   7.622
28155SOL    HW184489   4.125  10.680   7.669
28155SOL    HW284490   4.195  10.721   7.527
28156SOL     OW84491   5.388  10.590   8.105
28156SOL    HW184492   5.487  10.598   8.119
28156SOL    HW284493   5.343  10.674   8.136
28157SOL     OW84494   5.114   9.885   7.526
28157SOL    HW184495   5.060   9.864   7.607
28157SOL    HW284496   5.205   9.844   7.535
28158SOL     OW84497   4.251   9.566   7.776
28158SOL    HW184498   4.278   9.507   7.701
28158SOL    HW284499   4.251   9.661   7.745
28159SOL     OW84500   5.478  10.533   9.036
28159SOL    HW184501   5.569  10.494   9.023
28159SOL    HW284502   5.486  10.629   9.060
28160SOL     OW84503   4.788  10.657   8.788
28160SOL    HW184504   4.708  10.634   8.843
28160SOL    HW284505   4.871  10.631   8.837
28161SOL     OW84506   5.316  10.939   9.073
28161SOL    HW184507   5.343  10.973   8.983
28161SOL    HW284508   5.395  10.901   9.119
28162SOL     OW84509   4.835  10.505   8.548
28162SOL    HW184510   4.795  10.549   8.629
28162SOL    HW284511   4.794  10.542   8.465
28163SOL     OW84512   5.362  10.409   8.527
28163SOL    HW184513   5.367  10.490   8.586
28163SOL    HW284514   5.276  10.411   8.476
28164SOL     OW84515   4.639   9.399   8.850
28164SOL    HW184516   4.664   9.379   8.755
28164SOL    HW284517   4.711   9.455   8.892
28165SOL     OW84518   4.704  10.426   9.167
28165SOL    HW184519   4.605  10.432   9.177
28165SOL    HW284520   4.727  10.346   9.111
28166SOL     OW84521   4.429  10.360   7.816
28166SOL    HW184522   4.415  10.367   7.915
28166SOL    HW284523   4.513  10.309   7.798
28167SOL     OW84524   4.134  10.123   8.699
28167SOL    HW184525   4.220  10.135   8.749
28167SOL    HW284526   4.092  10.036   8.726
28168SOL     OW84527   4.998   9.696   8.710
28168SOL    HW184528   5.019   9.770   8.774
28168SOL    HW284529   4.909   9.713   8.667
28169SOL     OW84530   3.788  10.874   8.779
28169SOL    HW184531   3.742  10.956   8.745
28169SOL    HW284532   3.886  10.893   8.788
28170SOL     OW84533   4.091  10.410   7.949
28170SOL    HW184534   4.084  10.493   7.893
28170SOL    HW284535   4.095  10.330   7.889
28171SOL     OW84536   4.290   9.847   8.313
28171SOL    HW184537   4.302   9.913   8.239
28171SOL    HW284538   4.336   9.881   8.396
28172SOL     OW84539   4.976  10.658   7.836
28172SOL    HW184540   5.026  10.735   7.876
28172SOL    HW284541   4.881  10.660   7.868
28173SOL     OW84542   4.996  10.755   8.590
28173SOL    HW184543   5.043  10.768   8.677
28173SOL    HW284544   4.930  10.681   8.599
28174SOL     OW84545   5.306   9.949   7.920
28174SOL    HW184546   5.275  10.010   7.993
28174SOL    HW284547   5.356  10.001   7.851
28175SOL     OW84548   4.078  10.820   8.777
28175SOL    HW184549   4.057  10.776   8.690
28175SOL    HW284550   4.175  10.846   8.780
28176SOL     OW84551   4.126  10.061   9.046
28176SOL    HW184552   4.194  10.116   8.999
28176SOL    HW284553   4.166   9.973   9.073
28177SOL     OW84554   5.311  10.089   9.118
28177SOL    HW184555   5.219  10.127   9.113
28177SOL    HW284556   5.371  10.136   9.053
28178SOL     OW84557   4.737   9.415   9.218
28178SOL    HW184558   4.743   9.500   9.166
28178SOL    HW284559   4.769   9.339   9.161
28179SOL     OW84560   4.228   9.360   9.188
28179SOL    HW184561   4.186   9.303   9.118
28179SOL    HW284562   4.162   9.429   9.220
28180SOL     OW84563   4.297  10.180   8.477
28180SOL    HW184564   4.341  10.269   8.468
28180SOL    HW284565   4.234  10.180   8.554
28181SOL     OW84566   5.084  10.172   8.493
28181SOL    HW184567   5.009  10.172   8.427
28181SOL    HW284568   5.121  10.080   8.502
28182SOL     OW84569   4.933   9.835   7.723
28182SOL    HW184570   4.946   9.751   7.777
28182SOL    HW284571   4.904   9.909   7.783
28183SOL     OW84572   4.031   9.523   8.679
28183SOL    HW184573   4.008   9.560   8.769
28183SOL    HW284574   4.001   9.428   8.673
28184SOL     OW84575   3.761  10.620   8.730
28184SOL    HW184576   3.814  10.571   8.798
28184SOL    HW284577   3.783  10.718   8.735
28185SOL     OW84578   4.456   9.944   8.512
28185SOL    HW184579   4.515   9.918   8.436
28185SOL    HW284580   4.428  10.040   8.501
28186SOL     OW84581   5.452  10.245   9.302
28186SOL    HW184582   5.406  10.238   9.213
28186SOL    HW284583   5.390  10.289   9.368
28187SOL     OW84584   4.031   9.373   8.066
28187SOL    HW184585   4.020   9.467   8.099
28187SOL    HW284586   4.026   9.310   8.143
28188SOL     OW84587   5.346   9.677   7.822
28188SOL    HW184588   5.348   9.601   7.886
28188SOL    HW284589   5.298   9.754   7.862
28189SOL     OW84590   4.747  10.076   8.414
28189SOL    HW184591   4.762  10.097   8.510
28189SOL    HW284592   4.717   9.981   8.405
28190SOL     OW84593   4.704  10.883   9.148
28190SOL    HW184594   4.684  10.927   9.060
28190SOL    HW284595   4.743  10.792   9.132
28191SOL     OW84596   5.583  10.828   9.053
28191SOL    HW184597   5.597  10.855   8.958
28191SOL    HW284598   5.666  10.850   9.106
28192SOL     OW84599   4.074  10.208   9.252
28192SOL    HW184600   4.150  10.252   9.300
28192SOL    HW284601   4.109  10.161   9.170
28193SOL     OW84602   5.264   9.584   7.573
28193SOL    HW184603   5.203   9.509   7.596
28193SOL    HW284604   5.286   9.636   7.656
28194SOL     OW84605   5.027  10.148   7.490
28194SOL    HW184606   5.061  10.055   7.505
28194SOL    HW284607   5.045  10.175   7.395
28195SOL     OW84608   4.792  10.643   8.297
28195SOL    HW184609   4.799  10.559   8.242
28195SOL    HW284610   4.854  10.712   8.261
28196SOL     OW84611   4.043  10.120   8.397
28196SOL    HW184612   4.136  10.156   8.402
28196SOL    HW284613   4.037  10.035   8.449
28197SOL     OW84614   4.063   9.819   8.454
28197SOL    HW184615   4.011   9.736   8.437
28197SOL    HW284616   4.140   9.824   8.390
28198SOL     OW84617   4.862   9.690   9.126
28198SOL    HW184618   4.817   9.753   9.190
28198SOL    HW284619   4.955   9.721   9.109
28199SOL     OW84620   4.884   9.517   8.925
28199SOL    HW184621   4.884   9.581   9.002
28199SOL    HW284622   4.912   9.565   8.842
28200SOL     OW84623   3.732  10.636   7.648
28200SOL    HW184624   3.639  10.657   7.617
28200SOL    HW284625   3.742  10.537   7.661
28201SOL     OW84626   3.812  11.111   8.375
28201SOL    HW184627   3.770  11.025   8.348
28201SOL    HW284628   3.906  11.114   8.341
28202SOL     OW84629   4.228  10.878   8.358
28202SOL    HW184630   4.294  10.952   8.367
28202SOL    HW284631   4.272  10.799   8.316
28203SOL     OW84632   4.726  10.106   8.686
28203SOL    HW184633   4.767  10.074   8.772
28203SOL    HW284634   4.630  10.079   8.683
28204SOL     OW84635   3.764   9.854   8.562
28204SOL    HW184636   3.849   9.821   8.521
28204SOL    HW284637   3.777   9.869   8.660
28205SOL     OW84638   3.913   9.830   9.170
28205SOL    HW184639   3.972   9.790   9.100
28205SOL    HW284640   3.855   9.901   9.129
28206SOL     OW84641   5.093  10.260   9.108
28206SOL    HW184642   5.132  10.349   9.128
28206SOL    HW284643   5.103  10.240   9.011
28207SOL     OW84644   4.539   9.882   7.773
28207SOL    HW184645   4.546   9.793   7.727
28207SOL    HW284646   4.445   9.916   7.765
28208SOL     OW84647   5.381   9.914   8.654
28208SOL    HW184648   5.343   9.845   8.716
28208SOL    HW284649   5.463   9.878   8.610
28209SOL     OW84650   3.976  10.874   9.192
28209SOL    HW184651   3.946  10.931   9.268
28209SOL    HW284652   3.969  10.777   9.218
28210SOL     OW84653   4.395   9.774   8.717
28210SOL    HW184654   4.361   9.685   8.687
28210SOL    HW284655   4.421   9.828   8.637
28211SOL     OW84656   4.654  10.988   8.913
28211SOL    HW184657   4.630  10.970   8.818
28211SOL    HW284658   4.684  11.082   8.923
28212SOL     OW84659   4.197   9.810   7.639
28212SOL    HW184660   4.258   9.890   7.643
28212SOL    HW284661   4.102   9.841   7.646
28213SOL     OW84662   3.883  10.447   8.914
28213SOL    HW184663   3.905  10.386   8.990
28213SOL    HW284664   3.893  10.398   8.828
28214SOL     OW84665   5.071  10.369   8.682
28214SOL    HW184666   5.095  10.306   8.608
28214SOL    HW284667   4.981  10.409   8.664
28215SOL     OW84668   5.026  10.165   7.757
28215SOL    HW184669   4.940  10.134   7.799
28215SOL    HW284670   5.022  10.151   7.658
28216SOL     OW84671   5.483  11.057   8.602
28216SOL    HW184672   5.544  11.087   8.529
28216SOL    HW284673   5.445  10.968   8.580
28217SOL     OW84674   4.976  11.041   8.576
28217SOL    HW184675   5.060  11.046   8.522
28217SOL    HW284676   4.953  10.945   8.594
28218SOL     OW84677   3.807  10.568   8.470
28218SOL    HW184678   3.802  10.567   8.570
28218SOL    HW284679   3.724  10.527   8.432
28219SOL     OW84680   4.412  10.972   9.164
28219SOL    HW184681   4.356  11.053   9.173
28219SOL    HW284682   4.464  10.976   9.078
28220SOL     OW84683   5.450   9.445   7.971
28220SOL    HW184684   5.523   9.428   7.904
28220SOL    HW284685   5.419   9.358   8.009
28221SOL     OW84686   5.112  10.883   7.925
28221SOL    HW184687   5.179  10.895   7.851
28221SOL    HW284688   5.072  10.972   7.948
28222SOL     OW84689   3.854  11.104   9.299
28222SOL    HW184690   3.813  11.030   9.352
28222SOL    HW284691   3.918  11.155   9.357
28223SOL     OW84692   5.004  10.237   8.120
28223SOL    HW184693   5.064  10.156   8.122
28223SOL    HW284694   5.044  10.306   8.060
28224SOL     OW84695   4.554  10.583   8.870
28224SOL    HW184696   4.549  10.616   8.965
28224SOL    HW284697   4.468  10.602   8.824
28225SOL     OW84698   4.396  10.926   7.602
28225SOL    HW184699   4.405  10.936   7.503
28225SOL    HW284700   4.356  10.837   7.623
28226SOL     OW84701   5.374  11.030   8.842
28226SOL    HW184702   5.427  11.040   8.758
28226SOL    HW284703   5.347  11.120   8.876
28227SOL     OW84704   5.565   9.485   8.411
28227SOL    HW184705   5.604   9.400   8.375
28227SOL    HW284706   5.467   9.487   8.392
28228SOL     OW84707   3.987   9.636   8.168
28228SOL    HW184708   3.908   9.687   8.134
28228SOL    HW284709   3.978   9.621   8.266
28229SOL     OW84710   4.918  10.922   7.479
28229SOL    HW184711   4.924  10.829   7.516
28229SOL    HW284712   4.859  10.922   7.399
28230SOL     OW84713   4.546  10.312   8.820
28230SOL    HW184714   4.586  10.311   8.728
28230SOL    HW284715   4.556  10.404   8.860
28231SOL     OW84716   4.640  10.220   7.739
28231SOL    HW184717   4.703  10.258   7.671
28231SOL    HW284718   4.680  10.137   7.778
28232SOL     OW84719   5.228  10.917   7.492
28232SOL    HW184720   5.136  10.954   7.499
28232SOL    HW284721   5.266  10.937   7.402
28233SOL     OW84722   4.096  10.598   8.938
28233SOL    HW184723   4.083  10.691   8.904
28233SOL    HW284724   4.012  10.546   8.925
28234SOL     OW84725   5.338  10.602   8.737
28234SOL    HW184726   5.398  10.605   8.817
28234SOL    HW284727   5.263  10.666   8.750
28235SOL     OW84728   4.763  10.408   8.144
28235SOL    HW184729   4.693  10.361   8.198
28235SOL    HW284730   4.822  10.340   8.101
28236SOL     OW84731   4.738   9.546   8.419
28236SOL    HW184732   4.730   9.510   8.326
28236SOL    HW284733   4.736   9.470   8.484
28237SOL     OW84734   4.314  10.797   7.939
28237SOL    HW184735   4.356  10.739   7.869
28237SOL    HW284736   4.270  10.876   7.895
28238SOL     OW84737   5.433   9.695   8.829
28238SOL    HW184738   5.506   9.764   8.833
28238SOL    HW284739   5.461   9.620   8.770
28239SOL     OW84740   3.979  10.658   7.738
28239SOL    HW184741   3.883  10.659   7.711
28239SOL    HW284742   3.991  10.711   7.822
28240SOL     OW84743   3.829  10.323   9.174
28240SOL    HW184744   3.752  10.290   9.228
28240SOL    HW284745   3.914  10.293   9.216
28241SOL     OW84746   4.396   9.513   8.937
28241SOL    HW184747   4.486   9.497   8.897
28241SOL    HW284748   4.404   9.518   9.036
28242SOL     OW84749   3.799   9.655   7.481
28242SOL    HW184750   3.707   9.627   7.452
28242SOL    HW284751   3.830   9.732   7.425
28243SOL     OW84752   5.164  10.166   8.846
28243SOL    HW184753   5.107  10.218   8.783
28243SOL    HW284754   5.260  10.178   8.822
28244SOL     OW84755   3.796   9.476   7.766
28244SOL    HW184756   3.779   9.559   7.712
28244SOL    HW284757   3.886   9.439   7.744
28245SOL     OW84758   4.907  10.645   7.567
28245SOL    HW184759   4.808  10.634   7.569
28245SOL    HW284760   4.941  10.660   7.660
28246SOL     OW84761   4.337  10.152   8.879
28246SOL    HW184762   4.393  10.233   8.862
28246SOL    HW284763   4.396  10.072   8.882
28247SOL     OW84764   5.217  11.077   8.407
28247SOL    HW184765   5.250  11.141   8.338
28247SOL    HW284766   5.283  11.071   8.482
28248SOL     OW84767   4.440   9.875   9.156
28248SOL    HW184768   4.459   9.940   9.230
28248SOL    HW284769   4.500   9.795   9.165
28249SOL     OW84770   5.174  10.530   9.081
28249SOL    HW184771   5.165  10.520   9.180
28249SOL    HW284772   5.270  10.523   9.055
28250SOL     OW84773   4.114  11.051   9.008
28250SOL    HW184774   4.023  11.092   9.006
28250SOL    HW284775   4.107  10.957   9.040
28251SOL     OW84776   5.398  10.193   8.702
28251SOL    HW184777   5.371  10.104   8.665
28251SOL    HW284778   5.399  10.261   8.629
28252SOL     OW84779   4.949   9.635   7.897
28252SOL    HW184780   5.014   9.561   7.886
28252SOL    HW284781   4.969   9.685   7.981
28253SOL     OW84782   4.318  10.055   8.100
28253SOL    HW184783   4.368  10.140   8.081
28253SOL    HW284784   4.230  10.057   8.052
28254SOL     OW84785   5.501   9.652   9.090
28254SOL    HW184786   5.484   9.683   8.996
28254SOL    HW284787   5.417   9.615   9.128
28255SOL     OW84788   5.454  10.244   8.965
28255SOL    HW184789   5.492  10.335   8.980
28255SOL    HW284790   5.446  10.227   8.866
28256SOL     OW84791   4.583  10.684   7.464
28256SOL    HW184792   4.537  10.699   7.552
28256SOL    HW284793   4.627  10.769   7.434
28257SOL     OW84794   4.385  11.100   8.401
28257SOL    HW184795   4.339  11.188   8.388
28257SOL    HW284796   4.484  11.112   8.394
28258SOL     OW84797   4.583  10.266   8.309
28258SOL    HW184798   4.637  10.197   8.357
28258SOL    HW284799   4.551  10.335   8.375
28259SOL     OW84800   4.807  10.294   7.535
28259SOL    HW184801   4.784  10.347   7.453
28259SOL    HW284802   4.888  10.238   7.516
28260SOL     OW84803   5.585  10.879   8.299
28260SOL    HW184804   5.514  10.867   8.229
28260SOL    HW284805   5.586  10.800   8.359
28261SOL     OW84806   3.945  10.624   9.292
28261SOL    HW184807   3.880  10.551   9.271
28261SOL    HW284808   3.949  10.638   9.390
28262SOL     OW84809   3.803  10.550   8.101
28262SOL    HW184810   3.802  10.503   8.189
28262SOL    HW284811   3.885  10.522   8.050
28263SOL     OW84812   4.396  10.701   9.072
28263SOL    HW184813   4.318  10.651   9.110
28263SOL    HW284814   4.393  10.796   9.103
28264SOL     OW84815   5.548   9.502   8.675
28264SOL    HW184816   5.544   9.412   8.719
28264SOL    HW284817   5.551   9.491   8.576
28265SOL     OW84818   4.152   9.734   7.968
28265SOL    HW184819   4.182   9.662   7.906
28265SOL    HW284820   4.113   9.694   8.051
28266SOL     OW84821   5.429  10.797   8.552
28266SOL    HW184822   5.336  10.772   8.525
28266SOL    HW284823   5.455  10.747   8.634
28267SOL     OW84824   4.041   9.857   8.728
28267SOL    HW184825   4.079   9.798   8.800
28267SOL    HW284826   4.081   9.831   8.640
28268SOL     OW84827   4.536  10.896   8.135
28268SOL    HW184828   4.568  10.906   8.041
28268SOL    HW284829   4.457  10.834   8.137
28269SOL     OW84830   5.148   9.524   8.560
28269SOL    HW184831   5.200   9.459   8.615
28269SOL    HW284832   5.099   9.587   8.621
28270SOL     OW84833   4.725   9.344   8.602
28270SOL    HW184834   4.662   9.272   8.571
28270SOL    HW284835   4.818   9.308   8.602
28271SOL     OW84836   4.494  10.640   7.749
28271SOL    HW184837   4.448  10.553   7.766
28271SOL    HW284838   4.585  10.637   7.790
28272SOL     OW84839   4.342  10.877   8.732
28272SOL    HW184840   4.337  10.959   8.789
28272SOL    HW284841   4.431  10.874   8.687
28273SOL     OW84842   5.076   9.362   7.616
28273SOL    HW184843   5.111   9.321   7.532
28273SOL    HW284844   4.986   9.324   7.636
28274SOL     OW84845   5.024   9.763   8.139
28274SOL    HW184846   4.965   9.843   8.143
28274SOL    HW284847   5.039   9.728   8.232
28275SOL     OW84848   5.317   9.531   8.330
28275SOL    HW184849   5.233   9.530   8.384
28275SOL    HW284850   5.319   9.614   8.274
28276SOL     OW84851   3.763  10.387   7.748
28276SOL    HW184852   3.862  10.376   7.739
28276SOL    HW284853   3.723  10.301   7.780
28277SOL     OW84854   4.599  10.956   7.785
28277SOL    HW184855   4.522  10.921   7.731
28277SOL    HW284856   4.567  11.027   7.847
28278SOL     OW84857   3.954   9.938   9.423
28278SOL    HW184858   3.861   9.936   9.460
28278SOL    HW284859   3.955   9.899   9.331
28279SOL     OW84860   3.949   9.585  10.306
28279SOL    HW184861   3.984   9.568  10.398
28279SOL    HW284862   3.861   9.540  10.294
28280SOL     OW84863   3.743   9.678   9.957
28280SOL    HW184864   3.661   9.721   9.996
28280SOL    HW284865   3.715   9.605   9.894
28281SOL     OW84866   4.293  10.585  10.475
28281SOL    HW184867   4.200  10.578  10.438
28281SOL    HW284868   4.304  10.674  10.519
28282SOL     OW84869   5.279  10.821  10.013
28282SOL    HW184870   5.222  10.805  10.094
28282SOL    HW284871   5.220  10.831   9.933
28283SOL     OW84872   4.859  10.013  10.027
28283SOL    HW184873   4.916  10.091  10.002
28283SOL    HW284874   4.799  10.039  10.103
28284SOL     OW84875   5.479   9.917   9.541
28284SOL    HW184876   5.467   9.904   9.442
28284SOL    HW284877   5.449   9.836   9.590
28285SOL     OW84878   4.492  10.454  10.333
28285SOL    HW184879   4.414  10.471  10.393
28285SOL    HW284880   4.526  10.541  10.297
28286SOL     OW84881   4.574  10.108  11.133
28286SOL    HW184882   4.570  10.184  11.198
28286SOL    HW284883   4.596  10.144  11.042
28287SOL     OW84884   4.409  10.322   9.975
28287SOL    HW184885   4.478  10.306  10.045
28287SOL    HW284886   4.336  10.379  10.013
28288SOL     OW84887   4.410  10.471  11.113
28288SOL    HW184888   4.470  10.550  11.127
28288SOL    HW284889   4.324  10.502  11.072
28289SOL     OW84890   4.059  10.745  10.371
28289SOL    HW184891   3.981  10.714  10.318
28289SOL    HW284892   4.117  10.803  10.314
28290SOL     OW84893   5.184  10.815  10.649
28290SOL    HW184894   5.208  10.909  10.675
28290SOL    HW284895   5.168  10.761  10.731
28291SOL     OW84896   4.162   9.702  10.809
28291SOL    HW184897   4.244   9.646  10.818
28291SOL    HW284898   4.081   9.644  10.813
28292SOL     OW84899   5.327   9.757  10.047
28292SOL    HW184900   5.253   9.803   9.997
28292SOL    HW284901   5.378   9.825  10.100
28293SOL     OW84902   3.955  11.023   9.793
28293SOL    HW184903   3.989  11.100   9.847
28293SOL    HW284904   3.999  11.023   9.703
28294SOL     OW84905   4.851  10.651  11.000
28294SOL    HW184906   4.898  10.651  11.088
28294SOL    HW284907   4.803  10.564  10.989
28295SOL     OW84908   3.954  10.744   9.848
28295SOL    HW184909   3.928  10.840   9.848
28295SOL    HW284910   3.883  10.690   9.893
28296SOL     OW84911   3.964  10.401  10.196
28296SOL    HW184912   3.978  10.317  10.248
28296SOL    HW284913   3.909  10.465  10.251
28297SOL     OW84914   4.344  11.096  10.749
28297SOL    HW184915   4.252  11.079  10.784
28297SOL    HW284916   4.372  11.188  10.775
28298SOL     OW84917   4.330  10.274   9.433
28298SOL    HW184918   4.337  10.358   9.379
28298SOL    HW284919   4.376  10.287   9.521
28299SOL     OW84920   5.318   9.424  10.790
28299SOL    HW184921   5.300   9.491  10.718
28299SOL    HW284922   5.315   9.470  10.879
28300SOL     OW84923   3.846   9.953   9.873
28300SOL    HW184924   3.801   9.865   9.890
28300SOL    HW284925   3.845  10.007   9.957
28301SOL     OW84926   5.566  11.077   9.669
28301SOL    HW184927   5.620  11.048   9.749
28301SOL    HW284928   5.596  11.167   9.640
28302SOL     OW84929   3.751  10.906   9.427
28302SOL    HW184930   3.732  10.810   9.448
28302SOL    HW284931   3.718  10.964   9.502
28303SOL     OW84932   5.413  10.232   9.922
28303SOL    HW184933   5.508  10.203   9.930
28303SOL    HW284934   5.405  10.297   9.847
28304SOL     OW84935   5.365  10.418   9.742
28304SOL    HW184936   5.451  10.420   9.690
28304SOL    HW284937   5.379  10.465   9.830
28305SOL     OW84938   3.837  10.047  10.907
28305SOL    HW184939   3.925  10.034  10.952
28305SOL    HW284940   3.824  10.144  10.885
28306SOL     OW84941   4.337  10.675  10.036
28306SOL    HW184942   4.288  10.588  10.045
28306SOL    HW284943   4.314  10.718   9.949
28307SOL     OW84944   5.017  10.538  10.733
28307SOL    HW184945   5.054  10.465  10.675
28307SOL    HW284946   5.069  10.543  10.818
28308SOL     OW84947   4.533   9.314   9.812
28308SOL    HW184948   4.573   9.405   9.803
28308SOL    HW284949   4.433   9.322   9.818
28309SOL     OW84950   3.921  10.286  10.574
28309SOL    HW184951   4.010  10.241  10.560
28309SOL    HW284952   3.848  10.221  10.555
28310SOL     OW84953   5.249  10.309   9.500
28310SOL    HW184954   5.186  10.233   9.513
28310SOL    HW284955   5.297  10.327   9.586
28311SOL     OW84956   4.911  11.102  10.926
28311SOL    HW184957   4.935  11.162  10.850
28311SOL    HW284958   4.918  11.007  10.896
28312SOL     OW84959   4.041   9.561  11.111
28312SOL    HW184960   4.112   9.632  11.117
28312SOL    HW284961   3.953   9.600  11.139
28313SOL     OW84962   5.190  10.727  10.263
28313SOL    HW184963   5.131  10.733  10.343
28313SOL    HW284964   5.175  10.639  10.217
28314SOL     OW84965   5.391  11.024   9.882
28314SOL    HW184966   5.350  11.001   9.794
28314SOL    HW284967   5.373  10.950   9.947
28315SOL     OW84968   4.322  10.039   9.580
28315SOL    HW184969   4.346  10.108   9.512
28315SOL    HW284970   4.244  10.072   9.634
28316SOL     OW84971   5.005   9.655  10.254
28316SOL    HW184972   4.919   9.605  10.241
28316SOL    HW284973   5.067   9.601  10.310
28317SOL     OW84974   5.300  10.972   9.617
28317SOL    HW184975   5.389  11.018   9.620
28317SOL    HW284976   5.279  10.948   9.522
28318SOL     OW84977   4.531   9.915  10.775
28318SOL    HW184978   4.484   9.912  10.864
28318SOL    HW284979   4.480   9.860  10.709
28319SOL     OW84980   5.118   9.779  10.984
28319SOL    HW184981   5.098   9.822  11.072
28319SOL    HW284982   5.196   9.717  10.993
28320SOL     OW84983   4.697  10.200  10.882
28320SOL    HW184984   4.743  10.116  10.853
28320SOL    HW284985   4.641  10.234  10.807
28321SOL     OW84986   4.715   9.720  10.552
28321SOL    HW184987   4.638   9.754  10.606
28321SOL    HW284988   4.681   9.669  10.473
28322SOL     OW84989   4.765  10.011   9.739
28322SOL    HW184990   4.791  10.007   9.835
28322SOL    HW284991   4.680   9.960   9.725
28323SOL     OW84992   3.800  10.121  10.099
28323SOL    HW184993   3.899  10.109  10.108
28323SOL    HW284994   3.776  10.216  10.120
28324SOL     OW84995   3.854  11.131  10.881
28324SOL    HW184996   3.844  11.116  10.980
28324SOL    HW284997   3.768  11.167  10.845
28325SOL     OW84998   4.589   9.658   9.505
28325SOL    HW184999   4.648   9.721   9.456
28325SOL    HW285000   4.608   9.564   9.476
28326SOL     OW85001   5.443   9.895  11.141
28326SOL    HW185002   5.417   9.984  11.105
28326SOL    HW285003   5.441   9.827  11.068
28327SOL     OW85004   5.086  10.454   9.855
28327SOL    HW185005   5.169  10.425   9.807
28327SOL    HW285006   5.037  10.521   9.799
28328SOL     OW85007   4.274   9.506  10.195
28328SOL    HW185008   4.269   9.501  10.295
28328SOL    HW285009   4.276   9.602  10.166
28329SOL     OW85010   4.732  10.766   9.787
28329SOL    HW185011   4.686  10.838   9.735
28329SOL    HW285012   4.728  10.786   9.885
28330SOL     OW85013   4.075  11.111  10.163
28330SOL    HW185014   4.125  11.025  10.169
28330SOL    HW285015   4.140  11.188  10.160
28331SOL     OW85016   5.519  10.376  10.183
28331SOL    HW185017   5.457  10.361  10.107
28331SOL    HW285018   5.467  10.387  10.268
28332SOL     OW85019   4.951  10.860  10.816
28332SOL    HW185020   4.957  10.783  10.880
28332SOL    HW285021   4.899  10.834  10.736
28333SOL     OW85022   4.045  10.253   9.552
28333SOL    HW185023   4.127  10.292   9.510
28333SOL    HW285024   4.018  10.171   9.503
28334SOL     OW85025   5.182  10.045  10.038
28334SOL    HW185026   5.177   9.980  10.113
28334SOL    HW285027   5.262  10.104  10.051
28335SOL     OW85028   4.185  10.576  11.037
28335SOL    HW185029   4.135  10.577  10.951
28335SOL    HW285030   4.122  10.558  11.113
28336SOL     OW85031   4.835  11.086   9.547
28336SOL    HW185032   4.775  11.024   9.597
28336SOL    HW285033   4.866  11.042   9.462
28337SOL     OW85034   3.926   9.595  10.808
28337SOL    HW185035   3.846   9.655  10.795
28337SOL    HW285036   3.916   9.546  10.894
28338SOL     OW85037   5.356  10.687   9.391
28338SOL    HW185038   5.324  10.781   9.381
28338SOL    HW285039   5.280  10.624   9.379
28339SOL     OW85040   4.188  11.053   9.633
28339SOL    HW185041   4.221  11.092   9.719
28339SOL    HW285042   4.264  11.046   9.568
28340SOL     OW85043   5.124   9.417   9.736
28340SOL    HW185044   5.100   9.380   9.646
28340SOL    HW285045   5.223   9.433   9.740
28341SOL     OW85046   3.973  11.095  10.551
28341SOL    HW185047   4.030  11.030  10.601
28341SOL    HW285048   3.957  11.062  10.458
28342SOL     OW85049   4.664  11.008  10.214
28342SOL    HW185050   4.744  10.951  10.235
28342SOL    HW285051   4.615  10.968  10.137
28343SOL     OW85052   4.106  10.010   9.790
28343SOL    HW185053   4.151   9.920   9.787
28343SOL    HW285054   4.012   9.999   9.823
28344SOL     OW85055   5.271   9.532  11.039
28344SOL    HW185056   5.266   9.569  11.131
28344SOL    HW285057   5.199   9.463  11.027
28345SOL     OW85058   4.338   9.432   9.427
28345SOL    HW185059   4.436   9.410   9.434
28345SOL    HW285060   4.307   9.415   9.334
28346SOL     OW85061   4.505   9.574  11.059
28346SOL    HW185062   4.572   9.513  11.102
28346SOL    HW285063   4.432   9.593  11.124
28347SOL     OW85064   4.612  10.824  10.505
28347SOL    HW185065   4.589  10.799  10.411
28347SOL    HW285066   4.673  10.755  10.544
28348SOL     OW85067   5.075   9.900  10.743
28348SOL    HW185068   5.103   9.857  10.828
28348SOL    HW285069   5.100   9.996  10.744
28349SOL     OW85070   4.527  10.712  10.234
28349SOL    HW185071   4.617  10.726  10.192
28349SOL    HW285072   4.456  10.714  10.163
28350SOL     OW85073   4.646   9.813  10.209
28350SOL    HW185074   4.621   9.804  10.113
28350SOL    HW285075   4.694   9.731  10.240
28351SOL     OW85076   4.263   9.374   9.822
28351SOL    HW185077   4.182   9.375   9.880
28351SOL    HW285078   4.266   9.457   9.767
28352SOL     OW85079   5.158  10.498   9.351
28352SOL    HW185080   5.190  10.422   9.408
28352SOL    HW285081   5.066  10.525   9.381
28353SOL     OW85082   4.021   9.345   9.481
28353SOL    HW185083   4.070   9.429   9.460
28353SOL    HW285084   4.083   9.280   9.526
28354SOL     OW85085   4.659   9.546   9.790
28354SOL    HW185086   4.611   9.587   9.712
28354SOL    HW285087   4.758   9.544   9.771
28355SOL     OW85088   4.800   9.993  10.774
28355SOL    HW185089   4.720   9.932  10.777
28355SOL    HW285090   4.881   9.940  10.750
28356SOL     OW85091   4.951  10.880  10.103
28356SOL    HW185092   4.972  10.954  10.038
28356SOL    HW285093   5.019  10.880  10.176
28357SOL     OW85094   4.183  10.462  10.051
28357SOL    HW185095   4.112  10.435  10.116
28357SOL    HW285096   4.157  10.434   9.958
28358SOL     OW85097   4.995  11.107   9.901
28358SOL    HW185098   5.039  11.171   9.837
28358SOL    HW285099   4.945  11.159   9.971
28359SOL     OW85100   4.756   9.859   9.326
28359SOL    HW185101   4.715   9.941   9.287
28359SOL    HW285102   4.820   9.885   9.399
28360SOL     OW85103   3.802   9.866  10.696
28360SOL    HW185104   3.894   9.865  10.655
28360SOL    HW285105   3.796   9.940  10.763
28361SOL     OW85106   4.285   9.532  10.457
28361SOL    HW185107   4.323   9.448  10.494
28361SOL    HW285108   4.197   9.551  10.501
28362SOL     OW85109   4.590   9.764   9.952
28362SOL    HW185110   4.558   9.836   9.890
28362SOL    HW285111   4.614   9.683   9.899
28363SOL     OW85112   4.741   9.349  10.063
28363SOL    HW185113   4.669   9.354   9.994
28363SOL    HW285114   4.717   9.280  10.132
28364SOL     OW85115   5.153  10.483  10.177
28364SOL    HW185116   5.098  10.399  10.170
28364SOL    HW285117   5.179  10.512  10.085
28365SOL     OW85118   5.190   9.900  10.302
28365SOL    HW185119   5.160   9.805  10.309
28365SOL    HW285120   5.263   9.916  10.368
28366SOL     OW85121   5.581  10.143   9.687
28366SOL    HW185122   5.623  10.079   9.751
28366SOL    HW285123   5.543  10.092   9.609
28367SOL     OW85124   4.212  10.695   9.484
28367SOL    HW185125   4.125  10.680   9.531
28367SOL    HW285126   4.195  10.721   9.389
28368SOL     OW85127   5.388  10.590   9.967
28368SOL    HW185128   5.487  10.598   9.981
28368SOL    HW285129   5.343  10.674   9.998
28369SOL     OW85130   5.114   9.885   9.388
28369SOL    HW185131   5.060   9.864   9.469
28369SOL    HW285132   5.205   9.844   9.397
28370SOL     OW85133   4.251   9.566   9.638
28370SOL    HW185134   4.278   9.507   9.563
28370SOL    HW285135   4.251   9.661   9.607
28371SOL     OW85136   5.478  10.533  10.898
28371SOL    HW185137   5.569  10.494  10.885
28371SOL    HW285138   5.486  10.629  10.922
28372SOL     OW85139   4.788  10.657  10.650
28372SOL    HW185140   4.708  10.634  10.705
28372SOL    HW285141   4.871  10.631  10.699
28373SOL     OW85142   5.316  10.939  10.935
28373SOL    HW185143   5.343  10.973  10.845
28373SOL    HW285144   5.395  10.901  10.981
28374SOL     OW85145   4.835  10.505  10.410
28374SOL    HW185146   4.795  10.549  10.491
28374SOL    HW285147   4.794  10.542  10.327
28375SOL     OW85148   5.362  10.409  10.389
28375SOL    HW185149   5.367  10.490  10.448
28375SOL    HW285150   5.276  10.411  10.338
28376SOL     OW85151   4.639   9.399  10.712
28376SOL    HW185152   4.664   9.379  10.617
28376SOL    HW285153   4.711   9.455  10.754
28377SOL     OW85154   4.704  10.426  11.029
28377SOL    HW185155   4.605  10.432  11.039
28377SOL    HW285156   4.727  10.346  10.973
28378SOL     OW85157   4.429  10.360   9.678
28378SOL    HW185158   4.415  10.367   9.777
28378SOL    HW285159   4.513  10.309   9.660
28379SOL     OW85160   4.134  10.123  10.561
28379SOL    HW185161   4.220  10.135  10.611
28379SOL    HW285162   4.092  10.036  10.588
28380SOL     OW85163   4.998   9.696  10.572
28380SOL    HW185164   5.019   9.770  10.636
28380SOL    HW285165   4.909   9.713  10.529
28381SOL     OW85166   3.788  10.874  10.641
28381SOL    HW185167   3.742  10.956  10.607
28381SOL    HW285168   3.886  10.893  10.650
28382SOL     OW85169   4.091  10.410   9.811
28382SOL    HW185170   4.084  10.493   9.755
28382SOL    HW285171   4.095  10.330   9.751
28383SOL     OW85172   4.290   9.847  10.175
28383SOL    HW185173   4.302   9.913  10.101
28383SOL    HW285174   4.336   9.881  10.258
28384SOL     OW85175   4.976  10.658   9.698
28384SOL    HW185176   5.026  10.735   9.738
28384SOL    HW285177   4.881  10.660   9.730
28385SOL     OW85178   4.996  10.755  10.452
28385SOL    HW185179   5.043  10.768  10.539
28385SOL    HW285180   4.930  10.681  10.461
28386SOL     OW85181   5.306   9.949   9.782
28386SOL    HW185182   5.275  10.010   9.855
28386SOL    HW285183   5.356  10.001   9.713
28387SOL     OW85184   4.078  10.820  10.639
28387SOL    HW185185   4.057  10.776  10.552
28387SOL    HW285186   4.175  10.846  10.642
28388SOL     OW85187   4.126  10.061  10.908
28388SOL    HW185188   4.194  10.116  10.861
28388SOL    HW285189   4.166   9.973  10.935
28389SOL     OW85190   5.311  10.089  10.980
28389SOL    HW185191   5.219  10.127  10.975
28389SOL    HW285192   5.371  10.136  10.915
28390SOL     OW85193   4.737   9.415  11.080
28390SOL    HW185194   4.743   9.500  11.028
28390SOL    HW285195   4.769   9.339  11.023
28391SOL     OW85196   4.228   9.360  11.050
28391SOL    HW185197   4.186   9.303  10.980
28391SOL    HW285198   4.162   9.429  11.082
28392SOL     OW85199   4.297  10.180  10.339
28392SOL    HW185200   4.341  10.269  10.330
28392SOL    HW285201   4.234  10.180  10.416
28393SOL     OW85202   5.084  10.172  10.355
28393SOL    HW185203   5.009  10.172  10.289
28393SOL    HW285204   5.121  10.080  10.364
28394SOL     OW85205   4.933   9.835   9.585
28394SOL    HW185206   4.946   9.751   9.639
28394SOL    HW285207   4.904   9.909   9.645
28395SOL     OW85208   4.031   9.523  10.541
28395SOL    HW185209   4.008   9.560  10.631
28395SOL    HW285210   4.001   9.428  10.535
28396SOL     OW85211   3.761  10.620  10.592
28396SOL    HW185212   3.814  10.571  10.660
28396SOL    HW285213   3.783  10.718  10.597
28397SOL     OW85214   4.456   9.944  10.374
28397SOL    HW185215   4.515   9.918  10.298
28397SOL    HW285216   4.428  10.040  10.363
28398SOL     OW85217   5.452  10.245  11.164
28398SOL    HW185218   5.406  10.238  11.075
28398SOL    HW285219   5.390  10.289  11.230
28399SOL     OW85220   4.031   9.373   9.928
28399SOL    HW185221   4.020   9.467   9.961
28399SOL    HW285222   4.026   9.310  10.005
28400SOL     OW85223   5.346   9.677   9.684
28400SOL    HW185224   5.348   9.601   9.748
28400SOL    HW285225   5.298   9.754   9.724
28401SOL     OW85226   4.747  10.076  10.276
28401SOL    HW185227   4.762  10.097  10.372
28401SOL    HW285228   4.717   9.981  10.267
28402SOL     OW85229   4.704  10.883  11.010
28402SOL    HW185230   4.684  10.927  10.922
28402SOL    HW285231   4.743  10.792  10.994
28403SOL     OW85232   5.583  10.828  10.915
28403SOL    HW185233   5.597  10.855  10.820
28403SOL    HW285234   5.666  10.850  10.968
28404SOL     OW85235   4.074  10.208  11.114
28404SOL    HW185236   4.150  10.252  11.162
28404SOL    HW285237   4.109  10.161  11.032
28405SOL     OW85238   5.264   9.584   9.435
28405SOL    HW185239   5.203   9.509   9.458
28405SOL    HW285240   5.286   9.636   9.518
28406SOL     OW85241   5.027  10.148   9.352
28406SOL    HW185242   5.061  10.055   9.367
28406SOL    HW285243   5.045  10.175   9.257
28407SOL     OW85244   4.792  10.643  10.159
28407SOL    HW185245   4.799  10.559  10.104
28407SOL    HW285246   4.854  10.712  10.123
28408SOL     OW85247   4.043  10.120  10.259
28408SOL    HW185248   4.136  10.156  10.264
28408SOL    HW285249   4.037  10.035  10.311
28409SOL     OW85250   4.063   9.819  10.316
28409SOL    HW185251   4.011   9.736  10.299
28409SOL    HW285252   4.140   9.824  10.252
28410SOL     OW85253   4.862   9.690  10.988
28410SOL    HW185254   4.817   9.753  11.052
28410SOL    HW285255   4.955   9.721  10.971
28411SOL     OW85256   4.884   9.517  10.787
28411SOL    HW185257   4.884   9.581  10.864
28411SOL    HW285258   4.912   9.565  10.704
28412SOL     OW85259   3.732  10.636   9.510
28412SOL    HW185260   3.639  10.657   9.479
28412SOL    HW285261   3.742  10.537   9.523
28413SOL     OW85262   3.812  11.111  10.237
28413SOL    HW185263   3.770  11.025  10.210
28413SOL    HW285264   3.906  11.114  10.203
28414SOL     OW85265   4.228  10.878  10.220
28414SOL    HW185266   4.294  10.952  10.229
28414SOL    HW285267   4.272  10.799  10.178
28415SOL     OW85268   4.726  10.106  10.548
28415SOL    HW185269   4.767  10.074  10.634
28415SOL    HW285270   4.630  10.079  10.545
28416SOL     OW85271   3.764   9.854  10.424
28416SOL    HW185272   3.849   9.821  10.383
28416SOL    HW285273   3.777   9.869  10.522
28417SOL     OW85274   3.913   9.830  11.032
28417SOL    HW185275   3.972   9.790  10.962
28417SOL    HW285276   3.855   9.901  10.991
28418SOL     OW85277   5.093  10.260  10.970
28418SOL    HW185278   5.132  10.349  10.990
28418SOL    HW285279   5.103  10.240  10.873
28419SOL     OW85280   4.539   9.882   9.635
28419SOL    HW185281   4.546   9.793   9.589
28419SOL    HW285282   4.445   9.916   9.627
28420SOL     OW85283   5.381   9.914  10.516
28420SOL    HW185284   5.343   9.845  10.578
28420SOL    HW285285   5.463   9.878  10.472
28421SOL     OW85286   3.976  10.874  11.054
28421SOL    HW185287   3.946  10.931  11.130
28421SOL    HW285288   3.969  10.777  11.080
28422SOL     OW85289   4.395   9.774  10.579
28422SOL    HW185290   4.361   9.685  10.549
28422SOL    HW285291   4.421   9.828  10.499
28423SOL     OW85292   4.654  10.988  10.775
28423SOL    HW185293   4.630  10.970  10.680
28423SOL    HW285294   4.684  11.082  10.785
28424SOL     OW85295   4.197   9.810   9.501
28424SOL    HW185296   4.258   9.890   9.505
28424SOL    HW285297   4.102   9.841   9.508
28425SOL     OW85298   3.883  10.447  10.776
28425SOL    HW185299   3.905  10.386  10.852
28425SOL    HW285300   3.893  10.398  10.690
28426SOL     OW85301   5.071  10.369  10.544
28426SOL    HW185302   5.095  10.306  10.470
28426SOL    HW285303   4.981  10.409  10.526
28427SOL     OW85304   5.026  10.165   9.619
28427SOL    HW185305   4.940  10.134   9.661
28427SOL    HW285306   5.022  10.151   9.520
28428SOL     OW85307   5.483  11.057  10.464
28428SOL    HW185308   5.544  11.087  10.391
28428SOL    HW285309   5.445  10.968  10.442
28429SOL     OW85310   4.976  11.041  10.438
28429SOL    HW185311   5.060  11.046  10.384
28429SOL    HW285312   4.953  10.945  10.456
28430SOL     OW85313   3.807  10.568  10.332
28430SOL    HW185314   3.802  10.567  10.432
28430SOL    HW285315   3.724  10.527  10.294
28431SOL     OW85316   4.412  10.972  11.026
28431SOL    HW185317   4.356  11.053  11.035
28431SOL    HW285318   4.464  10.976  10.940
28432SOL     OW85319   5.450   9.445   9.833
28432SOL    HW185320   5.523   9.428   9.766
28432SOL    HW285321   5.419   9.358   9.871
28433SOL     OW85322   5.112  10.883   9.787
28433SOL    HW185323   5.179  10.895   9.713
28433SOL    HW285324   5.072  10.972   9.810
28434SOL     OW85325   3.854  11.104  11.161
28434SOL    HW185326   3.813  11.030  11.214
28434SOL    HW285327   3.918  11.155  11.219
28435SOL     OW85328   5.004  10.237   9.982
28435SOL    HW185329   5.064  10.156   9.984
28435SOL    HW285330   5.044  10.306   9.922
28436SOL     OW85331   4.554  10.583  10.732
28436SOL    HW185332   4.549  10.616  10.827
28436SOL    HW285333   4.468  10.602  10.686
28437SOL     OW85334   4.396  10.926   9.464
28437SOL    HW185335   4.405  10.936   9.365
28437SOL    HW285336   4.356  10.837   9.485
28438SOL     OW85337   5.374  11.030  10.704
28438SOL    HW185338   5.427  11.040  10.620
28438SOL    HW285339   5.347  11.120  10.738
28439SOL     OW85340   5.565   9.485  10.273
28439SOL    HW185341   5.604   9.400  10.237
28439SOL    HW285342   5.467   9.487  10.254
28440SOL     OW85343   3.987   9.636  10.030
28440SOL    HW185344   3.908   9.687   9.996
28440SOL    HW285345   3.978   9.621  10.128
28441SOL     OW85346   4.918  10.922   9.341
28441SOL    HW185347   4.924  10.829   9.378
28441SOL    HW285348   4.859  10.922   9.261
28442SOL     OW85349   4.546  10.312  10.682
28442SOL    HW185350   4.586  10.311  10.590
28442SOL    HW285351   4.556  10.404  10.722
28443SOL     OW85352   4.640  10.220   9.601
28443SOL    HW185353   4.703  10.258   9.533
28443SOL    HW285354   4.680  10.137   9.640
28444SOL     OW85355   5.228  10.917   9.354
28444SOL    HW185356   5.136  10.954   9.361
28444SOL    HW285357   5.266  10.937   9.264
28445SOL     OW85358   4.096  10.598  10.800
28445SOL    HW185359   4.083  10.691  10.766
28445SOL    HW285360   4.012  10.546  10.787
28446SOL     OW85361   5.338  10.602  10.599
28446SOL    HW185362   5.398  10.605  10.679
28446SOL    HW285363   5.263  10.666  10.612
28447SOL     OW85364   4.763  10.408  10.006
28447SOL    HW185365   4.693  10.361  10.060
28447SOL    HW285366   4.822  10.340   9.963
28448SOL     OW85367   4.738   9.546  10.281
28448SOL    HW185368   4.730   9.510  10.188
28448SOL    HW285369   4.736   9.470  10.346
28449SOL     OW85370   4.314  10.797   9.801
28449SOL    HW185371   4.356  10.739   9.731
28449SOL    HW285372   4.270  10.876   9.757
28450SOL     OW85373   5.433   9.695  10.691
28450SOL    HW185374   5.506   9.764  10.695
28450SOL    HW285375   5.461   9.620  10.632
28451SOL     OW85376   3.979  10.658   9.600
28451SOL    HW185377   3.883  10.659   9.573
28451SOL    HW285378   3.991  10.711   9.684
28452SOL     OW85379   3.829  10.323  11.036
28452SOL    HW185380   3.752  10.290  11.090
28452SOL    HW285381   3.914  10.293  11.078
28453SOL     OW85382   4.396   9.513  10.799
28453SOL    HW185383   4.486   9.497  10.759
28453SOL    HW285384   4.404   9.518  10.898
28454SOL     OW85385   3.799   9.655   9.343
28454SOL    HW185386   3.707   9.627   9.314
28454SOL    HW285387   3.830   9.732   9.287
28455SOL     OW85388   5.164  10.166  10.708
28455SOL    HW185389   5.107  10.218  10.645
28455SOL    HW285390   5.260  10.178  10.684
28456SOL     OW85391   3.796   9.476   9.628
28456SOL    HW185392   3.779   9.559   9.574
28456SOL    HW285393   3.886   9.439   9.606
28457SOL     OW85394   4.907  10.645   9.429
28457SOL    HW185395   4.808  10.634   9.431
28457SOL    HW285396   4.941  10.660   9.522
28458SOL     OW85397   4.337  10.152  10.741
28458SOL    HW185398   4.393  10.233  10.724
28458SOL    HW285399   4.396  10.072  10.744
28459SOL     OW85400   5.217  11.077  10.269
28459SOL    HW185401   5.250  11.141  10.200
28459SOL    HW285402   5.283  11.071  10.344
28460SOL     OW85403   4.440   9.875  11.018
28460SOL    HW185404   4.459   9.940  11.092
28460SOL    HW285405   4.500   9.795  11.027
28461SOL     OW85406   5.174  10.530  10.943
28461SOL    HW185407   5.165  10.520  11.042
28461SOL    HW285408   5.270  10.523  10.917
28462SOL     OW85409   4.114  11.051  10.870
28462SOL    HW185410   4.023  11.092  10.868
28462SOL    HW285411   4.107  10.957  10.902
28463SOL     OW85412   5.398  10.193  10.564
28463SOL    HW185413   5.371  10.104  10.527
28463SOL    HW285414   5.399  10.261  10.491
28464SOL     OW85415   4.949   9.635   9.759
28464SOL    HW185416   5.014   9.561   9.748
28464SOL    HW285417   4.969   9.685   9.843
28465SOL     OW85418   4.318  10.055   9.962
28465SOL    HW185419   4.368  10.140   9.943
28465SOL    HW285420   4.230  10.057   9.914
28466SOL     OW85421   5.501   9.652  10.952
28466SOL    HW185422   5.484   9.683  10.858
28466SOL    HW285423   5.417   9.615  10.990
28467SOL     OW85424   5.454  10.244  10.827
28467SOL    HW185425   5.492  10.335  10.842
28467SOL    HW285426   5.446  10.227  10.728
28468SOL     OW85427   4.583  10.684   9.326
28468SOL    HW185428   4.537  10.699   9.414
28468SOL    HW285429   4.627  10.769   9.296
28469SOL     OW85430   4.385  11.100  10.263
28469SOL    HW185431   4.339  11.188  10.250
28469SOL    HW285432   4.484  11.112  10.256
28470SOL     OW85433   4.583  10.266  10.171
28470SOL    HW185434   4.637  10.197  10.219
28470SOL    HW285435   4.551  10.335  10.237
28471SOL     OW85436   4.807  10.294   9.397
28471SOL    HW185437   4.784  10.347   9.315
28471SOL    HW285438   4.888  10.238   9.378
28472SOL     OW85439   5.585  10.879  10.161
28472SOL    HW185440   5.514  10.867  10.091
28472SOL    HW285441   5.586  10.800  10.221
28473SOL     OW85442   3.945  10.624  11.154
28473SOL    HW185443   3.880  10.551  11.133
28473SOL    HW285444   3.949  10.638  11.252
28474SOL     OW85445   3.803  10.550   9.963
28474SOL    HW185446   3.802  10.503  10.051
28474SOL    HW285447   3.885  10.522   9.912
28475SOL     OW85448   4.396  10.701  10.934
28475SOL    HW185449   4.318  10.651  10.972
28475SOL    HW285450   4.393  10.796  10.965
28476SOL     OW85451   5.548   9.502  10.537
28476SOL    HW185452   5.544   9.412  10.581
28476SOL    HW285453   5.551   9.491  10.438
28477SOL     OW85454   4.152   9.734   9.830
28477SOL    HW185455   4.182   9.662   9.768
28477SOL    HW285456   4.113   9.694   9.913
28478SOL     OW85457   5.429  10.797  10.414
28478SOL    HW185458   5.336  10.772  10.387
28478SOL    HW285459   5.455  10.747  10.496
28479SOL     OW85460   4.041   9.857  10.590
28479SOL    HW185461   4.079   9.798  10.662
28479SOL    HW285462   4.081   9.831  10.502
28480SOL     OW85463   4.536  10.896   9.997
28480SOL    HW185464   4.568  10.906   9.903
28480SOL    HW285465   4.457  10.834   9.999
28481SOL     OW85466   5.148   9.524  10.422
28481SOL    HW185467   5.200   9.459  10.477
28481SOL    HW285468   5.099   9.587  10.483
28482SOL     OW85469   4.725   9.344  10.464
28482SOL    HW185470   4.662   9.272  10.433
28482SOL    HW285471   4.818   9.308  10.464
28483SOL     OW85472   4.494  10.640   9.611
28483SOL    HW185473   4.448  10.553   9.628
28483SOL    HW285474   4.585  10.637   9.652
28484SOL     OW85475   4.342  10.877  10.594
28484SOL    HW185476   4.337  10.959  10.651
28484SOL    HW285477   4.431  10.874  10.549
28485SOL     OW85478   5.076   9.362   9.478
28485SOL    HW185479   5.111   9.321   9.394
28485SOL    HW285480   4.986   9.324   9.498
28486SOL     OW85481   5.024   9.763  10.001
28486SOL    HW185482   4.965   9.843  10.005
28486SOL    HW285483   5.039   9.728  10.094
28487SOL     OW85484   5.317   9.531  10.192
28487SOL    HW185485   5.233   9.530  10.246
28487SOL    HW285486   5.319   9.614  10.136
28488SOL     OW85487   3.763  10.387   9.610
28488SOL    HW185488   3.862  10.376   9.601
28488SOL    HW285489   3.723  10.301   9.642
28489SOL     OW85490   4.599  10.956   9.647
28489SOL    HW185491   4.522  10.921   9.593
28489SOL    HW285492   4.567  11.027   9.709
28490SOL     OW85493   3.954   9.938  11.285
28490SOL    HW185494   3.861   9.936  11.322
28490SOL    HW285495   3.955   9.899  11.193
28491SOL     OW85496   3.949   9.585  12.168
28491SOL    HW185497   3.984   9.568  12.260
28491SOL    HW285498   3.861   9.540  12.156
28492SOL     OW85499   3.743   9.678  11.819
28492SOL    HW185500   3.661   9.721  11.858
28492SOL    HW285501   3.715   9.605  11.756
28493SOL     OW85502   4.293  10.585  12.337
28493SOL    HW185503   4.200  10.578  12.300
28493SOL    HW285504   4.304  10.674  12.381
28494SOL     OW85505   5.279  10.821  11.875
28494SOL    HW185506   5.222  10.805  11.956
28494SOL    HW285507   5.220  10.831  11.795
28495SOL     OW85508   4.859  10.013  11.889
28495SOL    HW185509   4.916  10.091  11.864
28495SOL    HW285510   4.799  10.039  11.965
28496SOL     OW85511   5.479   9.917  11.403
28496SOL    HW185512   5.467   9.904  11.304
28496SOL    HW285513   5.449   9.836  11.452
28497SOL     OW85514   4.492  10.454  12.195
28497SOL    HW185515   4.414  10.471  12.255
28497SOL    HW285516   4.526  10.541  12.159
28498SOL     OW85517   4.409  10.322  11.837
28498SOL    HW185518   4.478  10.306  11.907
28498SOL    HW285519   4.336  10.379  11.875
28499SOL     OW85520   4.059  10.745  12.233
28499SOL    HW185521   3.981  10.714  12.180
28499SOL    HW285522   4.117  10.803  12.176
28500SOL     OW85523   5.184  10.815  12.511
28500SOL    HW185524   5.208  10.909  12.537
28500SOL    HW285525   5.168  10.761  12.593
28501SOL     OW85526   4.162   9.702  12.671
28501SOL    HW185527   4.244   9.646  12.680
28501SOL    HW285528   4.081   9.644  12.675
28502SOL     OW85529   5.327   9.757  11.909
28502SOL    HW185530   5.253   9.803  11.859
28502SOL    HW285531   5.378   9.825  11.962
28503SOL     OW85532   3.954  10.744  11.710
28503SOL    HW185533   3.928  10.840  11.710
28503SOL    HW285534   3.883  10.690  11.755
28504SOL     OW85535   3.964  10.401  12.058
28504SOL    HW185536   3.978  10.317  12.110
28504SOL    HW285537   3.909  10.465  12.113
28505SOL     OW85538   4.344  11.096  12.611
28505SOL    HW185539   4.252  11.079  12.646
28505SOL    HW285540   4.372  11.188  12.637
28506SOL     OW85541   4.330  10.274  11.295
28506SOL    HW185542   4.337  10.358  11.241
28506SOL    HW285543   4.376  10.287  11.383
28507SOL     OW85544   5.318   9.424  12.652
28507SOL    HW185545   5.300   9.491  12.580
28507SOL    HW285546   5.315   9.470  12.741
28508SOL     OW85547   3.846   9.953  11.735
28508SOL    HW185548   3.801   9.865  11.752
28508SOL    HW285549   3.845  10.007  11.819
28509SOL     OW85550   5.566  11.077  11.531
28509SOL    HW185551   5.620  11.048  11.611
28509SOL    HW285552   5.596  11.167  11.502
28510SOL     OW85553   3.751  10.906  11.289
28510SOL    HW185554   3.732  10.810  11.310
28510SOL    HW285555   3.718  10.964  11.364
28511SOL     OW85556   5.413  10.232  11.784
28511SOL    HW185557   5.508  10.203  11.792
28511SOL    HW285558   5.405  10.297  11.709
28512SOL     OW85559   5.365  10.418  11.604
28512SOL    HW185560   5.451  10.420  11.552
28512SOL    HW285561   5.379  10.465  11.692
28513SOL     OW85562   3.837  10.047  12.769
28513SOL    HW185563   3.925  10.034  12.814
28513SOL    HW285564   3.824  10.144  12.747
28514SOL     OW85565   4.337  10.675  11.898
28514SOL    HW185566   4.288  10.588  11.907
28514SOL    HW285567   4.314  10.718  11.811
28515SOL     OW85568   5.017  10.538  12.595
28515SOL    HW185569   5.054  10.465  12.537
28515SOL    HW285570   5.069  10.543  12.680
28516SOL     OW85571   4.533   9.314  11.674
28516SOL    HW185572   4.573   9.405  11.665
28516SOL    HW285573   4.433   9.322  11.680
28517SOL     OW85574   3.921  10.286  12.436
28517SOL    HW185575   4.010  10.241  12.422
28517SOL    HW285576   3.848  10.221  12.417
28518SOL     OW85577   5.249  10.309  11.362
28518SOL    HW185578   5.186  10.233  11.375
28518SOL    HW285579   5.297  10.327  11.448
28519SOL     OW85580   5.190  10.727  12.125
28519SOL    HW185581   5.131  10.733  12.205
28519SOL    HW285582   5.175  10.639  12.079
28520SOL     OW85583   5.391  11.024  11.744
28520SOL    HW185584   5.350  11.001  11.656
28520SOL    HW285585   5.373  10.950  11.809
28521SOL     OW85586   4.322  10.039  11.442
28521SOL    HW185587   4.346  10.108  11.374
28521SOL    HW285588   4.244  10.072  11.496
28522SOL     OW85589   5.005   9.655  12.116
28522SOL    HW185590   4.919   9.605  12.103
28522SOL    HW285591   5.067   9.601  12.172
28523SOL     OW85592   5.300  10.972  11.479
28523SOL    HW185593   5.389  11.018  11.482
28523SOL    HW285594   5.279  10.948  11.384
28524SOL     OW85595   4.531   9.915  12.637
28524SOL    HW185596   4.484   9.912  12.726
28524SOL    HW285597   4.480   9.860  12.571
28525SOL     OW85598   4.697  10.200  12.744
28525SOL    HW185599   4.743  10.116  12.715
28525SOL    HW285600   4.641  10.234  12.669
28526SOL     OW85601   4.715   9.720  12.414
28526SOL    HW185602   4.638   9.754  12.468
28526SOL    HW285603   4.681   9.669  12.335
28527SOL     OW85604   4.765  10.011  11.601
28527SOL    HW185605   4.791  10.007  11.697
28527SOL    HW285606   4.680   9.960  11.587
28528SOL     OW85607   3.800  10.121  11.961
28528SOL    HW185608   3.899  10.109  11.970
28528SOL    HW285609   3.776  10.216  11.982
28529SOL     OW85610   3.854  11.131  12.743
28529SOL    HW185611   3.844  11.116  12.842
28529SOL    HW285612   3.768  11.167  12.707
28530SOL     OW85613   4.589   9.658  11.367
28530SOL    HW185614   4.648   9.721  11.318
28530SOL    HW285615   4.608   9.564  11.338
28531SOL     OW85616   5.086  10.454  11.717
28531SOL    HW185617   5.169  10.425  11.669
28531SOL    HW285618   5.037  10.521  11.661
28532SOL     OW85619   4.274   9.506  12.057
28532SOL    HW185620   4.269   9.501  12.157
28532SOL    HW285621   4.276   9.602  12.028
28533SOL     OW85622   4.732  10.766  11.649
28533SOL    HW185623   4.686  10.838  11.597
28533SOL    HW285624   4.728  10.786  11.747
28534SOL     OW85625   4.075  11.111  12.025
28534SOL    HW185626   4.125  11.025  12.031
28534SOL    HW285627   4.140  11.188  12.022
28535SOL     OW85628   5.519  10.376  12.045
28535SOL    HW185629   5.457  10.361  11.969
28535SOL    HW285630   5.467  10.387  12.130
28536SOL     OW85631   4.951  10.860  12.678
28536SOL    HW185632   4.957  10.783  12.742
28536SOL    HW285633   4.899  10.834  12.598
28537SOL     OW85634   4.045  10.253  11.414
28537SOL    HW185635   4.127  10.292  11.372
28537SOL    HW285636   4.018  10.171  11.365
28538SOL     OW85637   5.182  10.045  11.900
28538SOL    HW185638   5.177   9.980  11.975
28538SOL    HW285639   5.262  10.104  11.913
28539SOL     OW85640   4.835  11.086  11.409
28539SOL    HW185641   4.775  11.024  11.459
28539SOL    HW285642   4.866  11.042  11.324
28540SOL     OW85643   3.926   9.595  12.670
28540SOL    HW185644   3.846   9.655  12.657
28540SOL    HW285645   3.916   9.546  12.756
28541SOL     OW85646   5.356  10.687  11.253
28541SOL    HW185647   5.324  10.781  11.243
28541SOL    HW285648   5.280  10.624  11.241
28542SOL     OW85649   4.188  11.053  11.495
28542SOL    HW185650   4.221  11.092  11.581
28542SOL    HW285651   4.264  11.046  11.430
28543SOL     OW85652   5.124   9.417  11.598
28543SOL    HW185653   5.100   9.380  11.508
28543SOL    HW285654   5.223   9.433  11.602
28544SOL     OW85655   3.973  11.095  12.413
28544SOL    HW185656   4.030  11.030  12.463
28544SOL    HW285657   3.957  11.062  12.320
28545SOL     OW85658   4.664  11.008  12.076
28545SOL    HW185659   4.744  10.951  12.097
28545SOL    HW285660   4.615  10.968  11.999
28546SOL     OW85661   4.106  10.010  11.652
28546SOL    HW185662   4.151   9.920  11.649
28546SOL    HW285663   4.012   9.999  11.685
28547SOL     OW85664   4.338   9.432  11.289
28547SOL    HW185665   4.436   9.410  11.296
28547SOL    HW285666   4.307   9.415  11.196
28548SOL     OW85667   4.612  10.824  12.367
28548SOL    HW185668   4.589  10.799  12.273
28548SOL    HW285669   4.673  10.755  12.406
28549SOL     OW85670   5.075   9.900  12.605
28549SOL    HW185671   5.103   9.857  12.690
28549SOL    HW285672   5.100   9.996  12.606
28550SOL     OW85673   4.527  10.712  12.096
28550SOL    HW185674   4.617  10.726  12.054
28550SOL    HW285675   4.456  10.714  12.025
28551SOL     OW85676   4.646   9.813  12.071
28551SOL    HW185677   4.621   9.804  11.975
28551SOL    HW285678   4.694   9.731  12.102
28552SOL     OW85679   4.263   9.374  11.684
28552SOL    HW185680   4.182   9.375  11.742
28552SOL    HW285681   4.266   9.457  11.629
28553SOL     OW85682   5.158  10.498  11.213
28553SOL    HW185683   5.190  10.422  11.270
28553SOL    HW285684   5.066  10.525  11.243
28554SOL     OW85685   4.021   9.345  11.343
28554SOL    HW185686   4.070   9.429  11.322
28554SOL    HW285687   4.083   9.280  11.388
28555SOL     OW85688   4.659   9.546  11.652
28555SOL    HW185689   4.611   9.587  11.574
28555SOL    HW285690   4.758   9.544  11.633
28556SOL     OW85691   4.951  10.880  11.965
28556SOL    HW185692   4.972  10.954  11.900
28556SOL    HW285693   5.019  10.880  12.038
28557SOL     OW85694   4.183  10.462  11.913
28557SOL    HW185695   4.112  10.435  11.978
28557SOL    HW285696   4.157  10.434  11.820
28558SOL     OW85697   4.995  11.107  11.763
28558SOL    HW185698   5.039  11.171  11.699
28558SOL    HW285699   4.945  11.159  11.833
28559SOL     OW85700   4.756   9.859  11.188
28559SOL    HW185701   4.715   9.941  11.149
28559SOL    HW285702   4.820   9.885  11.261
28560SOL     OW85703   3.802   9.866  12.558
28560SOL    HW185704   3.894   9.865  12.517
28560SOL    HW285705   3.796   9.940  12.625
28561SOL     OW85706   4.285   9.532  12.319
28561SOL    HW185707   4.323   9.448  12.356
28561SOL    HW285708   4.197   9.551  12.363
28562SOL     OW85709   4.590   9.764  11.814
28562SOL    HW185710   4.558   9.836  11.752
28562SOL    HW285711   4.614   9.683  11.761
28563SOL     OW85712   4.741   9.349  11.925
28563SOL    HW185713   4.669   9.354  11.856
28563SOL    HW285714   4.717   9.280  11.994
28564SOL     OW85715   5.153  10.483  12.039
28564SOL    HW185716   5.098  10.399  12.032
28564SOL    HW285717   5.179  10.512  11.947
28565SOL     OW85718   5.190   9.900  12.164
28565SOL    HW185719   5.160   9.805  12.171
28565SOL    HW285720   5.263   9.916  12.230
28566SOL     OW85721   5.581  10.143  11.549
28566SOL    HW185722   5.623  10.079  11.613
28566SOL    HW285723   5.543  10.092  11.471
28567SOL     OW85724   4.212  10.695  11.346
28567SOL    HW185725   4.125  10.680  11.393
28567SOL    HW285726   4.195  10.721  11.251
28568SOL     OW85727   5.388  10.590  11.829
28568SOL    HW185728   5.487  10.598  11.843
28568SOL    HW285729   5.343  10.674  11.860
28569SOL     OW85730   5.114   9.885  11.250
28569SOL    HW185731   5.060   9.864  11.331
28569SOL    HW285732   5.205   9.844  11.259
28570SOL     OW85733   4.251   9.566  11.500
28570SOL    HW185734   4.278   9.507  11.425
28570SOL    HW285735   4.251   9.661  11.469
28571SOL     OW85736   5.478  10.533  12.760
28571SOL    HW185737   5.569  10.494  12.747
28571SOL    HW285738   5.486  10.629  12.784
28572SOL     OW85739   4.788  10.657  12.512
28572SOL    HW185740   4.708  10.634  12.567
28572SOL    HW285741   4.871  10.631  12.561
28573SOL     OW85742   4.835  10.505  12.272
28573SOL    HW185743   4.795  10.549  12.353
28573SOL    HW285744   4.794  10.542  12.189
28574SOL     OW85745   5.362  10.409  12.251
28574SOL    HW185746   5.367  10.490  12.310
28574SOL    HW285747   5.276  10.411  12.200
28575SOL     OW85748   4.639   9.399  12.574
28575SOL    HW185749   4.664   9.379  12.479
28575SOL    HW285750   4.711   9.455  12.616
28576SOL     OW85751   4.429  10.360  11.540
28576SOL    HW185752   4.415  10.367  11.639
28576SOL    HW285753   4.513  10.309  11.522
28577SOL     OW85754   4.134  10.123  12.423
28577SOL    HW185755   4.220  10.135  12.473
28577SOL    HW285756   4.092  10.036  12.450
28578SOL     OW85757   4.998   9.696  12.434
28578SOL    HW185758   5.019   9.770  12.498
28578SOL    HW285759   4.909   9.713  12.391
28579SOL     OW85760   3.788  10.874  12.503
28579SOL    HW185761   3.742  10.956  12.469
28579SOL    HW285762   3.886  10.893  12.512
28580SOL     OW85763   4.091  10.410  11.673
28580SOL    HW185764   4.084  10.493  11.617
28580SOL    HW285765   4.095  10.330  11.613
28581SOL     OW85766   4.290   9.847  12.037
28581SOL    HW185767   4.302   9.913  11.963
28581SOL    HW285768   4.336   9.881  12.120
28582SOL     OW85769   4.976  10.658  11.560
28582SOL    HW185770   5.026  10.735  11.600
28582SOL    HW285771   4.881  10.660  11.592
28583SOL     OW85772   4.996  10.755  12.314
28583SOL    HW185773   5.043  10.768  12.401
28583SOL    HW285774   4.930  10.681  12.323
28584SOL     OW85775   5.306   9.949  11.644
28584SOL    HW185776   5.275  10.010  11.717
28584SOL    HW285777   5.356  10.001  11.575
28585SOL     OW85778   4.078  10.820  12.501
28585SOL    HW185779   4.057  10.776  12.414
28585SOL    HW285780   4.175  10.846  12.504
28586SOL     OW85781   4.126  10.061  12.770
28586SOL    HW185782   4.194  10.116  12.723
28586SOL    HW285783   4.166   9.973  12.797
28587SOL     OW85784   5.311  10.089  12.842
28587SOL    HW185785   5.219  10.127  12.837
28587SOL    HW285786   5.371  10.136  12.777
28588SOL     OW85787   4.297  10.180  12.201
28588SOL    HW185788   4.341  10.269  12.192
28588SOL    HW285789   4.234  10.180  12.278
28589SOL     OW85790   5.084  10.172  12.217
28589SOL    HW185791   5.009  10.172  12.151
28589SOL    HW285792   5.121  10.080  12.226
28590SOL     OW85793   4.933   9.835  11.447
28590SOL    HW185794   4.946   9.751  11.501
28590SOL    HW285795   4.904   9.909  11.507
28591SOL     OW85796   4.031   9.523  12.403
28591SOL    HW185797   4.008   9.560  12.493
28591SOL    HW285798   4.001   9.428  12.397
28592SOL     OW85799   3.761  10.620  12.454
28592SOL    HW185800   3.814  10.571  12.522
28592SOL    HW285801   3.783  10.718  12.459
28593SOL     OW85802   4.456   9.944  12.236
28593SOL    HW185803   4.515   9.918  12.160
28593SOL    HW285804   4.428  10.040  12.225
28594SOL     OW85805   4.031   9.373  11.790
28594SOL    HW185806   4.020   9.467  11.823
28594SOL    HW285807   4.026   9.310  11.867
28595SOL     OW85808   5.346   9.677  11.546
28595SOL    HW185809   5.348   9.601  11.610
28595SOL    HW285810   5.298   9.754  11.586
28596SOL     OW85811   4.747  10.076  12.138
28596SOL    HW185812   4.762  10.097  12.234
28596SOL    HW285813   4.717   9.981  12.129
28597SOL     OW85814   5.264   9.584  11.297
28597SOL    HW185815   5.203   9.509  11.320
28597SOL    HW285816   5.286   9.636  11.380
28598SOL     OW85817   5.027  10.148  11.214
28598SOL    HW185818   5.061  10.055  11.229
28598SOL    HW285819   5.045  10.175  11.119
28599SOL     OW85820   4.792  10.643  12.021
28599SOL    HW185821   4.799  10.559  11.966
28599SOL    HW285822   4.854  10.712  11.985
28600SOL     OW85823   4.043  10.120  12.121
28600SOL    HW185824   4.136  10.156  12.126
28600SOL    HW285825   4.037  10.035  12.173
28601SOL     OW85826   4.063   9.819  12.178
28601SOL    HW185827   4.011   9.736  12.161
28601SOL    HW285828   4.140   9.824  12.114
28602SOL     OW85829   4.884   9.517  12.649
28602SOL    HW185830   4.884   9.581  12.726
28602SOL    HW285831   4.912   9.565  12.566
28603SOL     OW85832   3.732  10.636  11.372
28603SOL    HW185833   3.639  10.657  11.341
28603SOL    HW285834   3.742  10.537  11.385
28604SOL     OW85835   3.812  11.111  12.099
28604SOL    HW185836   3.770  11.025  12.072
28604SOL    HW285837   3.906  11.114  12.065
28605SOL     OW85838   4.228  10.878  12.082
28605SOL    HW185839   4.294  10.952  12.091
28605SOL    HW285840   4.272  10.799  12.040
28606SOL     OW85841   4.726  10.106  12.410
28606SOL    HW185842   4.767  10.074  12.496
28606SOL    HW285843   4.630  10.079  12.407
28607SOL     OW85844   3.764   9.854  12.286
28607SOL    HW185845   3.849   9.821  12.245
28607SOL    HW285846   3.777   9.869  12.384
28608SOL     OW85847   4.539   9.882  11.497
28608SOL    HW185848   4.546   9.793  11.451
28608SOL    HW285849   4.445   9.916  11.489
28609SOL     OW85850   5.381   9.914  12.378
28609SOL    HW185851   5.343   9.845  12.440
28609SOL    HW285852   5.463   9.878  12.334
28610SOL     OW85853   3.976  10.874  12.916
28610SOL    HW185854   3.946  10.931  12.992
28610SOL    HW285855   3.969  10.777  12.942
28611SOL     OW85856   4.395   9.774  12.441
28611SOL    HW185857   4.361   9.685  12.411
28611SOL    HW285858   4.421   9.828  12.361
28612SOL     OW85859   4.654  10.988  12.637
28612SOL    HW185860   4.630  10.970  12.542
28612SOL    HW285861   4.684  11.082  12.647
28613SOL     OW85862   4.197   9.810  11.363
28613SOL    HW185863   4.258   9.890  11.367
28613SOL    HW285864   4.102   9.841  11.370
28614SOL     OW85865   3.883  10.447  12.638
28614SOL    HW185866   3.905  10.386  12.714
28614SOL    HW285867   3.893  10.398  12.552
28615SOL     OW85868   5.071  10.369  12.406
28615SOL    HW185869   5.095  10.306  12.332
28615SOL    HW285870   4.981  10.409  12.388
28616SOL     OW85871   5.026  10.165  11.481
28616SOL    HW185872   4.940  10.134  11.523
28616SOL    HW285873   5.022  10.151  11.382
28617SOL     OW85874   5.483  11.057  12.326
28617SOL    HW185875   5.544  11.087  12.253
28617SOL    HW285876   5.445  10.968  12.304
28618SOL     OW85877   4.976  11.041  12.300
28618SOL    HW185878   5.060  11.046  12.246
28618SOL    HW285879   4.953  10.945  12.318
28619SOL     OW85880   3.807  10.568  12.194
28619SOL    HW185881   3.802  10.567  12.294
28619SOL    HW285882   3.724  10.527  12.156
28620SOL     OW85883   5.450   9.445  11.695
28620SOL    HW185884   5.523   9.428  11.628
28620SOL    HW285885   5.419   9.358  11.733
28621SOL     OW85886   5.112  10.883  11.649
28621SOL    HW185887   5.179  10.895  11.575
28621SOL    HW285888   5.072  10.972  11.672
28622SOL     OW85889   4.554  10.583  12.594
28622SOL    HW185890   4.549  10.616  12.689
28622SOL    HW285891   4.468  10.602  12.548
28623SOL     OW85892   4.396  10.926  11.326
28623SOL    HW185893   4.405  10.936  11.227
28623SOL    HW285894   4.356  10.837  11.347
28624SOL     OW85895   5.374  11.030  12.566
28624SOL    HW185896   5.427  11.040  12.482
28624SOL    HW285897   5.347  11.120  12.600
28625SOL     OW85898   5.565   9.485  12.135
28625SOL    HW185899   5.604   9.400  12.099
28625SOL    HW285900   5.467   9.487  12.116
28626SOL     OW85901   3.987   9.636  11.892
28626SOL    HW185902   3.908   9.687  11.858
28626SOL    HW285903   3.978   9.621  11.990
28627SOL     OW85904   4.918  10.922  11.203
28627SOL    HW185905   4.924  10.829  11.240
28627SOL    HW285906   4.859  10.922  11.123
28628SOL     OW85907   4.546  10.312  12.544
28628SOL    HW185908   4.586  10.311  12.452
28628SOL    HW285909   4.556  10.404  12.584
28629SOL     OW85910   4.640  10.220  11.463
28629SOL    HW185911   4.703  10.258  11.395
28629SOL    HW285912   4.680  10.137  11.502
28630SOL     OW85913   5.228  10.917  11.216
28630SOL    HW185914   5.136  10.954  11.223
28630SOL    HW285915   5.266  10.937  11.126
28631SOL     OW85916   4.096  10.598  12.662
28631SOL    HW185917   4.083  10.691  12.628
28631SOL    HW285918   4.012  10.546  12.649
28632SOL     OW85919   5.338  10.602  12.461
28632SOL    HW185920   5.398  10.605  12.541
28632SOL    HW285921   5.263  10.666  12.474
28633SOL     OW85922   4.763  10.408  11.868
28633SOL    HW185923   4.693  10.361  11.922
28633SOL    HW285924   4.822  10.340  11.825
28634SOL     OW85925   4.738   9.546  12.143
28634SOL    HW185926   4.730   9.510  12.050
28634SOL    HW285927   4.736   9.470  12.208
28635SOL     OW85928   4.314  10.797  11.663
28635SOL    HW185929   4.356  10.739  11.593
28635SOL    HW285930   4.270  10.876  11.619
28636SOL     OW85931   5.433   9.695  12.553
28636SOL    HW185932   5.506   9.764  12.557
28636SOL    HW285933   5.461   9.620  12.494
28637SOL     OW85934   3.979  10.658  11.462
28637SOL    HW185935   3.883  10.659  11.435
28637SOL    HW285936   3.991  10.711  11.546
28638SOL     OW85937   3.829  10.323  12.898
28638SOL    HW185938   3.752  10.290  12.952
28638SOL    HW285939   3.914  10.293  12.940
28639SOL     OW85940   4.396   9.513  12.661
28639SOL    HW185941   4.486   9.497  12.621
28639SOL    HW285942   4.404   9.518  12.760
28640SOL     OW85943   3.799   9.655  11.205
28640SOL    HW185944   3.707   9.627  11.176
28640SOL    HW285945   3.830   9.732  11.149
28641SOL     OW85946   5.164  10.166  12.570
28641SOL    HW185947   5.107  10.218  12.507
28641SOL    HW285948   5.260  10.178  12.546
28642SOL     OW85949   3.796   9.476  11.490
28642SOL    HW185950   3.779   9.559  11.436
28642SOL    HW285951   3.886   9.439  11.468
28643SOL     OW85952   4.907  10.645  11.291
28643SOL    HW185953   4.808  10.634  11.293
28643SOL    HW285954   4.941  10.660  11.384
28644SOL     OW85955   4.337  10.152  12.603
28644SOL    HW185956   4.393  10.233  12.586
28644SOL    HW285957   4.396  10.072  12.606
28645SOL     OW85958   5.217  11.077  12.131
28645SOL    HW185959   5.250  11.141  12.062
28645SOL    HW285960   5.283  11.071  12.206
28646SOL     OW85961   4.440   9.875  12.880
28646SOL    HW185962   4.459   9.940  12.954
28646SOL    HW285963   4.500   9.795  12.889
28647SOL     OW85964   4.114  11.051  12.732
28647SOL    HW185965   4.023  11.092  12.730
28647SOL    HW285966   4.107  10.957  12.764
28648SOL     OW85967   5.398  10.193  12.426
28648SOL    HW185968   5.371  10.104  12.389
28648SOL    HW285969   5.399  10.261  12.353
28649SOL     OW85970   4.949   9.635  11.621
28649SOL    HW185971   5.014   9.561  11.610
28649SOL    HW285972   4.969   9.685  11.705
28650SOL     OW85973   4.318  10.055  11.824
28650SOL    HW185974   4.368  10.140  11.805
28650SOL    HW285975   4.230  10.057  11.776
28651SOL     OW85976   5.454  10.244  12.689
28651SOL    HW185977   5.492  10.335  12.704
28651SOL    HW285978   5.446  10.227  12.590
28652SOL     OW85979   4.583  10.684  11.188
28652SOL    HW185980   4.537  10.699  11.276
28652SOL    HW285981   4.627  10.769  11.158
28653SOL     OW85982   4.385  11.100  12.125
28653SOL    HW185983   4.339  11.188  12.112
28653SOL    HW285984   4.484  11.112  12.118
28654SOL     OW85985   4.583  10.266  12.033
28654SOL    HW185986   4.637  10.197  12.081
28654SOL    HW285987   4.551  10.335  12.099
28655SOL     OW85988   4.807  10.294  11.259
28655SOL    HW185989   4.784  10.347  11.177
28655SOL    HW285990   4.888  10.238  11.240
28656SOL     OW85991   5.585  10.879  12.023
28656SOL    HW185992   5.514  10.867  11.953
28656SOL    HW285993   5.586  10.800  12.083
28657SOL     OW85994   3.803  10.550  11.825
28657SOL    HW185995   3.802  10.503  11.913
28657SOL    HW285996   3.885  10.522  11.774
28658SOL     OW85997   4.396  10.701  12.796
28658SOL    HW185998   4.318  10.651  12.834
28658SOL    HW285999   4.393  10.796  12.827
28659SOL     OW86000   5.548   9.502  12.399
28659SOL    HW186001   5.544   9.412  12.443
28659SOL    HW286002   5.551   9.491  12.300
28660SOL     OW86003   4.152   9.734  11.692
28660SOL    HW186004   4.182   9.662  11.630
28660SOL    HW286005   4.113   9.694  11.775
28661SOL     OW86006   5.429  10.797  12.276
28661SOL    HW186007   5.336  10.772  12.249
28661SOL    HW286008   5.455  10.747  12.358
28662SOL     OW86009   4.041   9.857  12.452
28662SOL    HW186010   4.079   9.798  12.524
28662SOL    HW286011   4.081   9.831  12.364
28663SOL     OW86012   4.536  10.896  11.859
28663SOL    HW186013   4.568  10.906  11.765
28663SOL    HW286014   4.457  10.834  11.861
28664SOL     OW86015   5.148   9.524  12.284
28664SOL    HW186016   5.200   9.459  12.339
28664SOL    HW286017   5.099   9.587  12.345
28665SOL     OW86018   4.725   9.344  12.326
28665SOL    HW186019   4.662   9.272  12.295
28665SOL    HW286020   4.818   9.308  12.326
28666SOL     OW86021   4.494  10.640  11.473
28666SOL    HW186022   4.448  10.553  11.490
28666SOL    HW286023   4.585  10.637  11.514
28667SOL     OW86024   4.342  10.877  12.456
28667SOL    HW186025   4.337  10.959  12.513
28667SOL    HW286026   4.431  10.874  12.411
28668SOL     OW86027   5.076   9.362  11.340
28668SOL    HW186028   5.111   9.321  11.256
28668SOL    HW286029   4.986   9.324  11.360
28669SOL     OW86030   5.024   9.763  11.863
28669SOL    HW186031   4.965   9.843  11.867
28669SOL    HW286032   5.039   9.728  11.956
28670SOL     OW86033   5.317   9.531  12.054
28670SOL    HW186034   5.233   9.530  12.108
28670SOL    HW286035   5.319   9.614  11.998
28671SOL     OW86036   3.763  10.387  11.472
28671SOL    HW186037   3.862  10.376  11.463
28671SOL    HW286038   3.723  10.301  11.504
28672SOL     OW86039   4.599  10.956  11.509
28672SOL    HW186040   4.522  10.921  11.455
28672SOL    HW286041   4.567  11.027  11.571
28673SOL     OW86042   3.954  11.800   0.113
28673SOL    HW186043   3.861  11.798   0.150
28673SOL    HW286044   3.955  11.761   0.021
28674SOL     OW86045   3.949  11.447   0.996
28674SOL    HW186046   3.984  11.430   1.088
28674SOL    HW286047   3.861  11.402   0.984
28675SOL     OW86048   3.743  11.540   0.647
28675SOL    HW186049   3.661  11.583   0.686
28675SOL    HW286050   3.715  11.467   0.584
28676SOL     OW86051   4.293  12.447   1.165
28676SOL    HW186052   4.200  12.440   1.128
28676SOL    HW286053   4.304  12.536   1.209
28677SOL     OW86054   5.279  12.683   0.703
28677SOL    HW186055   5.222  12.667   0.784
28677SOL    HW286056   5.220  12.693   0.623
28678SOL     OW86057   4.859  11.875   0.717
28678SOL    HW186058   4.916  11.953   0.692
28678SOL    HW286059   4.799  11.901   0.793
28679SOL     OW86060   5.479  11.779   0.231
28679SOL    HW186061   5.467  11.766   0.132
28679SOL    HW286062   5.449  11.698   0.280
28680SOL     OW86063   4.492  12.316   1.023
28680SOL    HW186064   4.414  12.333   1.083
28680SOL    HW286065   4.526  12.403   0.987
28681SOL     OW86066   4.574  11.970   1.823
28681SOL    HW186067   4.570  12.046   1.888
28681SOL    HW286068   4.596  12.006   1.732
28682SOL     OW86069   4.409  12.184   0.665
28682SOL    HW186070   4.478  12.168   0.735
28682SOL    HW286071   4.336  12.241   0.703
28683SOL     OW86072   4.410  12.333   1.803
28683SOL    HW186073   4.470  12.412   1.817
28683SOL    HW286074   4.324  12.364   1.762
28684SOL     OW86075   4.059  12.607   1.061
28684SOL    HW186076   3.981  12.576   1.008
28684SOL    HW286077   4.117  12.665   1.004
28685SOL     OW86078   5.184  12.677   1.339
28685SOL    HW186079   5.208  12.771   1.365
28685SOL    HW286080   5.168  12.623   1.421
28686SOL     OW86081   4.162  11.564   1.499
28686SOL    HW186082   4.244  11.508   1.508
28686SOL    HW286083   4.081  11.506   1.503
28687SOL     OW86084   5.327  11.619   0.737
28687SOL    HW186085   5.253  11.665   0.687
28687SOL    HW286086   5.378  11.687   0.790
28688SOL     OW86087   4.851  12.513   1.690
28688SOL    HW186088   4.898  12.513   1.778
28688SOL    HW286089   4.803  12.426   1.679
28689SOL     OW86090   3.954  12.606   0.538
28689SOL    HW186091   3.928  12.702   0.538
28689SOL    HW286092   3.883  12.552   0.583
28690SOL     OW86093   3.964  12.263   0.886
28690SOL    HW186094   3.978  12.179   0.938
28690SOL    HW286095   3.909  12.327   0.941
28691SOL     OW86096   4.330  12.136   0.123
28691SOL    HW186097   4.337  12.220   0.069
28691SOL    HW286098   4.376  12.149   0.211
28692SOL     OW86099   5.318  11.286   1.480
28692SOL    HW186100   5.300  11.353   1.408
28692SOL    HW286101   5.315  11.332   1.569
28693SOL     OW86102   3.846  11.815   0.563
28693SOL    HW186103   3.801  11.727   0.580
28693SOL    HW286104   3.845  11.869   0.647
28694SOL     OW86105   3.751  12.768   0.117
28694SOL    HW186106   3.732  12.672   0.138
28694SOL    HW286107   3.718  12.826   0.192
28695SOL     OW86108   5.413  12.094   0.612
28695SOL    HW186109   5.508  12.065   0.620
28695SOL    HW286110   5.405  12.159   0.537
28696SOL     OW86111   5.365  12.280   0.432
28696SOL    HW186112   5.451  12.282   0.380
28696SOL    HW286113   5.379  12.327   0.520
28697SOL     OW86114   3.837  11.909   1.597
28697SOL    HW186115   3.925  11.896   1.642
28697SOL    HW286116   3.824  12.006   1.575
28698SOL     OW86117   4.337  12.537   0.726
28698SOL    HW186118   4.288  12.450   0.735
28698SOL    HW286119   4.314  12.580   0.639
28699SOL     OW86120   5.017  12.400   1.423
28699SOL    HW186121   5.054  12.327   1.365
28699SOL    HW286122   5.069  12.405   1.508
28700SOL     OW86123   3.921  12.148   1.264
28700SOL    HW186124   4.010  12.103   1.250
28700SOL    HW286125   3.848  12.083   1.245
28701SOL     OW86126   5.249  12.171   0.190
28701SOL    HW186127   5.186  12.095   0.203
28701SOL    HW286128   5.297  12.189   0.276
28702SOL     OW86129   4.041  11.423   1.801
28702SOL    HW186130   4.112  11.494   1.807
28702SOL    HW286131   3.953  11.462   1.829
28703SOL     OW86132   5.190  12.589   0.953
28703SOL    HW186133   5.131  12.595   1.033
28703SOL    HW286134   5.175  12.501   0.907
28704SOL     OW86135   4.322  11.901   0.270
28704SOL    HW186136   4.346  11.970   0.202
28704SOL    HW286137   4.244  11.934   0.324
28705SOL     OW86138   5.005  11.517   0.944
28705SOL    HW186139   4.919  11.467   0.931
28705SOL    HW286140   5.067  11.463   1.000
28706SOL     OW86141   5.300  12.834   0.307
28706SOL    HW186142   5.389  12.880   0.310
28706SOL    HW286143   5.279  12.810   0.212
28707SOL     OW86144   4.531  11.777   1.465
28707SOL    HW186145   4.484  11.774   1.554
28707SOL    HW286146   4.480  11.722   1.399
28708SOL     OW86147   5.118  11.641   1.674
28708SOL    HW186148   5.098  11.684   1.762
28708SOL    HW286149   5.196  11.579   1.683
28709SOL     OW86150   4.697  12.062   1.572
28709SOL    HW186151   4.743  11.978   1.543
28709SOL    HW286152   4.641  12.096   1.497
28710SOL     OW86153   4.715  11.582   1.242
28710SOL    HW186154   4.638  11.616   1.296
28710SOL    HW286155   4.681  11.531   1.163
28711SOL     OW86156   4.765  11.873   0.429
28711SOL    HW186157   4.791  11.869   0.525
28711SOL    HW286158   4.680  11.822   0.415
28712SOL     OW86159   3.800  11.983   0.789
28712SOL    HW186160   3.899  11.971   0.798
28712SOL    HW286161   3.776  12.078   0.810
28713SOL     OW86162   4.589  11.520   0.195
28713SOL    HW186163   4.648  11.583   0.146
28713SOL    HW286164   4.608  11.426   0.166
28714SOL     OW86165   5.443  11.757   1.831
28714SOL    HW186166   5.417  11.846   1.795
28714SOL    HW286167   5.441  11.689   1.758
28715SOL     OW86168   5.086  12.316   0.545
28715SOL    HW186169   5.169  12.287   0.497
28715SOL    HW286170   5.037  12.383   0.489
28716SOL     OW86171   4.274  11.368   0.885
28716SOL    HW186172   4.269  11.363   0.985
28716SOL    HW286173   4.276  11.464   0.856
28717SOL     OW86174   4.732  12.628   0.477
28717SOL    HW186175   4.686  12.700   0.425
28717SOL    HW286176   4.728  12.648   0.575
28718SOL     OW86177   5.519  12.238   0.873
28718SOL    HW186178   5.457  12.223   0.797
28718SOL    HW286179   5.467  12.249   0.958
28719SOL     OW86180   4.951  12.722   1.506
28719SOL    HW186181   4.957  12.645   1.570
28719SOL    HW286182   4.899  12.696   1.426
28720SOL     OW86183   4.045  12.115   0.242
28720SOL    HW186184   4.127  12.154   0.200
28720SOL    HW286185   4.018  12.033   0.193
28721SOL     OW86186   5.182  11.907   0.728
28721SOL    HW186187   5.177  11.842   0.803
28721SOL    HW286188   5.262  11.966   0.741
28722SOL     OW86189   4.185  12.438   1.727
28722SOL    HW186190   4.135  12.439   1.641
28722SOL    HW286191   4.122  12.420   1.803
28723SOL     OW86192   3.926  11.457   1.498
28723SOL    HW186193   3.846  11.517   1.485
28723SOL    HW286194   3.916  11.408   1.584
28724SOL     OW86195   5.356  12.549   0.081
28724SOL    HW186196   5.324  12.643   0.071
28724SOL    HW286197   5.280  12.486   0.069
28725SOL     OW86198   5.124  11.279   0.426
28725SOL    HW186199   5.100  11.242   0.336
28725SOL    HW286200   5.223  11.295   0.430
28726SOL     OW86201   4.106  11.872   0.480
28726SOL    HW186202   4.151  11.782   0.477
28726SOL    HW286203   4.012  11.861   0.513
28727SOL     OW86204   5.271  11.394   1.729
28727SOL    HW186205   5.266  11.431   1.821
28727SOL    HW286206   5.199  11.325   1.717
28728SOL     OW86207   4.338  11.294   0.117
28728SOL    HW186208   4.436  11.272   0.124
28728SOL    HW286209   4.307  11.277   0.024
28729SOL     OW86210   4.505  11.436   1.749
28729SOL    HW186211   4.572  11.375   1.792
28729SOL    HW286212   4.432  11.455   1.814
28730SOL     OW86213   5.075  11.762   1.433
28730SOL    HW186214   5.103  11.719   1.518
28730SOL    HW286215   5.100  11.858   1.434
28731SOL     OW86216   4.527  12.574   0.924
28731SOL    HW186217   4.617  12.588   0.882
28731SOL    HW286218   4.456  12.576   0.853
28732SOL     OW86219   4.646  11.675   0.899
28732SOL    HW186220   4.621  11.666   0.803
28732SOL    HW286221   4.694  11.593   0.930
28733SOL     OW86222   4.263  11.236   0.512
28733SOL    HW186223   4.182  11.237   0.570
28733SOL    HW286224   4.266  11.319   0.457
28734SOL     OW86225   5.158  12.360   0.041
28734SOL    HW186226   5.190  12.284   0.098
28734SOL    HW286227   5.066  12.387   0.071
28735SOL     OW86228   4.021  11.207   0.171
28735SOL    HW186229   4.070  11.291   0.150
28735SOL    HW286230   4.083  11.142   0.216
28736SOL     OW86231   4.659  11.408   0.480
28736SOL    HW186232   4.611  11.449   0.402
28736SOL    HW286233   4.758  11.406   0.461
28737SOL     OW86234   4.800  11.855   1.464
28737SOL    HW186235   4.720  11.794   1.467
28737SOL    HW286236   4.881  11.802   1.440
28738SOL     OW86237   4.951  12.742   0.793
28738SOL    HW186238   4.972  12.816   0.728
28738SOL    HW286239   5.019  12.742   0.866
28739SOL     OW86240   4.183  12.324   0.741
28739SOL    HW186241   4.112  12.297   0.806
28739SOL    HW286242   4.157  12.296   0.648
28740SOL     OW86243   4.756  11.721   0.016
28740SOL    HW186244   4.715  11.803  -0.023
28740SOL    HW286245   4.820  11.747   0.089
28741SOL     OW86246   3.802  11.728   1.386
28741SOL    HW186247   3.894  11.727   1.345
28741SOL    HW286248   3.796  11.802   1.453
28742SOL     OW86249   4.285  11.394   1.147
28742SOL    HW186250   4.323  11.310   1.184
28742SOL    HW286251   4.197  11.413   1.191
28743SOL     OW86252   4.590  11.626   0.642
28743SOL    HW186253   4.558  11.698   0.580
28743SOL    HW286254   4.614  11.545   0.589
28744SOL     OW86255   4.741  11.211   0.753
28744SOL    HW186256   4.669  11.216   0.684
28744SOL    HW286257   4.717  11.142   0.822
28745SOL     OW86258   5.153  12.345   0.867
28745SOL    HW186259   5.098  12.261   0.860
28745SOL    HW286260   5.179  12.374   0.775
28746SOL     OW86261   5.190  11.762   0.992
28746SOL    HW186262   5.160  11.667   0.999
28746SOL    HW286263   5.263  11.778   1.058
28747SOL     OW86264   5.581  12.005   0.377
28747SOL    HW186265   5.623  11.941   0.441
28747SOL    HW286266   5.543  11.954   0.299
28748SOL     OW86267   4.212  12.557   0.174
28748SOL    HW186268   4.125  12.542   0.221
28748SOL    HW286269   4.195  12.583   0.079
28749SOL     OW86270   5.388  12.452   0.657
28749SOL    HW186271   5.487  12.460   0.671
28749SOL    HW286272   5.343  12.536   0.688
28750SOL     OW86273   5.114  11.747   0.078
28750SOL    HW186274   5.060  11.726   0.159
28750SOL    HW286275   5.205  11.706   0.087
28751SOL     OW86276   4.251  11.428   0.328
28751SOL    HW186277   4.278  11.369   0.253
28751SOL    HW286278   4.251  11.523   0.297
28752SOL     OW86279   5.478  12.395   1.588
28752SOL    HW186280   5.569  12.356   1.575
28752SOL    HW286281   5.486  12.491   1.612
28753SOL     OW86282   4.788  12.519   1.340
28753SOL    HW186283   4.708  12.496   1.395
28753SOL    HW286284   4.871  12.493   1.389
28754SOL     OW86285   4.835  12.367   1.100
28754SOL    HW186286   4.795  12.411   1.181
28754SOL    HW286287   4.794  12.404   1.017
28755SOL     OW86288   5.362  12.271   1.079
28755SOL    HW186289   5.367  12.352   1.138
28755SOL    HW286290   5.276  12.273   1.028
28756SOL     OW86291   4.639  11.261   1.402
28756SOL    HW186292   4.664  11.241   1.307
28756SOL    HW286293   4.711  11.317   1.444
28757SOL     OW86294   4.704  12.288   1.719
28757SOL    HW186295   4.605  12.294   1.729
28757SOL    HW286296   4.727  12.208   1.663
28758SOL     OW86297   4.429  12.222   0.368
28758SOL    HW186298   4.415  12.229   0.467
28758SOL    HW286299   4.513  12.171   0.350
28759SOL     OW86300   4.134  11.985   1.251
28759SOL    HW186301   4.220  11.997   1.301
28759SOL    HW286302   4.092  11.898   1.278
28760SOL     OW86303   4.998  11.558   1.262
28760SOL    HW186304   5.019  11.632   1.326
28760SOL    HW286305   4.909  11.575   1.219
28761SOL     OW86306   3.788  12.736   1.331
28761SOL    HW186307   3.742  12.818   1.297
28761SOL    HW286308   3.886  12.755   1.340
28762SOL     OW86309   4.091  12.272   0.501
28762SOL    HW186310   4.084  12.355   0.445
28762SOL    HW286311   4.095  12.192   0.441
28763SOL     OW86312   4.290  11.709   0.865
28763SOL    HW186313   4.302  11.775   0.791
28763SOL    HW286314   4.336  11.743   0.948
28764SOL     OW86315   4.976  12.520   0.388
28764SOL    HW186316   5.026  12.597   0.428
28764SOL    HW286317   4.881  12.522   0.420
28765SOL     OW86318   4.996  12.617   1.142
28765SOL    HW186319   5.043  12.630   1.229
28765SOL    HW286320   4.930  12.543   1.151
28766SOL     OW86321   5.306  11.811   0.472
28766SOL    HW186322   5.275  11.872   0.545
28766SOL    HW286323   5.356  11.863   0.403
28767SOL     OW86324   4.078  12.682   1.329
28767SOL    HW186325   4.057  12.638   1.242
28767SOL    HW286326   4.175  12.708   1.332
28768SOL     OW86327   4.126  11.923   1.598
28768SOL    HW186328   4.194  11.978   1.551
28768SOL    HW286329   4.166  11.835   1.625
28769SOL     OW86330   5.311  11.951   1.670
28769SOL    HW186331   5.219  11.989   1.665
28769SOL    HW286332   5.371  11.998   1.605
28770SOL     OW86333   4.737  11.277   1.770
28770SOL    HW186334   4.743  11.362   1.718
28770SOL    HW286335   4.769  11.201   1.713
28771SOL     OW86336   4.228  11.222   1.740
28771SOL    HW186337   4.186  11.165   1.670
28771SOL    HW286338   4.162  11.291   1.772
28772SOL     OW86339   4.297  12.042   1.029
28772SOL    HW186340   4.341  12.131   1.020
28772SOL    HW286341   4.234  12.042   1.106
28773SOL     OW86342   5.084  12.034   1.045
28773SOL    HW186343   5.009  12.034   0.979
28773SOL    HW286344   5.121  11.942   1.054
28774SOL     OW86345   4.933  11.697   0.275
28774SOL    HW186346   4.946  11.613   0.329
28774SOL    HW286347   4.904  11.771   0.335
28775SOL     OW86348   4.031  11.385   1.231
28775SOL    HW186349   4.008  11.422   1.321
28775SOL    HW286350   4.001  11.290   1.225
28776SOL     OW86351   3.761  12.482   1.282
28776SOL    HW186352   3.814  12.433   1.350
28776SOL    HW286353   3.783  12.580   1.287
28777SOL     OW86354   4.456  11.806   1.064
28777SOL    HW186355   4.515  11.780   0.988
28777SOL    HW286356   4.428  11.902   1.053
28778SOL     OW86357   5.452  12.107   1.854
28778SOL    HW186358   5.406  12.100   1.765
28778SOL    HW286359   5.390  12.151   1.920
28779SOL     OW86360   4.031  11.235   0.618
28779SOL    HW186361   4.020  11.329   0.651
28779SOL    HW286362   4.026  11.172   0.695
28780SOL     OW86363   5.346  11.539   0.374
28780SOL    HW186364   5.348  11.463   0.438
28780SOL    HW286365   5.298  11.616   0.414
28781SOL     OW86366   4.747  11.938   0.966
28781SOL    HW186367   4.762  11.959   1.062
28781SOL    HW286368   4.717  11.843   0.957
28782SOL     OW86369   5.583  12.690   1.605
28782SOL    HW186370   5.597  12.717   1.510
28782SOL    HW286371   5.666  12.712   1.658
28783SOL     OW86372   4.074  12.070   1.804
28783SOL    HW186373   4.150  12.114   1.852
28783SOL    HW286374   4.109  12.023   1.722
28784SOL     OW86375   5.264  11.446   0.125
28784SOL    HW186376   5.203  11.371   0.148
28784SOL    HW286377   5.286  11.498   0.208
28785SOL     OW86378   5.027  12.010   0.042
28785SOL    HW186379   5.061  11.917   0.057
28785SOL    HW286380   5.045  12.037  -0.053
28786SOL     OW86381   4.792  12.505   0.849
28786SOL    HW186382   4.799  12.421   0.794
28786SOL    HW286383   4.854  12.574   0.813
28787SOL     OW86384   4.043  11.982   0.949
28787SOL    HW186385   4.136  12.018   0.954
28787SOL    HW286386   4.037  11.897   1.001
28788SOL     OW86387   4.063  11.681   1.006
28788SOL    HW186388   4.011  11.598   0.989
28788SOL    HW286389   4.140  11.686   0.942
28789SOL     OW86390   4.862  11.552   1.678
28789SOL    HW186391   4.817  11.615   1.742
28789SOL    HW286392   4.955  11.583   1.661
28790SOL     OW86393   4.884  11.379   1.477
28790SOL    HW186394   4.884  11.443   1.554
28790SOL    HW286395   4.912  11.427   1.394
28791SOL     OW86396   3.732  12.498   0.200
28791SOL    HW186397   3.639  12.519   0.169
28791SOL    HW286398   3.742  12.399   0.213
28792SOL     OW86399   4.228  12.740   0.910
28792SOL    HW186400   4.294  12.814   0.919
28792SOL    HW286401   4.272  12.661   0.868
28793SOL     OW86402   4.726  11.968   1.238
28793SOL    HW186403   4.767  11.936   1.324
28793SOL    HW286404   4.630  11.941   1.235
28794SOL     OW86405   3.764  11.716   1.114
28794SOL    HW186406   3.849  11.683   1.073
28794SOL    HW286407   3.777  11.731   1.212
28795SOL     OW86408   3.913  11.692   1.722
28795SOL    HW186409   3.972  11.652   1.652
28795SOL    HW286410   3.855  11.763   1.681
28796SOL     OW86411   5.093  12.122   1.660
28796SOL    HW186412   5.132  12.211   1.680
28796SOL    HW286413   5.103  12.102   1.563
28797SOL     OW86414   4.539  11.744   0.325
28797SOL    HW186415   4.546  11.655   0.279
28797SOL    HW286416   4.445  11.778   0.317
28798SOL     OW86417   3.976  12.736   1.744
28798SOL    HW186418   3.946  12.793   1.820
28798SOL    HW286419   3.969  12.639   1.770
28799SOL     OW86420   4.395  11.636   1.269
28799SOL    HW186421   4.361  11.547   1.239
28799SOL    HW286422   4.421  11.690   1.189
28800SOL     OW86423   4.197  11.672   0.191
28800SOL    HW186424   4.258  11.752   0.195
28800SOL    HW286425   4.102  11.703   0.198
28801SOL     OW86426   3.883  12.309   1.466
28801SOL    HW186427   3.905  12.248   1.542
28801SOL    HW286428   3.893  12.260   1.380
28802SOL     OW86429   5.071  12.231   1.234
28802SOL    HW186430   5.095  12.168   1.160
28802SOL    HW286431   4.981  12.271   1.216
28803SOL     OW86432   5.026  12.027   0.309
28803SOL    HW186433   4.940  11.996   0.351
28803SOL    HW286434   5.022  12.013   0.210
28804SOL     OW86435   4.976  12.903   1.128
28804SOL    HW186436   5.060  12.908   1.074
28804SOL    HW286437   4.953  12.807   1.146
28805SOL     OW86438   3.807  12.430   1.022
28805SOL    HW186439   3.802  12.429   1.122
28805SOL    HW286440   3.724  12.389   0.984
28806SOL     OW86441   4.627  11.258   0.133
28806SOL    HW186442   4.678  11.259   0.047
28806SOL    HW286443   4.683  11.216   0.204
28807SOL     OW86444   5.450  11.307   0.523
28807SOL    HW186445   5.523  11.290   0.456
28807SOL    HW286446   5.419  11.220   0.561
28808SOL     OW86447   3.854  12.966   1.851
28808SOL    HW186448   3.813  12.892   1.904
28808SOL    HW286449   3.918  13.017   1.909
28809SOL     OW86450   5.004  12.099   0.672
28809SOL    HW186451   5.064  12.018   0.674
28809SOL    HW286452   5.044  12.168   0.612
28810SOL     OW86453   4.554  12.445   1.422
28810SOL    HW186454   4.549  12.478   1.517
28810SOL    HW286455   4.468  12.464   1.376
28811SOL     OW86456   5.565  11.347   0.963
28811SOL    HW186457   5.604  11.262   0.927
28811SOL    HW286458   5.467  11.349   0.944
28812SOL     OW86459   3.987  11.498   0.720
28812SOL    HW186460   3.908  11.549   0.686
28812SOL    HW286461   3.978  11.483   0.818
28813SOL     OW86462   4.918  12.784   0.031
28813SOL    HW186463   4.924  12.691   0.068
28813SOL    HW286464   4.859  12.784  -0.049
28814SOL     OW86465   4.546  12.174   1.372
28814SOL    HW186466   4.586  12.173   1.280
28814SOL    HW286467   4.556  12.266   1.412
28815SOL     OW86468   4.640  12.082   0.291
28815SOL    HW186469   4.703  12.120   0.223
28815SOL    HW286470   4.680  11.999   0.330
28816SOL     OW86471   4.096  12.460   1.490
28816SOL    HW186472   4.083  12.553   1.456
28816SOL    HW286473   4.012  12.408   1.477
28817SOL     OW86474   5.338  12.464   1.289
28817SOL    HW186475   5.398  12.467   1.369
28817SOL    HW286476   5.263  12.528   1.302
28818SOL     OW86477   4.763  12.270   0.696
28818SOL    HW186478   4.693  12.223   0.750
28818SOL    HW286479   4.822  12.202   0.653
28819SOL     OW86480   4.738  11.408   0.971
28819SOL    HW186481   4.730  11.372   0.878
28819SOL    HW286482   4.736  11.332   1.036
28820SOL     OW86483   4.314  12.659   0.491
28820SOL    HW186484   4.356  12.601   0.421
28820SOL    HW286485   4.270  12.738   0.447
28821SOL     OW86486   5.433  11.557   1.381
28821SOL    HW186487   5.506  11.626   1.385
28821SOL    HW286488   5.461  11.482   1.322
28822SOL     OW86489   3.979  12.520   0.290
28822SOL    HW186490   3.883  12.521   0.263
28822SOL    HW286491   3.991  12.573   0.374
28823SOL     OW86492   3.829  12.185   1.726
28823SOL    HW186493   3.752  12.152   1.780
28823SOL    HW286494   3.914  12.155   1.768
28824SOL     OW86495   4.396  11.375   1.489
28824SOL    HW186496   4.486  11.359   1.449
28824SOL    HW286497   4.404  11.380   1.588
28825SOL     OW86498   5.164  12.028   1.398
28825SOL    HW186499   5.107  12.080   1.335
28825SOL    HW286500   5.260  12.040   1.374
28826SOL     OW86501   3.796  11.338   0.318
28826SOL    HW186502   3.779  11.421   0.264
28826SOL    HW286503   3.886  11.301   0.296
28827SOL     OW86504   4.907  12.507   0.119
28827SOL    HW186505   4.808  12.496   0.121
28827SOL    HW286506   4.941  12.522   0.212
28828SOL     OW86507   4.337  12.014   1.431
28828SOL    HW186508   4.393  12.095   1.414
28828SOL    HW286509   4.396  11.934   1.434
28829SOL     OW86510   4.440  11.737   1.708
28829SOL    HW186511   4.459  11.802   1.782
28829SOL    HW286512   4.500  11.657   1.717
28830SOL     OW86513   5.174  12.392   1.633
28830SOL    HW186514   5.165  12.382   1.732
28830SOL    HW286515   5.270  12.385   1.607
28831SOL     OW86516   5.398  12.055   1.254
28831SOL    HW186517   5.371  11.966   1.217
28831SOL    HW286518   5.399  12.123   1.181
28832SOL     OW86519   4.949  11.497   0.449
28832SOL    HW186520   5.014  11.423   0.438
28832SOL    HW286521   4.969  11.547   0.533
28833SOL     OW86522   4.318  11.917   0.652
28833SOL    HW186523   4.368  12.002   0.633
28833SOL    HW286524   4.230  11.919   0.604
28834SOL     OW86525   5.501  11.514   1.642
28834SOL    HW186526   5.484  11.545   1.548
28834SOL    HW286527   5.417  11.477   1.680
28835SOL     OW86528   5.454  12.106   1.517
28835SOL    HW186529   5.492  12.197   1.532
28835SOL    HW286530   5.446  12.089   1.418
28836SOL     OW86531   4.583  12.546   0.016
28836SOL    HW186532   4.537  12.561   0.104
28836SOL    HW286533   4.627  12.631  -0.014
28837SOL     OW86534   4.583  12.128   0.861
28837SOL    HW186535   4.637  12.059   0.909
28837SOL    HW286536   4.551  12.197   0.927
28838SOL     OW86537   4.807  12.156   0.087
28838SOL    HW186538   4.784  12.209   0.005
28838SOL    HW286539   4.888  12.100   0.068
28839SOL     OW86540   5.585  12.741   0.851
28839SOL    HW186541   5.514  12.729   0.781
28839SOL    HW286542   5.586  12.662   0.911
28840SOL     OW86543   3.945  12.486   1.844
28840SOL    HW186544   3.880  12.413   1.823
28840SOL    HW286545   3.949  12.500   1.942
28841SOL     OW86546   3.803  12.412   0.653
28841SOL    HW186547   3.802  12.365   0.741
28841SOL    HW286548   3.885  12.384   0.602
28842SOL     OW86549   4.396  12.563   1.624
28842SOL    HW186550   4.318  12.513   1.662
28842SOL    HW286551   4.393  12.658   1.655
28843SOL     OW86552   5.548  11.364   1.227
28843SOL    HW186553   5.544  11.274   1.271
28843SOL    HW286554   5.551  11.353   1.128
28844SOL     OW86555   4.152  11.596   0.520
28844SOL    HW186556   4.182  11.524   0.458
28844SOL    HW286557   4.113  11.556   0.603
28845SOL     OW86558   5.429  12.659   1.104
28845SOL    HW186559   5.336  12.634   1.077
28845SOL    HW286560   5.455  12.609   1.186
28846SOL     OW86561   4.041  11.719   1.280
28846SOL    HW186562   4.079  11.660   1.352
28846SOL    HW286563   4.081  11.693   1.192
28847SOL     OW86564   5.148  11.386   1.112
28847SOL    HW186565   5.200  11.321   1.167
28847SOL    HW286566   5.099  11.449   1.173
28848SOL     OW86567   4.725  11.206   1.154
28848SOL    HW186568   4.662  11.134   1.123
28848SOL    HW286569   4.818  11.170   1.154
28849SOL     OW86570   4.494  12.502   0.301
28849SOL    HW186571   4.448  12.415   0.318
28849SOL    HW286572   4.585  12.499   0.342
28850SOL     OW86573   4.342  12.739   1.284
28850SOL    HW186574   4.337  12.821   1.341
28850SOL    HW286575   4.431  12.736   1.239
28851SOL     OW86576   5.076  11.224   0.168
28851SOL    HW186577   5.111  11.183   0.084
28851SOL    HW286578   4.986  11.186   0.188
28852SOL     OW86579   5.024  11.625   0.691
28852SOL    HW186580   4.965  11.705   0.695
28852SOL    HW286581   5.039  11.590   0.784
28853SOL     OW86582   5.317  11.393   0.882
28853SOL    HW186583   5.233  11.392   0.936
28853SOL    HW286584   5.319  11.476   0.826
28854SOL     OW86585   3.763  12.249   0.300
28854SOL    HW186586   3.862  12.238   0.291
28854SOL    HW286587   3.723  12.163   0.332
28855SOL     OW86588   3.954  11.800   1.975
28855SOL    HW186589   3.861  11.798   2.012
28855SOL    HW286590   3.955  11.761   1.883
28856SOL     OW86591   3.949  11.447   2.858
28856SOL    HW186592   3.984  11.430   2.950
28856SOL    HW286593   3.861  11.402   2.846
28857SOL     OW86594   3.743  11.540   2.509
28857SOL    HW186595   3.661  11.583   2.548
28857SOL    HW286596   3.715  11.467   2.446
28858SOL     OW86597   4.293  12.447   3.027
28858SOL    HW186598   4.200  12.440   2.990
28858SOL    HW286599   4.304  12.536   3.071
28859SOL     OW86600   5.279  12.683   2.565
28859SOL    HW186601   5.222  12.667   2.646
28859SOL    HW286602   5.220  12.693   2.485
28860SOL     OW86603   4.859  11.875   2.579
28860SOL    HW186604   4.916  11.953   2.554
28860SOL    HW286605   4.799  11.901   2.655
28861SOL     OW86606   5.479  11.779   2.093
28861SOL    HW186607   5.467  11.766   1.994
28861SOL    HW286608   5.449  11.698   2.142
28862SOL     OW86609   4.492  12.316   2.885
28862SOL    HW186610   4.414  12.333   2.945
28862SOL    HW286611   4.526  12.403   2.849
28863SOL     OW86612   4.574  11.970   3.685
28863SOL    HW186613   4.570  12.046   3.750
28863SOL    HW286614   4.596  12.006   3.594
28864SOL     OW86615   4.409  12.184   2.527
28864SOL    HW186616   4.478  12.168   2.597
28864SOL    HW286617   4.336  12.241   2.565
28865SOL     OW86618   4.410  12.333   3.665
28865SOL    HW186619   4.470  12.412   3.679
28865SOL    HW286620   4.324  12.364   3.624
28866SOL     OW86621   4.059  12.607   2.923
28866SOL    HW186622   3.981  12.576   2.870
28866SOL    HW286623   4.117  12.665   2.866
28867SOL     OW86624   5.184  12.677   3.201
28867SOL    HW186625   5.208  12.771   3.227
28867SOL    HW286626   5.168  12.623   3.283
28868SOL     OW86627   4.162  11.564   3.361
28868SOL    HW186628   4.244  11.508   3.370
28868SOL    HW286629   4.081  11.506   3.365
28869SOL     OW86630   5.327  11.619   2.599
28869SOL    HW186631   5.253  11.665   2.549
28869SOL    HW286632   5.378  11.687   2.652
28870SOL     OW86633   4.851  12.513   3.552
28870SOL    HW186634   4.898  12.513   3.640
28870SOL    HW286635   4.803  12.426   3.541
28871SOL     OW86636   3.954  12.606   2.400
28871SOL    HW186637   3.928  12.702   2.400
28871SOL    HW286638   3.883  12.552   2.445
28872SOL     OW86639   3.964  12.263   2.748
28872SOL    HW186640   3.978  12.179   2.800
28872SOL    HW286641   3.909  12.327   2.803
28873SOL     OW86642   4.330  12.136   1.985
28873SOL    HW186643   4.337  12.220   1.931
28873SOL    HW286644   4.376  12.149   2.073
28874SOL     OW86645   5.318  11.286   3.342
28874SOL    HW186646   5.300  11.353   3.270
28874SOL    HW286647   5.315  11.332   3.431
28875SOL     OW86648   3.846  11.815   2.425
28875SOL    HW186649   3.801  11.727   2.442
28875SOL    HW286650   3.845  11.869   2.509
28876SOL     OW86651   3.751  12.768   1.979
28876SOL    HW186652   3.732  12.672   2.000
28876SOL    HW286653   3.718  12.826   2.054
28877SOL     OW86654   5.413  12.094   2.474
28877SOL    HW186655   5.508  12.065   2.482
28877SOL    HW286656   5.405  12.159   2.399
28878SOL     OW86657   5.365  12.280   2.294
28878SOL    HW186658   5.451  12.282   2.242
28878SOL    HW286659   5.379  12.327   2.382
28879SOL     OW86660   3.837  11.909   3.459
28879SOL    HW186661   3.925  11.896   3.504
28879SOL    HW286662   3.824  12.006   3.437
28880SOL     OW86663   4.337  12.537   2.588
28880SOL    HW186664   4.288  12.450   2.597
28880SOL    HW286665   4.314  12.580   2.501
28881SOL     OW86666   5.017  12.400   3.285
28881SOL    HW186667   5.054  12.327   3.227
28881SOL    HW286668   5.069  12.405   3.370
28882SOL     OW86669   4.533  11.176   2.364
28882SOL    HW186670   4.573  11.267   2.355
28882SOL    HW286671   4.433  11.184   2.370
28883SOL     OW86672   3.921  12.148   3.126
28883SOL    HW186673   4.010  12.103   3.112
28883SOL    HW286674   3.848  12.083   3.107
28884SOL     OW86675   5.249  12.171   2.052
28884SOL    HW186676   5.186  12.095   2.065
28884SOL    HW286677   5.297  12.189   2.138
28885SOL     OW86678   4.041  11.423   3.663
28885SOL    HW186679   4.112  11.494   3.669
28885SOL    HW286680   3.953  11.462   3.691
28886SOL     OW86681   5.190  12.589   2.815
28886SOL    HW186682   5.131  12.595   2.895
28886SOL    HW286683   5.175  12.501   2.769
28887SOL     OW86684   4.322  11.901   2.132
28887SOL    HW186685   4.346  11.970   2.064
28887SOL    HW286686   4.244  11.934   2.186
28888SOL     OW86687   5.005  11.517   2.806
28888SOL    HW186688   4.919  11.467   2.793
28888SOL    HW286689   5.067  11.463   2.862
28889SOL     OW86690   5.300  12.834   2.169
28889SOL    HW186691   5.389  12.880   2.172
28889SOL    HW286692   5.279  12.810   2.074
28890SOL     OW86693   4.531  11.777   3.327
28890SOL    HW186694   4.484  11.774   3.416
28890SOL    HW286695   4.480  11.722   3.261
28891SOL     OW86696   5.118  11.641   3.536
28891SOL    HW186697   5.098  11.684   3.624
28891SOL    HW286698   5.196  11.579   3.545
28892SOL     OW86699   4.697  12.062   3.434
28892SOL    HW186700   4.743  11.978   3.405
28892SOL    HW286701   4.641  12.096   3.359
28893SOL     OW86702   4.715  11.582   3.104
28893SOL    HW186703   4.638  11.616   3.158
28893SOL    HW286704   4.681  11.531   3.025
28894SOL     OW86705   4.765  11.873   2.291
28894SOL    HW186706   4.791  11.869   2.387
28894SOL    HW286707   4.680  11.822   2.277
28895SOL     OW86708   3.800  11.983   2.651
28895SOL    HW186709   3.899  11.971   2.660
28895SOL    HW286710   3.776  12.078   2.672
28896SOL     OW86711   4.589  11.520   2.057
28896SOL    HW186712   4.648  11.583   2.008
28896SOL    HW286713   4.608  11.426   2.028
28897SOL     OW86714   5.443  11.757   3.693
28897SOL    HW186715   5.417  11.846   3.657
28897SOL    HW286716   5.441  11.689   3.620
28898SOL     OW86717   5.086  12.316   2.407
28898SOL    HW186718   5.169  12.287   2.359
28898SOL    HW286719   5.037  12.383   2.351
28899SOL     OW86720   4.274  11.368   2.747
28899SOL    HW186721   4.269  11.363   2.847
28899SOL    HW286722   4.276  11.464   2.718
28900SOL     OW86723   4.732  12.628   2.339
28900SOL    HW186724   4.686  12.700   2.287
28900SOL    HW286725   4.728  12.648   2.437
28901SOL     OW86726   5.519  12.238   2.735
28901SOL    HW186727   5.457  12.223   2.659
28901SOL    HW286728   5.467  12.249   2.820
28902SOL     OW86729   4.951  12.722   3.368
28902SOL    HW186730   4.957  12.645   3.432
28902SOL    HW286731   4.899  12.696   3.288
28903SOL     OW86732   4.045  12.115   2.104
28903SOL    HW186733   4.127  12.154   2.062
28903SOL    HW286734   4.018  12.033   2.055
28904SOL     OW86735   5.182  11.907   2.590
28904SOL    HW186736   5.177  11.842   2.665
28904SOL    HW286737   5.262  11.966   2.603
28905SOL     OW86738   4.185  12.438   3.589
28905SOL    HW186739   4.135  12.439   3.503
28905SOL    HW286740   4.122  12.420   3.665
28906SOL     OW86741   3.926  11.457   3.360
28906SOL    HW186742   3.846  11.517   3.347
28906SOL    HW286743   3.916  11.408   3.446
28907SOL     OW86744   5.356  12.549   1.943
28907SOL    HW186745   5.324  12.643   1.933
28907SOL    HW286746   5.280  12.486   1.931
28908SOL     OW86747   5.124  11.279   2.288
28908SOL    HW186748   5.100  11.242   2.198
28908SOL    HW286749   5.223  11.295   2.292
28909SOL     OW86750   4.106  11.872   2.342
28909SOL    HW186751   4.151  11.782   2.339
28909SOL    HW286752   4.012  11.861   2.375
28910SOL     OW86753   5.271  11.394   3.591
28910SOL    HW186754   5.266  11.431   3.683
28910SOL    HW286755   5.199  11.325   3.579
28911SOL     OW86756   4.338  11.294   1.979
28911SOL    HW186757   4.436  11.272   1.986
28911SOL    HW286758   4.307  11.277   1.886
28912SOL     OW86759   4.505  11.436   3.611
28912SOL    HW186760   4.572  11.375   3.654
28912SOL    HW286761   4.432  11.455   3.676
28913SOL     OW86762   5.075  11.762   3.295
28913SOL    HW186763   5.103  11.719   3.380
28913SOL    HW286764   5.100  11.858   3.296
28914SOL     OW86765   4.527  12.574   2.786
28914SOL    HW186766   4.617  12.588   2.744
28914SOL    HW286767   4.456  12.576   2.715
28915SOL     OW86768   4.646  11.675   2.761
28915SOL    HW186769   4.621  11.666   2.665
28915SOL    HW286770   4.694  11.593   2.792
28916SOL     OW86771   4.263  11.236   2.374
28916SOL    HW186772   4.182  11.237   2.432
28916SOL    HW286773   4.266  11.319   2.319
28917SOL     OW86774   5.158  12.360   1.903
28917SOL    HW186775   5.190  12.284   1.960
28917SOL    HW286776   5.066  12.387   1.933
28918SOL     OW86777   4.021  11.207   2.033
28918SOL    HW186778   4.070  11.291   2.012
28918SOL    HW286779   4.083  11.142   2.078
28919SOL     OW86780   4.659  11.408   2.342
28919SOL    HW186781   4.611  11.449   2.264
28919SOL    HW286782   4.758  11.406   2.323
28920SOL     OW86783   4.800  11.855   3.326
28920SOL    HW186784   4.720  11.794   3.329
28920SOL    HW286785   4.881  11.802   3.302
28921SOL     OW86786   4.951  12.742   2.655
28921SOL    HW186787   4.972  12.816   2.590
28921SOL    HW286788   5.019  12.742   2.728
28922SOL     OW86789   4.183  12.324   2.603
28922SOL    HW186790   4.112  12.297   2.668
28922SOL    HW286791   4.157  12.296   2.510
28923SOL     OW86792   4.756  11.721   1.878
28923SOL    HW186793   4.715  11.803   1.839
28923SOL    HW286794   4.820  11.747   1.951
28924SOL     OW86795   3.802  11.728   3.248
28924SOL    HW186796   3.894  11.727   3.207
28924SOL    HW286797   3.796  11.802   3.315
28925SOL     OW86798   4.285  11.394   3.009
28925SOL    HW186799   4.323  11.310   3.046
28925SOL    HW286800   4.197  11.413   3.053
28926SOL     OW86801   4.590  11.626   2.504
28926SOL    HW186802   4.558  11.698   2.442
28926SOL    HW286803   4.614  11.545   2.451
28927SOL     OW86804   4.741  11.211   2.615
28927SOL    HW186805   4.669  11.216   2.546
28927SOL    HW286806   4.717  11.142   2.684
28928SOL     OW86807   5.153  12.345   2.729
28928SOL    HW186808   5.098  12.261   2.722
28928SOL    HW286809   5.179  12.374   2.637
28929SOL     OW86810   5.190  11.762   2.854
28929SOL    HW186811   5.160  11.667   2.861
28929SOL    HW286812   5.263  11.778   2.920
28930SOL     OW86813   5.581  12.005   2.239
28930SOL    HW186814   5.623  11.941   2.303
28930SOL    HW286815   5.543  11.954   2.161
28931SOL     OW86816   4.212  12.557   2.036
28931SOL    HW186817   4.125  12.542   2.083
28931SOL    HW286818   4.195  12.583   1.941
28932SOL     OW86819   5.388  12.452   2.519
28932SOL    HW186820   5.487  12.460   2.533
28932SOL    HW286821   5.343  12.536   2.550
28933SOL     OW86822   5.114  11.747   1.940
28933SOL    HW186823   5.060  11.726   2.021
28933SOL    HW286824   5.205  11.706   1.949
28934SOL     OW86825   4.251  11.428   2.190
28934SOL    HW186826   4.278  11.369   2.115
28934SOL    HW286827   4.251  11.523   2.159
28935SOL     OW86828   5.478  12.395   3.450
28935SOL    HW186829   5.569  12.356   3.437
28935SOL    HW286830   5.486  12.491   3.474
28936SOL     OW86831   4.788  12.519   3.202
28936SOL    HW186832   4.708  12.496   3.257
28936SOL    HW286833   4.871  12.493   3.251
28937SOL     OW86834   4.835  12.367   2.962
28937SOL    HW186835   4.795  12.411   3.043
28937SOL    HW286836   4.794  12.404   2.879
28938SOL     OW86837   5.362  12.271   2.941
28938SOL    HW186838   5.367  12.352   3.000
28938SOL    HW286839   5.276  12.273   2.890
28939SOL     OW86840   4.639  11.261   3.264
28939SOL    HW186841   4.664  11.241   3.169
28939SOL    HW286842   4.711  11.317   3.306
28940SOL     OW86843   4.704  12.288   3.581
28940SOL    HW186844   4.605  12.294   3.591
28940SOL    HW286845   4.727  12.208   3.525
28941SOL     OW86846   4.429  12.222   2.230
28941SOL    HW186847   4.415  12.229   2.329
28941SOL    HW286848   4.513  12.171   2.212
28942SOL     OW86849   4.134  11.985   3.113
28942SOL    HW186850   4.220  11.997   3.163
28942SOL    HW286851   4.092  11.898   3.140
28943SOL     OW86852   4.998  11.558   3.124
28943SOL    HW186853   5.019  11.632   3.188
28943SOL    HW286854   4.909  11.575   3.081
28944SOL     OW86855   3.788  12.736   3.193
28944SOL    HW186856   3.742  12.818   3.159
28944SOL    HW286857   3.886  12.755   3.202
28945SOL     OW86858   4.091  12.272   2.363
28945SOL    HW186859   4.084  12.355   2.307
28945SOL    HW286860   4.095  12.192   2.303
28946SOL     OW86861   4.290  11.709   2.727
28946SOL    HW186862   4.302  11.775   2.653
28946SOL    HW286863   4.336  11.743   2.810
28947SOL     OW86864   4.976  12.520   2.250
28947SOL    HW186865   5.026  12.597   2.290
28947SOL    HW286866   4.881  12.522   2.282
28948SOL     OW86867   4.996  12.617   3.004
28948SOL    HW186868   5.043  12.630   3.091
28948SOL    HW286869   4.930  12.543   3.013
28949SOL     OW86870   5.306  11.811   2.334
28949SOL    HW186871   5.275  11.872   2.407
28949SOL    HW286872   5.356  11.863   2.265
28950SOL     OW86873   4.078  12.682   3.191
28950SOL    HW186874   4.057  12.638   3.104
28950SOL    HW286875   4.175  12.708   3.194
28951SOL     OW86876   4.126  11.923   3.460
28951SOL    HW186877   4.194  11.978   3.413
28951SOL    HW286878   4.166  11.835   3.487
28952SOL     OW86879   5.311  11.951   3.532
28952SOL    HW186880   5.219  11.989   3.527
28952SOL    HW286881   5.371  11.998   3.467
28953SOL     OW86882   4.737  11.277   3.632
28953SOL    HW186883   4.743  11.362   3.580
28953SOL    HW286884   4.769  11.201   3.575
28954SOL     OW86885   4.228  11.222   3.602
28954SOL    HW186886   4.186  11.165   3.532
28954SOL    HW286887   4.162  11.291   3.634
28955SOL     OW86888   4.297  12.042   2.891
28955SOL    HW186889   4.341  12.131   2.882
28955SOL    HW286890   4.234  12.042   2.968
28956SOL     OW86891   5.084  12.034   2.907
28956SOL    HW186892   5.009  12.034   2.841
28956SOL    HW286893   5.121  11.942   2.916
28957SOL     OW86894   4.933  11.697   2.137
28957SOL    HW186895   4.946  11.613   2.191
28957SOL    HW286896   4.904  11.771   2.197
28958SOL     OW86897   4.031  11.385   3.093
28958SOL    HW186898   4.008  11.422   3.183
28958SOL    HW286899   4.001  11.290   3.087
28959SOL     OW86900   3.761  12.482   3.144
28959SOL    HW186901   3.814  12.433   3.212
28959SOL    HW286902   3.783  12.580   3.149
28960SOL     OW86903   4.456  11.806   2.926
28960SOL    HW186904   4.515  11.780   2.850
28960SOL    HW286905   4.428  11.902   2.915
28961SOL     OW86906   5.452  12.107   3.716
28961SOL    HW186907   5.406  12.100   3.627
28961SOL    HW286908   5.390  12.151   3.782
28962SOL     OW86909   4.031  11.235   2.480
28962SOL    HW186910   4.020  11.329   2.513
28962SOL    HW286911   4.026  11.172   2.557
28963SOL     OW86912   5.346  11.539   2.236
28963SOL    HW186913   5.348  11.463   2.300
28963SOL    HW286914   5.298  11.616   2.276
28964SOL     OW86915   4.747  11.938   2.828
28964SOL    HW186916   4.762  11.959   2.924
28964SOL    HW286917   4.717  11.843   2.819
28965SOL     OW86918   5.583  12.690   3.467
28965SOL    HW186919   5.597  12.717   3.372
28965SOL    HW286920   5.666  12.712   3.520
28966SOL     OW86921   4.074  12.070   3.666
28966SOL    HW186922   4.150  12.114   3.714
28966SOL    HW286923   4.109  12.023   3.584
28967SOL     OW86924   5.264  11.446   1.987
28967SOL    HW186925   5.203  11.371   2.010
28967SOL    HW286926   5.286  11.498   2.070
28968SOL     OW86927   5.027  12.010   1.904
28968SOL    HW186928   5.061  11.917   1.919
28968SOL    HW286929   5.045  12.037   1.809
28969SOL     OW86930   4.792  12.505   2.711
28969SOL    HW186931   4.799  12.421   2.656
28969SOL    HW286932   4.854  12.574   2.675
28970SOL     OW86933   4.043  11.982   2.811
28970SOL    HW186934   4.136  12.018   2.816
28970SOL    HW286935   4.037  11.897   2.863
28971SOL     OW86936   4.063  11.681   2.868
28971SOL    HW186937   4.011  11.598   2.851
28971SOL    HW286938   4.140  11.686   2.804
28972SOL     OW86939   4.862  11.552   3.540
28972SOL    HW186940   4.817  11.615   3.604
28972SOL    HW286941   4.955  11.583   3.523
28973SOL     OW86942   4.884  11.379   3.339
28973SOL    HW186943   4.884  11.443   3.416
28973SOL    HW286944   4.912  11.427   3.256
28974SOL     OW86945   3.732  12.498   2.062
28974SOL    HW186946   3.639  12.519   2.031
28974SOL    HW286947   3.742  12.399   2.075
28975SOL     OW86948   4.228  12.740   2.772
28975SOL    HW186949   4.294  12.814   2.781
28975SOL    HW286950   4.272  12.661   2.730
28976SOL     OW86951   4.726  11.968   3.100
28976SOL    HW186952   4.767  11.936   3.186
28976SOL    HW286953   4.630  11.941   3.097
28977SOL     OW86954   3.764  11.716   2.976
28977SOL    HW186955   3.849  11.683   2.935
28977SOL    HW286956   3.777  11.731   3.074
28978SOL     OW86957   3.913  11.692   3.584
28978SOL    HW186958   3.972  11.652   3.514
28978SOL    HW286959   3.855  11.763   3.543
28979SOL     OW86960   5.093  12.122   3.522
28979SOL    HW186961   5.132  12.211   3.542
28979SOL    HW286962   5.103  12.102   3.425
28980SOL     OW86963   4.539  11.744   2.187
28980SOL    HW186964   4.546  11.655   2.141
28980SOL    HW286965   4.445  11.778   2.179
28981SOL     OW86966   5.381  11.776   3.068
28981SOL    HW186967   5.343  11.707   3.130
28981SOL    HW286968   5.463  11.740   3.024
28982SOL     OW86969   3.976  12.736   3.606
28982SOL    HW186970   3.946  12.793   3.682
28982SOL    HW286971   3.969  12.639   3.632
28983SOL     OW86972   4.395  11.636   3.131
28983SOL    HW186973   4.361  11.547   3.101
28983SOL    HW286974   4.421  11.690   3.051
28984SOL     OW86975   4.197  11.672   2.053
28984SOL    HW186976   4.258  11.752   2.057
28984SOL    HW286977   4.102  11.703   2.060
28985SOL     OW86978   3.883  12.309   3.328
28985SOL    HW186979   3.905  12.248   3.404
28985SOL    HW286980   3.893  12.260   3.242
28986SOL     OW86981   5.071  12.231   3.096
28986SOL    HW186982   5.095  12.168   3.022
28986SOL    HW286983   4.981  12.271   3.078
28987SOL     OW86984   5.026  12.027   2.171
28987SOL    HW186985   4.940  11.996   2.213
28987SOL    HW286986   5.022  12.013   2.072
28988SOL     OW86987   4.976  12.903   2.990
28988SOL    HW186988   5.060  12.908   2.936
28988SOL    HW286989   4.953  12.807   3.008
28989SOL     OW86990   3.807  12.430   2.884
28989SOL    HW186991   3.802  12.429   2.984
28989SOL    HW286992   3.724  12.389   2.846
28990SOL     OW86993   5.450  11.307   2.385
28990SOL    HW186994   5.523  11.290   2.318
28990SOL    HW286995   5.419  11.220   2.423
28991SOL     OW86996   3.854  12.966   3.713
28991SOL    HW186997   3.813  12.892   3.766
28991SOL    HW286998   3.918  13.017   3.771
28992SOL     OW86999   5.004  12.099   2.534
28992SOL    HW187000   5.064  12.018   2.536
28992SOL    HW287001   5.044  12.168   2.474
28993SOL     OW87002   4.554  12.445   3.284
28993SOL    HW187003   4.549  12.478   3.379
28993SOL    HW287004   4.468  12.464   3.238
28994SOL     OW87005   4.396  12.788   2.016
28994SOL    HW187006   4.405  12.798   1.917
28994SOL    HW287007   4.356  12.699   2.037
28995SOL     OW87008   5.565  11.347   2.825
28995SOL    HW187009   5.604  11.262   2.789
28995SOL    HW287010   5.467  11.349   2.806
28996SOL     OW87011   3.987  11.498   2.582
28996SOL    HW187012   3.908  11.549   2.548
28996SOL    HW287013   3.978  11.483   2.680
28997SOL     OW87014   4.918  12.784   1.893
28997SOL    HW187015   4.924  12.691   1.930
28997SOL    HW287016   4.859  12.784   1.813
28998SOL     OW87017   4.546  12.174   3.234
28998SOL    HW187018   4.586  12.173   3.142
28998SOL    HW287019   4.556  12.266   3.274
28999SOL     OW87020   4.640  12.082   2.153
28999SOL    HW187021   4.703  12.120   2.085
28999SOL    HW287022   4.680  11.999   2.192
29000SOL     OW87023   4.096  12.460   3.352
29000SOL    HW187024   4.083  12.553   3.318
29000SOL    HW287025   4.012  12.408   3.339
29001SOL     OW87026   5.338  12.464   3.151
29001SOL    HW187027   5.398  12.467   3.231
29001SOL    HW287028   5.263  12.528   3.164
29002SOL     OW87029   4.763  12.270   2.558
29002SOL    HW187030   4.693  12.223   2.612
29002SOL    HW287031   4.822  12.202   2.515
29003SOL     OW87032   4.738  11.408   2.833
29003SOL    HW187033   4.730  11.372   2.740
29003SOL    HW287034   4.736  11.332   2.898
29004SOL     OW87035   4.314  12.659   2.353
29004SOL    HW187036   4.356  12.601   2.283
29004SOL    HW287037   4.270  12.738   2.309
29005SOL     OW87038   5.433  11.557   3.243
29005SOL    HW187039   5.506  11.626   3.247
29005SOL    HW287040   5.461  11.482   3.184
29006SOL     OW87041   3.979  12.520   2.152
29006SOL    HW187042   3.883  12.521   2.125
29006SOL    HW287043   3.991  12.573   2.236
29007SOL     OW87044   3.829  12.185   3.588
29007SOL    HW187045   3.752  12.152   3.642
29007SOL    HW287046   3.914  12.155   3.630
29008SOL     OW87047   4.396  11.375   3.351
29008SOL    HW187048   4.486  11.359   3.311
29008SOL    HW287049   4.404  11.380   3.450
29009SOL     OW87050   3.799  11.517   1.895
29009SOL    HW187051   3.707  11.489   1.866
29009SOL    HW287052   3.830  11.594   1.839
29010SOL     OW87053   5.164  12.028   3.260
29010SOL    HW187054   5.107  12.080   3.197
29010SOL    HW287055   5.260  12.040   3.236
29011SOL     OW87056   3.796  11.338   2.180
29011SOL    HW187057   3.779  11.421   2.126
29011SOL    HW287058   3.886  11.301   2.158
29012SOL     OW87059   4.907  12.507   1.981
29012SOL    HW187060   4.808  12.496   1.983
29012SOL    HW287061   4.941  12.522   2.074
29013SOL     OW87062   4.337  12.014   3.293
29013SOL    HW187063   4.393  12.095   3.276
29013SOL    HW287064   4.396  11.934   3.296
29014SOL     OW87065   4.440  11.737   3.570
29014SOL    HW187066   4.459  11.802   3.644
29014SOL    HW287067   4.500  11.657   3.579
29015SOL     OW87068   5.174  12.392   3.495
29015SOL    HW187069   5.165  12.382   3.594
29015SOL    HW287070   5.270  12.385   3.469
29016SOL     OW87071   5.398  12.055   3.116
29016SOL    HW187072   5.371  11.966   3.079
29016SOL    HW287073   5.399  12.123   3.043
29017SOL     OW87074   4.949  11.497   2.311
29017SOL    HW187075   5.014  11.423   2.300
29017SOL    HW287076   4.969  11.547   2.395
29018SOL     OW87077   4.318  11.917   2.514
29018SOL    HW187078   4.368  12.002   2.495
29018SOL    HW287079   4.230  11.919   2.466
29019SOL     OW87080   5.501  11.514   3.504
29019SOL    HW187081   5.484  11.545   3.410
29019SOL    HW287082   5.417  11.477   3.542
29020SOL     OW87083   5.454  12.106   3.379
29020SOL    HW187084   5.492  12.197   3.394
29020SOL    HW287085   5.446  12.089   3.280
29021SOL     OW87086   4.583  12.546   1.878
29021SOL    HW187087   4.537  12.561   1.966
29021SOL    HW287088   4.627  12.631   1.848
29022SOL     OW87089   4.583  12.128   2.723
29022SOL    HW187090   4.637  12.059   2.771
29022SOL    HW287091   4.551  12.197   2.789
29023SOL     OW87092   4.807  12.156   1.949
29023SOL    HW187093   4.784  12.209   1.867
29023SOL    HW287094   4.888  12.100   1.930
29024SOL     OW87095   5.585  12.741   2.713
29024SOL    HW187096   5.514  12.729   2.643
29024SOL    HW287097   5.586  12.662   2.773
29025SOL     OW87098   3.945  12.486   3.706
29025SOL    HW187099   3.880  12.413   3.685
29025SOL    HW287100   3.949  12.500   3.804
29026SOL     OW87101   3.803  12.412   2.515
29026SOL    HW187102   3.802  12.365   2.603
29026SOL    HW287103   3.885  12.384   2.464
29027SOL     OW87104   4.396  12.563   3.486
29027SOL    HW187105   4.318  12.513   3.524
29027SOL    HW287106   4.393  12.658   3.517
29028SOL     OW87107   5.548  11.364   3.089
29028SOL    HW187108   5.544  11.274   3.133
29028SOL    HW287109   5.551  11.353   2.990
29029SOL     OW87110   4.152  11.596   2.382
29029SOL    HW187111   4.182  11.524   2.320
29029SOL    HW287112   4.113  11.556   2.465
29030SOL     OW87113   5.429  12.659   2.966
29030SOL    HW187114   5.336  12.634   2.939
29030SOL    HW287115   5.455  12.609   3.048
29031SOL     OW87116   4.041  11.719   3.142
29031SOL    HW187117   4.079  11.660   3.214
29031SOL    HW287118   4.081  11.693   3.054
29032SOL     OW87119   5.148  11.386   2.974
29032SOL    HW187120   5.200  11.321   3.029
29032SOL    HW287121   5.099  11.449   3.035
29033SOL     OW87122   4.725  11.206   3.016
29033SOL    HW187123   4.662  11.134   2.985
29033SOL    HW287124   4.818  11.170   3.016
29034SOL     OW87125   4.494  12.502   2.163
29034SOL    HW187126   4.448  12.415   2.180
29034SOL    HW287127   4.585  12.499   2.204
29035SOL     OW87128   4.342  12.739   3.146
29035SOL    HW187129   4.337  12.821   3.203
29035SOL    HW287130   4.431  12.736   3.101
29036SOL     OW87131   5.076  11.224   2.030
29036SOL    HW187132   5.111  11.183   1.946
29036SOL    HW287133   4.986  11.186   2.050
29037SOL     OW87134   5.024  11.625   2.553
29037SOL    HW187135   4.965  11.705   2.557
29037SOL    HW287136   5.039  11.590   2.646
29038SOL     OW87137   5.317  11.393   2.744
29038SOL    HW187138   5.233  11.392   2.798
29038SOL    HW287139   5.319  11.476   2.688
29039SOL     OW87140   3.763  12.249   2.162
29039SOL    HW187141   3.862  12.238   2.153
29039SOL    HW287142   3.723  12.163   2.194
29040SOL     OW87143   3.954  11.800   3.837
29040SOL    HW187144   3.861  11.798   3.874
29040SOL    HW287145   3.955  11.761   3.745
29041SOL     OW87146   3.949  11.447   4.720
29041SOL    HW187147   3.984  11.430   4.812
29041SOL    HW287148   3.861  11.402   4.708
29042SOL     OW87149   3.743  11.540   4.371
29042SOL    HW187150   3.661  11.583   4.410
29042SOL    HW287151   3.715  11.467   4.308
29043SOL     OW87152   4.293  12.447   4.889
29043SOL    HW187153   4.200  12.440   4.852
29043SOL    HW287154   4.304  12.536   4.933
29044SOL     OW87155   5.279  12.683   4.427
29044SOL    HW187156   5.222  12.667   4.508
29044SOL    HW287157   5.220  12.693   4.347
29045SOL     OW87158   4.859  11.875   4.441
29045SOL    HW187159   4.916  11.953   4.416
29045SOL    HW287160   4.799  11.901   4.517
29046SOL     OW87161   5.479  11.779   3.955
29046SOL    HW187162   5.467  11.766   3.856
29046SOL    HW287163   5.449  11.698   4.004
29047SOL     OW87164   4.492  12.316   4.747
29047SOL    HW187165   4.414  12.333   4.807
29047SOL    HW287166   4.526  12.403   4.711
29048SOL     OW87167   4.574  11.970   5.547
29048SOL    HW187168   4.570  12.046   5.612
29048SOL    HW287169   4.596  12.006   5.456
29049SOL     OW87170   4.409  12.184   4.389
29049SOL    HW187171   4.478  12.168   4.459
29049SOL    HW287172   4.336  12.241   4.427
29050SOL     OW87173   4.410  12.333   5.527
29050SOL    HW187174   4.470  12.412   5.541
29050SOL    HW287175   4.324  12.364   5.486
29051SOL     OW87176   4.059  12.607   4.785
29051SOL    HW187177   3.981  12.576   4.732
29051SOL    HW287178   4.117  12.665   4.728
29052SOL     OW87179   5.184  12.677   5.063
29052SOL    HW187180   5.208  12.771   5.089
29052SOL    HW287181   5.168  12.623   5.145
29053SOL     OW87182   4.162  11.564   5.223
29053SOL    HW187183   4.244  11.508   5.232
29053SOL    HW287184   4.081  11.506   5.227
29054SOL     OW87185   5.327  11.619   4.461
29054SOL    HW187186   5.253  11.665   4.411
29054SOL    HW287187   5.378  11.687   4.514
29055SOL     OW87188   4.851  12.513   5.414
29055SOL    HW187189   4.898  12.513   5.502
29055SOL    HW287190   4.803  12.426   5.403
29056SOL     OW87191   3.954  12.606   4.262
29056SOL    HW187192   3.928  12.702   4.262
29056SOL    HW287193   3.883  12.552   4.307
29057SOL     OW87194   3.964  12.263   4.610
29057SOL    HW187195   3.978  12.179   4.662
29057SOL    HW287196   3.909  12.327   4.665
29058SOL     OW87197   4.330  12.136   3.847
29058SOL    HW187198   4.337  12.220   3.793
29058SOL    HW287199   4.376  12.149   3.935
29059SOL     OW87200   5.318  11.286   5.204
29059SOL    HW187201   5.300  11.353   5.132
29059SOL    HW287202   5.315  11.332   5.293
29060SOL     OW87203   3.846  11.815   4.287
29060SOL    HW187204   3.801  11.727   4.304
29060SOL    HW287205   3.845  11.869   4.371
29061SOL     OW87206   3.751  12.768   3.841
29061SOL    HW187207   3.732  12.672   3.862
29061SOL    HW287208   3.718  12.826   3.916
29062SOL     OW87209   5.413  12.094   4.336
29062SOL    HW187210   5.508  12.065   4.344
29062SOL    HW287211   5.405  12.159   4.261
29063SOL     OW87212   5.365  12.280   4.156
29063SOL    HW187213   5.451  12.282   4.104
29063SOL    HW287214   5.379  12.327   4.244
29064SOL     OW87215   3.837  11.909   5.321
29064SOL    HW187216   3.925  11.896   5.366
29064SOL    HW287217   3.824  12.006   5.299
29065SOL     OW87218   4.337  12.537   4.450
29065SOL    HW187219   4.288  12.450   4.459
29065SOL    HW287220   4.314  12.580   4.363
29066SOL     OW87221   5.017  12.400   5.147
29066SOL    HW187222   5.054  12.327   5.089
29066SOL    HW287223   5.069  12.405   5.232
29067SOL     OW87224   4.533  11.176   4.226
29067SOL    HW187225   4.573  11.267   4.217
29067SOL    HW287226   4.433  11.184   4.232
29068SOL     OW87227   3.921  12.148   4.988
29068SOL    HW187228   4.010  12.103   4.974
29068SOL    HW287229   3.848  12.083   4.969
29069SOL     OW87230   5.249  12.171   3.914
29069SOL    HW187231   5.186  12.095   3.927
29069SOL    HW287232   5.297  12.189   4.000
29070SOL     OW87233   4.041  11.423   5.525
29070SOL    HW187234   4.112  11.494   5.531
29070SOL    HW287235   3.953  11.462   5.553
29071SOL     OW87236   5.190  12.589   4.677
29071SOL    HW187237   5.131  12.595   4.757
29071SOL    HW287238   5.175  12.501   4.631
29072SOL     OW87239   4.322  11.901   3.994
29072SOL    HW187240   4.346  11.970   3.926
29072SOL    HW287241   4.244  11.934   4.048
29073SOL     OW87242   5.005  11.517   4.668
29073SOL    HW187243   4.919  11.467   4.655
29073SOL    HW287244   5.067  11.463   4.724
29074SOL     OW87245   5.300  12.834   4.031
29074SOL    HW187246   5.389  12.880   4.034
29074SOL    HW287247   5.279  12.810   3.936
29075SOL     OW87248   4.531  11.777   5.189
29075SOL    HW187249   4.484  11.774   5.278
29075SOL    HW287250   4.480  11.722   5.123
29076SOL     OW87251   5.118  11.641   5.398
29076SOL    HW187252   5.098  11.684   5.486
29076SOL    HW287253   5.196  11.579   5.407
29077SOL     OW87254   4.697  12.062   5.296
29077SOL    HW187255   4.743  11.978   5.267
29077SOL    HW287256   4.641  12.096   5.221
29078SOL     OW87257   4.715  11.582   4.966
29078SOL    HW187258   4.638  11.616   5.020
29078SOL    HW287259   4.681  11.531   4.887
29079SOL     OW87260   4.765  11.873   4.153
29079SOL    HW187261   4.791  11.869   4.249
29079SOL    HW287262   4.680  11.822   4.139
29080SOL     OW87263   3.800  11.983   4.513
29080SOL    HW187264   3.899  11.971   4.522
29080SOL    HW287265   3.776  12.078   4.534
29081SOL     OW87266   4.589  11.520   3.919
29081SOL    HW187267   4.648  11.583   3.870
29081SOL    HW287268   4.608  11.426   3.890
29082SOL     OW87269   5.443  11.757   5.555
29082SOL    HW187270   5.417  11.846   5.519
29082SOL    HW287271   5.441  11.689   5.482
29083SOL     OW87272   5.086  12.316   4.269
29083SOL    HW187273   5.169  12.287   4.221
29083SOL    HW287274   5.037  12.383   4.213
29084SOL     OW87275   4.274  11.368   4.609
29084SOL    HW187276   4.269  11.363   4.709
29084SOL    HW287277   4.276  11.464   4.580
29085SOL     OW87278   4.732  12.628   4.201
29085SOL    HW187279   4.686  12.700   4.149
29085SOL    HW287280   4.728  12.648   4.299
29086SOL     OW87281   5.519  12.238   4.597
29086SOL    HW187282   5.457  12.223   4.521
29086SOL    HW287283   5.467  12.249   4.682
29087SOL     OW87284   4.951  12.722   5.230
29087SOL    HW187285   4.957  12.645   5.294
29087SOL    HW287286   4.899  12.696   5.150
29088SOL     OW87287   4.045  12.115   3.966
29088SOL    HW187288   4.127  12.154   3.924
29088SOL    HW287289   4.018  12.033   3.917
29089SOL     OW87290   5.182  11.907   4.452
29089SOL    HW187291   5.177  11.842   4.527
29089SOL    HW287292   5.262  11.966   4.465
29090SOL     OW87293   4.185  12.438   5.451
29090SOL    HW187294   4.135  12.439   5.365
29090SOL    HW287295   4.122  12.420   5.527
29091SOL     OW87296   3.926  11.457   5.222
29091SOL    HW187297   3.846  11.517   5.209
29091SOL    HW287298   3.916  11.408   5.308
29092SOL     OW87299   5.356  12.549   3.805
29092SOL    HW187300   5.324  12.643   3.795
29092SOL    HW287301   5.280  12.486   3.793
29093SOL     OW87302   5.124  11.279   4.150
29093SOL    HW187303   5.100  11.242   4.060
29093SOL    HW287304   5.223  11.295   4.154
29094SOL     OW87305   4.106  11.872   4.204
29094SOL    HW187306   4.151  11.782   4.201
29094SOL    HW287307   4.012  11.861   4.237
29095SOL     OW87308   5.271  11.394   5.453
29095SOL    HW187309   5.266  11.431   5.545
29095SOL    HW287310   5.199  11.325   5.441
29096SOL     OW87311   4.338  11.294   3.841
29096SOL    HW187312   4.436  11.272   3.848
29096SOL    HW287313   4.307  11.277   3.748
29097SOL     OW87314   4.505  11.436   5.473
29097SOL    HW187315   4.572  11.375   5.516
29097SOL    HW287316   4.432  11.455   5.538
29098SOL     OW87317   5.075  11.762   5.157
29098SOL    HW187318   5.103  11.719   5.242
29098SOL    HW287319   5.100  11.858   5.158
29099SOL     OW87320   4.527  12.574   4.648
29099SOL    HW187321   4.617  12.588   4.606
29099SOL    HW287322   4.456  12.576   4.577
29100SOL     OW87323   4.646  11.675   4.623
29100SOL    HW187324   4.621  11.666   4.527
29100SOL    HW287325   4.694  11.593   4.654
29101SOL     OW87326   4.263  11.236   4.236
29101SOL    HW187327   4.182  11.237   4.294
29101SOL    HW287328   4.266  11.319   4.181
29102SOL     OW87329   5.158  12.360   3.765
29102SOL    HW187330   5.190  12.284   3.822
29102SOL    HW287331   5.066  12.387   3.795
29103SOL     OW87332   4.021  11.207   3.895
29103SOL    HW187333   4.070  11.291   3.874
29103SOL    HW287334   4.083  11.142   3.940
29104SOL     OW87335   4.659  11.408   4.204
29104SOL    HW187336   4.611  11.449   4.126
29104SOL    HW287337   4.758  11.406   4.185
29105SOL     OW87338   4.800  11.855   5.188
29105SOL    HW187339   4.720  11.794   5.191
29105SOL    HW287340   4.881  11.802   5.164
29106SOL     OW87341   4.951  12.742   4.517
29106SOL    HW187342   4.972  12.816   4.452
29106SOL    HW287343   5.019  12.742   4.590
29107SOL     OW87344   4.183  12.324   4.465
29107SOL    HW187345   4.112  12.297   4.530
29107SOL    HW287346   4.157  12.296   4.372
29108SOL     OW87347   4.756  11.721   3.740
29108SOL    HW187348   4.715  11.803   3.701
29108SOL    HW287349   4.820  11.747   3.813
29109SOL     OW87350   3.802  11.728   5.110
29109SOL    HW187351   3.894  11.727   5.069
29109SOL    HW287352   3.796  11.802   5.177
29110SOL     OW87353   4.285  11.394   4.871
29110SOL    HW187354   4.323  11.310   4.908
29110SOL    HW287355   4.197  11.413   4.915
29111SOL     OW87356   4.590  11.626   4.366
29111SOL    HW187357   4.558  11.698   4.304
29111SOL    HW287358   4.614  11.545   4.313
29112SOL     OW87359   4.741  11.211   4.477
29112SOL    HW187360   4.669  11.216   4.408
29112SOL    HW287361   4.717  11.142   4.546
29113SOL     OW87362   5.153  12.345   4.591
29113SOL    HW187363   5.098  12.261   4.584
29113SOL    HW287364   5.179  12.374   4.499
29114SOL     OW87365   5.190  11.762   4.716
29114SOL    HW187366   5.160  11.667   4.723
29114SOL    HW287367   5.263  11.778   4.782
29115SOL     OW87368   5.581  12.005   4.101
29115SOL    HW187369   5.623  11.941   4.165
29115SOL    HW287370   5.543  11.954   4.023
29116SOL     OW87371   5.388  12.452   4.381
29116SOL    HW187372   5.487  12.460   4.395
29116SOL    HW287373   5.343  12.536   4.412
29117SOL     OW87374   5.114  11.747   3.802
29117SOL    HW187375   5.060  11.726   3.883
29117SOL    HW287376   5.205  11.706   3.811
29118SOL     OW87377   4.251  11.428   4.052
29118SOL    HW187378   4.278  11.369   3.977
29118SOL    HW287379   4.251  11.523   4.021
29119SOL     OW87380   5.478  12.395   5.312
29119SOL    HW187381   5.569  12.356   5.299
29119SOL    HW287382   5.486  12.491   5.336
29120SOL     OW87383   4.788  12.519   5.064
29120SOL    HW187384   4.708  12.496   5.119
29120SOL    HW287385   4.871  12.493   5.113
29121SOL     OW87386   4.835  12.367   4.824
29121SOL    HW187387   4.795  12.411   4.905
29121SOL    HW287388   4.794  12.404   4.741
29122SOL     OW87389   5.362  12.271   4.803
29122SOL    HW187390   5.367  12.352   4.862
29122SOL    HW287391   5.276  12.273   4.752
29123SOL     OW87392   4.639  11.261   5.126
29123SOL    HW187393   4.664  11.241   5.031
29123SOL    HW287394   4.711  11.317   5.168
29124SOL     OW87395   4.704  12.288   5.443
29124SOL    HW187396   4.605  12.294   5.453
29124SOL    HW287397   4.727  12.208   5.387
29125SOL     OW87398   4.429  12.222   4.092
29125SOL    HW187399   4.415  12.229   4.191
29125SOL    HW287400   4.513  12.171   4.074
29126SOL     OW87401   4.134  11.985   4.975
29126SOL    HW187402   4.220  11.997   5.025
29126SOL    HW287403   4.092  11.898   5.002
29127SOL     OW87404   4.998  11.558   4.986
29127SOL    HW187405   5.019  11.632   5.050
29127SOL    HW287406   4.909  11.575   4.943
29128SOL     OW87407   3.788  12.736   5.055
29128SOL    HW187408   3.742  12.818   5.021
29128SOL    HW287409   3.886  12.755   5.064
29129SOL     OW87410   4.091  12.272   4.225
29129SOL    HW187411   4.084  12.355   4.169
29129SOL    HW287412   4.095  12.192   4.165
29130SOL     OW87413   4.290  11.709   4.589
29130SOL    HW187414   4.302  11.775   4.515
29130SOL    HW287415   4.336  11.743   4.672
29131SOL     OW87416   4.976  12.520   4.112
29131SOL    HW187417   5.026  12.597   4.152
29131SOL    HW287418   4.881  12.522   4.144
29132SOL     OW87419   4.996  12.617   4.866
29132SOL    HW187420   5.043  12.630   4.953
29132SOL    HW287421   4.930  12.543   4.875
29133SOL     OW87422   5.306  11.811   4.196
29133SOL    HW187423   5.275  11.872   4.269
29133SOL    HW287424   5.356  11.863   4.127
29134SOL     OW87425   4.078  12.682   5.053
29134SOL    HW187426   4.057  12.638   4.966
29134SOL    HW287427   4.175  12.708   5.056
29135SOL     OW87428   4.126  11.923   5.322
29135SOL    HW187429   4.194  11.978   5.275
29135SOL    HW287430   4.166  11.835   5.349
29136SOL     OW87431   5.311  11.951   5.394
29136SOL    HW187432   5.219  11.989   5.389
29136SOL    HW287433   5.371  11.998   5.329
29137SOL     OW87434   4.737  11.277   5.494
29137SOL    HW187435   4.743  11.362   5.442
29137SOL    HW287436   4.769  11.201   5.437
29138SOL     OW87437   4.228  11.222   5.464
29138SOL    HW187438   4.186  11.165   5.394
29138SOL    HW287439   4.162  11.291   5.496
29139SOL     OW87440   4.297  12.042   4.753
29139SOL    HW187441   4.341  12.131   4.744
29139SOL    HW287442   4.234  12.042   4.830
29140SOL     OW87443   5.084  12.034   4.769
29140SOL    HW187444   5.009  12.034   4.703
29140SOL    HW287445   5.121  11.942   4.778
29141SOL     OW87446   4.933  11.697   3.999
29141SOL    HW187447   4.946  11.613   4.053
29141SOL    HW287448   4.904  11.771   4.059
29142SOL     OW87449   4.031  11.385   4.955
29142SOL    HW187450   4.008  11.422   5.045
29142SOL    HW287451   4.001  11.290   4.949
29143SOL     OW87452   3.761  12.482   5.006
29143SOL    HW187453   3.814  12.433   5.074
29143SOL    HW287454   3.783  12.580   5.011
29144SOL     OW87455   4.456  11.806   4.788
29144SOL    HW187456   4.515  11.780   4.712
29144SOL    HW287457   4.428  11.902   4.777
29145SOL     OW87458   5.452  12.107   5.578
29145SOL    HW187459   5.406  12.100   5.489
29145SOL    HW287460   5.390  12.151   5.644
29146SOL     OW87461   4.031  11.235   4.342
29146SOL    HW187462   4.020  11.329   4.375
29146SOL    HW287463   4.026  11.172   4.419
29147SOL     OW87464   5.346  11.539   4.098
29147SOL    HW187465   5.348  11.463   4.162
29147SOL    HW287466   5.298  11.616   4.138
29148SOL     OW87467   4.747  11.938   4.690
29148SOL    HW187468   4.762  11.959   4.786
29148SOL    HW287469   4.717  11.843   4.681
29149SOL     OW87470   5.583  12.690   5.329
29149SOL    HW187471   5.597  12.717   5.234
29149SOL    HW287472   5.666  12.712   5.382
29150SOL     OW87473   4.074  12.070   5.528
29150SOL    HW187474   4.150  12.114   5.576
29150SOL    HW287475   4.109  12.023   5.446
29151SOL     OW87476   5.264  11.446   3.849
29151SOL    HW187477   5.203  11.371   3.872
29151SOL    HW287478   5.286  11.498   3.932
29152SOL     OW87479   5.027  12.010   3.766
29152SOL    HW187480   5.061  11.917   3.781
29152SOL    HW287481   5.045  12.037   3.671
29153SOL     OW87482   4.792  12.505   4.573
29153SOL    HW187483   4.799  12.421   4.518
29153SOL    HW287484   4.854  12.574   4.537
29154SOL     OW87485   4.043  11.982   4.673
29154SOL    HW187486   4.136  12.018   4.678
29154SOL    HW287487   4.037  11.897   4.725
29155SOL     OW87488   4.063  11.681   4.730
29155SOL    HW187489   4.011  11.598   4.713
29155SOL    HW287490   4.140  11.686   4.666
29156SOL     OW87491   4.884  11.379   5.201
29156SOL    HW187492   4.884  11.443   5.278
29156SOL    HW287493   4.912  11.427   5.118
29157SOL     OW87494   3.732  12.498   3.924
29157SOL    HW187495   3.639  12.519   3.893
29157SOL    HW287496   3.742  12.399   3.937
29158SOL     OW87497   4.228  12.740   4.634
29158SOL    HW187498   4.294  12.814   4.643
29158SOL    HW287499   4.272  12.661   4.592
29159SOL     OW87500   4.726  11.968   4.962
29159SOL    HW187501   4.767  11.936   5.048
29159SOL    HW287502   4.630  11.941   4.959
29160SOL     OW87503   3.764  11.716   4.838
29160SOL    HW187504   3.849  11.683   4.797
29160SOL    HW287505   3.777  11.731   4.936
29161SOL     OW87506   3.913  11.692   5.446
29161SOL    HW187507   3.972  11.652   5.376
29161SOL    HW287508   3.855  11.763   5.405
29162SOL     OW87509   5.093  12.122   5.384
29162SOL    HW187510   5.132  12.211   5.404
29162SOL    HW287511   5.103  12.102   5.287
29163SOL     OW87512   4.539  11.744   4.049
29163SOL    HW187513   4.546  11.655   4.003
29163SOL    HW287514   4.445  11.778   4.041
29164SOL     OW87515   5.381  11.776   4.930
29164SOL    HW187516   5.343  11.707   4.992
29164SOL    HW287517   5.463  11.740   4.886
29165SOL     OW87518   3.976  12.736   5.468
29165SOL    HW187519   3.946  12.793   5.544
29165SOL    HW287520   3.969  12.639   5.494
29166SOL     OW87521   4.395  11.636   4.993
29166SOL    HW187522   4.361  11.547   4.963
29166SOL    HW287523   4.421  11.690   4.913
29167SOL     OW87524   4.197  11.672   3.915
29167SOL    HW187525   4.258  11.752   3.919
29167SOL    HW287526   4.102  11.703   3.922
29168SOL     OW87527   3.883  12.309   5.190
29168SOL    HW187528   3.905  12.248   5.266
29168SOL    HW287529   3.893  12.260   5.104
29169SOL     OW87530   5.071  12.231   4.958
29169SOL    HW187531   5.095  12.168   4.884
29169SOL    HW287532   4.981  12.271   4.940
29170SOL     OW87533   5.026  12.027   4.033
29170SOL    HW187534   4.940  11.996   4.075
29170SOL    HW287535   5.022  12.013   3.934
29171SOL     OW87536   4.976  12.903   4.852
29171SOL    HW187537   5.060  12.908   4.798
29171SOL    HW287538   4.953  12.807   4.870
29172SOL     OW87539   3.807  12.430   4.746
29172SOL    HW187540   3.802  12.429   4.846
29172SOL    HW287541   3.724  12.389   4.708
29173SOL     OW87542   5.450  11.307   4.247
29173SOL    HW187543   5.523  11.290   4.180
29173SOL    HW287544   5.419  11.220   4.285
29174SOL     OW87545   3.854  12.966   5.575
29174SOL    HW187546   3.813  12.892   5.628
29174SOL    HW287547   3.918  13.017   5.633
29175SOL     OW87548   5.004  12.099   4.396
29175SOL    HW187549   5.064  12.018   4.398
29175SOL    HW287550   5.044  12.168   4.336
29176SOL     OW87551   4.554  12.445   5.146
29176SOL    HW187552   4.549  12.478   5.241
29176SOL    HW287553   4.468  12.464   5.100
29177SOL     OW87554   4.396  12.788   3.878
29177SOL    HW187555   4.405  12.798   3.779
29177SOL    HW287556   4.356  12.699   3.899
29178SOL     OW87557   5.565  11.347   4.687
29178SOL    HW187558   5.604  11.262   4.651
29178SOL    HW287559   5.467  11.349   4.668
29179SOL     OW87560   3.987  11.498   4.444
29179SOL    HW187561   3.908  11.549   4.410
29179SOL    HW287562   3.978  11.483   4.542
29180SOL     OW87563   4.918  12.784   3.755
29180SOL    HW187564   4.924  12.691   3.792
29180SOL    HW287565   4.859  12.784   3.675
29181SOL     OW87566   4.546  12.174   5.096
29181SOL    HW187567   4.586  12.173   5.004
29181SOL    HW287568   4.556  12.266   5.136
29182SOL     OW87569   4.640  12.082   4.015
29182SOL    HW187570   4.703  12.120   3.947
29182SOL    HW287571   4.680  11.999   4.054
29183SOL     OW87572   4.096  12.460   5.214
29183SOL    HW187573   4.083  12.553   5.180
29183SOL    HW287574   4.012  12.408   5.201
29184SOL     OW87575   5.338  12.464   5.013
29184SOL    HW187576   5.398  12.467   5.093
29184SOL    HW287577   5.263  12.528   5.026
29185SOL     OW87578   4.763  12.270   4.420
29185SOL    HW187579   4.693  12.223   4.474
29185SOL    HW287580   4.822  12.202   4.377
29186SOL     OW87581   4.738  11.408   4.695
29186SOL    HW187582   4.730  11.372   4.602
29186SOL    HW287583   4.736  11.332   4.760
29187SOL     OW87584   4.314  12.659   4.215
29187SOL    HW187585   4.356  12.601   4.145
29187SOL    HW287586   4.270  12.738   4.171
29188SOL     OW87587   5.433  11.557   5.105
29188SOL    HW187588   5.506  11.626   5.109
29188SOL    HW287589   5.461  11.482   5.046
29189SOL     OW87590   3.979  12.520   4.014
29189SOL    HW187591   3.883  12.521   3.987
29189SOL    HW287592   3.991  12.573   4.098
29190SOL     OW87593   3.829  12.185   5.450
29190SOL    HW187594   3.752  12.152   5.504
29190SOL    HW287595   3.914  12.155   5.492
29191SOL     OW87596   4.396  11.375   5.213
29191SOL    HW187597   4.486  11.359   5.173
29191SOL    HW287598   4.404  11.380   5.312
29192SOL     OW87599   3.799  11.517   3.757
29192SOL    HW187600   3.707  11.489   3.728
29192SOL    HW287601   3.830  11.594   3.701
29193SOL     OW87602   5.164  12.028   5.122
29193SOL    HW187603   5.107  12.080   5.059
29193SOL    HW287604   5.260  12.040   5.098
29194SOL     OW87605   3.796  11.338   4.042
29194SOL    HW187606   3.779  11.421   3.988
29194SOL    HW287607   3.886  11.301   4.020
29195SOL     OW87608   4.907  12.507   3.843
29195SOL    HW187609   4.808  12.496   3.845
29195SOL    HW287610   4.941  12.522   3.936
29196SOL     OW87611   4.337  12.014   5.155
29196SOL    HW187612   4.393  12.095   5.138
29196SOL    HW287613   4.396  11.934   5.158
29197SOL     OW87614   4.440  11.737   5.432
29197SOL    HW187615   4.459  11.802   5.506
29197SOL    HW287616   4.500  11.657   5.441
29198SOL     OW87617   5.174  12.392   5.357
29198SOL    HW187618   5.165  12.382   5.456
29198SOL    HW287619   5.270  12.385   5.331
29199SOL     OW87620   5.398  12.055   4.978
29199SOL    HW187621   5.371  11.966   4.941
29199SOL    HW287622   5.399  12.123   4.905
29200SOL     OW87623   4.949  11.497   4.173
29200SOL    HW187624   5.014  11.423   4.162
29200SOL    HW287625   4.969  11.547   4.257
29201SOL     OW87626   4.318  11.917   4.376
29201SOL    HW187627   4.368  12.002   4.357
29201SOL    HW287628   4.230  11.919   4.328
29202SOL     OW87629   5.501  11.514   5.366
29202SOL    HW187630   5.484  11.545   5.272
29202SOL    HW287631   5.417  11.477   5.404
29203SOL     OW87632   5.454  12.106   5.241
29203SOL    HW187633   5.492  12.197   5.256
29203SOL    HW287634   5.446  12.089   5.142
29204SOL     OW87635   4.583  12.546   3.740
29204SOL    HW187636   4.537  12.561   3.828
29204SOL    HW287637   4.627  12.631   3.710
29205SOL     OW87638   4.583  12.128   4.585
29205SOL    HW187639   4.637  12.059   4.633
29205SOL    HW287640   4.551  12.197   4.651
29206SOL     OW87641   4.807  12.156   3.811
29206SOL    HW187642   4.784  12.209   3.729
29206SOL    HW287643   4.888  12.100   3.792
29207SOL     OW87644   5.585  12.741   4.575
29207SOL    HW187645   5.514  12.729   4.505
29207SOL    HW287646   5.586  12.662   4.635
29208SOL     OW87647   3.945  12.486   5.568
29208SOL    HW187648   3.880  12.413   5.547
29208SOL    HW287649   3.949  12.500   5.666
29209SOL     OW87650   3.803  12.412   4.377
29209SOL    HW187651   3.802  12.365   4.465
29209SOL    HW287652   3.885  12.384   4.326
29210SOL     OW87653   4.396  12.563   5.348
29210SOL    HW187654   4.318  12.513   5.386
29210SOL    HW287655   4.393  12.658   5.379
29211SOL     OW87656   5.548  11.364   4.951
29211SOL    HW187657   5.544  11.274   4.995
29211SOL    HW287658   5.551  11.353   4.852
29212SOL     OW87659   4.152  11.596   4.244
29212SOL    HW187660   4.182  11.524   4.182
29212SOL    HW287661   4.113  11.556   4.327
29213SOL     OW87662   5.429  12.659   4.828
29213SOL    HW187663   5.336  12.634   4.801
29213SOL    HW287664   5.455  12.609   4.910
29214SOL     OW87665   4.041  11.719   5.004
29214SOL    HW187666   4.079  11.660   5.076
29214SOL    HW287667   4.081  11.693   4.916
29215SOL     OW87668   5.148  11.386   4.836
29215SOL    HW187669   5.200  11.321   4.891
29215SOL    HW287670   5.099  11.449   4.897
29216SOL     OW87671   4.725  11.206   4.878
29216SOL    HW187672   4.662  11.134   4.847
29216SOL    HW287673   4.818  11.170   4.878
29217SOL     OW87674   4.494  12.502   4.025
29217SOL    HW187675   4.448  12.415   4.042
29217SOL    HW287676   4.585  12.499   4.066
29218SOL     OW87677   4.342  12.739   5.008
29218SOL    HW187678   4.337  12.821   5.065
29218SOL    HW287679   4.431  12.736   4.963
29219SOL     OW87680   5.076  11.224   3.892
29219SOL    HW187681   5.111  11.183   3.808
29219SOL    HW287682   4.986  11.186   3.912
29220SOL     OW87683   5.024  11.625   4.415
29220SOL    HW187684   4.965  11.705   4.419
29220SOL    HW287685   5.039  11.590   4.508
29221SOL     OW87686   5.317  11.393   4.606
29221SOL    HW187687   5.233  11.392   4.660
29221SOL    HW287688   5.319  11.476   4.550
29222SOL     OW87689   3.763  12.249   4.024
29222SOL    HW187690   3.862  12.238   4.015
29222SOL    HW287691   3.723  12.163   4.056
29223SOL     OW87692   3.954  11.800   5.699
29223SOL    HW187693   3.861  11.798   5.736
29223SOL    HW287694   3.955  11.761   5.607
29224SOL     OW87695   3.949  11.447   6.582
29224SOL    HW187696   3.984  11.430   6.674
29224SOL    HW287697   3.861  11.402   6.570
29225SOL     OW87698   3.743  11.540   6.233
29225SOL    HW187699   3.661  11.583   6.272
29225SOL    HW287700   3.715  11.467   6.170
29226SOL     OW87701   4.293  12.447   6.751
29226SOL    HW187702   4.200  12.440   6.714
29226SOL    HW287703   4.304  12.536   6.795
29227SOL     OW87704   5.279  12.683   6.289
29227SOL    HW187705   5.222  12.667   6.370
29227SOL    HW287706   5.220  12.693   6.209
29228SOL     OW87707   4.859  11.875   6.303
29228SOL    HW187708   4.916  11.953   6.278
29228SOL    HW287709   4.799  11.901   6.379
29229SOL     OW87710   5.479  11.779   5.817
29229SOL    HW187711   5.467  11.766   5.718
29229SOL    HW287712   5.449  11.698   5.866
29230SOL     OW87713   4.492  12.316   6.609
29230SOL    HW187714   4.414  12.333   6.669
29230SOL    HW287715   4.526  12.403   6.573
29231SOL     OW87716   4.574  11.970   7.409
29231SOL    HW187717   4.570  12.046   7.474
29231SOL    HW287718   4.596  12.006   7.318
29232SOL     OW87719   4.409  12.184   6.251
29232SOL    HW187720   4.478  12.168   6.321
29232SOL    HW287721   4.336  12.241   6.289
29233SOL     OW87722   4.410  12.333   7.389
29233SOL    HW187723   4.470  12.412   7.403
29233SOL    HW287724   4.324  12.364   7.348
29234SOL     OW87725   4.059  12.607   6.647
29234SOL    HW187726   3.981  12.576   6.594
29234SOL    HW287727   4.117  12.665   6.590
29235SOL     OW87728   5.184  12.677   6.925
29235SOL    HW187729   5.208  12.771   6.951
29235SOL    HW287730   5.168  12.623   7.007
29236SOL     OW87731   4.162  11.564   7.085
29236SOL    HW187732   4.244  11.508   7.094
29236SOL    HW287733   4.081  11.506   7.089
29237SOL     OW87734   5.327  11.619   6.323
29237SOL    HW187735   5.253  11.665   6.273
29237SOL    HW287736   5.378  11.687   6.376
29238SOL     OW87737   4.851  12.513   7.276
29238SOL    HW187738   4.898  12.513   7.364
29238SOL    HW287739   4.803  12.426   7.265
29239SOL     OW87740   3.954  12.606   6.124
29239SOL    HW187741   3.928  12.702   6.124
29239SOL    HW287742   3.883  12.552   6.169
29240SOL     OW87743   3.964  12.263   6.472
29240SOL    HW187744   3.978  12.179   6.524
29240SOL    HW287745   3.909  12.327   6.527
29241SOL     OW87746   4.330  12.136   5.709
29241SOL    HW187747   4.337  12.220   5.655
29241SOL    HW287748   4.376  12.149   5.797
29242SOL     OW87749   5.318  11.286   7.066
29242SOL    HW187750   5.300  11.353   6.994
29242SOL    HW287751   5.315  11.332   7.155
29243SOL     OW87752   3.846  11.815   6.149
29243SOL    HW187753   3.801  11.727   6.166
29243SOL    HW287754   3.845  11.869   6.233
29244SOL     OW87755   3.751  12.768   5.703
29244SOL    HW187756   3.732  12.672   5.724
29244SOL    HW287757   3.718  12.826   5.778
29245SOL     OW87758   5.413  12.094   6.198
29245SOL    HW187759   5.508  12.065   6.206
29245SOL    HW287760   5.405  12.159   6.123
29246SOL     OW87761   5.365  12.280   6.018
29246SOL    HW187762   5.451  12.282   5.966
29246SOL    HW287763   5.379  12.327   6.106
29247SOL     OW87764   3.837  11.909   7.183
29247SOL    HW187765   3.925  11.896   7.228
29247SOL    HW287766   3.824  12.006   7.161
29248SOL     OW87767   4.337  12.537   6.312
29248SOL    HW187768   4.288  12.450   6.321
29248SOL    HW287769   4.314  12.580   6.225
29249SOL     OW87770   5.017  12.400   7.009
29249SOL    HW187771   5.054  12.327   6.951
29249SOL    HW287772   5.069  12.405   7.094
29250SOL     OW87773   4.533  11.176   6.088
29250SOL    HW187774   4.573  11.267   6.079
29250SOL    HW287775   4.433  11.184   6.094
29251SOL     OW87776   3.921  12.148   6.850
29251SOL    HW187777   4.010  12.103   6.836
29251SOL    HW287778   3.848  12.083   6.831
29252SOL     OW87779   4.041  11.423   7.387
29252SOL    HW187780   4.112  11.494   7.393
29252SOL    HW287781   3.953  11.462   7.415
29253SOL     OW87782   5.190  12.589   6.539
29253SOL    HW187783   5.131  12.595   6.619
29253SOL    HW287784   5.175  12.501   6.493
29254SOL     OW87785   4.322  11.901   5.856
29254SOL    HW187786   4.346  11.970   5.788
29254SOL    HW287787   4.244  11.934   5.910
29255SOL     OW87788   5.005  11.517   6.530
29255SOL    HW187789   4.919  11.467   6.517
29255SOL    HW287790   5.067  11.463   6.586
29256SOL     OW87791   5.300  12.834   5.893
29256SOL    HW187792   5.389  12.880   5.896
29256SOL    HW287793   5.279  12.810   5.798
29257SOL     OW87794   4.531  11.777   7.051
29257SOL    HW187795   4.484  11.774   7.140
29257SOL    HW287796   4.480  11.722   6.985
29258SOL     OW87797   5.118  11.641   7.260
29258SOL    HW187798   5.098  11.684   7.348
29258SOL    HW287799   5.196  11.579   7.269
29259SOL     OW87800   4.697  12.062   7.158
29259SOL    HW187801   4.743  11.978   7.129
29259SOL    HW287802   4.641  12.096   7.083
29260SOL     OW87803   4.715  11.582   6.828
29260SOL    HW187804   4.638  11.616   6.882
29260SOL    HW287805   4.681  11.531   6.749
29261SOL     OW87806   4.765  11.873   6.015
29261SOL    HW187807   4.791  11.869   6.111
29261SOL    HW287808   4.680  11.822   6.001
29262SOL     OW87809   3.800  11.983   6.375
29262SOL    HW187810   3.899  11.971   6.384
29262SOL    HW287811   3.776  12.078   6.396
29263SOL     OW87812   4.589  11.520   5.781
29263SOL    HW187813   4.648  11.583   5.732
29263SOL    HW287814   4.608  11.426   5.752
29264SOL     OW87815   5.443  11.757   7.417
29264SOL    HW187816   5.417  11.846   7.381
29264SOL    HW287817   5.441  11.689   7.344
29265SOL     OW87818   5.086  12.316   6.131
29265SOL    HW187819   5.169  12.287   6.083
29265SOL    HW287820   5.037  12.383   6.075
29266SOL     OW87821   4.274  11.368   6.471
29266SOL    HW187822   4.269  11.363   6.571
29266SOL    HW287823   4.276  11.464   6.442
29267SOL     OW87824   4.732  12.628   6.063
29267SOL    HW187825   4.686  12.700   6.011
29267SOL    HW287826   4.728  12.648   6.161
29268SOL     OW87827   5.519  12.238   6.459
29268SOL    HW187828   5.457  12.223   6.383
29268SOL    HW287829   5.467  12.249   6.544
29269SOL     OW87830   4.951  12.722   7.092
29269SOL    HW187831   4.957  12.645   7.156
29269SOL    HW287832   4.899  12.696   7.012
29270SOL     OW87833   4.045  12.115   5.828
29270SOL    HW187834   4.127  12.154   5.786
29270SOL    HW287835   4.018  12.033   5.779
29271SOL     OW87836   5.182  11.907   6.314
29271SOL    HW187837   5.177  11.842   6.389
29271SOL    HW287838   5.262  11.966   6.327
29272SOL     OW87839   4.185  12.438   7.313
29272SOL    HW187840   4.135  12.439   7.227
29272SOL    HW287841   4.122  12.420   7.389
29273SOL     OW87842   3.926  11.457   7.084
29273SOL    HW187843   3.846  11.517   7.071
29273SOL    HW287844   3.916  11.408   7.170
29274SOL     OW87845   5.356  12.549   5.667
29274SOL    HW187846   5.324  12.643   5.657
29274SOL    HW287847   5.280  12.486   5.655
29275SOL     OW87848   5.124  11.279   6.012
29275SOL    HW187849   5.100  11.242   5.922
29275SOL    HW287850   5.223  11.295   6.016
29276SOL     OW87851   4.106  11.872   6.066
29276SOL    HW187852   4.151  11.782   6.063
29276SOL    HW287853   4.012  11.861   6.099
29277SOL     OW87854   5.271  11.394   7.315
29277SOL    HW187855   5.266  11.431   7.407
29277SOL    HW287856   5.199  11.325   7.303
29278SOL     OW87857   4.338  11.294   5.703
29278SOL    HW187858   4.436  11.272   5.710
29278SOL    HW287859   4.307  11.277   5.610
29279SOL     OW87860   4.505  11.436   7.335
29279SOL    HW187861   4.572  11.375   7.378
29279SOL    HW287862   4.432  11.455   7.400
29280SOL     OW87863   5.075  11.762   7.019
29280SOL    HW187864   5.103  11.719   7.104
29280SOL    HW287865   5.100  11.858   7.020
29281SOL     OW87866   4.527  12.574   6.510
29281SOL    HW187867   4.617  12.588   6.468
29281SOL    HW287868   4.456  12.576   6.439
29282SOL     OW87869   4.646  11.675   6.485
29282SOL    HW187870   4.621  11.666   6.389
29282SOL    HW287871   4.694  11.593   6.516
29283SOL     OW87872   4.263  11.236   6.098
29283SOL    HW187873   4.182  11.237   6.156
29283SOL    HW287874   4.266  11.319   6.043
29284SOL     OW87875   5.158  12.360   5.627
29284SOL    HW187876   5.190  12.284   5.684
29284SOL    HW287877   5.066  12.387   5.657
29285SOL     OW87878   4.021  11.207   5.757
29285SOL    HW187879   4.070  11.291   5.736
29285SOL    HW287880   4.083  11.142   5.802
29286SOL     OW87881   4.659  11.408   6.066
29286SOL    HW187882   4.611  11.449   5.988
29286SOL    HW287883   4.758  11.406   6.047
29287SOL     OW87884   4.800  11.855   7.050
29287SOL    HW187885   4.720  11.794   7.053
29287SOL    HW287886   4.881  11.802   7.026
29288SOL     OW87887   4.951  12.742   6.379
29288SOL    HW187888   4.972  12.816   6.314
29288SOL    HW287889   5.019  12.742   6.452
29289SOL     OW87890   4.183  12.324   6.327
29289SOL    HW187891   4.112  12.297   6.392
29289SOL    HW287892   4.157  12.296   6.234
29290SOL     OW87893   4.756  11.721   5.602
29290SOL    HW187894   4.715  11.803   5.563
29290SOL    HW287895   4.820  11.747   5.675
29291SOL     OW87896   3.802  11.728   6.972
29291SOL    HW187897   3.894  11.727   6.931
29291SOL    HW287898   3.796  11.802   7.039
29292SOL     OW87899   4.285  11.394   6.733
29292SOL    HW187900   4.323  11.310   6.770
29292SOL    HW287901   4.197  11.413   6.777
29293SOL     OW87902   4.590  11.626   6.228
29293SOL    HW187903   4.558  11.698   6.166
29293SOL    HW287904   4.614  11.545   6.175
29294SOL     OW87905   4.741  11.211   6.339
29294SOL    HW187906   4.669  11.216   6.270
29294SOL    HW287907   4.717  11.142   6.408
29295SOL     OW87908   5.153  12.345   6.453
29295SOL    HW187909   5.098  12.261   6.446
29295SOL    HW287910   5.179  12.374   6.361
29296SOL     OW87911   5.190  11.762   6.578
29296SOL    HW187912   5.160  11.667   6.585
29296SOL    HW287913   5.263  11.778   6.644
29297SOL     OW87914   5.581  12.005   5.963
29297SOL    HW187915   5.623  11.941   6.027
29297SOL    HW287916   5.543  11.954   5.885
29298SOL     OW87917   4.212  12.557   5.760
29298SOL    HW187918   4.125  12.542   5.807
29298SOL    HW287919   4.195  12.583   5.665
29299SOL     OW87920   5.388  12.452   6.243
29299SOL    HW187921   5.487  12.460   6.257
29299SOL    HW287922   5.343  12.536   6.274
29300SOL     OW87923   5.114  11.747   5.664
29300SOL    HW187924   5.060  11.726   5.745
29300SOL    HW287925   5.205  11.706   5.673
29301SOL     OW87926   4.251  11.428   5.914
29301SOL    HW187927   4.278  11.369   5.839
29301SOL    HW287928   4.251  11.523   5.883
29302SOL     OW87929   5.478  12.395   7.174
29302SOL    HW187930   5.569  12.356   7.161
29302SOL    HW287931   5.486  12.491   7.198
29303SOL     OW87932   4.788  12.519   6.926
29303SOL    HW187933   4.708  12.496   6.981
29303SOL    HW287934   4.871  12.493   6.975
29304SOL     OW87935   4.835  12.367   6.686
29304SOL    HW187936   4.795  12.411   6.767
29304SOL    HW287937   4.794  12.404   6.603
29305SOL     OW87938   5.362  12.271   6.665
29305SOL    HW187939   5.367  12.352   6.724
29305SOL    HW287940   5.276  12.273   6.614
29306SOL     OW87941   4.639  11.261   6.988
29306SOL    HW187942   4.664  11.241   6.893
29306SOL    HW287943   4.711  11.317   7.030
29307SOL     OW87944   4.704  12.288   7.305
29307SOL    HW187945   4.605  12.294   7.315
29307SOL    HW287946   4.727  12.208   7.249
29308SOL     OW87947   4.429  12.222   5.954
29308SOL    HW187948   4.415  12.229   6.053
29308SOL    HW287949   4.513  12.171   5.936
29309SOL     OW87950   4.134  11.985   6.837
29309SOL    HW187951   4.220  11.997   6.887
29309SOL    HW287952   4.092  11.898   6.864
29310SOL     OW87953   4.998  11.558   6.848
29310SOL    HW187954   5.019  11.632   6.912
29310SOL    HW287955   4.909  11.575   6.805
29311SOL     OW87956   3.788  12.736   6.917
29311SOL    HW187957   3.742  12.818   6.883
29311SOL    HW287958   3.886  12.755   6.926
29312SOL     OW87959   4.091  12.272   6.087
29312SOL    HW187960   4.084  12.355   6.031
29312SOL    HW287961   4.095  12.192   6.027
29313SOL     OW87962   4.290  11.709   6.451
29313SOL    HW187963   4.302  11.775   6.377
29313SOL    HW287964   4.336  11.743   6.534
29314SOL     OW87965   4.976  12.520   5.974
29314SOL    HW187966   5.026  12.597   6.014
29314SOL    HW287967   4.881  12.522   6.006
29315SOL     OW87968   4.996  12.617   6.728
29315SOL    HW187969   5.043  12.630   6.815
29315SOL    HW287970   4.930  12.543   6.737
29316SOL     OW87971   5.306  11.811   6.058
29316SOL    HW187972   5.275  11.872   6.131
29316SOL    HW287973   5.356  11.863   5.989
29317SOL     OW87974   4.078  12.682   6.915
29317SOL    HW187975   4.057  12.638   6.828
29317SOL    HW287976   4.175  12.708   6.918
29318SOL     OW87977   4.126  11.923   7.184
29318SOL    HW187978   4.194  11.978   7.137
29318SOL    HW287979   4.166  11.835   7.211
29319SOL     OW87980   5.311  11.951   7.256
29319SOL    HW187981   5.219  11.989   7.251
29319SOL    HW287982   5.371  11.998   7.191
29320SOL     OW87983   4.737  11.277   7.356
29320SOL    HW187984   4.743  11.362   7.304
29320SOL    HW287985   4.769  11.201   7.299
29321SOL     OW87986   4.228  11.222   7.326
29321SOL    HW187987   4.186  11.165   7.256
29321SOL    HW287988   4.162  11.291   7.358
29322SOL     OW87989   4.297  12.042   6.615
29322SOL    HW187990   4.341  12.131   6.606
29322SOL    HW287991   4.234  12.042   6.692
29323SOL     OW87992   5.084  12.034   6.631
29323SOL    HW187993   5.009  12.034   6.565
29323SOL    HW287994   5.121  11.942   6.640
29324SOL     OW87995   4.933  11.697   5.861
29324SOL    HW187996   4.946  11.613   5.915
29324SOL    HW287997   4.904  11.771   5.921
29325SOL     OW87998   4.031  11.385   6.817
29325SOL    HW187999   4.008  11.422   6.907
29325SOL    HW288000   4.001  11.290   6.811
29326SOL     OW88001   3.761  12.482   6.868
29326SOL    HW188002   3.814  12.433   6.936
29326SOL    HW288003   3.783  12.580   6.873
29327SOL     OW88004   4.456  11.806   6.650
29327SOL    HW188005   4.515  11.780   6.574
29327SOL    HW288006   4.428  11.902   6.639
29328SOL     OW88007   5.452  12.107   7.440
29328SOL    HW188008   5.406  12.100   7.351
29328SOL    HW288009   5.390  12.151   7.506
29329SOL     OW88010   4.031  11.235   6.204
29329SOL    HW188011   4.020  11.329   6.237
29329SOL    HW288012   4.026  11.172   6.281
29330SOL     OW88013   5.346  11.539   5.960
29330SOL    HW188014   5.348  11.463   6.024
29330SOL    HW288015   5.298  11.616   6.000
29331SOL     OW88016   4.747  11.938   6.552
29331SOL    HW188017   4.762  11.959   6.648
29331SOL    HW288018   4.717  11.843   6.543
29332SOL     OW88019   5.583  12.690   7.191
29332SOL    HW188020   5.597  12.717   7.096
29332SOL    HW288021   5.666  12.712   7.244
29333SOL     OW88022   4.074  12.070   7.390
29333SOL    HW188023   4.150  12.114   7.438
29333SOL    HW288024   4.109  12.023   7.308
29334SOL     OW88025   5.264  11.446   5.711
29334SOL    HW188026   5.203  11.371   5.734
29334SOL    HW288027   5.286  11.498   5.794
29335SOL     OW88028   5.027  12.010   5.628
29335SOL    HW188029   5.061  11.917   5.643
29335SOL    HW288030   5.045  12.037   5.533
29336SOL     OW88031   4.792  12.505   6.435
29336SOL    HW188032   4.799  12.421   6.380
29336SOL    HW288033   4.854  12.574   6.399
29337SOL     OW88034   4.043  11.982   6.535
29337SOL    HW188035   4.136  12.018   6.540
29337SOL    HW288036   4.037  11.897   6.587
29338SOL     OW88037   4.063  11.681   6.592
29338SOL    HW188038   4.011  11.598   6.575
29338SOL    HW288039   4.140  11.686   6.528
29339SOL     OW88040   4.862  11.552   7.264
29339SOL    HW188041   4.817  11.615   7.328
29339SOL    HW288042   4.955  11.583   7.247
29340SOL     OW88043   4.884  11.379   7.063
29340SOL    HW188044   4.884  11.443   7.140
29340SOL    HW288045   4.912  11.427   6.980
29341SOL     OW88046   3.732  12.498   5.786
29341SOL    HW188047   3.639  12.519   5.755
29341SOL    HW288048   3.742  12.399   5.799
29342SOL     OW88049   4.228  12.740   6.496
29342SOL    HW188050   4.294  12.814   6.505
29342SOL    HW288051   4.272  12.661   6.454
29343SOL     OW88052   4.726  11.968   6.824
29343SOL    HW188053   4.767  11.936   6.910
29343SOL    HW288054   4.630  11.941   6.821
29344SOL     OW88055   3.764  11.716   6.700
29344SOL    HW188056   3.849  11.683   6.659
29344SOL    HW288057   3.777  11.731   6.798
29345SOL     OW88058   3.913  11.692   7.308
29345SOL    HW188059   3.972  11.652   7.238
29345SOL    HW288060   3.855  11.763   7.267
29346SOL     OW88061   5.093  12.122   7.246
29346SOL    HW188062   5.132  12.211   7.266
29346SOL    HW288063   5.103  12.102   7.149
29347SOL     OW88064   4.539  11.744   5.911
29347SOL    HW188065   4.546  11.655   5.865
29347SOL    HW288066   4.445  11.778   5.903
29348SOL     OW88067   5.381  11.776   6.792
29348SOL    HW188068   5.343  11.707   6.854
29348SOL    HW288069   5.463  11.740   6.748
29349SOL     OW88070   3.976  12.736   7.330
29349SOL    HW188071   3.946  12.793   7.406
29349SOL    HW288072   3.969  12.639   7.356
29350SOL     OW88073   4.395  11.636   6.855
29350SOL    HW188074   4.361  11.547   6.825
29350SOL    HW288075   4.421  11.690   6.775
29351SOL     OW88076   4.197  11.672   5.777
29351SOL    HW188077   4.258  11.752   5.781
29351SOL    HW288078   4.102  11.703   5.784
29352SOL     OW88079   3.883  12.309   7.052
29352SOL    HW188080   3.905  12.248   7.128
29352SOL    HW288081   3.893  12.260   6.966
29353SOL     OW88082   5.071  12.231   6.820
29353SOL    HW188083   5.095  12.168   6.746
29353SOL    HW288084   4.981  12.271   6.802
29354SOL     OW88085   5.026  12.027   5.895
29354SOL    HW188086   4.940  11.996   5.937
29354SOL    HW288087   5.022  12.013   5.796
29355SOL     OW88088   4.976  12.903   6.714
29355SOL    HW188089   5.060  12.908   6.660
29355SOL    HW288090   4.953  12.807   6.732
29356SOL     OW88091   3.807  12.430   6.608
29356SOL    HW188092   3.802  12.429   6.708
29356SOL    HW288093   3.724  12.389   6.570
29357SOL     OW88094   5.450  11.307   6.109
29357SOL    HW188095   5.523  11.290   6.042
29357SOL    HW288096   5.419  11.220   6.147
29358SOL     OW88097   3.854  12.966   7.437
29358SOL    HW188098   3.813  12.892   7.490
29358SOL    HW288099   3.918  13.017   7.495
29359SOL     OW88100   5.004  12.099   6.258
29359SOL    HW188101   5.064  12.018   6.260
29359SOL    HW288102   5.044  12.168   6.198
29360SOL     OW88103   4.554  12.445   7.008
29360SOL    HW188104   4.549  12.478   7.103
29360SOL    HW288105   4.468  12.464   6.962
29361SOL     OW88106   4.396  12.788   5.740
29361SOL    HW188107   4.405  12.798   5.641
29361SOL    HW288108   4.356  12.699   5.761
29362SOL     OW88109   5.565  11.347   6.549
29362SOL    HW188110   5.604  11.262   6.513
29362SOL    HW288111   5.467  11.349   6.530
29363SOL     OW88112   3.987  11.498   6.306
29363SOL    HW188113   3.908  11.549   6.272
29363SOL    HW288114   3.978  11.483   6.404
29364SOL     OW88115   4.918  12.784   5.617
29364SOL    HW188116   4.924  12.691   5.654
29364SOL    HW288117   4.859  12.784   5.537
29365SOL     OW88118   4.546  12.174   6.958
29365SOL    HW188119   4.586  12.173   6.866
29365SOL    HW288120   4.556  12.266   6.998
29366SOL     OW88121   4.640  12.082   5.877
29366SOL    HW188122   4.703  12.120   5.809
29366SOL    HW288123   4.680  11.999   5.916
29367SOL     OW88124   4.096  12.460   7.076
29367SOL    HW188125   4.083  12.553   7.042
29367SOL    HW288126   4.012  12.408   7.063
29368SOL     OW88127   5.338  12.464   6.875
29368SOL    HW188128   5.398  12.467   6.955
29368SOL    HW288129   5.263  12.528   6.888
29369SOL     OW88130   4.763  12.270   6.282
29369SOL    HW188131   4.693  12.223   6.336
29369SOL    HW288132   4.822  12.202   6.239
29370SOL     OW88133   4.738  11.408   6.557
29370SOL    HW188134   4.730  11.372   6.464
29370SOL    HW288135   4.736  11.332   6.622
29371SOL     OW88136   4.314  12.659   6.077
29371SOL    HW188137   4.356  12.601   6.007
29371SOL    HW288138   4.270  12.738   6.033
29372SOL     OW88139   5.433  11.557   6.967
29372SOL    HW188140   5.506  11.626   6.971
29372SOL    HW288141   5.461  11.482   6.908
29373SOL     OW88142   3.979  12.520   5.876
29373SOL    HW188143   3.883  12.521   5.849
29373SOL    HW288144   3.991  12.573   5.960
29374SOL     OW88145   3.829  12.185   7.312
29374SOL    HW188146   3.752  12.152   7.366
29374SOL    HW288147   3.914  12.155   7.354
29375SOL     OW88148   4.396  11.375   7.075
29375SOL    HW188149   4.486  11.359   7.035
29375SOL    HW288150   4.404  11.380   7.174
29376SOL     OW88151   3.799  11.517   5.619
29376SOL    HW188152   3.707  11.489   5.590
29376SOL    HW288153   3.830  11.594   5.563
29377SOL     OW88154   5.164  12.028   6.984
29377SOL    HW188155   5.107  12.080   6.921
29377SOL    HW288156   5.260  12.040   6.960
29378SOL     OW88157   3.796  11.338   5.904
29378SOL    HW188158   3.779  11.421   5.850
29378SOL    HW288159   3.886  11.301   5.882
29379SOL     OW88160   4.907  12.507   5.705
29379SOL    HW188161   4.808  12.496   5.707
29379SOL    HW288162   4.941  12.522   5.798
29380SOL     OW88163   4.337  12.014   7.017
29380SOL    HW188164   4.393  12.095   7.000
29380SOL    HW288165   4.396  11.934   7.020
29381SOL     OW88166   4.440  11.737   7.294
29381SOL    HW188167   4.459  11.802   7.368
29381SOL    HW288168   4.500  11.657   7.303
29382SOL     OW88169   5.174  12.392   7.219
29382SOL    HW188170   5.165  12.382   7.318
29382SOL    HW288171   5.270  12.385   7.193
29383SOL     OW88172   5.398  12.055   6.840
29383SOL    HW188173   5.371  11.966   6.803
29383SOL    HW288174   5.399  12.123   6.767
29384SOL     OW88175   4.949  11.497   6.035
29384SOL    HW188176   5.014  11.423   6.024
29384SOL    HW288177   4.969  11.547   6.119
29385SOL     OW88178   4.318  11.917   6.238
29385SOL    HW188179   4.368  12.002   6.219
29385SOL    HW288180   4.230  11.919   6.190
29386SOL     OW88181   5.501  11.514   7.228
29386SOL    HW188182   5.484  11.545   7.134
29386SOL    HW288183   5.417  11.477   7.266
29387SOL     OW88184   5.454  12.106   7.103
29387SOL    HW188185   5.492  12.197   7.118
29387SOL    HW288186   5.446  12.089   7.004
29388SOL     OW88187   4.583  12.546   5.602
29388SOL    HW188188   4.537  12.561   5.690
29388SOL    HW288189   4.627  12.631   5.572
29389SOL     OW88190   4.583  12.128   6.447
29389SOL    HW188191   4.637  12.059   6.495
29389SOL    HW288192   4.551  12.197   6.513
29390SOL     OW88193   4.807  12.156   5.673
29390SOL    HW188194   4.784  12.209   5.591
29390SOL    HW288195   4.888  12.100   5.654
29391SOL     OW88196   5.585  12.741   6.437
29391SOL    HW188197   5.514  12.729   6.367
29391SOL    HW288198   5.586  12.662   6.497
29392SOL     OW88199   3.945  12.486   7.430
29392SOL    HW188200   3.880  12.413   7.409
29392SOL    HW288201   3.949  12.500   7.528
29393SOL     OW88202   3.803  12.412   6.239
29393SOL    HW188203   3.802  12.365   6.327
29393SOL    HW288204   3.885  12.384   6.188
29394SOL     OW88205   4.396  12.563   7.210
29394SOL    HW188206   4.318  12.513   7.248
29394SOL    HW288207   4.393  12.658   7.241
29395SOL     OW88208   5.548  11.364   6.813
29395SOL    HW188209   5.544  11.274   6.857
29395SOL    HW288210   5.551  11.353   6.714
29396SOL     OW88211   4.152  11.596   6.106
29396SOL    HW188212   4.182  11.524   6.044
29396SOL    HW288213   4.113  11.556   6.189
29397SOL     OW88214   5.429  12.659   6.690
29397SOL    HW188215   5.336  12.634   6.663
29397SOL    HW288216   5.455  12.609   6.772
29398SOL     OW88217   4.041  11.719   6.866
29398SOL    HW188218   4.079  11.660   6.938
29398SOL    HW288219   4.081  11.693   6.778
29399SOL     OW88220   5.148  11.386   6.698
29399SOL    HW188221   5.200  11.321   6.753
29399SOL    HW288222   5.099  11.449   6.759
29400SOL     OW88223   4.725  11.206   6.740
29400SOL    HW188224   4.662  11.134   6.709
29400SOL    HW288225   4.818  11.170   6.740
29401SOL     OW88226   4.494  12.502   5.887
29401SOL    HW188227   4.448  12.415   5.904
29401SOL    HW288228   4.585  12.499   5.928
29402SOL     OW88229   4.342  12.739   6.870
29402SOL    HW188230   4.337  12.821   6.927
29402SOL    HW288231   4.431  12.736   6.825
29403SOL     OW88232   5.076  11.224   5.754
29403SOL    HW188233   5.111  11.183   5.670
29403SOL    HW288234   4.986  11.186   5.774
29404SOL     OW88235   5.024  11.625   6.277
29404SOL    HW188236   4.965  11.705   6.281
29404SOL    HW288237   5.039  11.590   6.370
29405SOL     OW88238   5.317  11.393   6.468
29405SOL    HW188239   5.233  11.392   6.522
29405SOL    HW288240   5.319  11.476   6.412
29406SOL     OW88241   3.763  12.249   5.886
29406SOL    HW188242   3.862  12.238   5.877
29406SOL    HW288243   3.723  12.163   5.918
29407SOL     OW88244   3.954  11.800   7.561
29407SOL    HW188245   3.861  11.798   7.598
29407SOL    HW288246   3.955  11.761   7.469
29408SOL     OW88247   3.949  11.447   8.444
29408SOL    HW188248   3.984  11.430   8.536
29408SOL    HW288249   3.861  11.402   8.432
29409SOL     OW88250   3.743  11.540   8.095
29409SOL    HW188251   3.661  11.583   8.134
29409SOL    HW288252   3.715  11.467   8.032
29410SOL     OW88253   4.293  12.447   8.613
29410SOL    HW188254   4.200  12.440   8.576
29410SOL    HW288255   4.304  12.536   8.657
29411SOL     OW88256   5.279  12.683   8.151
29411SOL    HW188257   5.222  12.667   8.232
29411SOL    HW288258   5.220  12.693   8.071
29412SOL     OW88259   4.859  11.875   8.165
29412SOL    HW188260   4.916  11.953   8.140
29412SOL    HW288261   4.799  11.901   8.241
29413SOL     OW88262   5.479  11.779   7.679
29413SOL    HW188263   5.467  11.766   7.580
29413SOL    HW288264   5.449  11.698   7.728
29414SOL     OW88265   4.492  12.316   8.471
29414SOL    HW188266   4.414  12.333   8.531
29414SOL    HW288267   4.526  12.403   8.435
29415SOL     OW88268   4.574  11.970   9.271
29415SOL    HW188269   4.570  12.046   9.336
29415SOL    HW288270   4.596  12.006   9.180
29416SOL     OW88271   4.409  12.184   8.113
29416SOL    HW188272   4.478  12.168   8.183
29416SOL    HW288273   4.336  12.241   8.151
29417SOL     OW88274   4.410  12.333   9.251
29417SOL    HW188275   4.470  12.412   9.265
29417SOL    HW288276   4.324  12.364   9.210
29418SOL     OW88277   4.059  12.607   8.509
29418SOL    HW188278   3.981  12.576   8.456
29418SOL    HW288279   4.117  12.665   8.452
29419SOL     OW88280   5.184  12.677   8.787
29419SOL    HW188281   5.208  12.771   8.813
29419SOL    HW288282   5.168  12.623   8.869
29420SOL     OW88283   4.162  11.564   8.947
29420SOL    HW188284   4.244  11.508   8.956
29420SOL    HW288285   4.081  11.506   8.951
29421SOL     OW88286   5.327  11.619   8.185
29421SOL    HW188287   5.253  11.665   8.135
29421SOL    HW288288   5.378  11.687   8.238
29422SOL     OW88289   4.851  12.513   9.138
29422SOL    HW188290   4.898  12.513   9.226
29422SOL    HW288291   4.803  12.426   9.127
29423SOL     OW88292   3.954  12.606   7.986
29423SOL    HW188293   3.928  12.702   7.986
29423SOL    HW288294   3.883  12.552   8.031
29424SOL     OW88295   3.964  12.263   8.334
29424SOL    HW188296   3.978  12.179   8.386
29424SOL    HW288297   3.909  12.327   8.389
29425SOL     OW88298   4.330  12.136   7.571
29425SOL    HW188299   4.337  12.220   7.517
29425SOL    HW288300   4.376  12.149   7.659
29426SOL     OW88301   5.318  11.286   8.928
29426SOL    HW188302   5.300  11.353   8.856
29426SOL    HW288303   5.315  11.332   9.017
29427SOL     OW88304   3.846  11.815   8.011
29427SOL    HW188305   3.801  11.727   8.028
29427SOL    HW288306   3.845  11.869   8.095
29428SOL     OW88307   3.751  12.768   7.565
29428SOL    HW188308   3.732  12.672   7.586
29428SOL    HW288309   3.718  12.826   7.640
29429SOL     OW88310   5.413  12.094   8.060
29429SOL    HW188311   5.508  12.065   8.068
29429SOL    HW288312   5.405  12.159   7.985
29430SOL     OW88313   5.365  12.280   7.880
29430SOL    HW188314   5.451  12.282   7.828
29430SOL    HW288315   5.379  12.327   7.968
29431SOL     OW88316   3.837  11.909   9.045
29431SOL    HW188317   3.925  11.896   9.090
29431SOL    HW288318   3.824  12.006   9.023
29432SOL     OW88319   4.337  12.537   8.174
29432SOL    HW188320   4.288  12.450   8.183
29432SOL    HW288321   4.314  12.580   8.087
29433SOL     OW88322   5.017  12.400   8.871
29433SOL    HW188323   5.054  12.327   8.813
29433SOL    HW288324   5.069  12.405   8.956
29434SOL     OW88325   4.533  11.176   7.950
29434SOL    HW188326   4.573  11.267   7.941
29434SOL    HW288327   4.433  11.184   7.956
29435SOL     OW88328   3.921  12.148   8.712
29435SOL    HW188329   4.010  12.103   8.698
29435SOL    HW288330   3.848  12.083   8.693
29436SOL     OW88331   5.249  12.171   7.638
29436SOL    HW188332   5.186  12.095   7.651
29436SOL    HW288333   5.297  12.189   7.724
29437SOL     OW88334   4.041  11.423   9.249
29437SOL    HW188335   4.112  11.494   9.255
29437SOL    HW288336   3.953  11.462   9.277
29438SOL     OW88337   5.190  12.589   8.401
29438SOL    HW188338   5.131  12.595   8.481
29438SOL    HW288339   5.175  12.501   8.355
29439SOL     OW88340   4.322  11.901   7.718
29439SOL    HW188341   4.346  11.970   7.650
29439SOL    HW288342   4.244  11.934   7.772
29440SOL     OW88343   5.005  11.517   8.392
29440SOL    HW188344   4.919  11.467   8.379
29440SOL    HW288345   5.067  11.463   8.448
29441SOL     OW88346   5.300  12.834   7.755
29441SOL    HW188347   5.389  12.880   7.758
29441SOL    HW288348   5.279  12.810   7.660
29442SOL     OW88349   4.531  11.777   8.913
29442SOL    HW188350   4.484  11.774   9.002
29442SOL    HW288351   4.480  11.722   8.847
29443SOL     OW88352   5.118  11.641   9.122
29443SOL    HW188353   5.098  11.684   9.210
29443SOL    HW288354   5.196  11.579   9.131
29444SOL     OW88355   4.697  12.062   9.020
29444SOL    HW188356   4.743  11.978   8.991
29444SOL    HW288357   4.641  12.096   8.945
29445SOL     OW88358   4.715  11.582   8.690
29445SOL    HW188359   4.638  11.616   8.744
29445SOL    HW288360   4.681  11.531   8.611
29446SOL     OW88361   4.765  11.873   7.877
29446SOL    HW188362   4.791  11.869   7.973
29446SOL    HW288363   4.680  11.822   7.863
29447SOL     OW88364   3.800  11.983   8.237
29447SOL    HW188365   3.899  11.971   8.246
29447SOL    HW288366   3.776  12.078   8.258
29448SOL     OW88367   4.589  11.520   7.643
29448SOL    HW188368   4.648  11.583   7.594
29448SOL    HW288369   4.608  11.426   7.614
29449SOL     OW88370   5.443  11.757   9.279
29449SOL    HW188371   5.417  11.846   9.243
29449SOL    HW288372   5.441  11.689   9.206
29450SOL     OW88373   5.086  12.316   7.993
29450SOL    HW188374   5.169  12.287   7.945
29450SOL    HW288375   5.037  12.383   7.937
29451SOL     OW88376   4.274  11.368   8.333
29451SOL    HW188377   4.269  11.363   8.433
29451SOL    HW288378   4.276  11.464   8.304
29452SOL     OW88379   4.732  12.628   7.925
29452SOL    HW188380   4.686  12.700   7.873
29452SOL    HW288381   4.728  12.648   8.023
29453SOL     OW88382   5.519  12.238   8.321
29453SOL    HW188383   5.457  12.223   8.245
29453SOL    HW288384   5.467  12.249   8.406
29454SOL     OW88385   4.951  12.722   8.954
29454SOL    HW188386   4.957  12.645   9.018
29454SOL    HW288387   4.899  12.696   8.874
29455SOL     OW88388   4.045  12.115   7.690
29455SOL    HW188389   4.127  12.154   7.648
29455SOL    HW288390   4.018  12.033   7.641
29456SOL     OW88391   5.182  11.907   8.176
29456SOL    HW188392   5.177  11.842   8.251
29456SOL    HW288393   5.262  11.966   8.189
29457SOL     OW88394   4.185  12.438   9.175
29457SOL    HW188395   4.135  12.439   9.089
29457SOL    HW288396   4.122  12.420   9.251
29458SOL     OW88397   3.926  11.457   8.946
29458SOL    HW188398   3.846  11.517   8.933
29458SOL    HW288399   3.916  11.408   9.032
29459SOL     OW88400   5.356  12.549   7.529
29459SOL    HW188401   5.324  12.643   7.519
29459SOL    HW288402   5.280  12.486   7.517
29460SOL     OW88403   5.124  11.279   7.874
29460SOL    HW188404   5.100  11.242   7.784
29460SOL    HW288405   5.223  11.295   7.878
29461SOL     OW88406   4.106  11.872   7.928
29461SOL    HW188407   4.151  11.782   7.925
29461SOL    HW288408   4.012  11.861   7.961
29462SOL     OW88409   5.271  11.394   9.177
29462SOL    HW188410   5.266  11.431   9.269
29462SOL    HW288411   5.199  11.325   9.165
29463SOL     OW88412   4.338  11.294   7.565
29463SOL    HW188413   4.436  11.272   7.572
29463SOL    HW288414   4.307  11.277   7.472
29464SOL     OW88415   4.505  11.436   9.197
29464SOL    HW188416   4.572  11.375   9.240
29464SOL    HW288417   4.432  11.455   9.262
29465SOL     OW88418   5.075  11.762   8.881
29465SOL    HW188419   5.103  11.719   8.966
29465SOL    HW288420   5.100  11.858   8.882
29466SOL     OW88421   4.527  12.574   8.372
29466SOL    HW188422   4.617  12.588   8.330
29466SOL    HW288423   4.456  12.576   8.301
29467SOL     OW88424   4.646  11.675   8.347
29467SOL    HW188425   4.621  11.666   8.251
29467SOL    HW288426   4.694  11.593   8.378
29468SOL     OW88427   4.263  11.236   7.960
29468SOL    HW188428   4.182  11.237   8.018
29468SOL    HW288429   4.266  11.319   7.905
29469SOL     OW88430   5.158  12.360   7.489
29469SOL    HW188431   5.190  12.284   7.546
29469SOL    HW288432   5.066  12.387   7.519
29470SOL     OW88433   4.021  11.207   7.619
29470SOL    HW188434   4.070  11.291   7.598
29470SOL    HW288435   4.083  11.142   7.664
29471SOL     OW88436   4.659  11.408   7.928
29471SOL    HW188437   4.611  11.449   7.850
29471SOL    HW288438   4.758  11.406   7.909
29472SOL     OW88439   4.800  11.855   8.912
29472SOL    HW188440   4.720  11.794   8.915
29472SOL    HW288441   4.881  11.802   8.888
29473SOL     OW88442   4.951  12.742   8.241
29473SOL    HW188443   4.972  12.816   8.176
29473SOL    HW288444   5.019  12.742   8.314
29474SOL     OW88445   4.183  12.324   8.189
29474SOL    HW188446   4.112  12.297   8.254
29474SOL    HW288447   4.157  12.296   8.096
29475SOL     OW88448   4.756  11.721   7.464
29475SOL    HW188449   4.715  11.803   7.425
29475SOL    HW288450   4.820  11.747   7.537
29476SOL     OW88451   3.802  11.728   8.834
29476SOL    HW188452   3.894  11.727   8.793
29476SOL    HW288453   3.796  11.802   8.901
29477SOL     OW88454   4.285  11.394   8.595
29477SOL    HW188455   4.323  11.310   8.632
29477SOL    HW288456   4.197  11.413   8.639
29478SOL     OW88457   4.590  11.626   8.090
29478SOL    HW188458   4.558  11.698   8.028
29478SOL    HW288459   4.614  11.545   8.037
29479SOL     OW88460   4.741  11.211   8.201
29479SOL    HW188461   4.669  11.216   8.132
29479SOL    HW288462   4.717  11.142   8.270
29480SOL     OW88463   5.153  12.345   8.315
29480SOL    HW188464   5.098  12.261   8.308
29480SOL    HW288465   5.179  12.374   8.223
29481SOL     OW88466   5.190  11.762   8.440
29481SOL    HW188467   5.160  11.667   8.447
29481SOL    HW288468   5.263  11.778   8.506
29482SOL     OW88469   5.581  12.005   7.825
29482SOL    HW188470   5.623  11.941   7.889
29482SOL    HW288471   5.543  11.954   7.747
29483SOL     OW88472   4.212  12.557   7.622
29483SOL    HW188473   4.125  12.542   7.669
29483SOL    HW288474   4.195  12.583   7.527
29484SOL     OW88475   5.388  12.452   8.105
29484SOL    HW188476   5.487  12.460   8.119
29484SOL    HW288477   5.343  12.536   8.136
29485SOL     OW88478   5.114  11.747   7.526
29485SOL    HW188479   5.060  11.726   7.607
29485SOL    HW288480   5.205  11.706   7.535
29486SOL     OW88481   4.251  11.428   7.776
29486SOL    HW188482   4.278  11.369   7.701
29486SOL    HW288483   4.251  11.523   7.745
29487SOL     OW88484   5.478  12.395   9.036
29487SOL    HW188485   5.569  12.356   9.023
29487SOL    HW288486   5.486  12.491   9.060
29488SOL     OW88487   4.788  12.519   8.788
29488SOL    HW188488   4.708  12.496   8.843
29488SOL    HW288489   4.871  12.493   8.837
29489SOL     OW88490   4.835  12.367   8.548
29489SOL    HW188491   4.795  12.411   8.629
29489SOL    HW288492   4.794  12.404   8.465
29490SOL     OW88493   5.362  12.271   8.527
29490SOL    HW188494   5.367  12.352   8.586
29490SOL    HW288495   5.276  12.273   8.476
29491SOL     OW88496   4.639  11.261   8.850
29491SOL    HW188497   4.664  11.241   8.755
29491SOL    HW288498   4.711  11.317   8.892
29492SOL     OW88499   4.704  12.288   9.167
29492SOL    HW188500   4.605  12.294   9.177
29492SOL    HW288501   4.727  12.208   9.111
29493SOL     OW88502   4.429  12.222   7.816
29493SOL    HW188503   4.415  12.229   7.915
29493SOL    HW288504   4.513  12.171   7.798
29494SOL     OW88505   4.134  11.985   8.699
29494SOL    HW188506   4.220  11.997   8.749
29494SOL    HW288507   4.092  11.898   8.726
29495SOL     OW88508   4.998  11.558   8.710
29495SOL    HW188509   5.019  11.632   8.774
29495SOL    HW288510   4.909  11.575   8.667
29496SOL     OW88511   3.788  12.736   8.779
29496SOL    HW188512   3.742  12.818   8.745
29496SOL    HW288513   3.886  12.755   8.788
29497SOL     OW88514   4.091  12.272   7.949
29497SOL    HW188515   4.084  12.355   7.893
29497SOL    HW288516   4.095  12.192   7.889
29498SOL     OW88517   4.290  11.709   8.313
29498SOL    HW188518   4.302  11.775   8.239
29498SOL    HW288519   4.336  11.743   8.396
29499SOL     OW88520   4.976  12.520   7.836
29499SOL    HW188521   5.026  12.597   7.876
29499SOL    HW288522   4.881  12.522   7.868
29500SOL     OW88523   5.306  11.811   7.920
29500SOL    HW188524   5.275  11.872   7.993
29500SOL    HW288525   5.356  11.863   7.851
29501SOL     OW88526   4.078  12.682   8.777
29501SOL    HW188527   4.057  12.638   8.690
29501SOL    HW288528   4.175  12.708   8.780
29502SOL     OW88529   4.126  11.923   9.046
29502SOL    HW188530   4.194  11.978   8.999
29502SOL    HW288531   4.166  11.835   9.073
29503SOL     OW88532   5.311  11.951   9.118
29503SOL    HW188533   5.219  11.989   9.113
29503SOL    HW288534   5.371  11.998   9.053
29504SOL     OW88535   4.737  11.277   9.218
29504SOL    HW188536   4.743  11.362   9.166
29504SOL    HW288537   4.769  11.201   9.161
29505SOL     OW88538   4.228  11.222   9.188
29505SOL    HW188539   4.186  11.165   9.118
29505SOL    HW288540   4.162  11.291   9.220
29506SOL     OW88541   4.297  12.042   8.477
29506SOL    HW188542   4.341  12.131   8.468
29506SOL    HW288543   4.234  12.042   8.554
29507SOL     OW88544   5.084  12.034   8.493
29507SOL    HW188545   5.009  12.034   8.427
29507SOL    HW288546   5.121  11.942   8.502
29508SOL     OW88547   4.933  11.697   7.723
29508SOL    HW188548   4.946  11.613   7.777
29508SOL    HW288549   4.904  11.771   7.783
29509SOL     OW88550   4.031  11.385   8.679
29509SOL    HW188551   4.008  11.422   8.769
29509SOL    HW288552   4.001  11.290   8.673
29510SOL     OW88553   3.761  12.482   8.730
29510SOL    HW188554   3.814  12.433   8.798
29510SOL    HW288555   3.783  12.580   8.735
29511SOL     OW88556   4.456  11.806   8.512
29511SOL    HW188557   4.515  11.780   8.436
29511SOL    HW288558   4.428  11.902   8.501
29512SOL     OW88559   5.452  12.107   9.302
29512SOL    HW188560   5.406  12.100   9.213
29512SOL    HW288561   5.390  12.151   9.368
29513SOL     OW88562   4.031  11.235   8.066
29513SOL    HW188563   4.020  11.329   8.099
29513SOL    HW288564   4.026  11.172   8.143
29514SOL     OW88565   5.346  11.539   7.822
29514SOL    HW188566   5.348  11.463   7.886
29514SOL    HW288567   5.298  11.616   7.862
29515SOL     OW88568   4.747  11.938   8.414
29515SOL    HW188569   4.762  11.959   8.510
29515SOL    HW288570   4.717  11.843   8.405
29516SOL     OW88571   5.583  12.690   9.053
29516SOL    HW188572   5.597  12.717   8.958
29516SOL    HW288573   5.666  12.712   9.106
29517SOL     OW88574   4.074  12.070   9.252
29517SOL    HW188575   4.150  12.114   9.300
29517SOL    HW288576   4.109  12.023   9.170
29518SOL     OW88577   5.264  11.446   7.573
29518SOL    HW188578   5.203  11.371   7.596
29518SOL    HW288579   5.286  11.498   7.656
29519SOL     OW88580   5.027  12.010   7.490
29519SOL    HW188581   5.061  11.917   7.505
29519SOL    HW288582   5.045  12.037   7.395
29520SOL     OW88583   4.792  12.505   8.297
29520SOL    HW188584   4.799  12.421   8.242
29520SOL    HW288585   4.854  12.574   8.261
29521SOL     OW88586   4.043  11.982   8.397
29521SOL    HW188587   4.136  12.018   8.402
29521SOL    HW288588   4.037  11.897   8.449
29522SOL     OW88589   4.063  11.681   8.454
29522SOL    HW188590   4.011  11.598   8.437
29522SOL    HW288591   4.140  11.686   8.390
29523SOL     OW88592   4.862  11.552   9.126
29523SOL    HW188593   4.817  11.615   9.190
29523SOL    HW288594   4.955  11.583   9.109
29524SOL     OW88595   4.884  11.379   8.925
29524SOL    HW188596   4.884  11.443   9.002
29524SOL    HW288597   4.912  11.427   8.842
29525SOL     OW88598   3.732  12.498   7.648
29525SOL    HW188599   3.639  12.519   7.617
29525SOL    HW288600   3.742  12.399   7.661
29526SOL     OW88601   4.228  12.740   8.358
29526SOL    HW188602   4.294  12.814   8.367
29526SOL    HW288603   4.272  12.661   8.316
29527SOL     OW88604   4.726  11.968   8.686
29527SOL    HW188605   4.767  11.936   8.772
29527SOL    HW288606   4.630  11.941   8.683
29528SOL     OW88607   3.764  11.716   8.562
29528SOL    HW188608   3.849  11.683   8.521
29528SOL    HW288609   3.777  11.731   8.660
29529SOL     OW88610   3.913  11.692   9.170
29529SOL    HW188611   3.972  11.652   9.100
29529SOL    HW288612   3.855  11.763   9.129
29530SOL     OW88613   5.093  12.122   9.108
29530SOL    HW188614   5.132  12.211   9.128
29530SOL    HW288615   5.103  12.102   9.011
29531SOL     OW88616   4.539  11.744   7.773
29531SOL    HW188617   4.546  11.655   7.727
29531SOL    HW288618   4.445  11.778   7.765
29532SOL     OW88619   5.381  11.776   8.654
29532SOL    HW188620   5.343  11.707   8.716
29532SOL    HW288621   5.463  11.740   8.610
29533SOL     OW88622   3.976  12.736   9.192
29533SOL    HW188623   3.946  12.793   9.268
29533SOL    HW288624   3.969  12.639   9.218
29534SOL     OW88625   4.395  11.636   8.717
29534SOL    HW188626   4.361  11.547   8.687
29534SOL    HW288627   4.421  11.690   8.637
29535SOL     OW88628   4.197  11.672   7.639
29535SOL    HW188629   4.258  11.752   7.643
29535SOL    HW288630   4.102  11.703   7.646
29536SOL     OW88631   3.883  12.309   8.914
29536SOL    HW188632   3.905  12.248   8.990
29536SOL    HW288633   3.893  12.260   8.828
29537SOL     OW88634   5.071  12.231   8.682
29537SOL    HW188635   5.095  12.168   8.608
29537SOL    HW288636   4.981  12.271   8.664
29538SOL     OW88637   5.026  12.027   7.757
29538SOL    HW188638   4.940  11.996   7.799
29538SOL    HW288639   5.022  12.013   7.658
29539SOL     OW88640   4.976  12.903   8.576
29539SOL    HW188641   5.060  12.908   8.522
29539SOL    HW288642   4.953  12.807   8.594
29540SOL     OW88643   3.807  12.430   8.470
29540SOL    HW188644   3.802  12.429   8.570
29540SOL    HW288645   3.724  12.389   8.432
29541SOL     OW88646   5.450  11.307   7.971
29541SOL    HW188647   5.523  11.290   7.904
29541SOL    HW288648   5.419  11.220   8.009
29542SOL     OW88649   3.854  12.966   9.299
29542SOL    HW188650   3.813  12.892   9.352
29542SOL    HW288651   3.918  13.017   9.357
29543SOL     OW88652   5.004  12.099   8.120
29543SOL    HW188653   5.064  12.018   8.122
29543SOL    HW288654   5.044  12.168   8.060
29544SOL     OW88655   4.554  12.445   8.870
29544SOL    HW188656   4.549  12.478   8.965
29544SOL    HW288657   4.468  12.464   8.824
29545SOL     OW88658   4.396  12.788   7.602
29545SOL    HW188659   4.405  12.798   7.503
29545SOL    HW288660   4.356  12.699   7.623
29546SOL     OW88661   5.565  11.347   8.411
29546SOL    HW188662   5.604  11.262   8.375
29546SOL    HW288663   5.467  11.349   8.392
29547SOL     OW88664   3.987  11.498   8.168
29547SOL    HW188665   3.908  11.549   8.134
29547SOL    HW288666   3.978  11.483   8.266
29548SOL     OW88667   4.918  12.784   7.479
29548SOL    HW188668   4.924  12.691   7.516
29548SOL    HW288669   4.859  12.784   7.399
29549SOL     OW88670   4.546  12.174   8.820
29549SOL    HW188671   4.586  12.173   8.728
29549SOL    HW288672   4.556  12.266   8.860
29550SOL     OW88673   4.640  12.082   7.739
29550SOL    HW188674   4.703  12.120   7.671
29550SOL    HW288675   4.680  11.999   7.778
29551SOL     OW88676   4.096  12.460   8.938
29551SOL    HW188677   4.083  12.553   8.904
29551SOL    HW288678   4.012  12.408   8.925
29552SOL     OW88679   5.338  12.464   8.737
29552SOL    HW188680   5.398  12.467   8.817
29552SOL    HW288681   5.263  12.528   8.750
29553SOL     OW88682   4.763  12.270   8.144
29553SOL    HW188683   4.693  12.223   8.198
29553SOL    HW288684   4.822  12.202   8.101
29554SOL     OW88685   4.738  11.408   8.419
29554SOL    HW188686   4.730  11.372   8.326
29554SOL    HW288687   4.736  11.332   8.484
29555SOL     OW88688   4.314  12.659   7.939
29555SOL    HW188689   4.356  12.601   7.869
29555SOL    HW288690   4.270  12.738   7.895
29556SOL     OW88691   5.433  11.557   8.829
29556SOL    HW188692   5.506  11.626   8.833
29556SOL    HW288693   5.461  11.482   8.770
29557SOL     OW88694   3.979  12.520   7.738
29557SOL    HW188695   3.883  12.521   7.711
29557SOL    HW288696   3.991  12.573   7.822
29558SOL     OW88697   3.829  12.185   9.174
29558SOL    HW188698   3.752  12.152   9.228
29558SOL    HW288699   3.914  12.155   9.216
29559SOL     OW88700   4.396  11.375   8.937
29559SOL    HW188701   4.486  11.359   8.897
29559SOL    HW288702   4.404  11.380   9.036
29560SOL     OW88703   3.799  11.517   7.481
29560SOL    HW188704   3.707  11.489   7.452
29560SOL    HW288705   3.830  11.594   7.425
29561SOL     OW88706   5.164  12.028   8.846
29561SOL    HW188707   5.107  12.080   8.783
29561SOL    HW288708   5.260  12.040   8.822
29562SOL     OW88709   3.796  11.338   7.766
29562SOL    HW188710   3.779  11.421   7.712
29562SOL    HW288711   3.886  11.301   7.744
29563SOL     OW88712   4.907  12.507   7.567
29563SOL    HW188713   4.808  12.496   7.569
29563SOL    HW288714   4.941  12.522   7.660
29564SOL     OW88715   4.337  12.014   8.879
29564SOL    HW188716   4.393  12.095   8.862
29564SOL    HW288717   4.396  11.934   8.882
29565SOL     OW88718   4.440  11.737   9.156
29565SOL    HW188719   4.459  11.802   9.230
29565SOL    HW288720   4.500  11.657   9.165
29566SOL     OW88721   5.174  12.392   9.081
29566SOL    HW188722   5.165  12.382   9.180
29566SOL    HW288723   5.270  12.385   9.055
29567SOL     OW88724   5.398  12.055   8.702
29567SOL    HW188725   5.371  11.966   8.665
29567SOL    HW288726   5.399  12.123   8.629
29568SOL     OW88727   4.949  11.497   7.897
29568SOL    HW188728   5.014  11.423   7.886
29568SOL    HW288729   4.969  11.547   7.981
29569SOL     OW88730   4.318  11.917   8.100
29569SOL    HW188731   4.368  12.002   8.081
29569SOL    HW288732   4.230  11.919   8.052
29570SOL     OW88733   5.501  11.514   9.090
29570SOL    HW188734   5.484  11.545   8.996
29570SOL    HW288735   5.417  11.477   9.128
29571SOL     OW88736   5.454  12.106   8.965
29571SOL    HW188737   5.492  12.197   8.980
29571SOL    HW288738   5.446  12.089   8.866
29572SOL     OW88739   4.583  12.546   7.464
29572SOL    HW188740   4.537  12.561   7.552
29572SOL    HW288741   4.627  12.631   7.434
29573SOL     OW88742   4.583  12.128   8.309
29573SOL    HW188743   4.637  12.059   8.357
29573SOL    HW288744   4.551  12.197   8.375
29574SOL     OW88745   4.807  12.156   7.535
29574SOL    HW188746   4.784  12.209   7.453
29574SOL    HW288747   4.888  12.100   7.516
29575SOL     OW88748   5.585  12.741   8.299
29575SOL    HW188749   5.514  12.729   8.229
29575SOL    HW288750   5.586  12.662   8.359
29576SOL     OW88751   3.945  12.486   9.292
29576SOL    HW188752   3.880  12.413   9.271
29576SOL    HW288753   3.949  12.500   9.390
29577SOL     OW88754   3.803  12.412   8.101
29577SOL    HW188755   3.802  12.365   8.189
29577SOL    HW288756   3.885  12.384   8.050
29578SOL     OW88757   4.396  12.563   9.072
29578SOL    HW188758   4.318  12.513   9.110
29578SOL    HW288759   4.393  12.658   9.103
29579SOL     OW88760   5.548  11.364   8.675
29579SOL    HW188761   5.544  11.274   8.719
29579SOL    HW288762   5.551  11.353   8.576
29580SOL     OW88763   4.152  11.596   7.968
29580SOL    HW188764   4.182  11.524   7.906
29580SOL    HW288765   4.113  11.556   8.051
29581SOL     OW88766   5.429  12.659   8.552
29581SOL    HW188767   5.336  12.634   8.525
29581SOL    HW288768   5.455  12.609   8.634
29582SOL     OW88769   4.041  11.719   8.728
29582SOL    HW188770   4.079  11.660   8.800
29582SOL    HW288771   4.081  11.693   8.640
29583SOL     OW88772   5.148  11.386   8.560
29583SOL    HW188773   5.200  11.321   8.615
29583SOL    HW288774   5.099  11.449   8.621
29584SOL     OW88775   4.725  11.206   8.602
29584SOL    HW188776   4.662  11.134   8.571
29584SOL    HW288777   4.818  11.170   8.602
29585SOL     OW88778   4.494  12.502   7.749
29585SOL    HW188779   4.448  12.415   7.766
29585SOL    HW288780   4.585  12.499   7.790
29586SOL     OW88781   4.342  12.739   8.732
29586SOL    HW188782   4.337  12.821   8.789
29586SOL    HW288783   4.431  12.736   8.687
29587SOL     OW88784   5.076  11.224   7.616
29587SOL    HW188785   5.111  11.183   7.532
29587SOL    HW288786   4.986  11.186   7.636
29588SOL     OW88787   5.024  11.625   8.139
29588SOL    HW188788   4.965  11.705   8.143
29588SOL    HW288789   5.039  11.590   8.232
29589SOL     OW88790   5.317  11.393   8.330
29589SOL    HW188791   5.233  11.392   8.384
29589SOL    HW288792   5.319  11.476   8.274
29590SOL     OW88793   3.763  12.249   7.748
29590SOL    HW188794   3.862  12.238   7.739
29590SOL    HW288795   3.723  12.163   7.780
29591SOL     OW88796   3.954  11.800   9.423
29591SOL    HW188797   3.861  11.798   9.460
29591SOL    HW288798   3.955  11.761   9.331
29592SOL     OW88799   3.949  11.447  10.306
29592SOL    HW188800   3.984  11.430  10.398
29592SOL    HW288801   3.861  11.402  10.294
29593SOL     OW88802   3.743  11.540   9.957
29593SOL    HW188803   3.661  11.583   9.996
29593SOL    HW288804   3.715  11.467   9.894
29594SOL     OW88805   4.293  12.447  10.475
29594SOL    HW188806   4.200  12.440  10.438
29594SOL    HW288807   4.304  12.536  10.519
29595SOL     OW88808   5.279  12.683  10.013
29595SOL    HW188809   5.222  12.667  10.094
29595SOL    HW288810   5.220  12.693   9.933
29596SOL     OW88811   4.859  11.875  10.027
29596SOL    HW188812   4.916  11.953  10.002
29596SOL    HW288813   4.799  11.901  10.103
29597SOL     OW88814   5.479  11.779   9.541
29597SOL    HW188815   5.467  11.766   9.442
29597SOL    HW288816   5.449  11.698   9.590
29598SOL     OW88817   4.492  12.316  10.333
29598SOL    HW188818   4.414  12.333  10.393
29598SOL    HW288819   4.526  12.403  10.297
29599SOL     OW88820   4.574  11.970  11.133
29599SOL    HW188821   4.570  12.046  11.198
29599SOL    HW288822   4.596  12.006  11.042
29600SOL     OW88823   4.409  12.184   9.975
29600SOL    HW188824   4.478  12.168  10.045
29600SOL    HW288825   4.336  12.241  10.013
29601SOL     OW88826   4.410  12.333  11.113
29601SOL    HW188827   4.470  12.412  11.127
29601SOL    HW288828   4.324  12.364  11.072
29602SOL     OW88829   4.059  12.607  10.371
29602SOL    HW188830   3.981  12.576  10.318
29602SOL    HW288831   4.117  12.665  10.314
29603SOL     OW88832   5.184  12.677  10.649
29603SOL    HW188833   5.208  12.771  10.675
29603SOL    HW288834   5.168  12.623  10.731
29604SOL     OW88835   4.162  11.564  10.809
29604SOL    HW188836   4.244  11.508  10.818
29604SOL    HW288837   4.081  11.506  10.813
29605SOL     OW88838   5.327  11.619  10.047
29605SOL    HW188839   5.253  11.665   9.997
29605SOL    HW288840   5.378  11.687  10.100
29606SOL     OW88841   4.851  12.513  11.000
29606SOL    HW188842   4.898  12.513  11.088
29606SOL    HW288843   4.803  12.426  10.989
29607SOL     OW88844   3.954  12.606   9.848
29607SOL    HW188845   3.928  12.702   9.848
29607SOL    HW288846   3.883  12.552   9.893
29608SOL     OW88847   3.964  12.263  10.196
29608SOL    HW188848   3.978  12.179  10.248
29608SOL    HW288849   3.909  12.327  10.251
29609SOL     OW88850   4.330  12.136   9.433
29609SOL    HW188851   4.337  12.220   9.379
29609SOL    HW288852   4.376  12.149   9.521
29610SOL     OW88853   5.318  11.286  10.790
29610SOL    HW188854   5.300  11.353  10.718
29610SOL    HW288855   5.315  11.332  10.879
29611SOL     OW88856   3.846  11.815   9.873
29611SOL    HW188857   3.801  11.727   9.890
29611SOL    HW288858   3.845  11.869   9.957
29612SOL     OW88859   3.751  12.768   9.427
29612SOL    HW188860   3.732  12.672   9.448
29612SOL    HW288861   3.718  12.826   9.502
29613SOL     OW88862   5.413  12.094   9.922
29613SOL    HW188863   5.508  12.065   9.930
29613SOL    HW288864   5.405  12.159   9.847
29614SOL     OW88865   5.365  12.280   9.742
29614SOL    HW188866   5.451  12.282   9.690
29614SOL    HW288867   5.379  12.327   9.830
29615SOL     OW88868   3.837  11.909  10.907
29615SOL    HW188869   3.925  11.896  10.952
29615SOL    HW288870   3.824  12.006  10.885
29616SOL     OW88871   4.337  12.537  10.036
29616SOL    HW188872   4.288  12.450  10.045
29616SOL    HW288873   4.314  12.580   9.949
29617SOL     OW88874   5.017  12.400  10.733
29617SOL    HW188875   5.054  12.327  10.675
29617SOL    HW288876   5.069  12.405  10.818
29618SOL     OW88877   4.533  11.176   9.812
29618SOL    HW188878   4.573  11.267   9.803
29618SOL    HW288879   4.433  11.184   9.818
29619SOL     OW88880   3.921  12.148  10.574
29619SOL    HW188881   4.010  12.103  10.560
29619SOL    HW288882   3.848  12.083  10.555
29620SOL     OW88883   5.249  12.171   9.500
29620SOL    HW188884   5.186  12.095   9.513
29620SOL    HW288885   5.297  12.189   9.586
29621SOL     OW88886   4.041  11.423  11.111
29621SOL    HW188887   4.112  11.494  11.117
29621SOL    HW288888   3.953  11.462  11.139
29622SOL     OW88889   5.190  12.589  10.263
29622SOL    HW188890   5.131  12.595  10.343
29622SOL    HW288891   5.175  12.501  10.217
29623SOL     OW88892   4.322  11.901   9.580
29623SOL    HW188893   4.346  11.970   9.512
29623SOL    HW288894   4.244  11.934   9.634
29624SOL     OW88895   5.005  11.517  10.254
29624SOL    HW188896   4.919  11.467  10.241
29624SOL    HW288897   5.067  11.463  10.310
29625SOL     OW88898   5.300  12.834   9.617
29625SOL    HW188899   5.389  12.880   9.620
29625SOL    HW288900   5.279  12.810   9.522
29626SOL     OW88901   4.531  11.777  10.775
29626SOL    HW188902   4.484  11.774  10.864
29626SOL    HW288903   4.480  11.722  10.709
29627SOL     OW88904   5.118  11.641  10.984
29627SOL    HW188905   5.098  11.684  11.072
29627SOL    HW288906   5.196  11.579  10.993
29628SOL     OW88907   4.697  12.062  10.882
29628SOL    HW188908   4.743  11.978  10.853
29628SOL    HW288909   4.641  12.096  10.807
29629SOL     OW88910   4.715  11.582  10.552
29629SOL    HW188911   4.638  11.616  10.606
29629SOL    HW288912   4.681  11.531  10.473
29630SOL     OW88913   4.765  11.873   9.739
29630SOL    HW188914   4.791  11.869   9.835
29630SOL    HW288915   4.680  11.822   9.725
29631SOL     OW88916   3.800  11.983  10.099
29631SOL    HW188917   3.899  11.971  10.108
29631SOL    HW288918   3.776  12.078  10.120
29632SOL     OW88919   4.589  11.520   9.505
29632SOL    HW188920   4.648  11.583   9.456
29632SOL    HW288921   4.608  11.426   9.476
29633SOL     OW88922   5.443  11.757  11.141
29633SOL    HW188923   5.417  11.846  11.105
29633SOL    HW288924   5.441  11.689  11.068
29634SOL     OW88925   5.086  12.316   9.855
29634SOL    HW188926   5.169  12.287   9.807
29634SOL    HW288927   5.037  12.383   9.799
29635SOL     OW88928   4.732  12.628   9.787
29635SOL    HW188929   4.686  12.700   9.735
29635SOL    HW288930   4.728  12.648   9.885
29636SOL     OW88931   5.519  12.238  10.183
29636SOL    HW188932   5.457  12.223  10.107
29636SOL    HW288933   5.467  12.249  10.268
29637SOL     OW88934   4.951  12.722  10.816
29637SOL    HW188935   4.957  12.645  10.880
29637SOL    HW288936   4.899  12.696  10.736
29638SOL     OW88937   4.045  12.115   9.552
29638SOL    HW188938   4.127  12.154   9.510
29638SOL    HW288939   4.018  12.033   9.503
29639SOL     OW88940   5.182  11.907  10.038
29639SOL    HW188941   5.177  11.842  10.113
29639SOL    HW288942   5.262  11.966  10.051
29640SOL     OW88943   4.185  12.438  11.037
29640SOL    HW188944   4.135  12.439  10.951
29640SOL    HW288945   4.122  12.420  11.113
29641SOL     OW88946   3.926  11.457  10.808
29641SOL    HW188947   3.846  11.517  10.795
29641SOL    HW288948   3.916  11.408  10.894
29642SOL     OW88949   5.356  12.549   9.391
29642SOL    HW188950   5.324  12.643   9.381
29642SOL    HW288951   5.280  12.486   9.379
29643SOL     OW88952   5.124  11.279   9.736
29643SOL    HW188953   5.100  11.242   9.646
29643SOL    HW288954   5.223  11.295   9.740
29644SOL     OW88955   4.106  11.872   9.790
29644SOL    HW188956   4.151  11.782   9.787
29644SOL    HW288957   4.012  11.861   9.823
29645SOL     OW88958   5.271  11.394  11.039
29645SOL    HW188959   5.266  11.431  11.131
29645SOL    HW288960   5.199  11.325  11.027
29646SOL     OW88961   4.338  11.294   9.427
29646SOL    HW188962   4.436  11.272   9.434
29646SOL    HW288963   4.307  11.277   9.334
29647SOL     OW88964   4.505  11.436  11.059
29647SOL    HW188965   4.572  11.375  11.102
29647SOL    HW288966   4.432  11.455  11.124
29648SOL     OW88967   5.075  11.762  10.743
29648SOL    HW188968   5.103  11.719  10.828
29648SOL    HW288969   5.100  11.858  10.744
29649SOL     OW88970   4.527  12.574  10.234
29649SOL    HW188971   4.617  12.588  10.192
29649SOL    HW288972   4.456  12.576  10.163
29650SOL     OW88973   4.646  11.675  10.209
29650SOL    HW188974   4.621  11.666  10.113
29650SOL    HW288975   4.694  11.593  10.240
29651SOL     OW88976   4.263  11.236   9.822
29651SOL    HW188977   4.182  11.237   9.880
29651SOL    HW288978   4.266  11.319   9.767
29652SOL     OW88979   5.158  12.360   9.351
29652SOL    HW188980   5.190  12.284   9.408
29652SOL    HW288981   5.066  12.387   9.381
29653SOL     OW88982   4.021  11.207   9.481
29653SOL    HW188983   4.070  11.291   9.460
29653SOL    HW288984   4.083  11.142   9.526
29654SOL     OW88985   4.659  11.408   9.790
29654SOL    HW188986   4.611  11.449   9.712
29654SOL    HW288987   4.758  11.406   9.771
29655SOL     OW88988   4.800  11.855  10.774
29655SOL    HW188989   4.720  11.794  10.777
29655SOL    HW288990   4.881  11.802  10.750
29656SOL     OW88991   4.951  12.742  10.103
29656SOL    HW188992   4.972  12.816  10.038
29656SOL    HW288993   5.019  12.742  10.176
29657SOL     OW88994   4.183  12.324  10.051
29657SOL    HW188995   4.112  12.297  10.116
29657SOL    HW288996   4.157  12.296   9.958
29658SOL     OW88997   4.756  11.721   9.326
29658SOL    HW188998   4.715  11.803   9.287
29658SOL    HW288999   4.820  11.747   9.399
29659SOL     OW89000   3.802  11.728  10.696
29659SOL    HW189001   3.894  11.727  10.655
29659SOL    HW289002   3.796  11.802  10.763
29660SOL     OW89003   4.285  11.394  10.457
29660SOL    HW189004   4.323  11.310  10.494
29660SOL    HW289005   4.197  11.413  10.501
29661SOL     OW89006   4.590  11.626   9.952
29661SOL    HW189007   4.558  11.698   9.890
29661SOL    HW289008   4.614  11.545   9.899
29662SOL     OW89009   4.741  11.211  10.063
29662SOL    HW189010   4.669  11.216   9.994
29662SOL    HW289011   4.717  11.142  10.132
29663SOL     OW89012   5.153  12.345  10.177
29663SOL    HW189013   5.098  12.261  10.170
29663SOL    HW289014   5.179  12.374  10.085
29664SOL     OW89015   5.190  11.762  10.302
29664SOL    HW189016   5.160  11.667  10.309
29664SOL    HW289017   5.263  11.778  10.368
29665SOL     OW89018   5.581  12.005   9.687
29665SOL    HW189019   5.623  11.941   9.751
29665SOL    HW289020   5.543  11.954   9.609
29666SOL     OW89021   4.212  12.557   9.484
29666SOL    HW189022   4.125  12.542   9.531
29666SOL    HW289023   4.195  12.583   9.389
29667SOL     OW89024   5.388  12.452   9.967
29667SOL    HW189025   5.487  12.460   9.981
29667SOL    HW289026   5.343  12.536   9.998
29668SOL     OW89027   5.114  11.747   9.388
29668SOL    HW189028   5.060  11.726   9.469
29668SOL    HW289029   5.205  11.706   9.397
29669SOL     OW89030   4.251  11.428   9.638
29669SOL    HW189031   4.278  11.369   9.563
29669SOL    HW289032   4.251  11.523   9.607
29670SOL     OW89033   5.478  12.395  10.898
29670SOL    HW189034   5.569  12.356  10.885
29670SOL    HW289035   5.486  12.491  10.922
29671SOL     OW89036   4.788  12.519  10.650
29671SOL    HW189037   4.708  12.496  10.705
29671SOL    HW289038   4.871  12.493  10.699
29672SOL     OW89039   4.835  12.367  10.410
29672SOL    HW189040   4.795  12.411  10.491
29672SOL    HW289041   4.794  12.404  10.327
29673SOL     OW89042   5.362  12.271  10.389
29673SOL    HW189043   5.367  12.352  10.448
29673SOL    HW289044   5.276  12.273  10.338
29674SOL     OW89045   4.639  11.261  10.712
29674SOL    HW189046   4.664  11.241  10.617
29674SOL    HW289047   4.711  11.317  10.754
29675SOL     OW89048   4.704  12.288  11.029
29675SOL    HW189049   4.605  12.294  11.039
29675SOL    HW289050   4.727  12.208  10.973
29676SOL     OW89051   4.429  12.222   9.678
29676SOL    HW189052   4.415  12.229   9.777
29676SOL    HW289053   4.513  12.171   9.660
29677SOL     OW89054   4.134  11.985  10.561
29677SOL    HW189055   4.220  11.997  10.611
29677SOL    HW289056   4.092  11.898  10.588
29678SOL     OW89057   4.998  11.558  10.572
29678SOL    HW189058   5.019  11.632  10.636
29678SOL    HW289059   4.909  11.575  10.529
29679SOL     OW89060   3.788  12.736  10.641
29679SOL    HW189061   3.742  12.818  10.607
29679SOL    HW289062   3.886  12.755  10.650
29680SOL     OW89063   4.091  12.272   9.811
29680SOL    HW189064   4.084  12.355   9.755
29680SOL    HW289065   4.095  12.192   9.751
29681SOL     OW89066   4.290  11.709  10.175
29681SOL    HW189067   4.302  11.775  10.101
29681SOL    HW289068   4.336  11.743  10.258
29682SOL     OW89069   4.976  12.520   9.698
29682SOL    HW189070   5.026  12.597   9.738
29682SOL    HW289071   4.881  12.522   9.730
29683SOL     OW89072   4.996  12.617  10.452
29683SOL    HW189073   5.043  12.630  10.539
29683SOL    HW289074   4.930  12.543  10.461
29684SOL     OW89075   5.306  11.811   9.782
29684SOL    HW189076   5.275  11.872   9.855
29684SOL    HW289077   5.356  11.863   9.713
29685SOL     OW89078   4.078  12.682  10.639
29685SOL    HW189079   4.057  12.638  10.552
29685SOL    HW289080   4.175  12.708  10.642
29686SOL     OW89081   4.126  11.923  10.908
29686SOL    HW189082   4.194  11.978  10.861
29686SOL    HW289083   4.166  11.835  10.935
29687SOL     OW89084   5.311  11.951  10.980
29687SOL    HW189085   5.219  11.989  10.975
29687SOL    HW289086   5.371  11.998  10.915
29688SOL     OW89087   4.737  11.277  11.080
29688SOL    HW189088   4.743  11.362  11.028
29688SOL    HW289089   4.769  11.201  11.023
29689SOL     OW89090   4.228  11.222  11.050
29689SOL    HW189091   4.186  11.165  10.980
29689SOL    HW289092   4.162  11.291  11.082
29690SOL     OW89093   4.297  12.042  10.339
29690SOL    HW189094   4.341  12.131  10.330
29690SOL    HW289095   4.234  12.042  10.416
29691SOL     OW89096   5.084  12.034  10.355
29691SOL    HW189097   5.009  12.034  10.289
29691SOL    HW289098   5.121  11.942  10.364
29692SOL     OW89099   4.933  11.697   9.585
29692SOL    HW189100   4.946  11.613   9.639
29692SOL    HW289101   4.904  11.771   9.645
29693SOL     OW89102   4.031  11.385  10.541
29693SOL    HW189103   4.008  11.422  10.631
29693SOL    HW289104   4.001  11.290  10.535
29694SOL     OW89105   3.761  12.482  10.592
29694SOL    HW189106   3.814  12.433  10.660
29694SOL    HW289107   3.783  12.580  10.597
29695SOL     OW89108   4.456  11.806  10.374
29695SOL    HW189109   4.515  11.780  10.298
29695SOL    HW289110   4.428  11.902  10.363
29696SOL     OW89111   5.452  12.107  11.164
29696SOL    HW189112   5.406  12.100  11.075
29696SOL    HW289113   5.390  12.151  11.230
29697SOL     OW89114   4.031  11.235   9.928
29697SOL    HW189115   4.020  11.329   9.961
29697SOL    HW289116   4.026  11.172  10.005
29698SOL     OW89117   5.346  11.539   9.684
29698SOL    HW189118   5.348  11.463   9.748
29698SOL    HW289119   5.298  11.616   9.724
29699SOL     OW89120   4.747  11.938  10.276
29699SOL    HW189121   4.762  11.959  10.372
29699SOL    HW289122   4.717  11.843  10.267
29700SOL     OW89123   5.583  12.690  10.915
29700SOL    HW189124   5.597  12.717  10.820
29700SOL    HW289125   5.666  12.712  10.968
29701SOL     OW89126   4.074  12.070  11.114
29701SOL    HW189127   4.150  12.114  11.162
29701SOL    HW289128   4.109  12.023  11.032
29702SOL     OW89129   5.264  11.446   9.435
29702SOL    HW189130   5.203  11.371   9.458
29702SOL    HW289131   5.286  11.498   9.518
29703SOL     OW89132   5.027  12.010   9.352
29703SOL    HW189133   5.061  11.917   9.367
29703SOL    HW289134   5.045  12.037   9.257
29704SOL     OW89135   4.792  12.505  10.159
29704SOL    HW189136   4.799  12.421  10.104
29704SOL    HW289137   4.854  12.574  10.123
29705SOL     OW89138   4.043  11.982  10.259
29705SOL    HW189139   4.136  12.018  10.264
29705SOL    HW289140   4.037  11.897  10.311
29706SOL     OW89141   4.063  11.681  10.316
29706SOL    HW189142   4.011  11.598  10.299
29706SOL    HW289143   4.140  11.686  10.252
29707SOL     OW89144   4.862  11.552  10.988
29707SOL    HW189145   4.817  11.615  11.052
29707SOL    HW289146   4.955  11.583  10.971
29708SOL     OW89147   4.884  11.379  10.787
29708SOL    HW189148   4.884  11.443  10.864
29708SOL    HW289149   4.912  11.427  10.704
29709SOL     OW89150   3.732  12.498   9.510
29709SOL    HW189151   3.639  12.519   9.479
29709SOL    HW289152   3.742  12.399   9.523
29710SOL     OW89153   4.228  12.740  10.220
29710SOL    HW189154   4.294  12.814  10.229
29710SOL    HW289155   4.272  12.661  10.178
29711SOL     OW89156   4.726  11.968  10.548
29711SOL    HW189157   4.767  11.936  10.634
29711SOL    HW289158   4.630  11.941  10.545
29712SOL     OW89159   3.764  11.716  10.424
29712SOL    HW189160   3.849  11.683  10.383
29712SOL    HW289161   3.777  11.731  10.522
29713SOL     OW89162   3.913  11.692  11.032
29713SOL    HW189163   3.972  11.652  10.962
29713SOL    HW289164   3.855  11.763  10.991
29714SOL     OW89165   5.093  12.122  10.970
29714SOL    HW189166   5.132  12.211  10.990
29714SOL    HW289167   5.103  12.102  10.873
29715SOL     OW89168   4.539  11.744   9.635
29715SOL    HW189169   4.546  11.655   9.589
29715SOL    HW289170   4.445  11.778   9.627
29716SOL     OW89171   5.381  11.776  10.516
29716SOL    HW189172   5.343  11.707  10.578
29716SOL    HW289173   5.463  11.740  10.472
29717SOL     OW89174   3.976  12.736  11.054
29717SOL    HW189175   3.946  12.793  11.130
29717SOL    HW289176   3.969  12.639  11.080
29718SOL     OW89177   4.395  11.636  10.579
29718SOL    HW189178   4.361  11.547  10.549
29718SOL    HW289179   4.421  11.690  10.499
29719SOL     OW89180   4.197  11.672   9.501
29719SOL    HW189181   4.258  11.752   9.505
29719SOL    HW289182   4.102  11.703   9.508
29720SOL     OW89183   3.883  12.309  10.776
29720SOL    HW189184   3.905  12.248  10.852
29720SOL    HW289185   3.893  12.260  10.690
29721SOL     OW89186   5.071  12.231  10.544
29721SOL    HW189187   5.095  12.168  10.470
29721SOL    HW289188   4.981  12.271  10.526
29722SOL     OW89189   5.026  12.027   9.619
29722SOL    HW189190   4.940  11.996   9.661
29722SOL    HW289191   5.022  12.013   9.520
29723SOL     OW89192   4.976  12.903  10.438
29723SOL    HW189193   5.060  12.908  10.384
29723SOL    HW289194   4.953  12.807  10.456
29724SOL     OW89195   3.807  12.430  10.332
29724SOL    HW189196   3.802  12.429  10.432
29724SOL    HW289197   3.724  12.389  10.294
29725SOL     OW89198   5.450  11.307   9.833
29725SOL    HW189199   5.523  11.290   9.766
29725SOL    HW289200   5.419  11.220   9.871
29726SOL     OW89201   3.854  12.966  11.161
29726SOL    HW189202   3.813  12.892  11.214
29726SOL    HW289203   3.918  13.017  11.219
29727SOL     OW89204   5.004  12.099   9.982
29727SOL    HW189205   5.064  12.018   9.984
29727SOL    HW289206   5.044  12.168   9.922
29728SOL     OW89207   4.554  12.445  10.732
29728SOL    HW189208   4.549  12.478  10.827
29728SOL    HW289209   4.468  12.464  10.686
29729SOL     OW89210   4.396  12.788   9.464
29729SOL    HW189211   4.405  12.798   9.365
29729SOL    HW289212   4.356  12.699   9.485
29730SOL     OW89213   5.565  11.347  10.273
29730SOL    HW189214   5.604  11.262  10.237
29730SOL    HW289215   5.467  11.349  10.254
29731SOL     OW89216   3.987  11.498  10.030
29731SOL    HW189217   3.908  11.549   9.996
29731SOL    HW289218   3.978  11.483  10.128
29732SOL     OW89219   4.918  12.784   9.341
29732SOL    HW189220   4.924  12.691   9.378
29732SOL    HW289221   4.859  12.784   9.261
29733SOL     OW89222   4.546  12.174  10.682
29733SOL    HW189223   4.586  12.173  10.590
29733SOL    HW289224   4.556  12.266  10.722
29734SOL     OW89225   4.640  12.082   9.601
29734SOL    HW189226   4.703  12.120   9.533
29734SOL    HW289227   4.680  11.999   9.640
29735SOL     OW89228   4.096  12.460  10.800
29735SOL    HW189229   4.083  12.553  10.766
29735SOL    HW289230   4.012  12.408  10.787
29736SOL     OW89231   5.338  12.464  10.599
29736SOL    HW189232   5.398  12.467  10.679
29736SOL    HW289233   5.263  12.528  10.612
29737SOL     OW89234   4.763  12.270  10.006
29737SOL    HW189235   4.693  12.223  10.060
29737SOL    HW289236   4.822  12.202   9.963
29738SOL     OW89237   4.738  11.408  10.281
29738SOL    HW189238   4.730  11.372  10.188
29738SOL    HW289239   4.736  11.332  10.346
29739SOL     OW89240   4.314  12.659   9.801
29739SOL    HW189241   4.356  12.601   9.731
29739SOL    HW289242   4.270  12.738   9.757
29740SOL     OW89243   5.433  11.557  10.691
29740SOL    HW189244   5.506  11.626  10.695
29740SOL    HW289245   5.461  11.482  10.632
29741SOL     OW89246   3.979  12.520   9.600
29741SOL    HW189247   3.883  12.521   9.573
29741SOL    HW289248   3.991  12.573   9.684
29742SOL     OW89249   3.829  12.185  11.036
29742SOL    HW189250   3.752  12.152  11.090
29742SOL    HW289251   3.914  12.155  11.078
29743SOL     OW89252   4.396  11.375  10.799
29743SOL    HW189253   4.486  11.359  10.759
29743SOL    HW289254   4.404  11.380  10.898
29744SOL     OW89255   3.799  11.517   9.343
29744SOL    HW189256   3.707  11.489   9.314
29744SOL    HW289257   3.830  11.594   9.287
29745SOL     OW89258   5.164  12.028  10.708
29745SOL    HW189259   5.107  12.080  10.645
29745SOL    HW289260   5.260  12.040  10.684
29746SOL     OW89261   3.796  11.338   9.628
29746SOL    HW189262   3.779  11.421   9.574
29746SOL    HW289263   3.886  11.301   9.606
29747SOL     OW89264   4.907  12.507   9.429
29747SOL    HW189265   4.808  12.496   9.431
29747SOL    HW289266   4.941  12.522   9.522
29748SOL     OW89267   4.337  12.014  10.741
29748SOL    HW189268   4.393  12.095  10.724
29748SOL    HW289269   4.396  11.934  10.744
29749SOL     OW89270   4.440  11.737  11.018
29749SOL    HW189271   4.459  11.802  11.092
29749SOL    HW289272   4.500  11.657  11.027
29750SOL     OW89273   5.174  12.392  10.943
29750SOL    HW189274   5.165  12.382  11.042
29750SOL    HW289275   5.270  12.385  10.917
29751SOL     OW89276   5.398  12.055  10.564
29751SOL    HW189277   5.371  11.966  10.527
29751SOL    HW289278   5.399  12.123  10.491
29752SOL     OW89279   4.949  11.497   9.759
29752SOL    HW189280   5.014  11.423   9.748
29752SOL    HW289281   4.969  11.547   9.843
29753SOL     OW89282   4.318  11.917   9.962
29753SOL    HW189283   4.368  12.002   9.943
29753SOL    HW289284   4.230  11.919   9.914
29754SOL     OW89285   5.501  11.514  10.952
29754SOL    HW189286   5.484  11.545  10.858
29754SOL    HW289287   5.417  11.477  10.990
29755SOL     OW89288   5.454  12.106  10.827
29755SOL    HW189289   5.492  12.197  10.842
29755SOL    HW289290   5.446  12.089  10.728
29756SOL     OW89291   4.583  12.546   9.326
29756SOL    HW189292   4.537  12.561   9.414
29756SOL    HW289293   4.627  12.631   9.296
29757SOL     OW89294   4.583  12.128  10.171
29757SOL    HW189295   4.637  12.059  10.219
29757SOL    HW289296   4.551  12.197  10.237
29758SOL     OW89297   4.807  12.156   9.397
29758SOL    HW189298   4.784  12.209   9.315
29758SOL    HW289299   4.888  12.100   9.378
29759SOL     OW89300   5.585  12.741  10.161
29759SOL    HW189301   5.514  12.729  10.091
29759SOL    HW289302   5.586  12.662  10.221
29760SOL     OW89303   3.945  12.486  11.154
29760SOL    HW189304   3.880  12.413  11.133
29760SOL    HW289305   3.949  12.500  11.252
29761SOL     OW89306   3.803  12.412   9.963
29761SOL    HW189307   3.802  12.365  10.051
29761SOL    HW289308   3.885  12.384   9.912
29762SOL     OW89309   4.396  12.563  10.934
29762SOL    HW189310   4.318  12.513  10.972
29762SOL    HW289311   4.393  12.658  10.965
29763SOL     OW89312   5.548  11.364  10.537
29763SOL    HW189313   5.544  11.274  10.581
29763SOL    HW289314   5.551  11.353  10.438
29764SOL     OW89315   4.152  11.596   9.830
29764SOL    HW189316   4.182  11.524   9.768
29764SOL    HW289317   4.113  11.556   9.913
29765SOL     OW89318   5.429  12.659  10.414
29765SOL    HW189319   5.336  12.634  10.387
29765SOL    HW289320   5.455  12.609  10.496
29766SOL     OW89321   4.041  11.719  10.590
29766SOL    HW189322   4.079  11.660  10.662
29766SOL    HW289323   4.081  11.693  10.502
29767SOL     OW89324   5.148  11.386  10.422
29767SOL    HW189325   5.200  11.321  10.477
29767SOL    HW289326   5.099  11.449  10.483
29768SOL     OW89327   4.725  11.206  10.464
29768SOL    HW189328   4.662  11.134  10.433
29768SOL    HW289329   4.818  11.170  10.464
29769SOL     OW89330   4.494  12.502   9.611
29769SOL    HW189331   4.448  12.415   9.628
29769SOL    HW289332   4.585  12.499   9.652
29770SOL     OW89333   4.342  12.739  10.594
29770SOL    HW189334   4.337  12.821  10.651
29770SOL    HW289335   4.431  12.736  10.549
29771SOL     OW89336   5.076  11.224   9.478
29771SOL    HW189337   5.111  11.183   9.394
29771SOL    HW289338   4.986  11.186   9.498
29772SOL     OW89339   5.024  11.625  10.001
29772SOL    HW189340   4.965  11.705  10.005
29772SOL    HW289341   5.039  11.590  10.094
29773SOL     OW89342   5.317  11.393  10.192
29773SOL    HW189343   5.233  11.392  10.246
29773SOL    HW289344   5.319  11.476  10.136
29774SOL     OW89345   3.763  12.249   9.610
29774SOL    HW189346   3.862  12.238   9.601
29774SOL    HW289347   3.723  12.163   9.642
29775SOL     OW89348   3.954  11.800  11.285
29775SOL    HW189349   3.861  11.798  11.322
29775SOL    HW289350   3.955  11.761  11.193
29776SOL     OW89351   3.949  11.447  12.168
29776SOL    HW189352   3.984  11.430  12.260
29776SOL    HW289353   3.861  11.402  12.156
29777SOL     OW89354   3.743  11.540  11.819
29777SOL    HW189355   3.661  11.583  11.858
29777SOL    HW289356   3.715  11.467  11.756
29778SOL     OW89357   4.293  12.447  12.337
29778SOL    HW189358   4.200  12.440  12.300
29778SOL    HW289359   4.304  12.536  12.381
29779SOL     OW89360   5.279  12.683  11.875
29779SOL    HW189361   5.222  12.667  11.956
29779SOL    HW289362   5.220  12.693  11.795
29780SOL     OW89363   4.859  11.875  11.889
29780SOL    HW189364   4.916  11.953  11.864
29780SOL    HW289365   4.799  11.901  11.965
29781SOL     OW89366   5.479  11.779  11.403
29781SOL    HW189367   5.467  11.766  11.304
29781SOL    HW289368   5.449  11.698  11.452
29782SOL     OW89369   4.492  12.316  12.195
29782SOL    HW189370   4.414  12.333  12.255
29782SOL    HW289371   4.526  12.403  12.159
29783SOL     OW89372   4.409  12.184  11.837
29783SOL    HW189373   4.478  12.168  11.907
29783SOL    HW289374   4.336  12.241  11.875
29784SOL     OW89375   4.059  12.607  12.233
29784SOL    HW189376   3.981  12.576  12.180
29784SOL    HW289377   4.117  12.665  12.176
29785SOL     OW89378   5.184  12.677  12.511
29785SOL    HW189379   5.208  12.771  12.537
29785SOL    HW289380   5.168  12.623  12.593
29786SOL     OW89381   4.162  11.564  12.671
29786SOL    HW189382   4.244  11.508  12.680
29786SOL    HW289383   4.081  11.506  12.675
29787SOL     OW89384   5.327  11.619  11.909
29787SOL    HW189385   5.253  11.665  11.859
29787SOL    HW289386   5.378  11.687  11.962
29788SOL     OW89387   3.954  12.606  11.710
29788SOL    HW189388   3.928  12.702  11.710
29788SOL    HW289389   3.883  12.552  11.755
29789SOL     OW89390   3.964  12.263  12.058
29789SOL    HW189391   3.978  12.179  12.110
29789SOL    HW289392   3.909  12.327  12.113
29790SOL     OW89393   4.330  12.136  11.295
29790SOL    HW189394   4.337  12.220  11.241
29790SOL    HW289395   4.376  12.149  11.383
29791SOL     OW89396   5.318  11.286  12.652
29791SOL    HW189397   5.300  11.353  12.580
29791SOL    HW289398   5.315  11.332  12.741
29792SOL     OW89399   3.846  11.815  11.735
29792SOL    HW189400   3.801  11.727  11.752
29792SOL    HW289401   3.845  11.869  11.819
29793SOL     OW89402   3.751  12.768  11.289
29793SOL    HW189403   3.732  12.672  11.310
29793SOL    HW289404   3.718  12.826  11.364
29794SOL     OW89405   5.413  12.094  11.784
29794SOL    HW189406   5.508  12.065  11.792
29794SOL    HW289407   5.405  12.159  11.709
29795SOL     OW89408   5.365  12.280  11.604
29795SOL    HW189409   5.451  12.282  11.552
29795SOL    HW289410   5.379  12.327  11.692
29796SOL     OW89411   3.837  11.909  12.769
29796SOL    HW189412   3.925  11.896  12.814
29796SOL    HW289413   3.824  12.006  12.747
29797SOL     OW89414   4.337  12.537  11.898
29797SOL    HW189415   4.288  12.450  11.907
29797SOL    HW289416   4.314  12.580  11.811
29798SOL     OW89417   5.017  12.400  12.595
29798SOL    HW189418   5.054  12.327  12.537
29798SOL    HW289419   5.069  12.405  12.680
29799SOL     OW89420   4.533  11.176  11.674
29799SOL    HW189421   4.573  11.267  11.665
29799SOL    HW289422   4.433  11.184  11.680
29800SOL     OW89423   3.921  12.148  12.436
29800SOL    HW189424   4.010  12.103  12.422
29800SOL    HW289425   3.848  12.083  12.417
29801SOL     OW89426   5.249  12.171  11.362
29801SOL    HW189427   5.186  12.095  11.375
29801SOL    HW289428   5.297  12.189  11.448
29802SOL     OW89429   5.190  12.589  12.125
29802SOL    HW189430   5.131  12.595  12.205
29802SOL    HW289431   5.175  12.501  12.079
29803SOL     OW89432   4.322  11.901  11.442
29803SOL    HW189433   4.346  11.970  11.374
29803SOL    HW289434   4.244  11.934  11.496
29804SOL     OW89435   5.005  11.517  12.116
29804SOL    HW189436   4.919  11.467  12.103
29804SOL    HW289437   5.067  11.463  12.172
29805SOL     OW89438   5.300  12.834  11.479
29805SOL    HW189439   5.389  12.880  11.482
29805SOL    HW289440   5.279  12.810  11.384
29806SOL     OW89441   4.531  11.777  12.637
29806SOL    HW189442   4.484  11.774  12.726
29806SOL    HW289443   4.480  11.722  12.571
29807SOL     OW89444   4.697  12.062  12.744
29807SOL    HW189445   4.743  11.978  12.715
29807SOL    HW289446   4.641  12.096  12.669
29808SOL     OW89447   4.715  11.582  12.414
29808SOL    HW189448   4.638  11.616  12.468
29808SOL    HW289449   4.681  11.531  12.335
29809SOL     OW89450   4.765  11.873  11.601
29809SOL    HW189451   4.791  11.869  11.697
29809SOL    HW289452   4.680  11.822  11.587
29810SOL     OW89453   3.800  11.983  11.961
29810SOL    HW189454   3.899  11.971  11.970
29810SOL    HW289455   3.776  12.078  11.982
29811SOL     OW89456   4.589  11.520  11.367
29811SOL    HW189457   4.648  11.583  11.318
29811SOL    HW289458   4.608  11.426  11.338
29812SOL     OW89459   5.086  12.316  11.717
29812SOL    HW189460   5.169  12.287  11.669
29812SOL    HW289461   5.037  12.383  11.661
29813SOL     OW89462   4.274  11.368  12.057
29813SOL    HW189463   4.269  11.363  12.157
29813SOL    HW289464   4.276  11.464  12.028
29814SOL     OW89465   4.732  12.628  11.649
29814SOL    HW189466   4.686  12.700  11.597
29814SOL    HW289467   4.728  12.648  11.747
29815SOL     OW89468   5.519  12.238  12.045
29815SOL    HW189469   5.457  12.223  11.969
29815SOL    HW289470   5.467  12.249  12.130
29816SOL     OW89471   4.951  12.722  12.678
29816SOL    HW189472   4.957  12.645  12.742
29816SOL    HW289473   4.899  12.696  12.598
29817SOL     OW89474   4.045  12.115  11.414
29817SOL    HW189475   4.127  12.154  11.372
29817SOL    HW289476   4.018  12.033  11.365
29818SOL     OW89477   5.182  11.907  11.900
29818SOL    HW189478   5.177  11.842  11.975
29818SOL    HW289479   5.262  11.966  11.913
29819SOL     OW89480   3.926  11.457  12.670
29819SOL    HW189481   3.846  11.517  12.657
29819SOL    HW289482   3.916  11.408  12.756
29820SOL     OW89483   5.356  12.549  11.253
29820SOL    HW189484   5.324  12.643  11.243
29820SOL    HW289485   5.280  12.486  11.241
29821SOL     OW89486   5.124  11.279  11.598
29821SOL    HW189487   5.100  11.242  11.508
29821SOL    HW289488   5.223  11.295  11.602
29822SOL     OW89489   4.106  11.872  11.652
29822SOL    HW189490   4.151  11.782  11.649
29822SOL    HW289491   4.012  11.861  11.685
29823SOL     OW89492   4.338  11.294  11.289
29823SOL    HW189493   4.436  11.272  11.296
29823SOL    HW289494   4.307  11.277  11.196
29824SOL     OW89495   5.075  11.762  12.605
29824SOL    HW189496   5.103  11.719  12.690
29824SOL    HW289497   5.100  11.858  12.606
29825SOL     OW89498   4.527  12.574  12.096
29825SOL    HW189499   4.617  12.588  12.054
29825SOL    HW289500   4.456  12.576  12.025
29826SOL     OW89501   4.646  11.675  12.071
29826SOL    HW189502   4.621  11.666  11.975
29826SOL    HW289503   4.694  11.593  12.102
29827SOL     OW89504   4.263  11.236  11.684
29827SOL    HW189505   4.182  11.237  11.742
29827SOL    HW289506   4.266  11.319  11.629
29828SOL     OW89507   5.158  12.360  11.213
29828SOL    HW189508   5.190  12.284  11.270
29828SOL    HW289509   5.066  12.387  11.243
29829SOL     OW89510   4.021  11.207  11.343
29829SOL    HW189511   4.070  11.291  11.322
29829SOL    HW289512   4.083  11.142  11.388
29830SOL     OW89513   4.659  11.408  11.652
29830SOL    HW189514   4.611  11.449  11.574
29830SOL    HW289515   4.758  11.406  11.633
29831SOL     OW89516   4.800  11.855  12.636
29831SOL    HW189517   4.720  11.794  12.639
29831SOL    HW289518   4.881  11.802  12.612
29832SOL     OW89519   4.951  12.742  11.965
29832SOL    HW189520   4.972  12.816  11.900
29832SOL    HW289521   5.019  12.742  12.038
29833SOL     OW89522   4.183  12.324  11.913
29833SOL    HW189523   4.112  12.297  11.978
29833SOL    HW289524   4.157  12.296  11.820
29834SOL     OW89525   4.756  11.721  11.188
29834SOL    HW189526   4.715  11.803  11.149
29834SOL    HW289527   4.820  11.747  11.261
29835SOL     OW89528   3.802  11.728  12.558
29835SOL    HW189529   3.894  11.727  12.517
29835SOL    HW289530   3.796  11.802  12.625
29836SOL     OW89531   4.285  11.394  12.319
29836SOL    HW189532   4.323  11.310  12.356
29836SOL    HW289533   4.197  11.413  12.363
29837SOL     OW89534   4.590  11.626  11.814
29837SOL    HW189535   4.558  11.698  11.752
29837SOL    HW289536   4.614  11.545  11.761
29838SOL     OW89537   4.741  11.211  11.925
29838SOL    HW189538   4.669  11.216  11.856
29838SOL    HW289539   4.717  11.142  11.994
29839SOL     OW89540   5.153  12.345  12.039
29839SOL    HW189541   5.098  12.261  12.032
29839SOL    HW289542   5.179  12.374  11.947
29840SOL     OW89543   5.190  11.762  12.164
29840SOL    HW189544   5.160  11.667  12.171
29840SOL    HW289545   5.263  11.778  12.230
29841SOL     OW89546   5.581  12.005  11.549
29841SOL    HW189547   5.623  11.941  11.613
29841SOL    HW289548   5.543  11.954  11.471
29842SOL     OW89549   4.212  12.557  11.346
29842SOL    HW189550   4.125  12.542  11.393
29842SOL    HW289551   4.195  12.583  11.251
29843SOL     OW89552   5.388  12.452  11.829
29843SOL    HW189553   5.487  12.460  11.843
29843SOL    HW289554   5.343  12.536  11.860
29844SOL     OW89555   5.114  11.747  11.250
29844SOL    HW189556   5.060  11.726  11.331
29844SOL    HW289557   5.205  11.706  11.259
29845SOL     OW89558   4.251  11.428  11.500
29845SOL    HW189559   4.278  11.369  11.425
29845SOL    HW289560   4.251  11.523  11.469
29846SOL     OW89561   5.478  12.395  12.760
29846SOL    HW189562   5.569  12.356  12.747
29846SOL    HW289563   5.486  12.491  12.784
29847SOL     OW89564   4.788  12.519  12.512
29847SOL    HW189565   4.708  12.496  12.567
29847SOL    HW289566   4.871  12.493  12.561
29848SOL     OW89567   4.835  12.367  12.272
29848SOL    HW189568   4.795  12.411  12.353
29848SOL    HW289569   4.794  12.404  12.189
29849SOL     OW89570   5.362  12.271  12.251
29849SOL    HW189571   5.367  12.352  12.310
29849SOL    HW289572   5.276  12.273  12.200
29850SOL     OW89573   4.639  11.261  12.574
29850SOL    HW189574   4.664  11.241  12.479
29850SOL    HW289575   4.711  11.317  12.616
29851SOL     OW89576   4.429  12.222  11.540
29851SOL    HW189577   4.415  12.229  11.639
29851SOL    HW289578   4.513  12.171  11.522
29852SOL     OW89579   4.134  11.985  12.423
29852SOL    HW189580   4.220  11.997  12.473
29852SOL    HW289581   4.092  11.898  12.450
29853SOL     OW89582   4.998  11.558  12.434
29853SOL    HW189583   5.019  11.632  12.498
29853SOL    HW289584   4.909  11.575  12.391
29854SOL     OW89585   3.788  12.736  12.503
29854SOL    HW189586   3.742  12.818  12.469
29854SOL    HW289587   3.886  12.755  12.512
29855SOL     OW89588   4.091  12.272  11.673
29855SOL    HW189589   4.084  12.355  11.617
29855SOL    HW289590   4.095  12.192  11.613
29856SOL     OW89591   4.290  11.709  12.037
29856SOL    HW189592   4.302  11.775  11.963
29856SOL    HW289593   4.336  11.743  12.120
29857SOL     OW89594   4.976  12.520  11.560
29857SOL    HW189595   5.026  12.597  11.600
29857SOL    HW289596   4.881  12.522  11.592
29858SOL     OW89597   4.996  12.617  12.314
29858SOL    HW189598   5.043  12.630  12.401
29858SOL    HW289599   4.930  12.543  12.323
29859SOL     OW89600   5.306  11.811  11.644
29859SOL    HW189601   5.275  11.872  11.717
29859SOL    HW289602   5.356  11.863  11.575
29860SOL     OW89603   4.078  12.682  12.501
29860SOL    HW189604   4.057  12.638  12.414
29860SOL    HW289605   4.175  12.708  12.504
29861SOL     OW89606   4.126  11.923  12.770
29861SOL    HW189607   4.194  11.978  12.723
29861SOL    HW289608   4.166  11.835  12.797
29862SOL     OW89609   5.311  11.951  12.842
29862SOL    HW189610   5.219  11.989  12.837
29862SOL    HW289611   5.371  11.998  12.777
29863SOL     OW89612   4.297  12.042  12.201
29863SOL    HW189613   4.341  12.131  12.192
29863SOL    HW289614   4.234  12.042  12.278
29864SOL     OW89615   5.084  12.034  12.217
29864SOL    HW189616   5.009  12.034  12.151
29864SOL    HW289617   5.121  11.942  12.226
29865SOL     OW89618   4.933  11.697  11.447
29865SOL    HW189619   4.946  11.613  11.501
29865SOL    HW289620   4.904  11.771  11.507
29866SOL     OW89621   4.031  11.385  12.403
29866SOL    HW189622   4.008  11.422  12.493
29866SOL    HW289623   4.001  11.290  12.397
29867SOL     OW89624   3.761  12.482  12.454
29867SOL    HW189625   3.814  12.433  12.522
29867SOL    HW289626   3.783  12.580  12.459
29868SOL     OW89627   4.456  11.806  12.236
29868SOL    HW189628   4.515  11.780  12.160
29868SOL    HW289629   4.428  11.902  12.225
29869SOL     OW89630   4.031  11.235  11.790
29869SOL    HW189631   4.020  11.329  11.823
29869SOL    HW289632   4.026  11.172  11.867
29870SOL     OW89633   5.346  11.539  11.546
29870SOL    HW189634   5.348  11.463  11.610
29870SOL    HW289635   5.298  11.616  11.586
29871SOL     OW89636   4.747  11.938  12.138
29871SOL    HW189637   4.762  11.959  12.234
29871SOL    HW289638   4.717  11.843  12.129
29872SOL     OW89639   5.264  11.446  11.297
29872SOL    HW189640   5.203  11.371  11.320
29872SOL    HW289641   5.286  11.498  11.380
29873SOL     OW89642   5.027  12.010  11.214
29873SOL    HW189643   5.061  11.917  11.229
29873SOL    HW289644   5.045  12.037  11.119
29874SOL     OW89645   4.792  12.505  12.021
29874SOL    HW189646   4.799  12.421  11.966
29874SOL    HW289647   4.854  12.574  11.985
29875SOL     OW89648   4.043  11.982  12.121
29875SOL    HW189649   4.136  12.018  12.126
29875SOL    HW289650   4.037  11.897  12.173
29876SOL     OW89651   4.063  11.681  12.178
29876SOL    HW189652   4.011  11.598  12.161
29876SOL    HW289653   4.140  11.686  12.114
29877SOL     OW89654   4.884  11.379  12.649
29877SOL    HW189655   4.884  11.443  12.726
29877SOL    HW289656   4.912  11.427  12.566
29878SOL     OW89657   3.732  12.498  11.372
29878SOL    HW189658   3.639  12.519  11.341
29878SOL    HW289659   3.742  12.399  11.385
29879SOL     OW89660   4.228  12.740  12.082
29879SOL    HW189661   4.294  12.814  12.091
29879SOL    HW289662   4.272  12.661  12.040
29880SOL     OW89663   4.726  11.968  12.410
29880SOL    HW189664   4.767  11.936  12.496
29880SOL    HW289665   4.630  11.941  12.407
29881SOL     OW89666   3.764  11.716  12.286
29881SOL    HW189667   3.849  11.683  12.245
29881SOL    HW289668   3.777  11.731  12.384
29882SOL     OW89669   4.539  11.744  11.497
29882SOL    HW189670   4.546  11.655  11.451
29882SOL    HW289671   4.445  11.778  11.489
29883SOL     OW89672   5.381  11.776  12.378
29883SOL    HW189673   5.343  11.707  12.440
29883SOL    HW289674   5.463  11.740  12.334
29884SOL     OW89675   4.395  11.636  12.441
29884SOL    HW189676   4.361  11.547  12.411
29884SOL    HW289677   4.421  11.690  12.361
29885SOL     OW89678   4.197  11.672  11.363
29885SOL    HW189679   4.258  11.752  11.367
29885SOL    HW289680   4.102  11.703  11.370
29886SOL     OW89681   3.883  12.309  12.638
29886SOL    HW189682   3.905  12.248  12.714
29886SOL    HW289683   3.893  12.260  12.552
29887SOL     OW89684   5.071  12.231  12.406
29887SOL    HW189685   5.095  12.168  12.332
29887SOL    HW289686   4.981  12.271  12.388
29888SOL     OW89687   5.026  12.027  11.481
29888SOL    HW189688   4.940  11.996  11.523
29888SOL    HW289689   5.022  12.013  11.382
29889SOL     OW89690   4.976  12.903  12.300
29889SOL    HW189691   5.060  12.908  12.246
29889SOL    HW289692   4.953  12.807  12.318
29890SOL     OW89693   3.807  12.430  12.194
29890SOL    HW189694   3.802  12.429  12.294
29890SOL    HW289695   3.724  12.389  12.156
29891SOL     OW89696   5.450  11.307  11.695
29891SOL    HW189697   5.523  11.290  11.628
29891SOL    HW289698   5.419  11.220  11.733
29892SOL     OW89699   5.004  12.099  11.844
29892SOL    HW189700   5.064  12.018  11.846
29892SOL    HW289701   5.044  12.168  11.784
29893SOL     OW89702   4.554  12.445  12.594
29893SOL    HW189703   4.549  12.478  12.689
29893SOL    HW289704   4.468  12.464  12.548
29894SOL     OW89705   4.396  12.788  11.326
29894SOL    HW189706   4.405  12.798  11.227
29894SOL    HW289707   4.356  12.699  11.347
29895SOL     OW89708   5.565  11.347  12.135
29895SOL    HW189709   5.604  11.262  12.099
29895SOL    HW289710   5.467  11.349  12.116
29896SOL     OW89711   3.987  11.498  11.892
29896SOL    HW189712   3.908  11.549  11.858
29896SOL    HW289713   3.978  11.483  11.990
29897SOL     OW89714   4.918  12.784  11.203
29897SOL    HW189715   4.924  12.691  11.240
29897SOL    HW289716   4.859  12.784  11.123
29898SOL     OW89717   4.546  12.174  12.544
29898SOL    HW189718   4.586  12.173  12.452
29898SOL    HW289719   4.556  12.266  12.584
29899SOL     OW89720   4.640  12.082  11.463
29899SOL    HW189721   4.703  12.120  11.395
29899SOL    HW289722   4.680  11.999  11.502
29900SOL     OW89723   4.096  12.460  12.662
29900SOL    HW189724   4.083  12.553  12.628
29900SOL    HW289725   4.012  12.408  12.649
29901SOL     OW89726   5.338  12.464  12.461
29901SOL    HW189727   5.398  12.467  12.541
29901SOL    HW289728   5.263  12.528  12.474
29902SOL     OW89729   4.763  12.270  11.868
29902SOL    HW189730   4.693  12.223  11.922
29902SOL    HW289731   4.822  12.202  11.825
29903SOL     OW89732   4.738  11.408  12.143
29903SOL    HW189733   4.730  11.372  12.050
29903SOL    HW289734   4.736  11.332  12.208
29904SOL     OW89735   4.314  12.659  11.663
29904SOL    HW189736   4.356  12.601  11.593
29904SOL    HW289737   4.270  12.738  11.619
29905SOL     OW89738   5.433  11.557  12.553
29905SOL    HW189739   5.506  11.626  12.557
29905SOL    HW289740   5.461  11.482  12.494
29906SOL     OW89741   3.979  12.520  11.462
29906SOL    HW189742   3.883  12.521  11.435
29906SOL    HW289743   3.991  12.573  11.546
29907SOL     OW89744   3.829  12.185  12.898
29907SOL    HW189745   3.752  12.152  12.952
29907SOL    HW289746   3.914  12.155  12.940
29908SOL     OW89747   4.396  11.375  12.661
29908SOL    HW189748   4.486  11.359  12.621
29908SOL    HW289749   4.404  11.380  12.760
29909SOL     OW89750   3.799  11.517  11.205
29909SOL    HW189751   3.707  11.489  11.176
29909SOL    HW289752   3.830  11.594  11.149
29910SOL     OW89753   5.164  12.028  12.570
29910SOL    HW189754   5.107  12.080  12.507
29910SOL    HW289755   5.260  12.040  12.546
29911SOL     OW89756   3.796  11.338  11.490
29911SOL    HW189757   3.779  11.421  11.436
29911SOL    HW289758   3.886  11.301  11.468
29912SOL     OW89759   4.907  12.507  11.291
29912SOL    HW189760   4.808  12.496  11.293
29912SOL    HW289761   4.941  12.522  11.384
29913SOL     OW89762   4.337  12.014  12.603
29913SOL    HW189763   4.393  12.095  12.586
29913SOL    HW289764   4.396  11.934  12.606
29914SOL     OW89765   4.440  11.737  12.880
29914SOL    HW189766   4.459  11.802  12.954
29914SOL    HW289767   4.500  11.657  12.889
29915SOL     OW89768   4.114  12.913  12.732
29915SOL    HW189769   4.023  12.954  12.730
29915SOL    HW289770   4.107  12.819  12.764
29916SOL     OW89771   5.398  12.055  12.426
29916SOL    HW189772   5.371  11.966  12.389
29916SOL    HW289773   5.399  12.123  12.353
29917SOL     OW89774   4.949  11.497  11.621
29917SOL    HW189775   5.014  11.423  11.610
29917SOL    HW289776   4.969  11.547  11.705
29918SOL     OW89777   4.318  11.917  11.824
29918SOL    HW189778   4.368  12.002  11.805
29918SOL    HW289779   4.230  11.919  11.776
29919SOL     OW89780   5.501  11.514  12.814
29919SOL    HW189781   5.484  11.545  12.720
29919SOL    HW289782   5.417  11.477  12.852
29920SOL     OW89783   5.454  12.106  12.689
29920SOL    HW189784   5.492  12.197  12.704
29920SOL    HW289785   5.446  12.089  12.590
29921SOL     OW89786   4.583  12.546  11.188
29921SOL    HW189787   4.537  12.561  11.276
29921SOL    HW289788   4.627  12.631  11.158
29922SOL     OW89789   4.583  12.128  12.033
29922SOL    HW189790   4.637  12.059  12.081
29922SOL    HW289791   4.551  12.197  12.099
29923SOL     OW89792   4.807  12.156  11.259
29923SOL    HW189793   4.784  12.209  11.177
29923SOL    HW289794   4.888  12.100  11.240
29924SOL     OW89795   5.585  12.741  12.023
29924SOL    HW189796   5.514  12.729  11.953
29924SOL    HW289797   5.586  12.662  12.083
29925SOL     OW89798   3.803  12.412  11.825
29925SOL    HW189799   3.802  12.365  11.913
29925SOL    HW289800   3.885  12.384  11.774
29926SOL     OW89801   4.396  12.563  12.796
29926SOL    HW189802   4.318  12.513  12.834
29926SOL    HW289803   4.393  12.658  12.827
29927SOL     OW89804   5.548  11.364  12.399
29927SOL    HW189805   5.544  11.274  12.443
29927SOL    HW289806   5.551  11.353  12.300
29928SOL     OW89807   4.152  11.596  11.692
29928SOL    HW189808   4.182  11.524  11.630
29928SOL    HW289809   4.113  11.556  11.775
29929SOL     OW89810   5.429  12.659  12.276
29929SOL    HW189811   5.336  12.634  12.249
29929SOL    HW289812   5.455  12.609  12.358
29930SOL     OW89813   4.041  11.719  12.452
29930SOL    HW189814   4.079  11.660  12.524
29930SOL    HW289815   4.081  11.693  12.364
29931SOL     OW89816   5.148  11.386  12.284
29931SOL    HW189817   5.200  11.321  12.339
29931SOL    HW289818   5.099  11.449  12.345
29932SOL     OW89819   4.725  11.206  12.326
29932SOL    HW189820   4.662  11.134  12.295
29932SOL    HW289821   4.818  11.170  12.326
29933SOL     OW89822   4.494  12.502  11.473
29933SOL    HW189823   4.448  12.415  11.490
29933SOL    HW289824   4.585  12.499  11.514
29934SOL     OW89825   4.342  12.739  12.456
29934SOL    HW189826   4.337  12.821  12.513
29934SOL    HW289827   4.431  12.736  12.411
29935SOL     OW89828   5.076  11.224  11.340
29935SOL    HW189829   5.111  11.183  11.256
29935SOL    HW289830   4.986  11.186  11.360
29936SOL     OW89831   5.024  11.625  11.863
29936SOL    HW189832   4.965  11.705  11.867
29936SOL    HW289833   5.039  11.590  11.956
29937SOL     OW89834   5.317  11.393  12.054
29937SOL    HW189835   5.233  11.392  12.108
29937SOL    HW289836   5.319  11.476  11.998
29938SOL     OW89837   3.763  12.249  11.472
29938SOL    HW189838   3.862  12.238  11.463
29938SOL    HW289839   3.723  12.163  11.504
29939SOL     OW89840   5.816   0.628   0.113
29939SOL    HW189841   5.723   0.626   0.150
29939SOL    HW289842   5.817   0.589   0.021
29940SOL     OW89843   5.811   0.275   0.996
29940SOL    HW189844   5.846   0.258   1.088
29940SOL    HW289845   5.723   0.230   0.984
29941SOL     OW89846   5.605   0.368   0.647
29941SOL    HW189847   5.523   0.411   0.686
29941SOL    HW289848   5.577   0.295   0.584
29942SOL     OW89849   6.155   1.275   1.165
29942SOL    HW189850   6.062   1.268   1.128
29942SOL    HW289851   6.166   1.364   1.209
29943SOL     OW89852   7.141   1.511   0.703
29943SOL    HW189853   7.084   1.495   0.784
29943SOL    HW289854   7.082   1.521   0.623
29944SOL     OW89855   6.721   0.703   0.717
29944SOL    HW189856   6.778   0.781   0.692
29944SOL    HW289857   6.661   0.729   0.793
29945SOL     OW89858   7.341   0.607   0.231
29945SOL    HW189859   7.329   0.594   0.132
29945SOL    HW289860   7.311   0.526   0.280
29946SOL     OW89861   6.354   1.144   1.023
29946SOL    HW189862   6.276   1.161   1.083
29946SOL    HW289863   6.388   1.231   0.987
29947SOL     OW89864   6.436   0.798   1.823
29947SOL    HW189865   6.432   0.874   1.888
29947SOL    HW289866   6.458   0.834   1.732
29948SOL     OW89867   6.271   1.012   0.665
29948SOL    HW189868   6.340   0.996   0.735
29948SOL    HW289869   6.198   1.069   0.703
29949SOL     OW89870   6.272   1.161   1.803
29949SOL    HW189871   6.332   1.240   1.817
29949SOL    HW289872   6.186   1.192   1.762
29950SOL     OW89873   5.921   1.435   1.061
29950SOL    HW189874   5.843   1.404   1.008
29950SOL    HW289875   5.979   1.493   1.004
29951SOL     OW89876   7.046   1.505   1.339
29951SOL    HW189877   7.070   1.599   1.365
29951SOL    HW289878   7.030   1.451   1.421
29952SOL     OW89879   6.024   0.392   1.499
29952SOL    HW189880   6.106   0.336   1.508
29952SOL    HW289881   5.943   0.334   1.503
29953SOL     OW89882   7.189   0.447   0.737
29953SOL    HW189883   7.115   0.493   0.687
29953SOL    HW289884   7.240   0.515   0.790
29954SOL     OW89885   5.817   1.713   0.483
29954SOL    HW189886   5.851   1.790   0.537
29954SOL    HW289887   5.861   1.713   0.393
29955SOL     OW89888   6.713   1.341   1.690
29955SOL    HW189889   6.760   1.341   1.778
29955SOL    HW289890   6.665   1.254   1.679
29956SOL     OW89891   5.816   1.434   0.538
29956SOL    HW189892   5.790   1.530   0.538
29956SOL    HW289893   5.745   1.380   0.583
29957SOL     OW89894   5.826   1.091   0.886
29957SOL    HW189895   5.840   1.007   0.938
29957SOL    HW289896   5.771   1.155   0.941
29958SOL     OW89897   6.206   1.786   1.439
29958SOL    HW189898   6.114   1.769   1.474
29958SOL    HW289899   6.234   1.878   1.465
29959SOL     OW89900   6.192   0.964   0.123
29959SOL    HW189901   6.199   1.048   0.069
29959SOL    HW289902   6.238   0.977   0.211
29960SOL     OW89903   7.180   0.114   1.480
29960SOL    HW189904   7.162   0.181   1.408
29960SOL    HW289905   7.177   0.160   1.569
29961SOL     OW89906   5.708   0.643   0.563
29961SOL    HW189907   5.663   0.555   0.580
29961SOL    HW289908   5.707   0.697   0.647
29962SOL     OW89909   7.428   1.767   0.359
29962SOL    HW189910   7.482   1.738   0.439
29962SOL    HW289911   7.458   1.857   0.330
29963SOL     OW89912   5.613   1.596   0.117
29963SOL    HW189913   5.594   1.500   0.138
29963SOL    HW289914   5.580   1.654   0.192
29964SOL     OW89915   7.275   0.922   0.612
29964SOL    HW189916   7.370   0.893   0.620
29964SOL    HW289917   7.267   0.987   0.537
29965SOL     OW89918   7.227   1.108   0.432
29965SOL    HW189919   7.313   1.110   0.380
29965SOL    HW289920   7.241   1.155   0.520
29966SOL     OW89921   5.699   0.737   1.597
29966SOL    HW189922   5.787   0.724   1.642
29966SOL    HW289923   5.686   0.834   1.575
29967SOL     OW89924   6.199   1.365   0.726
29967SOL    HW189925   6.150   1.278   0.735
29967SOL    HW289926   6.176   1.408   0.639
29968SOL     OW89927   6.879   1.228   1.423
29968SOL    HW189928   6.916   1.155   1.365
29968SOL    HW289929   6.931   1.233   1.508
29969SOL     OW89930   6.395   0.004   0.502
29969SOL    HW189931   6.435   0.095   0.493
29969SOL    HW289932   6.295   0.012   0.508
29970SOL     OW89933   5.783   0.976   1.264
29970SOL    HW189934   5.872   0.931   1.250
29970SOL    HW289935   5.710   0.911   1.245
29971SOL     OW89936   7.111   0.999   0.190
29971SOL    HW189937   7.048   0.923   0.203
29971SOL    HW289938   7.159   1.017   0.276
29972SOL     OW89939   6.773   1.792   1.616
29972SOL    HW189940   6.797   1.852   1.540
29972SOL    HW289941   6.780   1.697   1.586
29973SOL     OW89942   5.903   0.251   1.801
29973SOL    HW189943   5.974   0.322   1.807
29973SOL    HW289944   5.815   0.290   1.829
29974SOL     OW89945   7.052   1.417   0.953
29974SOL    HW189946   6.993   1.423   1.033
29974SOL    HW289947   7.037   1.329   0.907
29975SOL     OW89948   7.253   1.714   0.572
29975SOL    HW189949   7.212   1.691   0.484
29975SOL    HW289950   7.235   1.640   0.637
29976SOL     OW89951   6.184   0.729   0.270
29976SOL    HW189952   6.208   0.798   0.202
29976SOL    HW289953   6.106   0.762   0.324
29977SOL     OW89954   6.867   0.345   0.944
29977SOL    HW189955   6.781   0.295   0.931
29977SOL    HW289956   6.929   0.291   1.000
29978SOL     OW89957   7.162   1.662   0.307
29978SOL    HW189958   7.251   1.708   0.310
29978SOL    HW289959   7.141   1.638   0.212
29979SOL     OW89960   6.393   0.605   1.465
29979SOL    HW189961   6.346   0.602   1.554
29979SOL    HW289962   6.342   0.550   1.399
29980SOL     OW89963   6.980   0.469   1.674
29980SOL    HW189964   6.960   0.512   1.762
29980SOL    HW289965   7.058   0.407   1.683
29981SOL     OW89966   6.559   0.890   1.572
29981SOL    HW189967   6.605   0.806   1.543
29981SOL    HW289968   6.503   0.924   1.497
29982SOL     OW89969   6.577   0.410   1.242
29982SOL    HW189970   6.500   0.444   1.296
29982SOL    HW289971   6.543   0.359   1.163
29983SOL     OW89972   6.627   0.701   0.429
29983SOL    HW189973   6.653   0.697   0.525
29983SOL    HW289974   6.542   0.650   0.415
29984SOL     OW89975   5.662   0.811   0.789
29984SOL    HW189976   5.761   0.799   0.798
29984SOL    HW289977   5.638   0.906   0.810
29985SOL     OW89978   5.716   1.821   1.571
29985SOL    HW189979   5.706   1.806   1.670
29985SOL    HW289980   5.630   1.857   1.535
29986SOL     OW89981   6.451   0.348   0.195
29986SOL    HW189982   6.510   0.411   0.146
29986SOL    HW289983   6.470   0.254   0.166
29987SOL     OW89984   7.305   0.585   1.831
29987SOL    HW189985   7.279   0.674   1.795
29987SOL    HW289986   7.303   0.517   1.758
29988SOL     OW89987   6.948   1.144   0.545
29988SOL    HW189988   7.031   1.115   0.497
29988SOL    HW289989   6.899   1.211   0.489
29989SOL     OW89990   6.136   0.196   0.885
29989SOL    HW189991   6.131   0.191   0.985
29989SOL    HW289992   6.138   0.292   0.856
29990SOL     OW89993   6.594   1.456   0.477
29990SOL    HW189994   6.548   1.528   0.425
29990SOL    HW289995   6.590   1.476   0.575
29991SOL     OW89996   5.937   1.801   0.853
29991SOL    HW189997   5.987   1.715   0.859
29991SOL    HW289998   6.002   1.878   0.850
29992SOL     OW89999   7.381   1.066   0.873
29992SOL    HW190000   7.319   1.051   0.797
29992SOL    HW290001   7.329   1.077   0.958
29993SOL     OW90002   6.813   1.550   1.506
29993SOL    HW190003   6.819   1.473   1.570
29993SOL    HW290004   6.761   1.524   1.426
29994SOL     OW90005   5.907   0.943   0.242
29994SOL    HW190006   5.989   0.982   0.200
29994SOL    HW290007   5.880   0.861   0.193
29995SOL     OW90008   7.044   0.735   0.728
29995SOL    HW190009   7.039   0.670   0.803
29995SOL    HW290010   7.124   0.794   0.741
29996SOL     OW90011   6.047   1.266   1.727
29996SOL    HW190012   5.997   1.267   1.641
29996SOL    HW290013   5.984   1.248   1.803
29997SOL     OW90014   6.697   1.776   0.237
29997SOL    HW190015   6.637   1.714   0.287
29997SOL    HW290016   6.728   1.732   0.152
29998SOL     OW90017   5.788   0.285   1.498
29998SOL    HW190018   5.708   0.345   1.485
29998SOL    HW290019   5.778   0.236   1.584
29999SOL     OW90020   7.218   1.377   0.081
29999SOL    HW190021   7.186   1.471   0.071
29999SOL    HW290022   7.142   1.314   0.069
30000SOL     OW90023   6.050   1.743   0.323
30000SOL    HW190024   6.083   1.782   0.409
30000SOL    HW290025   6.126   1.736   0.258
30001SOL     OW90026   6.986   0.107   0.426
30001SOL    HW190027   6.962   0.070   0.336
30001SOL    HW290028   7.085   0.123   0.430
30002SOL     OW90029   5.835   1.785   1.241
30002SOL    HW190030   5.892   1.720   1.291
30002SOL    HW290031   5.819   1.752   1.148
30003SOL     OW90032   6.526   1.698   0.904
30003SOL    HW190033   6.606   1.641   0.925
30003SOL    HW290034   6.477   1.658   0.827
30004SOL     OW90035   5.968   0.700   0.480
30004SOL    HW190036   6.013   0.610   0.477
30004SOL    HW290037   5.874   0.689   0.513
30005SOL     OW90038   7.133   0.222   1.729
30005SOL    HW190039   7.128   0.259   1.821
30005SOL    HW290040   7.061   0.153   1.717
30006SOL     OW90041   6.200   0.122   0.117
30006SOL    HW190042   6.298   0.100   0.124
30006SOL    HW290043   6.169   0.105   0.024
30007SOL     OW90044   6.367   0.264   1.749
30007SOL    HW190045   6.434   0.203   1.792
30007SOL    HW290046   6.294   0.283   1.814
30008SOL     OW90047   6.474   1.514   1.195
30008SOL    HW190048   6.451   1.489   1.101
30008SOL    HW290049   6.535   1.445   1.234
30009SOL     OW90050   6.937   0.590   1.433
30009SOL    HW190051   6.965   0.547   1.518
30009SOL    HW290052   6.962   0.686   1.434
30010SOL     OW90053   6.389   1.402   0.924
30010SOL    HW190054   6.479   1.416   0.882
30010SOL    HW290055   6.318   1.404   0.853
30011SOL     OW90056   6.508   0.503   0.899
30011SOL    HW190057   6.483   0.494   0.803
30011SOL    HW290058   6.556   0.421   0.930
30012SOL     OW90059   6.125   0.064   0.512
30012SOL    HW190060   6.044   0.065   0.570
30012SOL    HW290061   6.128   0.147   0.457
30013SOL     OW90062   7.020   1.188   0.041
30013SOL    HW190063   7.052   1.112   0.098
30013SOL    HW290064   6.928   1.215   0.071
30014SOL     OW90065   5.883   0.035   0.171
30014SOL    HW190066   5.932   0.119   0.150
30014SOL    HW290067   5.945  -0.030   0.216
30015SOL     OW90068   6.521   0.236   0.480
30015SOL    HW190069   6.473   0.277   0.402
30015SOL    HW290070   6.620   0.234   0.461
30016SOL     OW90071   6.662   0.683   1.464
30016SOL    HW190072   6.582   0.622   1.467
30016SOL    HW290073   6.743   0.630   1.440
30017SOL     OW90074   6.813   1.570   0.793
30017SOL    HW190075   6.834   1.644   0.728
30017SOL    HW290076   6.881   1.570   0.866
30018SOL     OW90077   6.045   1.152   0.741
30018SOL    HW190078   5.974   1.125   0.806
30018SOL    HW290079   6.019   1.124   0.648
30019SOL     OW90080   6.857   1.797   0.591
30019SOL    HW190081   6.901   1.861   0.527
30019SOL    HW290082   6.807   1.849   0.661
30020SOL     OW90083   6.618   0.549   0.016
30020SOL    HW190084   6.577   0.631  -0.023
30020SOL    HW290085   6.682   0.575   0.089
30021SOL     OW90086   5.664   0.556   1.386
30021SOL    HW190087   5.756   0.555   1.345
30021SOL    HW290088   5.658   0.630   1.453
30022SOL     OW90089   6.147   0.222   1.147
30022SOL    HW190090   6.185   0.138   1.184
30022SOL    HW290091   6.059   0.241   1.191
30023SOL     OW90092   6.452   0.454   0.642
30023SOL    HW190093   6.420   0.526   0.580
30023SOL    HW290094   6.476   0.373   0.589
30024SOL     OW90095   6.603   0.039   0.753
30024SOL    HW190096   6.531   0.044   0.684
30024SOL    HW290097   6.579  -0.030   0.822
30025SOL     OW90098   7.015   1.173   0.867
30025SOL    HW190099   6.960   1.089   0.860
30025SOL    HW290100   7.041   1.202   0.775
30026SOL     OW90101   7.052   0.590   0.992
30026SOL    HW190102   7.022   0.495   0.999
30026SOL    HW290103   7.125   0.606   1.058
30027SOL     OW90104   7.443   0.833   0.377
30027SOL    HW190105   7.485   0.769   0.441
30027SOL    HW290106   7.405   0.782   0.299
30028SOL     OW90107   6.074   1.385   0.174
30028SOL    HW190108   5.987   1.370   0.221
30028SOL    HW290109   6.057   1.411   0.079
30029SOL     OW90110   7.250   1.280   0.657
30029SOL    HW190111   7.349   1.288   0.671
30029SOL    HW290112   7.205   1.364   0.688
30030SOL     OW90113   6.976   0.575   0.078
30030SOL    HW190114   6.922   0.554   0.159
30030SOL    HW290115   7.067   0.534   0.087
30031SOL     OW90116   6.113   0.256   0.328
30031SOL    HW190117   6.140   0.197   0.253
30031SOL    HW290118   6.113   0.351   0.297
30032SOL     OW90119   7.340   1.223   1.588
30032SOL    HW190120   7.431   1.184   1.575
30032SOL    HW290121   7.348   1.319   1.612
30033SOL     OW90122   6.650   1.347   1.340
30033SOL    HW190123   6.570   1.324   1.395
30033SOL    HW290124   6.733   1.321   1.389
30034SOL     OW90125   7.178   1.629   1.625
30034SOL    HW190126   7.205   1.663   1.535
30034SOL    HW290127   7.257   1.591   1.671
30035SOL     OW90128   6.697   1.195   1.100
30035SOL    HW190129   6.657   1.239   1.181
30035SOL    HW290130   6.656   1.232   1.017
30036SOL     OW90131   7.224   1.099   1.079
30036SOL    HW190132   7.229   1.180   1.138
30036SOL    HW290133   7.138   1.101   1.028
30037SOL     OW90134   6.501   0.089   1.402
30037SOL    HW190135   6.526   0.069   1.307
30037SOL    HW290136   6.573   0.145   1.444
30038SOL     OW90137   6.291   1.050   0.368
30038SOL    HW190138   6.277   1.057   0.467
30038SOL    HW290139   6.375   0.999   0.350
30039SOL     OW90140   5.996   0.813   1.251
30039SOL    HW190141   6.082   0.825   1.301
30039SOL    HW290142   5.954   0.726   1.278
30040SOL     OW90143   6.860   0.386   1.262
30040SOL    HW190144   6.881   0.460   1.326
30040SOL    HW290145   6.771   0.403   1.219
30041SOL     OW90146   5.650   1.564   1.331
30041SOL    HW190147   5.604   1.646   1.297
30041SOL    HW290148   5.748   1.583   1.340
30042SOL     OW90149   5.953   1.100   0.501
30042SOL    HW190150   5.946   1.183   0.445
30042SOL    HW290151   5.957   1.020   0.441
30043SOL     OW90152   6.152   0.537   0.865
30043SOL    HW190153   6.164   0.603   0.791
30043SOL    HW290154   6.198   0.571   0.948
30044SOL     OW90155   6.838   1.348   0.388
30044SOL    HW190156   6.888   1.425   0.428
30044SOL    HW290157   6.743   1.350   0.420
30045SOL     OW90158   6.858   1.445   1.142
30045SOL    HW190159   6.905   1.458   1.229
30045SOL    HW290160   6.792   1.371   1.151
30046SOL     OW90161   7.168   0.639   0.472
30046SOL    HW190162   7.137   0.700   0.545
30046SOL    HW290163   7.218   0.691   0.403
30047SOL     OW90164   5.940   1.510   1.329
30047SOL    HW190165   5.919   1.466   1.242
30047SOL    HW290166   6.037   1.536   1.332
30048SOL     OW90167   5.988   0.751   1.598
30048SOL    HW190168   6.056   0.806   1.551
30048SOL    HW290169   6.028   0.663   1.625
30049SOL     OW90170   7.173   0.779   1.670
30049SOL    HW190171   7.081   0.817   1.665
30049SOL    HW290172   7.233   0.826   1.605
30050SOL     OW90173   6.599   0.105   1.770
30050SOL    HW190174   6.605   0.190   1.718
30050SOL    HW290175   6.631   0.029   1.713
30051SOL     OW90176   6.090   0.050   1.740
30051SOL    HW190177   6.048  -0.007   1.670
30051SOL    HW290178   6.024   0.119   1.772
30052SOL     OW90179   6.159   0.870   1.029
30052SOL    HW190180   6.203   0.959   1.020
30052SOL    HW290181   6.096   0.870   1.106
30053SOL     OW90182   6.946   0.862   1.045
30053SOL    HW190183   6.871   0.862   0.979
30053SOL    HW290184   6.983   0.770   1.054
30054SOL     OW90185   6.795   0.525   0.275
30054SOL    HW190186   6.808   0.441   0.329
30054SOL    HW290187   6.766   0.599   0.335
30055SOL     OW90188   5.893   0.213   1.231
30055SOL    HW190189   5.870   0.250   1.321
30055SOL    HW290190   5.863   0.118   1.225
30056SOL     OW90191   5.623   1.310   1.282
30056SOL    HW190192   5.676   1.261   1.350
30056SOL    HW290193   5.645   1.408   1.287
30057SOL     OW90194   6.318   0.634   1.064
30057SOL    HW190195   6.377   0.608   0.988
30057SOL    HW290196   6.290   0.730   1.053
30058SOL     OW90197   7.314   0.935   1.854
30058SOL    HW190198   7.268   0.928   1.765
30058SOL    HW290199   7.252   0.979   1.920
30059SOL     OW90200   5.893   0.063   0.618
30059SOL    HW190201   5.882   0.157   0.651
30059SOL    HW290202   5.888   0.000   0.695
30060SOL     OW90203   6.609   0.766   0.966
30060SOL    HW190204   6.624   0.787   1.062
30060SOL    HW290205   6.579   0.671   0.957
30061SOL     OW90206   6.566   1.573   1.700
30061SOL    HW190207   6.546   1.617   1.612
30061SOL    HW290208   6.605   1.482   1.684
30062SOL     OW90209   7.445   1.518   1.605
30062SOL    HW190210   7.459   1.545   1.510
30062SOL    HW290211   7.528   1.540   1.658
30063SOL     OW90212   5.936   0.898   1.804
30063SOL    HW190213   6.012   0.942   1.852
30063SOL    HW290214   5.971   0.851   1.722
30064SOL     OW90215   7.126   0.274   0.125
30064SOL    HW190216   7.065   0.199   0.148
30064SOL    HW290217   7.148   0.326   0.208
30065SOL     OW90218   6.889   0.838   0.042
30065SOL    HW190219   6.923   0.745   0.057
30065SOL    HW290220   6.907   0.865  -0.053
30066SOL     OW90221   6.654   1.333   0.849
30066SOL    HW190222   6.661   1.249   0.794
30066SOL    HW290223   6.716   1.402   0.813
30067SOL     OW90224   5.905   0.810   0.949
30067SOL    HW190225   5.998   0.846   0.954
30067SOL    HW290226   5.899   0.725   1.001
30068SOL     OW90227   5.925   0.509   1.006
30068SOL    HW190228   5.873   0.426   0.989
30068SOL    HW290229   6.002   0.514   0.942
30069SOL     OW90230   6.724   0.380   1.678
30069SOL    HW190231   6.679   0.443   1.742
30069SOL    HW290232   6.817   0.411   1.661
30070SOL     OW90233   6.746   0.207   1.477
30070SOL    HW190234   6.746   0.271   1.554
30070SOL    HW290235   6.774   0.255   1.394
30071SOL     OW90236   5.594   1.326   0.200
30071SOL    HW190237   5.501   1.347   0.169
30071SOL    HW290238   5.604   1.227   0.213
30072SOL     OW90239   5.674   1.801   0.927
30072SOL    HW190240   5.632   1.715   0.900
30072SOL    HW290241   5.768   1.804   0.893
30073SOL     OW90242   6.090   1.568   0.910
30073SOL    HW190243   6.156   1.642   0.919
30073SOL    HW290244   6.134   1.489   0.868
30074SOL     OW90245   6.588   0.796   1.238
30074SOL    HW190246   6.629   0.764   1.324
30074SOL    HW290247   6.492   0.769   1.235
30075SOL     OW90248   5.626   0.544   1.114
30075SOL    HW190249   5.711   0.511   1.073
30075SOL    HW290250   5.639   0.559   1.212
30076SOL     OW90251   5.775   0.520   1.722
30076SOL    HW190252   5.834   0.480   1.652
30076SOL    HW290253   5.717   0.591   1.681
30077SOL     OW90254   6.955   0.950   1.660
30077SOL    HW190255   6.994   1.039   1.680
30077SOL    HW290256   6.965   0.930   1.563
30078SOL     OW90257   6.401   0.572   0.325
30078SOL    HW190258   6.408   0.483   0.279
30078SOL    HW290259   6.307   0.606   0.317
30079SOL     OW90260   7.243   0.604   1.206
30079SOL    HW190261   7.205   0.535   1.268
30079SOL    HW290262   7.325   0.568   1.162
30080SOL     OW90263   5.838   1.564   1.744
30080SOL    HW190264   5.808   1.621   1.820
30080SOL    HW290265   5.831   1.467   1.770
30081SOL     OW90266   6.257   0.464   1.269
30081SOL    HW190267   6.223   0.375   1.239
30081SOL    HW290268   6.283   0.518   1.189
30082SOL     OW90269   6.516   1.678   1.465
30082SOL    HW190270   6.492   1.660   1.370
30082SOL    HW290271   6.546   1.772   1.475
30083SOL     OW90272   6.059   0.500   0.191
30083SOL    HW190273   6.120   0.580   0.195
30083SOL    HW290274   5.964   0.531   0.198
30084SOL     OW90275   5.745   1.137   1.466
30084SOL    HW190276   5.767   1.076   1.542
30084SOL    HW290277   5.755   1.088   1.380
30085SOL     OW90278   6.933   1.059   1.234
30085SOL    HW190279   6.957   0.996   1.160
30085SOL    HW290280   6.843   1.099   1.216
30086SOL     OW90281   6.888   0.855   0.309
30086SOL    HW190282   6.802   0.824   0.351
30086SOL    HW290283   6.884   0.841   0.210
30087SOL     OW90284   7.345   1.747   1.154
30087SOL    HW190285   7.406   1.777   1.081
30087SOL    HW290286   7.307   1.658   1.132
30088SOL     OW90287   6.838   1.731   1.128
30088SOL    HW190288   6.922   1.736   1.074
30088SOL    HW290289   6.815   1.635   1.146
30089SOL     OW90290   5.669   1.258   1.022
30089SOL    HW190291   5.664   1.257   1.122
30089SOL    HW290292   5.586   1.217   0.984
30090SOL     OW90293   6.274   1.662   1.716
30090SOL    HW190294   6.218   1.743   1.725
30090SOL    HW290295   6.326   1.666   1.630
30091SOL     OW90296   6.489   0.086   0.133
30091SOL    HW190297   6.540   0.087   0.047
30091SOL    HW290298   6.545   0.044   0.204
30092SOL     OW90299   7.312   0.135   0.523
30092SOL    HW190300   7.385   0.118   0.456
30092SOL    HW290301   7.281   0.048   0.561
30093SOL     OW90302   6.974   1.573   0.477
30093SOL    HW190303   7.041   1.585   0.403
30093SOL    HW290304   6.934   1.662   0.500
30094SOL     OW90305   5.716   1.794   1.851
30094SOL    HW190306   5.675   1.720   1.904
30094SOL    HW290307   5.780   1.845   1.909
30095SOL     OW90308   6.866   0.927   0.672
30095SOL    HW190309   6.926   0.846   0.674
30095SOL    HW290310   6.906   0.996   0.612
30096SOL     OW90311   6.416   1.273   1.422
30096SOL    HW190312   6.411   1.306   1.517
30096SOL    HW290313   6.330   1.292   1.376
30097SOL     OW90314   6.258   1.616   0.154
30097SOL    HW190315   6.267   1.626   0.055
30097SOL    HW290316   6.218   1.527   0.175
30098SOL     OW90317   7.236   1.720   1.394
30098SOL    HW190318   7.289   1.730   1.310
30098SOL    HW290319   7.209   1.810   1.428
30099SOL     OW90320   7.427   0.175   0.963
30099SOL    HW190321   7.466   0.090   0.927
30099SOL    HW290322   7.329   0.177   0.944
30100SOL     OW90323   5.849   0.326   0.720
30100SOL    HW190324   5.770   0.377   0.686
30100SOL    HW290325   5.840   0.311   0.818
30101SOL     OW90326   6.780   1.612   0.031
30101SOL    HW190327   6.786   1.519   0.068
30101SOL    HW290328   6.721   1.612  -0.049
30102SOL     OW90329   6.408   1.002   1.372
30102SOL    HW190330   6.448   1.001   1.280
30102SOL    HW290331   6.418   1.094   1.412
30103SOL     OW90332   6.502   0.910   0.291
30103SOL    HW190333   6.565   0.948   0.223
30103SOL    HW290334   6.542   0.827   0.330
30104SOL     OW90335   7.090   1.607   0.044
30104SOL    HW190336   6.998   1.644   0.051
30104SOL    HW290337   7.128   1.627  -0.046
30105SOL     OW90338   5.958   1.288   1.490
30105SOL    HW190339   5.945   1.381   1.456
30105SOL    HW290340   5.874   1.236   1.477
30106SOL     OW90341   7.200   1.292   1.289
30106SOL    HW190342   7.260   1.295   1.369
30106SOL    HW290343   7.125   1.356   1.302
30107SOL     OW90344   6.625   1.098   0.696
30107SOL    HW190345   6.555   1.051   0.750
30107SOL    HW290346   6.684   1.030   0.653
30108SOL     OW90347   6.600   0.236   0.971
30108SOL    HW190348   6.592   0.200   0.878
30108SOL    HW290349   6.598   0.160   1.036
30109SOL     OW90350   6.176   1.487   0.491
30109SOL    HW190351   6.218   1.429   0.421
30109SOL    HW290352   6.132   1.566   0.447
30110SOL     OW90353   7.295   0.385   1.381
30110SOL    HW190354   7.368   0.454   1.385
30110SOL    HW290355   7.323   0.310   1.322
30111SOL     OW90356   5.841   1.348   0.290
30111SOL    HW190357   5.745   1.349   0.263
30111SOL    HW290358   5.853   1.401   0.374
30112SOL     OW90359   5.691   1.013   1.726
30112SOL    HW190360   5.614   0.980   1.780
30112SOL    HW290361   5.776   0.983   1.768
30113SOL     OW90362   6.258   0.203   1.489
30113SOL    HW190363   6.348   0.187   1.449
30113SOL    HW290364   6.266   0.208   1.588
30114SOL     OW90365   7.026   0.856   1.398
30114SOL    HW190366   6.969   0.908   1.335
30114SOL    HW290367   7.122   0.868   1.374
30115SOL     OW90368   5.658   0.166   0.318
30115SOL    HW190369   5.641   0.249   0.264
30115SOL    HW290370   5.748   0.129   0.296
30116SOL     OW90371   6.769   1.335   0.119
30116SOL    HW190372   6.670   1.324   0.121
30116SOL    HW290373   6.803   1.350   0.212
30117SOL     OW90374   6.199   0.842   1.431
30117SOL    HW190375   6.255   0.923   1.414
30117SOL    HW290376   6.258   0.762   1.434
30118SOL     OW90377   7.079   1.767   0.959
30118SOL    HW190378   7.112   1.831   0.890
30118SOL    HW290379   7.145   1.761   1.034
30119SOL     OW90380   6.302   0.565   1.708
30119SOL    HW190381   6.321   0.630   1.782
30119SOL    HW290382   6.362   0.485   1.717
30120SOL     OW90383   7.036   1.220   1.633
30120SOL    HW190384   7.027   1.210   1.732
30120SOL    HW290385   7.132   1.213   1.607
30121SOL     OW90386   5.976   1.741   1.560
30121SOL    HW190387   5.885   1.782   1.558
30121SOL    HW290388   5.969   1.647   1.592
30122SOL     OW90389   7.260   0.883   1.254
30122SOL    HW190390   7.233   0.794   1.217
30122SOL    HW290391   7.261   0.951   1.181
30123SOL     OW90392   6.811   0.325   0.449
30123SOL    HW190393   6.876   0.251   0.438
30123SOL    HW290394   6.831   0.375   0.533
30124SOL     OW90395   6.180   0.745   0.652
30124SOL    HW190396   6.230   0.830   0.633
30124SOL    HW290397   6.092   0.747   0.604
30125SOL     OW90398   7.363   0.342   1.642
30125SOL    HW190399   7.346   0.373   1.548
30125SOL    HW290400   7.279   0.305   1.680
30126SOL     OW90401   7.316   0.934   1.517
30126SOL    HW190402   7.354   1.025   1.532
30126SOL    HW290403   7.308   0.917   1.418
30127SOL     OW90404   6.445   1.374   0.016
30127SOL    HW190405   6.399   1.389   0.104
30127SOL    HW290406   6.489   1.459  -0.014
30128SOL     OW90407   6.247   1.790   0.953
30128SOL    HW190408   6.201   1.878   0.940
30128SOL    HW290409   6.346   1.802   0.946
30129SOL     OW90410   6.445   0.956   0.861
30129SOL    HW190411   6.499   0.887   0.909
30129SOL    HW290412   6.413   1.025   0.927
30130SOL     OW90413   6.669   0.984   0.087
30130SOL    HW190414   6.646   1.037   0.005
30130SOL    HW290415   6.750   0.928   0.068
30131SOL     OW90416   7.447   1.569   0.851
30131SOL    HW190417   7.376   1.557   0.781
30131SOL    HW290418   7.448   1.490   0.911
30132SOL     OW90419   5.807   1.314   1.844
30132SOL    HW190420   5.742   1.241   1.823
30132SOL    HW290421   5.811   1.328   1.942
30133SOL     OW90422   5.665   1.240   0.653
30133SOL    HW190423   5.664   1.193   0.741
30133SOL    HW290424   5.747   1.212   0.602
30134SOL     OW90425   6.258   1.391   1.624
30134SOL    HW190426   6.180   1.341   1.662
30134SOL    HW290427   6.255   1.486   1.655
30135SOL     OW90428   7.410   0.192   1.227
30135SOL    HW190429   7.406   0.102   1.271
30135SOL    HW290430   7.413   0.181   1.128
30136SOL     OW90431   6.014   0.424   0.520
30136SOL    HW190432   6.044   0.352   0.458
30136SOL    HW290433   5.975   0.384   0.603
30137SOL     OW90434   7.291   1.487   1.104
30137SOL    HW190435   7.198   1.462   1.077
30137SOL    HW290436   7.317   1.437   1.186
30138SOL     OW90437   5.903   0.547   1.280
30138SOL    HW190438   5.941   0.488   1.352
30138SOL    HW290439   5.943   0.521   1.192
30139SOL     OW90440   6.398   1.586   0.687
30139SOL    HW190441   6.430   1.596   0.593
30139SOL    HW290442   6.319   1.524   0.689
30140SOL     OW90443   7.010   0.214   1.112
30140SOL    HW190444   7.062   0.149   1.167
30140SOL    HW290445   6.961   0.277   1.173
30141SOL     OW90446   6.587   0.034   1.154
30141SOL    HW190447   6.524  -0.038   1.123
30141SOL    HW290448   6.680  -0.002   1.154
30142SOL     OW90449   6.356   1.330   0.301
30142SOL    HW190450   6.310   1.243   0.318
30142SOL    HW290451   6.447   1.327   0.342
30143SOL     OW90452   6.204   1.567   1.284
30143SOL    HW190453   6.199   1.649   1.341
30143SOL    HW290454   6.293   1.564   1.239
30144SOL     OW90455   6.938   0.052   0.168
30144SOL    HW190456   6.973   0.011   0.084
30144SOL    HW290457   6.848   0.014   0.188
30145SOL     OW90458   6.886   0.453   0.691
30145SOL    HW190459   6.827   0.533   0.695
30145SOL    HW290460   6.901   0.418   0.784
30146SOL     OW90461   7.179   0.221   0.882
30146SOL    HW190462   7.095   0.220   0.936
30146SOL    HW290463   7.181   0.304   0.826
30147SOL     OW90464   5.625   1.077   0.300
30147SOL    HW190465   5.724   1.066   0.291
30147SOL    HW290466   5.585   0.991   0.332
30148SOL     OW90467   6.461   1.646   0.337
30148SOL    HW190468   6.384   1.611   0.283
30148SOL    HW290469   6.429   1.717   0.399
30149SOL     OW90470   5.816   0.628   1.975
30149SOL    HW190471   5.723   0.626   2.012
30149SOL    HW290472   5.817   0.589   1.883
30150SOL     OW90473   5.811   0.275   2.858
30150SOL    HW190474   5.846   0.258   2.950
30150SOL    HW290475   5.723   0.230   2.846
30151SOL     OW90476   5.605   0.368   2.509
30151SOL    HW190477   5.523   0.411   2.548
30151SOL    HW290478   5.577   0.295   2.446
30152SOL     OW90479   7.141   1.511   2.565
30152SOL    HW190480   7.084   1.495   2.646
30152SOL    HW290481   7.082   1.521   2.485
30153SOL     OW90482   6.721   0.703   2.579
30153SOL    HW190483   6.778   0.781   2.554
30153SOL    HW290484   6.661   0.729   2.655
30154SOL     OW90485   7.341   0.607   2.093
30154SOL    HW190486   7.329   0.594   1.994
30154SOL    HW290487   7.311   0.526   2.142
30155SOL     OW90488   6.354   1.144   2.885
30155SOL    HW190489   6.276   1.161   2.945
30155SOL    HW290490   6.388   1.231   2.849
30156SOL     OW90491   6.436   0.798   3.685
30156SOL    HW190492   6.432   0.874   3.750
30156SOL    HW290493   6.458   0.834   3.594
30157SOL     OW90494   6.271   1.012   2.527
30157SOL    HW190495   6.340   0.996   2.597
30157SOL    HW290496   6.198   1.069   2.565
30158SOL     OW90497   6.272   1.161   3.665
30158SOL    HW190498   6.332   1.240   3.679
30158SOL    HW290499   6.186   1.192   3.624
30159SOL     OW90500   5.921   1.435   2.923
30159SOL    HW190501   5.843   1.404   2.870
30159SOL    HW290502   5.979   1.493   2.866
30160SOL     OW90503   7.046   1.505   3.201
30160SOL    HW190504   7.070   1.599   3.227
30160SOL    HW290505   7.030   1.451   3.283
30161SOL     OW90506   6.024   0.392   3.361
30161SOL    HW190507   6.106   0.336   3.370
30161SOL    HW290508   5.943   0.334   3.365
30162SOL     OW90509   7.189   0.447   2.599
30162SOL    HW190510   7.115   0.493   2.549
30162SOL    HW290511   7.240   0.515   2.652
30163SOL     OW90512   5.817   1.713   2.345
30163SOL    HW190513   5.851   1.790   2.399
30163SOL    HW290514   5.861   1.713   2.255
30164SOL     OW90515   6.713   1.341   3.552
30164SOL    HW190516   6.760   1.341   3.640
30164SOL    HW290517   6.665   1.254   3.541
30165SOL     OW90518   5.816   1.434   2.400
30165SOL    HW190519   5.790   1.530   2.400
30165SOL    HW290520   5.745   1.380   2.445
30166SOL     OW90521   5.826   1.091   2.748
30166SOL    HW190522   5.840   1.007   2.800
30166SOL    HW290523   5.771   1.155   2.803
30167SOL     OW90524   6.206   1.786   3.301
30167SOL    HW190525   6.114   1.769   3.336
30167SOL    HW290526   6.234   1.878   3.327
30168SOL     OW90527   6.192   0.964   1.985
30168SOL    HW190528   6.199   1.048   1.931
30168SOL    HW290529   6.238   0.977   2.073
30169SOL     OW90530   7.180   0.114   3.342
30169SOL    HW190531   7.162   0.181   3.270
30169SOL    HW290532   7.177   0.160   3.431
30170SOL     OW90533   5.708   0.643   2.425
30170SOL    HW190534   5.663   0.555   2.442
30170SOL    HW290535   5.707   0.697   2.509
30171SOL     OW90536   7.428   1.767   2.221
30171SOL    HW190537   7.482   1.738   2.301
30171SOL    HW290538   7.458   1.857   2.192
30172SOL     OW90539   5.613   1.596   1.979
30172SOL    HW190540   5.594   1.500   2.000
30172SOL    HW290541   5.580   1.654   2.054
30173SOL     OW90542   7.275   0.922   2.474
30173SOL    HW190543   7.370   0.893   2.482
30173SOL    HW290544   7.267   0.987   2.399
30174SOL     OW90545   7.227   1.108   2.294
30174SOL    HW190546   7.313   1.110   2.242
30174SOL    HW290547   7.241   1.155   2.382
30175SOL     OW90548   5.699   0.737   3.459
30175SOL    HW190549   5.787   0.724   3.504
30175SOL    HW290550   5.686   0.834   3.437
30176SOL     OW90551   6.199   1.365   2.588
30176SOL    HW190552   6.150   1.278   2.597
30176SOL    HW290553   6.176   1.408   2.501
30177SOL     OW90554   6.879   1.228   3.285
30177SOL    HW190555   6.916   1.155   3.227
30177SOL    HW290556   6.931   1.233   3.370
30178SOL     OW90557   6.395   0.004   2.364
30178SOL    HW190558   6.435   0.095   2.355
30178SOL    HW290559   6.295   0.012   2.370
30179SOL     OW90560   5.783   0.976   3.126
30179SOL    HW190561   5.872   0.931   3.112
30179SOL    HW290562   5.710   0.911   3.107
30180SOL     OW90563   7.111   0.999   2.052
30180SOL    HW190564   7.048   0.923   2.065
30180SOL    HW290565   7.159   1.017   2.138
30181SOL     OW90566   6.773   1.792   3.478
30181SOL    HW190567   6.797   1.852   3.402
30181SOL    HW290568   6.780   1.697   3.448
30182SOL     OW90569   5.903   0.251   3.663
30182SOL    HW190570   5.974   0.322   3.669
30182SOL    HW290571   5.815   0.290   3.691
30183SOL     OW90572   7.052   1.417   2.815
30183SOL    HW190573   6.993   1.423   2.895
30183SOL    HW290574   7.037   1.329   2.769
30184SOL     OW90575   7.253   1.714   2.434
30184SOL    HW190576   7.212   1.691   2.346
30184SOL    HW290577   7.235   1.640   2.499
30185SOL     OW90578   6.184   0.729   2.132
30185SOL    HW190579   6.208   0.798   2.064
30185SOL    HW290580   6.106   0.762   2.186
30186SOL     OW90581   6.867   0.345   2.806
30186SOL    HW190582   6.781   0.295   2.793
30186SOL    HW290583   6.929   0.291   2.862
30187SOL     OW90584   7.162   1.662   2.169
30187SOL    HW190585   7.251   1.708   2.172
30187SOL    HW290586   7.141   1.638   2.074
30188SOL     OW90587   6.393   0.605   3.327
30188SOL    HW190588   6.346   0.602   3.416
30188SOL    HW290589   6.342   0.550   3.261
30189SOL     OW90590   6.980   0.469   3.536
30189SOL    HW190591   6.960   0.512   3.624
30189SOL    HW290592   7.058   0.407   3.545
30190SOL     OW90593   6.559   0.890   3.434
30190SOL    HW190594   6.605   0.806   3.405
30190SOL    HW290595   6.503   0.924   3.359
30191SOL     OW90596   6.577   0.410   3.104
30191SOL    HW190597   6.500   0.444   3.158
30191SOL    HW290598   6.543   0.359   3.025
30192SOL     OW90599   6.627   0.701   2.291
30192SOL    HW190600   6.653   0.697   2.387
30192SOL    HW290601   6.542   0.650   2.277
30193SOL     OW90602   5.662   0.811   2.651
30193SOL    HW190603   5.761   0.799   2.660
30193SOL    HW290604   5.638   0.906   2.672
30194SOL     OW90605   5.716   1.821   3.433
30194SOL    HW190606   5.706   1.806   3.532
30194SOL    HW290607   5.630   1.857   3.397
30195SOL     OW90608   6.451   0.348   2.057
30195SOL    HW190609   6.510   0.411   2.008
30195SOL    HW290610   6.470   0.254   2.028
30196SOL     OW90611   7.305   0.585   3.693
30196SOL    HW190612   7.279   0.674   3.657
30196SOL    HW290613   7.303   0.517   3.620
30197SOL     OW90614   6.948   1.144   2.407
30197SOL    HW190615   7.031   1.115   2.359
30197SOL    HW290616   6.899   1.211   2.351
30198SOL     OW90617   6.136   0.196   2.747
30198SOL    HW190618   6.131   0.191   2.847
30198SOL    HW290619   6.138   0.292   2.718
30199SOL     OW90620   6.594   1.456   2.339
30199SOL    HW190621   6.548   1.528   2.287
30199SOL    HW290622   6.590   1.476   2.437
30200SOL     OW90623   5.937   1.801   2.715
30200SOL    HW190624   5.987   1.715   2.721
30200SOL    HW290625   6.002   1.878   2.712
30201SOL     OW90626   7.381   1.066   2.735
30201SOL    HW190627   7.319   1.051   2.659
30201SOL    HW290628   7.329   1.077   2.820
30202SOL     OW90629   6.813   1.550   3.368
30202SOL    HW190630   6.819   1.473   3.432
30202SOL    HW290631   6.761   1.524   3.288
30203SOL     OW90632   5.907   0.943   2.104
30203SOL    HW190633   5.989   0.982   2.062
30203SOL    HW290634   5.880   0.861   2.055
30204SOL     OW90635   7.044   0.735   2.590
30204SOL    HW190636   7.039   0.670   2.665
30204SOL    HW290637   7.124   0.794   2.603
30205SOL     OW90638   6.047   1.266   3.589
30205SOL    HW190639   5.997   1.267   3.503
30205SOL    HW290640   5.984   1.248   3.665
30206SOL     OW90641   6.697   1.776   2.099
30206SOL    HW190642   6.637   1.714   2.149
30206SOL    HW290643   6.728   1.732   2.014
30207SOL     OW90644   5.788   0.285   3.360
30207SOL    HW190645   5.708   0.345   3.347
30207SOL    HW290646   5.778   0.236   3.446
30208SOL     OW90647   7.218   1.377   1.943
30208SOL    HW190648   7.186   1.471   1.933
30208SOL    HW290649   7.142   1.314   1.931
30209SOL     OW90650   6.050   1.743   2.185
30209SOL    HW190651   6.083   1.782   2.271
30209SOL    HW290652   6.126   1.736   2.120
30210SOL     OW90653   6.986   0.107   2.288
30210SOL    HW190654   6.962   0.070   2.198
30210SOL    HW290655   7.085   0.123   2.292
30211SOL     OW90656   5.835   1.785   3.103
30211SOL    HW190657   5.892   1.720   3.153
30211SOL    HW290658   5.819   1.752   3.010
30212SOL     OW90659   6.526   1.698   2.766
30212SOL    HW190660   6.606   1.641   2.787
30212SOL    HW290661   6.477   1.658   2.689
30213SOL     OW90662   5.968   0.700   2.342
30213SOL    HW190663   6.013   0.610   2.339
30213SOL    HW290664   5.874   0.689   2.375
30214SOL     OW90665   7.133   0.222   3.591
30214SOL    HW190666   7.128   0.259   3.683
30214SOL    HW290667   7.061   0.153   3.579
30215SOL     OW90668   6.200   0.122   1.979
30215SOL    HW190669   6.298   0.100   1.986
30215SOL    HW290670   6.169   0.105   1.886
30216SOL     OW90671   6.367   0.264   3.611
30216SOL    HW190672   6.434   0.203   3.654
30216SOL    HW290673   6.294   0.283   3.676
30217SOL     OW90674   6.474   1.514   3.057
30217SOL    HW190675   6.451   1.489   2.963
30217SOL    HW290676   6.535   1.445   3.096
30218SOL     OW90677   6.937   0.590   3.295
30218SOL    HW190678   6.965   0.547   3.380
30218SOL    HW290679   6.962   0.686   3.296
30219SOL     OW90680   6.389   1.402   2.786
30219SOL    HW190681   6.479   1.416   2.744
30219SOL    HW290682   6.318   1.404   2.715
30220SOL     OW90683   6.508   0.503   2.761
30220SOL    HW190684   6.483   0.494   2.665
30220SOL    HW290685   6.556   0.421   2.792
30221SOL     OW90686   6.125   0.064   2.374
30221SOL    HW190687   6.044   0.065   2.432
30221SOL    HW290688   6.128   0.147   2.319
30222SOL     OW90689   7.020   1.188   1.903
30222SOL    HW190690   7.052   1.112   1.960
30222SOL    HW290691   6.928   1.215   1.933
30223SOL     OW90692   5.883   0.035   2.033
30223SOL    HW190693   5.932   0.119   2.012
30223SOL    HW290694   5.945  -0.030   2.078
30224SOL     OW90695   6.521   0.236   2.342
30224SOL    HW190696   6.473   0.277   2.264
30224SOL    HW290697   6.620   0.234   2.323
30225SOL     OW90698   6.662   0.683   3.326
30225SOL    HW190699   6.582   0.622   3.329
30225SOL    HW290700   6.743   0.630   3.302
30226SOL     OW90701   6.813   1.570   2.655
30226SOL    HW190702   6.834   1.644   2.590
30226SOL    HW290703   6.881   1.570   2.728
30227SOL     OW90704   6.045   1.152   2.603
30227SOL    HW190705   5.974   1.125   2.668
30227SOL    HW290706   6.019   1.124   2.510
30228SOL     OW90707   6.857   1.797   2.453
30228SOL    HW190708   6.901   1.861   2.389
30228SOL    HW290709   6.807   1.849   2.523
30229SOL     OW90710   6.618   0.549   1.878
30229SOL    HW190711   6.577   0.631   1.839
30229SOL    HW290712   6.682   0.575   1.951
30230SOL     OW90713   5.664   0.556   3.248
30230SOL    HW190714   5.756   0.555   3.207
30230SOL    HW290715   5.658   0.630   3.315
30231SOL     OW90716   6.147   0.222   3.009
30231SOL    HW190717   6.185   0.138   3.046
30231SOL    HW290718   6.059   0.241   3.053
30232SOL     OW90719   6.452   0.454   2.504
30232SOL    HW190720   6.420   0.526   2.442
30232SOL    HW290721   6.476   0.373   2.451
30233SOL     OW90722   6.603   0.039   2.615
30233SOL    HW190723   6.531   0.044   2.546
30233SOL    HW290724   6.579  -0.030   2.684
30234SOL     OW90725   7.015   1.173   2.729
30234SOL    HW190726   6.960   1.089   2.722
30234SOL    HW290727   7.041   1.202   2.637
30235SOL     OW90728   7.052   0.590   2.854
30235SOL    HW190729   7.022   0.495   2.861
30235SOL    HW290730   7.125   0.606   2.920
30236SOL     OW90731   7.443   0.833   2.239
30236SOL    HW190732   7.485   0.769   2.303
30236SOL    HW290733   7.405   0.782   2.161
30237SOL     OW90734   6.074   1.385   2.036
30237SOL    HW190735   5.987   1.370   2.083
30237SOL    HW290736   6.057   1.411   1.941
30238SOL     OW90737   7.250   1.280   2.519
30238SOL    HW190738   7.349   1.288   2.533
30238SOL    HW290739   7.205   1.364   2.550
30239SOL     OW90740   6.976   0.575   1.940
30239SOL    HW190741   6.922   0.554   2.021
30239SOL    HW290742   7.067   0.534   1.949
30240SOL     OW90743   6.113   0.256   2.190
30240SOL    HW190744   6.140   0.197   2.115
30240SOL    HW290745   6.113   0.351   2.159
30241SOL     OW90746   7.340   1.223   3.450
30241SOL    HW190747   7.431   1.184   3.437
30241SOL    HW290748   7.348   1.319   3.474
30242SOL     OW90749   6.650   1.347   3.202
30242SOL    HW190750   6.570   1.324   3.257
30242SOL    HW290751   6.733   1.321   3.251
30243SOL     OW90752   7.178   1.629   3.487
30243SOL    HW190753   7.205   1.663   3.397
30243SOL    HW290754   7.257   1.591   3.533
30244SOL     OW90755   6.697   1.195   2.962
30244SOL    HW190756   6.657   1.239   3.043
30244SOL    HW290757   6.656   1.232   2.879
30245SOL     OW90758   7.224   1.099   2.941
30245SOL    HW190759   7.229   1.180   3.000
30245SOL    HW290760   7.138   1.101   2.890
30246SOL     OW90761   6.501   0.089   3.264
30246SOL    HW190762   6.526   0.069   3.169
30246SOL    HW290763   6.573   0.145   3.306
30247SOL     OW90764   6.566   1.116   3.581
30247SOL    HW190765   6.467   1.122   3.591
30247SOL    HW290766   6.589   1.036   3.525
30248SOL     OW90767   6.291   1.050   2.230
30248SOL    HW190768   6.277   1.057   2.329
30248SOL    HW290769   6.375   0.999   2.212
30249SOL     OW90770   5.996   0.813   3.113
30249SOL    HW190771   6.082   0.825   3.163
30249SOL    HW290772   5.954   0.726   3.140
30250SOL     OW90773   6.860   0.386   3.124
30250SOL    HW190774   6.881   0.460   3.188
30250SOL    HW290775   6.771   0.403   3.081
30251SOL     OW90776   5.650   1.564   3.193
30251SOL    HW190777   5.604   1.646   3.159
30251SOL    HW290778   5.748   1.583   3.202
30252SOL     OW90779   5.953   1.100   2.363
30252SOL    HW190780   5.946   1.183   2.307
30252SOL    HW290781   5.957   1.020   2.303
30253SOL     OW90782   6.152   0.537   2.727
30253SOL    HW190783   6.164   0.603   2.653
30253SOL    HW290784   6.198   0.571   2.810
30254SOL     OW90785   6.838   1.348   2.250
30254SOL    HW190786   6.888   1.425   2.290
30254SOL    HW290787   6.743   1.350   2.282
30255SOL     OW90788   6.858   1.445   3.004
30255SOL    HW190789   6.905   1.458   3.091
30255SOL    HW290790   6.792   1.371   3.013
30256SOL     OW90791   7.168   0.639   2.334
30256SOL    HW190792   7.137   0.700   2.407
30256SOL    HW290793   7.218   0.691   2.265
30257SOL     OW90794   5.940   1.510   3.191
30257SOL    HW190795   5.919   1.466   3.104
30257SOL    HW290796   6.037   1.536   3.194
30258SOL     OW90797   5.988   0.751   3.460
30258SOL    HW190798   6.056   0.806   3.413
30258SOL    HW290799   6.028   0.663   3.487
30259SOL     OW90800   7.173   0.779   3.532
30259SOL    HW190801   7.081   0.817   3.527
30259SOL    HW290802   7.233   0.826   3.467
30260SOL     OW90803   6.599   0.105   3.632
30260SOL    HW190804   6.605   0.190   3.580
30260SOL    HW290805   6.631   0.029   3.575
30261SOL     OW90806   6.090   0.050   3.602
30261SOL    HW190807   6.048  -0.007   3.532
30261SOL    HW290808   6.024   0.119   3.634
30262SOL     OW90809   6.159   0.870   2.891
30262SOL    HW190810   6.203   0.959   2.882
30262SOL    HW290811   6.096   0.870   2.968
30263SOL     OW90812   6.946   0.862   2.907
30263SOL    HW190813   6.871   0.862   2.841
30263SOL    HW290814   6.983   0.770   2.916
30264SOL     OW90815   6.795   0.525   2.137
30264SOL    HW190816   6.808   0.441   2.191
30264SOL    HW290817   6.766   0.599   2.197
30265SOL     OW90818   5.893   0.213   3.093
30265SOL    HW190819   5.870   0.250   3.183
30265SOL    HW290820   5.863   0.118   3.087
30266SOL     OW90821   5.623   1.310   3.144
30266SOL    HW190822   5.676   1.261   3.212
30266SOL    HW290823   5.645   1.408   3.149
30267SOL     OW90824   6.318   0.634   2.926
30267SOL    HW190825   6.377   0.608   2.850
30267SOL    HW290826   6.290   0.730   2.915
30268SOL     OW90827   7.314   0.935   3.716
30268SOL    HW190828   7.268   0.928   3.627
30268SOL    HW290829   7.252   0.979   3.782
30269SOL     OW90830   5.893   0.063   2.480
30269SOL    HW190831   5.882   0.157   2.513
30269SOL    HW290832   5.888   0.000   2.557
30270SOL     OW90833   7.208   0.367   2.236
30270SOL    HW190834   7.210   0.291   2.300
30270SOL    HW290835   7.160   0.444   2.276
30271SOL     OW90836   6.609   0.766   2.828
30271SOL    HW190837   6.624   0.787   2.924
30271SOL    HW290838   6.579   0.671   2.819
30272SOL     OW90839   6.566   1.573   3.562
30272SOL    HW190840   6.546   1.617   3.474
30272SOL    HW290841   6.605   1.482   3.546
30273SOL     OW90842   7.445   1.518   3.467
30273SOL    HW190843   7.459   1.545   3.372
30273SOL    HW290844   7.528   1.540   3.520
30274SOL     OW90845   5.936   0.898   3.666
30274SOL    HW190846   6.012   0.942   3.714
30274SOL    HW290847   5.971   0.851   3.584
30275SOL     OW90848   7.126   0.274   1.987
30275SOL    HW190849   7.065   0.199   2.010
30275SOL    HW290850   7.148   0.326   2.070
30276SOL     OW90851   6.889   0.838   1.904
30276SOL    HW190852   6.923   0.745   1.919
30276SOL    HW290853   6.907   0.865   1.809
30277SOL     OW90854   6.654   1.333   2.711
30277SOL    HW190855   6.661   1.249   2.656
30277SOL    HW290856   6.716   1.402   2.675
30278SOL     OW90857   5.905   0.810   2.811
30278SOL    HW190858   5.998   0.846   2.816
30278SOL    HW290859   5.899   0.725   2.863
30279SOL     OW90860   5.925   0.509   2.868
30279SOL    HW190861   5.873   0.426   2.851
30279SOL    HW290862   6.002   0.514   2.804
30280SOL     OW90863   6.724   0.380   3.540
30280SOL    HW190864   6.679   0.443   3.604
30280SOL    HW290865   6.817   0.411   3.523
30281SOL     OW90866   6.746   0.207   3.339
30281SOL    HW190867   6.746   0.271   3.416
30281SOL    HW290868   6.774   0.255   3.256
30282SOL     OW90869   5.594   1.326   2.062
30282SOL    HW190870   5.501   1.347   2.031
30282SOL    HW290871   5.604   1.227   2.075
30283SOL     OW90872   5.674   1.801   2.789
30283SOL    HW190873   5.632   1.715   2.762
30283SOL    HW290874   5.768   1.804   2.755
30284SOL     OW90875   6.090   1.568   2.772
30284SOL    HW190876   6.156   1.642   2.781
30284SOL    HW290877   6.134   1.489   2.730
30285SOL     OW90878   6.588   0.796   3.100
30285SOL    HW190879   6.629   0.764   3.186
30285SOL    HW290880   6.492   0.769   3.097
30286SOL     OW90881   5.626   0.544   2.976
30286SOL    HW190882   5.711   0.511   2.935
30286SOL    HW290883   5.639   0.559   3.074
30287SOL     OW90884   5.775   0.520   3.584
30287SOL    HW190885   5.834   0.480   3.514
30287SOL    HW290886   5.717   0.591   3.543
30288SOL     OW90887   6.955   0.950   3.522
30288SOL    HW190888   6.994   1.039   3.542
30288SOL    HW290889   6.965   0.930   3.425
30289SOL     OW90890   6.401   0.572   2.187
30289SOL    HW190891   6.408   0.483   2.141
30289SOL    HW290892   6.307   0.606   2.179
30290SOL     OW90893   7.243   0.604   3.068
30290SOL    HW190894   7.205   0.535   3.130
30290SOL    HW290895   7.325   0.568   3.024
30291SOL     OW90896   5.838   1.564   3.606
30291SOL    HW190897   5.808   1.621   3.682
30291SOL    HW290898   5.831   1.467   3.632
30292SOL     OW90899   6.257   0.464   3.131
30292SOL    HW190900   6.223   0.375   3.101
30292SOL    HW290901   6.283   0.518   3.051
30293SOL     OW90902   6.516   1.678   3.327
30293SOL    HW190903   6.492   1.660   3.232
30293SOL    HW290904   6.546   1.772   3.337
30294SOL     OW90905   6.059   0.500   2.053
30294SOL    HW190906   6.120   0.580   2.057
30294SOL    HW290907   5.964   0.531   2.060
30295SOL     OW90908   5.745   1.137   3.328
30295SOL    HW190909   5.767   1.076   3.404
30295SOL    HW290910   5.755   1.088   3.242
30296SOL     OW90911   6.933   1.059   3.096
30296SOL    HW190912   6.957   0.996   3.022
30296SOL    HW290913   6.843   1.099   3.078
30297SOL     OW90914   6.888   0.855   2.171
30297SOL    HW190915   6.802   0.824   2.213
30297SOL    HW290916   6.884   0.841   2.072
30298SOL     OW90917   7.345   1.747   3.016
30298SOL    HW190918   7.406   1.777   2.943
30298SOL    HW290919   7.307   1.658   2.994
30299SOL     OW90920   6.838   1.731   2.990
30299SOL    HW190921   6.922   1.736   2.936
30299SOL    HW290922   6.815   1.635   3.008
30300SOL     OW90923   5.669   1.258   2.884
30300SOL    HW190924   5.664   1.257   2.984
30300SOL    HW290925   5.586   1.217   2.846
30301SOL     OW90926   6.274   1.662   3.578
30301SOL    HW190927   6.218   1.743   3.587
30301SOL    HW290928   6.326   1.666   3.492
30302SOL     OW90929   7.312   0.135   2.385
30302SOL    HW190930   7.385   0.118   2.318
30302SOL    HW290931   7.281   0.048   2.423
30303SOL     OW90932   6.974   1.573   2.339
30303SOL    HW190933   7.041   1.585   2.265
30303SOL    HW290934   6.934   1.662   2.362
30304SOL     OW90935   5.716   1.794   3.713
30304SOL    HW190936   5.675   1.720   3.766
30304SOL    HW290937   5.780   1.845   3.771
30305SOL     OW90938   6.866   0.927   2.534
30305SOL    HW190939   6.926   0.846   2.536
30305SOL    HW290940   6.906   0.996   2.474
30306SOL     OW90941   6.416   1.273   3.284
30306SOL    HW190942   6.411   1.306   3.379
30306SOL    HW290943   6.330   1.292   3.238
30307SOL     OW90944   6.258   1.616   2.016
30307SOL    HW190945   6.267   1.626   1.917
30307SOL    HW290946   6.218   1.527   2.037
30308SOL     OW90947   7.236   1.720   3.256
30308SOL    HW190948   7.289   1.730   3.172
30308SOL    HW290949   7.209   1.810   3.290
30309SOL     OW90950   7.427   0.175   2.825
30309SOL    HW190951   7.466   0.090   2.789
30309SOL    HW290952   7.329   0.177   2.806
30310SOL     OW90953   5.849   0.326   2.582
30310SOL    HW190954   5.770   0.377   2.548
30310SOL    HW290955   5.840   0.311   2.680
30311SOL     OW90956   6.780   1.612   1.893
30311SOL    HW190957   6.786   1.519   1.930
30311SOL    HW290958   6.721   1.612   1.813
30312SOL     OW90959   6.408   1.002   3.234
30312SOL    HW190960   6.448   1.001   3.142
30312SOL    HW290961   6.418   1.094   3.274
30313SOL     OW90962   6.502   0.910   2.153
30313SOL    HW190963   6.565   0.948   2.085
30313SOL    HW290964   6.542   0.827   2.192
30314SOL     OW90965   7.090   1.607   1.906
30314SOL    HW190966   6.998   1.644   1.913
30314SOL    HW290967   7.128   1.627   1.816
30315SOL     OW90968   5.958   1.288   3.352
30315SOL    HW190969   5.945   1.381   3.318
30315SOL    HW290970   5.874   1.236   3.339
30316SOL     OW90971   7.200   1.292   3.151
30316SOL    HW190972   7.260   1.295   3.231
30316SOL    HW290973   7.125   1.356   3.164
30317SOL     OW90974   6.625   1.098   2.558
30317SOL    HW190975   6.555   1.051   2.612
30317SOL    HW290976   6.684   1.030   2.515
30318SOL     OW90977   6.600   0.236   2.833
30318SOL    HW190978   6.592   0.200   2.740
30318SOL    HW290979   6.598   0.160   2.898
30319SOL     OW90980   6.176   1.487   2.353
30319SOL    HW190981   6.218   1.429   2.283
30319SOL    HW290982   6.132   1.566   2.309
30320SOL     OW90983   7.295   0.385   3.243
30320SOL    HW190984   7.368   0.454   3.247
30320SOL    HW290985   7.323   0.310   3.184
30321SOL     OW90986   5.841   1.348   2.152
30321SOL    HW190987   5.745   1.349   2.125
30321SOL    HW290988   5.853   1.401   2.236
30322SOL     OW90989   5.691   1.013   3.588
30322SOL    HW190990   5.614   0.980   3.642
30322SOL    HW290991   5.776   0.983   3.630
30323SOL     OW90992   6.258   0.203   3.351
30323SOL    HW190993   6.348   0.187   3.311
30323SOL    HW290994   6.266   0.208   3.450
30324SOL     OW90995   5.661   0.345   1.895
30324SOL    HW190996   5.569   0.317   1.866
30324SOL    HW290997   5.692   0.422   1.839
30325SOL     OW90998   7.026   0.856   3.260
30325SOL    HW190999   6.969   0.908   3.197
30325SOL    HW291000   7.122   0.868   3.236
30326SOL     OW91001   5.658   0.166   2.180
30326SOL    HW191002   5.641   0.249   2.126
30326SOL    HW291003   5.748   0.129   2.158
30327SOL     OW91004   6.769   1.335   1.981
30327SOL    HW191005   6.670   1.324   1.983
30327SOL    HW291006   6.803   1.350   2.074
30328SOL     OW91007   6.199   0.842   3.293
30328SOL    HW191008   6.255   0.923   3.276
30328SOL    HW291009   6.258   0.762   3.296
30329SOL     OW91010   7.079   1.767   2.821
30329SOL    HW191011   7.112   1.831   2.752
30329SOL    HW291012   7.145   1.761   2.896
30330SOL     OW91013   6.302   0.565   3.570
30330SOL    HW191014   6.321   0.630   3.644
30330SOL    HW291015   6.362   0.485   3.579
30331SOL     OW91016   7.036   1.220   3.495
30331SOL    HW191017   7.027   1.210   3.594
30331SOL    HW291018   7.132   1.213   3.469
30332SOL     OW91019   5.976   1.741   3.422
30332SOL    HW191020   5.885   1.782   3.420
30332SOL    HW291021   5.969   1.647   3.454
30333SOL     OW91022   7.260   0.883   3.116
30333SOL    HW191023   7.233   0.794   3.079
30333SOL    HW291024   7.261   0.951   3.043
30334SOL     OW91025   6.811   0.325   2.311
30334SOL    HW191026   6.876   0.251   2.300
30334SOL    HW291027   6.831   0.375   2.395
30335SOL     OW91028   6.180   0.745   2.514
30335SOL    HW191029   6.230   0.830   2.495
30335SOL    HW291030   6.092   0.747   2.466
30336SOL     OW91031   7.363   0.342   3.504
30336SOL    HW191032   7.346   0.373   3.410
30336SOL    HW291033   7.279   0.305   3.542
30337SOL     OW91034   7.316   0.934   3.379
30337SOL    HW191035   7.354   1.025   3.394
30337SOL    HW291036   7.308   0.917   3.280
30338SOL     OW91037   6.445   1.374   1.878
30338SOL    HW191038   6.399   1.389   1.966
30338SOL    HW291039   6.489   1.459   1.848
30339SOL     OW91040   6.247   1.790   2.815
30339SOL    HW191041   6.201   1.878   2.802
30339SOL    HW291042   6.346   1.802   2.808
30340SOL     OW91043   6.445   0.956   2.723
30340SOL    HW191044   6.499   0.887   2.771
30340SOL    HW291045   6.413   1.025   2.789
30341SOL     OW91046   6.669   0.984   1.949
30341SOL    HW191047   6.646   1.037   1.867
30341SOL    HW291048   6.750   0.928   1.930
30342SOL     OW91049   7.447   1.569   2.713
30342SOL    HW191050   7.376   1.557   2.643
30342SOL    HW291051   7.448   1.490   2.773
30343SOL     OW91052   5.807   1.314   3.706
30343SOL    HW191053   5.742   1.241   3.685
30343SOL    HW291054   5.811   1.328   3.804
30344SOL     OW91055   5.665   1.240   2.515
30344SOL    HW191056   5.664   1.193   2.603
30344SOL    HW291057   5.747   1.212   2.464
30345SOL     OW91058   6.258   1.391   3.486
30345SOL    HW191059   6.180   1.341   3.524
30345SOL    HW291060   6.255   1.486   3.517
30346SOL     OW91061   7.410   0.192   3.089
30346SOL    HW191062   7.406   0.102   3.133
30346SOL    HW291063   7.413   0.181   2.990
30347SOL     OW91064   6.014   0.424   2.382
30347SOL    HW191065   6.044   0.352   2.320
30347SOL    HW291066   5.975   0.384   2.465
30348SOL     OW91067   7.291   1.487   2.966
30348SOL    HW191068   7.198   1.462   2.939
30348SOL    HW291069   7.317   1.437   3.048
30349SOL     OW91070   5.903   0.547   3.142
30349SOL    HW191071   5.941   0.488   3.214
30349SOL    HW291072   5.943   0.521   3.054
30350SOL     OW91073   6.398   1.586   2.549
30350SOL    HW191074   6.430   1.596   2.455
30350SOL    HW291075   6.319   1.524   2.551
30351SOL     OW91076   7.010   0.214   2.974
30351SOL    HW191077   7.062   0.149   3.029
30351SOL    HW291078   6.961   0.277   3.035
30352SOL     OW91079   6.587   0.034   3.016
30352SOL    HW191080   6.524  -0.038   2.985
30352SOL    HW291081   6.680  -0.002   3.016
30353SOL     OW91082   6.356   1.330   2.163
30353SOL    HW191083   6.310   1.243   2.180
30353SOL    HW291084   6.447   1.327   2.204
30354SOL     OW91085   6.204   1.567   3.146
30354SOL    HW191086   6.199   1.649   3.203
30354SOL    HW291087   6.293   1.564   3.101
30355SOL     OW91088   6.938   0.052   2.030
30355SOL    HW191089   6.973   0.011   1.946
30355SOL    HW291090   6.848   0.014   2.050
30356SOL     OW91091   6.886   0.453   2.553
30356SOL    HW191092   6.827   0.533   2.557
30356SOL    HW291093   6.901   0.418   2.646
30357SOL     OW91094   7.179   0.221   2.744
30357SOL    HW191095   7.095   0.220   2.798
30357SOL    HW291096   7.181   0.304   2.688
30358SOL     OW91097   5.625   1.077   2.162
30358SOL    HW191098   5.724   1.066   2.153
30358SOL    HW291099   5.585   0.991   2.194
30359SOL     OW91100   6.461   1.646   2.199
30359SOL    HW191101   6.384   1.611   2.145
30359SOL    HW291102   6.429   1.717   2.261
30360SOL     OW91103   5.816   0.628   3.837
30360SOL    HW191104   5.723   0.626   3.874
30360SOL    HW291105   5.817   0.589   3.745
30361SOL     OW91106   5.811   0.275   4.720
30361SOL    HW191107   5.846   0.258   4.812
30361SOL    HW291108   5.723   0.230   4.708
30362SOL     OW91109   5.605   0.368   4.371
30362SOL    HW191110   5.523   0.411   4.410
30362SOL    HW291111   5.577   0.295   4.308
30363SOL     OW91112   6.155   1.275   4.889
30363SOL    HW191113   6.062   1.268   4.852
30363SOL    HW291114   6.166   1.364   4.933
30364SOL     OW91115   7.141   1.511   4.427
30364SOL    HW191116   7.084   1.495   4.508
30364SOL    HW291117   7.082   1.521   4.347
30365SOL     OW91118   6.721   0.703   4.441
30365SOL    HW191119   6.778   0.781   4.416
30365SOL    HW291120   6.661   0.729   4.517
30366SOL     OW91121   7.341   0.607   3.955
30366SOL    HW191122   7.329   0.594   3.856
30366SOL    HW291123   7.311   0.526   4.004
30367SOL     OW91124   6.354   1.144   4.747
30367SOL    HW191125   6.276   1.161   4.807
30367SOL    HW291126   6.388   1.231   4.711
30368SOL     OW91127   6.436   0.798   5.547
30368SOL    HW191128   6.432   0.874   5.612
30368SOL    HW291129   6.458   0.834   5.456
30369SOL     OW91130   6.271   1.012   4.389
30369SOL    HW191131   6.340   0.996   4.459
30369SOL    HW291132   6.198   1.069   4.427
30370SOL     OW91133   6.272   1.161   5.527
30370SOL    HW191134   6.332   1.240   5.541
30370SOL    HW291135   6.186   1.192   5.486
30371SOL     OW91136   5.921   1.435   4.785
30371SOL    HW191137   5.843   1.404   4.732
30371SOL    HW291138   5.979   1.493   4.728
30372SOL     OW91139   7.046   1.505   5.063
30372SOL    HW191140   7.070   1.599   5.089
30372SOL    HW291141   7.030   1.451   5.145
30373SOL     OW91142   6.024   0.392   5.223
30373SOL    HW191143   6.106   0.336   5.232
30373SOL    HW291144   5.943   0.334   5.227
30374SOL     OW91145   7.189   0.447   4.461
30374SOL    HW191146   7.115   0.493   4.411
30374SOL    HW291147   7.240   0.515   4.514
30375SOL     OW91148   5.817   1.713   4.207
30375SOL    HW191149   5.851   1.790   4.261
30375SOL    HW291150   5.861   1.713   4.117
30376SOL     OW91151   6.713   1.341   5.414
30376SOL    HW191152   6.760   1.341   5.502
30376SOL    HW291153   6.665   1.254   5.403
30377SOL     OW91154   5.816   1.434   4.262
30377SOL    HW191155   5.790   1.530   4.262
30377SOL    HW291156   5.745   1.380   4.307
30378SOL     OW91157   5.826   1.091   4.610
30378SOL    HW191158   5.840   1.007   4.662
30378SOL    HW291159   5.771   1.155   4.665
30379SOL     OW91160   6.206   1.786   5.163
30379SOL    HW191161   6.114   1.769   5.198
30379SOL    HW291162   6.234   1.878   5.189
30380SOL     OW91163   6.192   0.964   3.847
30380SOL    HW191164   6.199   1.048   3.793
30380SOL    HW291165   6.238   0.977   3.935
30381SOL     OW91166   7.180   0.114   5.204
30381SOL    HW191167   7.162   0.181   5.132
30381SOL    HW291168   7.177   0.160   5.293
30382SOL     OW91169   5.708   0.643   4.287
30382SOL    HW191170   5.663   0.555   4.304
30382SOL    HW291171   5.707   0.697   4.371
30383SOL     OW91172   7.428   1.767   4.083
30383SOL    HW191173   7.482   1.738   4.163
30383SOL    HW291174   7.458   1.857   4.054
30384SOL     OW91175   5.613   1.596   3.841
30384SOL    HW191176   5.594   1.500   3.862
30384SOL    HW291177   5.580   1.654   3.916
30385SOL     OW91178   7.275   0.922   4.336
30385SOL    HW191179   7.370   0.893   4.344
30385SOL    HW291180   7.267   0.987   4.261
30386SOL     OW91181   7.227   1.108   4.156
30386SOL    HW191182   7.313   1.110   4.104
30386SOL    HW291183   7.241   1.155   4.244
30387SOL     OW91184   5.699   0.737   5.321
30387SOL    HW191185   5.787   0.724   5.366
30387SOL    HW291186   5.686   0.834   5.299
30388SOL     OW91187   6.199   1.365   4.450
30388SOL    HW191188   6.150   1.278   4.459
30388SOL    HW291189   6.176   1.408   4.363
30389SOL     OW91190   6.879   1.228   5.147
30389SOL    HW191191   6.916   1.155   5.089
30389SOL    HW291192   6.931   1.233   5.232
30390SOL     OW91193   6.395   0.004   4.226
30390SOL    HW191194   6.435   0.095   4.217
30390SOL    HW291195   6.295   0.012   4.232
30391SOL     OW91196   5.783   0.976   4.988
30391SOL    HW191197   5.872   0.931   4.974
30391SOL    HW291198   5.710   0.911   4.969
30392SOL     OW91199   7.111   0.999   3.914
30392SOL    HW191200   7.048   0.923   3.927
30392SOL    HW291201   7.159   1.017   4.000
30393SOL     OW91202   6.773   1.792   5.340
30393SOL    HW191203   6.797   1.852   5.264
30393SOL    HW291204   6.780   1.697   5.310
30394SOL     OW91205   5.903   0.251   5.525
30394SOL    HW191206   5.974   0.322   5.531
30394SOL    HW291207   5.815   0.290   5.553
30395SOL     OW91208   7.052   1.417   4.677
30395SOL    HW191209   6.993   1.423   4.757
30395SOL    HW291210   7.037   1.329   4.631
30396SOL     OW91211   7.253   1.714   4.296
30396SOL    HW191212   7.212   1.691   4.208
30396SOL    HW291213   7.235   1.640   4.361
30397SOL     OW91214   6.184   0.729   3.994
30397SOL    HW191215   6.208   0.798   3.926
30397SOL    HW291216   6.106   0.762   4.048
30398SOL     OW91217   7.162   1.662   4.031
30398SOL    HW191218   7.251   1.708   4.034
30398SOL    HW291219   7.141   1.638   3.936
30399SOL     OW91220   6.393   0.605   5.189
30399SOL    HW191221   6.346   0.602   5.278
30399SOL    HW291222   6.342   0.550   5.123
30400SOL     OW91223   6.980   0.469   5.398
30400SOL    HW191224   6.960   0.512   5.486
30400SOL    HW291225   7.058   0.407   5.407
30401SOL     OW91226   6.559   0.890   5.296
30401SOL    HW191227   6.605   0.806   5.267
30401SOL    HW291228   6.503   0.924   5.221
30402SOL     OW91229   6.577   0.410   4.966
30402SOL    HW191230   6.500   0.444   5.020
30402SOL    HW291231   6.543   0.359   4.887
30403SOL     OW91232   6.627   0.701   4.153
30403SOL    HW191233   6.653   0.697   4.249
30403SOL    HW291234   6.542   0.650   4.139
30404SOL     OW91235   5.662   0.811   4.513
30404SOL    HW191236   5.761   0.799   4.522
30404SOL    HW291237   5.638   0.906   4.534
30405SOL     OW91238   5.716   1.821   5.295
30405SOL    HW191239   5.706   1.806   5.394
30405SOL    HW291240   5.630   1.857   5.259
30406SOL     OW91241   6.451   0.348   3.919
30406SOL    HW191242   6.510   0.411   3.870
30406SOL    HW291243   6.470   0.254   3.890
30407SOL     OW91244   7.305   0.585   5.555
30407SOL    HW191245   7.279   0.674   5.519
30407SOL    HW291246   7.303   0.517   5.482
30408SOL     OW91247   6.948   1.144   4.269
30408SOL    HW191248   7.031   1.115   4.221
30408SOL    HW291249   6.899   1.211   4.213
30409SOL     OW91250   6.136   0.196   4.609
30409SOL    HW191251   6.131   0.191   4.709
30409SOL    HW291252   6.138   0.292   4.580
30410SOL     OW91253   6.594   1.456   4.201
30410SOL    HW191254   6.548   1.528   4.149
30410SOL    HW291255   6.590   1.476   4.299
30411SOL     OW91256   5.937   1.801   4.577
30411SOL    HW191257   5.987   1.715   4.583
30411SOL    HW291258   6.002   1.878   4.574
30412SOL     OW91259   7.381   1.066   4.597
30412SOL    HW191260   7.319   1.051   4.521
30412SOL    HW291261   7.329   1.077   4.682
30413SOL     OW91262   6.813   1.550   5.230
30413SOL    HW191263   6.819   1.473   5.294
30413SOL    HW291264   6.761   1.524   5.150
30414SOL     OW91265   5.907   0.943   3.966
30414SOL    HW191266   5.989   0.982   3.924
30414SOL    HW291267   5.880   0.861   3.917
30415SOL     OW91268   7.044   0.735   4.452
30415SOL    HW191269   7.039   0.670   4.527
30415SOL    HW291270   7.124   0.794   4.465
30416SOL     OW91271   6.047   1.266   5.451
30416SOL    HW191272   5.997   1.267   5.365
30416SOL    HW291273   5.984   1.248   5.527
30417SOL     OW91274   6.697   1.776   3.961
30417SOL    HW191275   6.637   1.714   4.011
30417SOL    HW291276   6.728   1.732   3.876
30418SOL     OW91277   5.788   0.285   5.222
30418SOL    HW191278   5.708   0.345   5.209
30418SOL    HW291279   5.778   0.236   5.308
30419SOL     OW91280   7.218   1.377   3.805
30419SOL    HW191281   7.186   1.471   3.795
30419SOL    HW291282   7.142   1.314   3.793
30420SOL     OW91283   6.050   1.743   4.047
30420SOL    HW191284   6.083   1.782   4.133
30420SOL    HW291285   6.126   1.736   3.982
30421SOL     OW91286   6.986   0.107   4.150
30421SOL    HW191287   6.962   0.070   4.060
30421SOL    HW291288   7.085   0.123   4.154
30422SOL     OW91289   5.835   1.785   4.965
30422SOL    HW191290   5.892   1.720   5.015
30422SOL    HW291291   5.819   1.752   4.872
30423SOL     OW91292   6.526   1.698   4.628
30423SOL    HW191293   6.606   1.641   4.649
30423SOL    HW291294   6.477   1.658   4.551
30424SOL     OW91295   5.968   0.700   4.204
30424SOL    HW191296   6.013   0.610   4.201
30424SOL    HW291297   5.874   0.689   4.237
30425SOL     OW91298   7.133   0.222   5.453
30425SOL    HW191299   7.128   0.259   5.545
30425SOL    HW291300   7.061   0.153   5.441
30426SOL     OW91301   6.200   0.122   3.841
30426SOL    HW191302   6.298   0.100   3.848
30426SOL    HW291303   6.169   0.105   3.748
30427SOL     OW91304   6.367   0.264   5.473
30427SOL    HW191305   6.434   0.203   5.516
30427SOL    HW291306   6.294   0.283   5.538
30428SOL     OW91307   6.474   1.514   4.919
30428SOL    HW191308   6.451   1.489   4.825
30428SOL    HW291309   6.535   1.445   4.958
30429SOL     OW91310   6.937   0.590   5.157
30429SOL    HW191311   6.965   0.547   5.242
30429SOL    HW291312   6.962   0.686   5.158
30430SOL     OW91313   6.389   1.402   4.648
30430SOL    HW191314   6.479   1.416   4.606
30430SOL    HW291315   6.318   1.404   4.577
30431SOL     OW91316   6.508   0.503   4.623
30431SOL    HW191317   6.483   0.494   4.527
30431SOL    HW291318   6.556   0.421   4.654
30432SOL     OW91319   6.125   0.064   4.236
30432SOL    HW191320   6.044   0.065   4.294
30432SOL    HW291321   6.128   0.147   4.181
30433SOL     OW91322   7.020   1.188   3.765
30433SOL    HW191323   7.052   1.112   3.822
30433SOL    HW291324   6.928   1.215   3.795
30434SOL     OW91325   5.883   0.035   3.895
30434SOL    HW191326   5.932   0.119   3.874
30434SOL    HW291327   5.945  -0.030   3.940
30435SOL     OW91328   6.521   0.236   4.204
30435SOL    HW191329   6.473   0.277   4.126
30435SOL    HW291330   6.620   0.234   4.185
30436SOL     OW91331   6.662   0.683   5.188
30436SOL    HW191332   6.582   0.622   5.191
30436SOL    HW291333   6.743   0.630   5.164
30437SOL     OW91334   6.813   1.570   4.517
30437SOL    HW191335   6.834   1.644   4.452
30437SOL    HW291336   6.881   1.570   4.590
30438SOL     OW91337   6.045   1.152   4.465
30438SOL    HW191338   5.974   1.125   4.530
30438SOL    HW291339   6.019   1.124   4.372
30439SOL     OW91340   6.857   1.797   4.315
30439SOL    HW191341   6.901   1.861   4.251
30439SOL    HW291342   6.807   1.849   4.385
30440SOL     OW91343   6.618   0.549   3.740
30440SOL    HW191344   6.577   0.631   3.701
30440SOL    HW291345   6.682   0.575   3.813
30441SOL     OW91346   5.664   0.556   5.110
30441SOL    HW191347   5.756   0.555   5.069
30441SOL    HW291348   5.658   0.630   5.177
30442SOL     OW91349   6.147   0.222   4.871
30442SOL    HW191350   6.185   0.138   4.908
30442SOL    HW291351   6.059   0.241   4.915
30443SOL     OW91352   6.452   0.454   4.366
30443SOL    HW191353   6.420   0.526   4.304
30443SOL    HW291354   6.476   0.373   4.313
30444SOL     OW91355   6.603   0.039   4.477
30444SOL    HW191356   6.531   0.044   4.408
30444SOL    HW291357   6.579  -0.030   4.546
30445SOL     OW91358   7.015   1.173   4.591
30445SOL    HW191359   6.960   1.089   4.584
30445SOL    HW291360   7.041   1.202   4.499
30446SOL     OW91361   7.052   0.590   4.716
30446SOL    HW191362   7.022   0.495   4.723
30446SOL    HW291363   7.125   0.606   4.782
30447SOL     OW91364   7.443   0.833   4.101
30447SOL    HW191365   7.485   0.769   4.165
30447SOL    HW291366   7.405   0.782   4.023
30448SOL     OW91367   6.074   1.385   3.898
30448SOL    HW191368   5.987   1.370   3.945
30448SOL    HW291369   6.057   1.411   3.803
30449SOL     OW91370   7.250   1.280   4.381
30449SOL    HW191371   7.349   1.288   4.395
30449SOL    HW291372   7.205   1.364   4.412
30450SOL     OW91373   6.976   0.575   3.802
30450SOL    HW191374   6.922   0.554   3.883
30450SOL    HW291375   7.067   0.534   3.811
30451SOL     OW91376   6.113   0.256   4.052
30451SOL    HW191377   6.140   0.197   3.977
30451SOL    HW291378   6.113   0.351   4.021
30452SOL     OW91379   7.340   1.223   5.312
30452SOL    HW191380   7.431   1.184   5.299
30452SOL    HW291381   7.348   1.319   5.336
30453SOL     OW91382   6.650   1.347   5.064
30453SOL    HW191383   6.570   1.324   5.119
30453SOL    HW291384   6.733   1.321   5.113
30454SOL     OW91385   7.178   1.629   5.349
30454SOL    HW191386   7.205   1.663   5.259
30454SOL    HW291387   7.257   1.591   5.395
30455SOL     OW91388   6.697   1.195   4.824
30455SOL    HW191389   6.657   1.239   4.905
30455SOL    HW291390   6.656   1.232   4.741
30456SOL     OW91391   7.224   1.099   4.803
30456SOL    HW191392   7.229   1.180   4.862
30456SOL    HW291393   7.138   1.101   4.752
30457SOL     OW91394   6.501   0.089   5.126
30457SOL    HW191395   6.526   0.069   5.031
30457SOL    HW291396   6.573   0.145   5.168
30458SOL     OW91397   6.566   1.116   5.443
30458SOL    HW191398   6.467   1.122   5.453
30458SOL    HW291399   6.589   1.036   5.387
30459SOL     OW91400   6.291   1.050   4.092
30459SOL    HW191401   6.277   1.057   4.191
30459SOL    HW291402   6.375   0.999   4.074
30460SOL     OW91403   5.996   0.813   4.975
30460SOL    HW191404   6.082   0.825   5.025
30460SOL    HW291405   5.954   0.726   5.002
30461SOL     OW91406   6.860   0.386   4.986
30461SOL    HW191407   6.881   0.460   5.050
30461SOL    HW291408   6.771   0.403   4.943
30462SOL     OW91409   5.650   1.564   5.055
30462SOL    HW191410   5.604   1.646   5.021
30462SOL    HW291411   5.748   1.583   5.064
30463SOL     OW91412   5.953   1.100   4.225
30463SOL    HW191413   5.946   1.183   4.169
30463SOL    HW291414   5.957   1.020   4.165
30464SOL     OW91415   6.152   0.537   4.589
30464SOL    HW191416   6.164   0.603   4.515
30464SOL    HW291417   6.198   0.571   4.672
30465SOL     OW91418   6.838   1.348   4.112
30465SOL    HW191419   6.888   1.425   4.152
30465SOL    HW291420   6.743   1.350   4.144
30466SOL     OW91421   6.858   1.445   4.866
30466SOL    HW191422   6.905   1.458   4.953
30466SOL    HW291423   6.792   1.371   4.875
30467SOL     OW91424   7.168   0.639   4.196
30467SOL    HW191425   7.137   0.700   4.269
30467SOL    HW291426   7.218   0.691   4.127
30468SOL     OW91427   5.940   1.510   5.053
30468SOL    HW191428   5.919   1.466   4.966
30468SOL    HW291429   6.037   1.536   5.056
30469SOL     OW91430   5.988   0.751   5.322
30469SOL    HW191431   6.056   0.806   5.275
30469SOL    HW291432   6.028   0.663   5.349
30470SOL     OW91433   7.173   0.779   5.394
30470SOL    HW191434   7.081   0.817   5.389
30470SOL    HW291435   7.233   0.826   5.329
30471SOL     OW91436   6.599   0.105   5.494
30471SOL    HW191437   6.605   0.190   5.442
30471SOL    HW291438   6.631   0.029   5.437
30472SOL     OW91439   6.090   0.050   5.464
30472SOL    HW191440   6.048  -0.007   5.394
30472SOL    HW291441   6.024   0.119   5.496
30473SOL     OW91442   6.159   0.870   4.753
30473SOL    HW191443   6.203   0.959   4.744
30473SOL    HW291444   6.096   0.870   4.830
30474SOL     OW91445   6.946   0.862   4.769
30474SOL    HW191446   6.871   0.862   4.703
30474SOL    HW291447   6.983   0.770   4.778
30475SOL     OW91448   6.795   0.525   3.999
30475SOL    HW191449   6.808   0.441   4.053
30475SOL    HW291450   6.766   0.599   4.059
30476SOL     OW91451   5.893   0.213   4.955
30476SOL    HW191452   5.870   0.250   5.045
30476SOL    HW291453   5.863   0.118   4.949
30477SOL     OW91454   5.623   1.310   5.006
30477SOL    HW191455   5.676   1.261   5.074
30477SOL    HW291456   5.645   1.408   5.011
30478SOL     OW91457   6.318   0.634   4.788
30478SOL    HW191458   6.377   0.608   4.712
30478SOL    HW291459   6.290   0.730   4.777
30479SOL     OW91460   7.314   0.935   5.578
30479SOL    HW191461   7.268   0.928   5.489
30479SOL    HW291462   7.252   0.979   5.644
30480SOL     OW91463   5.893   0.063   4.342
30480SOL    HW191464   5.882   0.157   4.375
30480SOL    HW291465   5.888   0.000   4.419
30481SOL     OW91466   7.208   0.367   4.098
30481SOL    HW191467   7.210   0.291   4.162
30481SOL    HW291468   7.160   0.444   4.138
30482SOL     OW91469   6.609   0.766   4.690
30482SOL    HW191470   6.624   0.787   4.786
30482SOL    HW291471   6.579   0.671   4.681
30483SOL     OW91472   6.566   1.573   5.424
30483SOL    HW191473   6.546   1.617   5.336
30483SOL    HW291474   6.605   1.482   5.408
30484SOL     OW91475   7.445   1.518   5.329
30484SOL    HW191476   7.459   1.545   5.234
30484SOL    HW291477   7.528   1.540   5.382
30485SOL     OW91478   5.936   0.898   5.528
30485SOL    HW191479   6.012   0.942   5.576
30485SOL    HW291480   5.971   0.851   5.446
30486SOL     OW91481   7.126   0.274   3.849
30486SOL    HW191482   7.065   0.199   3.872
30486SOL    HW291483   7.148   0.326   3.932
30487SOL     OW91484   6.889   0.838   3.766
30487SOL    HW191485   6.923   0.745   3.781
30487SOL    HW291486   6.907   0.865   3.671
30488SOL     OW91487   6.654   1.333   4.573
30488SOL    HW191488   6.661   1.249   4.518
30488SOL    HW291489   6.716   1.402   4.537
30489SOL     OW91490   5.905   0.810   4.673
30489SOL    HW191491   5.998   0.846   4.678
30489SOL    HW291492   5.899   0.725   4.725
30490SOL     OW91493   5.925   0.509   4.730
30490SOL    HW191494   5.873   0.426   4.713
30490SOL    HW291495   6.002   0.514   4.666
30491SOL     OW91496   6.724   0.380   5.402
30491SOL    HW191497   6.679   0.443   5.466
30491SOL    HW291498   6.817   0.411   5.385
30492SOL     OW91499   6.746   0.207   5.201
30492SOL    HW191500   6.746   0.271   5.278
30492SOL    HW291501   6.774   0.255   5.118
30493SOL     OW91502   5.594   1.326   3.924
30493SOL    HW191503   5.501   1.347   3.893
30493SOL    HW291504   5.604   1.227   3.937
30494SOL     OW91505   5.674   1.801   4.651
30494SOL    HW191506   5.632   1.715   4.624
30494SOL    HW291507   5.768   1.804   4.617
30495SOL     OW91508   6.090   1.568   4.634
30495SOL    HW191509   6.156   1.642   4.643
30495SOL    HW291510   6.134   1.489   4.592
30496SOL     OW91511   6.588   0.796   4.962
30496SOL    HW191512   6.629   0.764   5.048
30496SOL    HW291513   6.492   0.769   4.959
30497SOL     OW91514   5.626   0.544   4.838
30497SOL    HW191515   5.711   0.511   4.797
30497SOL    HW291516   5.639   0.559   4.936
30498SOL     OW91517   5.775   0.520   5.446
30498SOL    HW191518   5.834   0.480   5.376
30498SOL    HW291519   5.717   0.591   5.405
30499SOL     OW91520   6.955   0.950   5.384
30499SOL    HW191521   6.994   1.039   5.404
30499SOL    HW291522   6.965   0.930   5.287
30500SOL     OW91523   6.401   0.572   4.049
30500SOL    HW191524   6.408   0.483   4.003
30500SOL    HW291525   6.307   0.606   4.041
30501SOL     OW91526   7.243   0.604   4.930
30501SOL    HW191527   7.205   0.535   4.992
30501SOL    HW291528   7.325   0.568   4.886
30502SOL     OW91529   5.838   1.564   5.468
30502SOL    HW191530   5.808   1.621   5.544
30502SOL    HW291531   5.831   1.467   5.494
30503SOL     OW91532   6.257   0.464   4.993
30503SOL    HW191533   6.223   0.375   4.963
30503SOL    HW291534   6.283   0.518   4.913
30504SOL     OW91535   6.516   1.678   5.189
30504SOL    HW191536   6.492   1.660   5.094
30504SOL    HW291537   6.546   1.772   5.199
30505SOL     OW91538   6.059   0.500   3.915
30505SOL    HW191539   6.120   0.580   3.919
30505SOL    HW291540   5.964   0.531   3.922
30506SOL     OW91541   5.745   1.137   5.190
30506SOL    HW191542   5.767   1.076   5.266
30506SOL    HW291543   5.755   1.088   5.104
30507SOL     OW91544   6.933   1.059   4.958
30507SOL    HW191545   6.957   0.996   4.884
30507SOL    HW291546   6.843   1.099   4.940
30508SOL     OW91547   6.888   0.855   4.033
30508SOL    HW191548   6.802   0.824   4.075
30508SOL    HW291549   6.884   0.841   3.934
30509SOL     OW91550   7.345   1.747   4.878
30509SOL    HW191551   7.406   1.777   4.805
30509SOL    HW291552   7.307   1.658   4.856
30510SOL     OW91553   6.838   1.731   4.852
30510SOL    HW191554   6.922   1.736   4.798
30510SOL    HW291555   6.815   1.635   4.870
30511SOL     OW91556   5.669   1.258   4.746
30511SOL    HW191557   5.664   1.257   4.846
30511SOL    HW291558   5.586   1.217   4.708
30512SOL     OW91559   6.274   1.662   5.440
30512SOL    HW191560   6.218   1.743   5.449
30512SOL    HW291561   6.326   1.666   5.354
30513SOL     OW91562   7.312   0.135   4.247
30513SOL    HW191563   7.385   0.118   4.180
30513SOL    HW291564   7.281   0.048   4.285
30514SOL     OW91565   6.974   1.573   4.201
30514SOL    HW191566   7.041   1.585   4.127
30514SOL    HW291567   6.934   1.662   4.224
30515SOL     OW91568   5.716   1.794   5.575
30515SOL    HW191569   5.675   1.720   5.628
30515SOL    HW291570   5.780   1.845   5.633
30516SOL     OW91571   6.866   0.927   4.396
30516SOL    HW191572   6.926   0.846   4.398
30516SOL    HW291573   6.906   0.996   4.336
30517SOL     OW91574   6.416   1.273   5.146
30517SOL    HW191575   6.411   1.306   5.241
30517SOL    HW291576   6.330   1.292   5.100
30518SOL     OW91577   6.258   1.616   3.878
30518SOL    HW191578   6.267   1.626   3.779
30518SOL    HW291579   6.218   1.527   3.899
30519SOL     OW91580   7.236   1.720   5.118
30519SOL    HW191581   7.289   1.730   5.034
30519SOL    HW291582   7.209   1.810   5.152
30520SOL     OW91583   7.427   0.175   4.687
30520SOL    HW191584   7.466   0.090   4.651
30520SOL    HW291585   7.329   0.177   4.668
30521SOL     OW91586   5.849   0.326   4.444
30521SOL    HW191587   5.770   0.377   4.410
30521SOL    HW291588   5.840   0.311   4.542
30522SOL     OW91589   6.780   1.612   3.755
30522SOL    HW191590   6.786   1.519   3.792
30522SOL    HW291591   6.721   1.612   3.675
30523SOL     OW91592   6.408   1.002   5.096
30523SOL    HW191593   6.448   1.001   5.004
30523SOL    HW291594   6.418   1.094   5.136
30524SOL     OW91595   6.502   0.910   4.015
30524SOL    HW191596   6.565   0.948   3.947
30524SOL    HW291597   6.542   0.827   4.054
30525SOL     OW91598   7.090   1.607   3.768
30525SOL    HW191599   6.998   1.644   3.775
30525SOL    HW291600   7.128   1.627   3.678
30526SOL     OW91601   5.958   1.288   5.214
30526SOL    HW191602   5.945   1.381   5.180
30526SOL    HW291603   5.874   1.236   5.201
30527SOL     OW91604   7.200   1.292   5.013
30527SOL    HW191605   7.260   1.295   5.093
30527SOL    HW291606   7.125   1.356   5.026
30528SOL     OW91607   6.625   1.098   4.420
30528SOL    HW191608   6.555   1.051   4.474
30528SOL    HW291609   6.684   1.030   4.377
30529SOL     OW91610   6.600   0.236   4.695
30529SOL    HW191611   6.592   0.200   4.602
30529SOL    HW291612   6.598   0.160   4.760
30530SOL     OW91613   6.176   1.487   4.215
30530SOL    HW191614   6.218   1.429   4.145
30530SOL    HW291615   6.132   1.566   4.171
30531SOL     OW91616   7.295   0.385   5.105
30531SOL    HW191617   7.368   0.454   5.109
30531SOL    HW291618   7.323   0.310   5.046
30532SOL     OW91619   5.841   1.348   4.014
30532SOL    HW191620   5.745   1.349   3.987
30532SOL    HW291621   5.853   1.401   4.098
30533SOL     OW91622   5.691   1.013   5.450
30533SOL    HW191623   5.614   0.980   5.504
30533SOL    HW291624   5.776   0.983   5.492
30534SOL     OW91625   6.258   0.203   5.213
30534SOL    HW191626   6.348   0.187   5.173
30534SOL    HW291627   6.266   0.208   5.312
30535SOL     OW91628   5.661   0.345   3.757
30535SOL    HW191629   5.569   0.317   3.728
30535SOL    HW291630   5.692   0.422   3.701
30536SOL     OW91631   7.026   0.856   5.122
30536SOL    HW191632   6.969   0.908   5.059
30536SOL    HW291633   7.122   0.868   5.098
30537SOL     OW91634   5.658   0.166   4.042
30537SOL    HW191635   5.641   0.249   3.988
30537SOL    HW291636   5.748   0.129   4.020
30538SOL     OW91637   6.769   1.335   3.843
30538SOL    HW191638   6.670   1.324   3.845
30538SOL    HW291639   6.803   1.350   3.936
30539SOL     OW91640   6.199   0.842   5.155
30539SOL    HW191641   6.255   0.923   5.138
30539SOL    HW291642   6.258   0.762   5.158
30540SOL     OW91643   7.079   1.767   4.683
30540SOL    HW191644   7.112   1.831   4.614
30540SOL    HW291645   7.145   1.761   4.758
30541SOL     OW91646   6.302   0.565   5.432
30541SOL    HW191647   6.321   0.630   5.506
30541SOL    HW291648   6.362   0.485   5.441
30542SOL     OW91649   7.036   1.220   5.357
30542SOL    HW191650   7.027   1.210   5.456
30542SOL    HW291651   7.132   1.213   5.331
30543SOL     OW91652   5.976   1.741   5.284
30543SOL    HW191653   5.885   1.782   5.282
30543SOL    HW291654   5.969   1.647   5.316
30544SOL     OW91655   7.260   0.883   4.978
30544SOL    HW191656   7.233   0.794   4.941
30544SOL    HW291657   7.261   0.951   4.905
30545SOL     OW91658   6.811   0.325   4.173
30545SOL    HW191659   6.876   0.251   4.162
30545SOL    HW291660   6.831   0.375   4.257
30546SOL     OW91661   6.180   0.745   4.376
30546SOL    HW191662   6.230   0.830   4.357
30546SOL    HW291663   6.092   0.747   4.328
30547SOL     OW91664   7.363   0.342   5.366
30547SOL    HW191665   7.346   0.373   5.272
30547SOL    HW291666   7.279   0.305   5.404
30548SOL     OW91667   7.316   0.934   5.241
30548SOL    HW191668   7.354   1.025   5.256
30548SOL    HW291669   7.308   0.917   5.142
30549SOL     OW91670   6.445   1.374   3.740
30549SOL    HW191671   6.399   1.389   3.828
30549SOL    HW291672   6.489   1.459   3.710
30550SOL     OW91673   6.247   1.790   4.677
30550SOL    HW191674   6.201   1.878   4.664
30550SOL    HW291675   6.346   1.802   4.670
30551SOL     OW91676   6.445   0.956   4.585
30551SOL    HW191677   6.499   0.887   4.633
30551SOL    HW291678   6.413   1.025   4.651
30552SOL     OW91679   6.669   0.984   3.811
30552SOL    HW191680   6.646   1.037   3.729
30552SOL    HW291681   6.750   0.928   3.792
30553SOL     OW91682   7.447   1.569   4.575
30553SOL    HW191683   7.376   1.557   4.505
30553SOL    HW291684   7.448   1.490   4.635
30554SOL     OW91685   5.807   1.314   5.568
30554SOL    HW191686   5.742   1.241   5.547
30554SOL    HW291687   5.811   1.328   5.666
30555SOL     OW91688   5.665   1.240   4.377
30555SOL    HW191689   5.664   1.193   4.465
30555SOL    HW291690   5.747   1.212   4.326
30556SOL     OW91691   6.258   1.391   5.348
30556SOL    HW191692   6.180   1.341   5.386
30556SOL    HW291693   6.255   1.486   5.379
30557SOL     OW91694   7.410   0.192   4.951
30557SOL    HW191695   7.406   0.102   4.995
30557SOL    HW291696   7.413   0.181   4.852
30558SOL     OW91697   6.014   0.424   4.244
30558SOL    HW191698   6.044   0.352   4.182
30558SOL    HW291699   5.975   0.384   4.327
30559SOL     OW91700   7.291   1.487   4.828
30559SOL    HW191701   7.198   1.462   4.801
30559SOL    HW291702   7.317   1.437   4.910
30560SOL     OW91703   5.903   0.547   5.004
30560SOL    HW191704   5.941   0.488   5.076
30560SOL    HW291705   5.943   0.521   4.916
30561SOL     OW91706   6.398   1.586   4.411
30561SOL    HW191707   6.430   1.596   4.317
30561SOL    HW291708   6.319   1.524   4.413
30562SOL     OW91709   7.010   0.214   4.836
30562SOL    HW191710   7.062   0.149   4.891
30562SOL    HW291711   6.961   0.277   4.897
30563SOL     OW91712   6.587   0.034   4.878
30563SOL    HW191713   6.524  -0.038   4.847
30563SOL    HW291714   6.680  -0.002   4.878
30564SOL     OW91715   6.356   1.330   4.025
30564SOL    HW191716   6.310   1.243   4.042
30564SOL    HW291717   6.447   1.327   4.066
30565SOL     OW91718   6.204   1.567   5.008
30565SOL    HW191719   6.199   1.649   5.065
30565SOL    HW291720   6.293   1.564   4.963
30566SOL     OW91721   6.938   0.052   3.892
30566SOL    HW191722   6.973   0.011   3.808
30566SOL    HW291723   6.848   0.014   3.912
30567SOL     OW91724   6.886   0.453   4.415
30567SOL    HW191725   6.827   0.533   4.419
30567SOL    HW291726   6.901   0.418   4.508
30568SOL     OW91727   7.179   0.221   4.606
30568SOL    HW191728   7.095   0.220   4.660
30568SOL    HW291729   7.181   0.304   4.550
30569SOL     OW91730   5.625   1.077   4.024
30569SOL    HW191731   5.724   1.066   4.015
30569SOL    HW291732   5.585   0.991   4.056
30570SOL     OW91733   6.461   1.646   4.061
30570SOL    HW191734   6.384   1.611   4.007
30570SOL    HW291735   6.429   1.717   4.123
30571SOL     OW91736   5.816   0.628   5.699
30571SOL    HW191737   5.723   0.626   5.736
30571SOL    HW291738   5.817   0.589   5.607
30572SOL     OW91739   5.811   0.275   6.582
30572SOL    HW191740   5.846   0.258   6.674
30572SOL    HW291741   5.723   0.230   6.570
30573SOL     OW91742   5.605   0.368   6.233
30573SOL    HW191743   5.523   0.411   6.272
30573SOL    HW291744   5.577   0.295   6.170
30574SOL     OW91745   6.155   1.275   6.751
30574SOL    HW191746   6.062   1.268   6.714
30574SOL    HW291747   6.166   1.364   6.795
30575SOL     OW91748   7.141   1.511   6.289
30575SOL    HW191749   7.084   1.495   6.370
30575SOL    HW291750   7.082   1.521   6.209
30576SOL     OW91751   6.721   0.703   6.303
30576SOL    HW191752   6.778   0.781   6.278
30576SOL    HW291753   6.661   0.729   6.379
30577SOL     OW91754   7.341   0.607   5.817
30577SOL    HW191755   7.329   0.594   5.718
30577SOL    HW291756   7.311   0.526   5.866
30578SOL     OW91757   6.354   1.144   6.609
30578SOL    HW191758   6.276   1.161   6.669
30578SOL    HW291759   6.388   1.231   6.573
30579SOL     OW91760   6.436   0.798   7.409
30579SOL    HW191761   6.432   0.874   7.474
30579SOL    HW291762   6.458   0.834   7.318
30580SOL     OW91763   6.271   1.012   6.251
30580SOL    HW191764   6.340   0.996   6.321
30580SOL    HW291765   6.198   1.069   6.289
30581SOL     OW91766   6.272   1.161   7.389
30581SOL    HW191767   6.332   1.240   7.403
30581SOL    HW291768   6.186   1.192   7.348
30582SOL     OW91769   5.921   1.435   6.647
30582SOL    HW191770   5.843   1.404   6.594
30582SOL    HW291771   5.979   1.493   6.590
30583SOL     OW91772   7.046   1.505   6.925
30583SOL    HW191773   7.070   1.599   6.951
30583SOL    HW291774   7.030   1.451   7.007
30584SOL     OW91775   6.024   0.392   7.085
30584SOL    HW191776   6.106   0.336   7.094
30584SOL    HW291777   5.943   0.334   7.089
30585SOL     OW91778   7.189   0.447   6.323
30585SOL    HW191779   7.115   0.493   6.273
30585SOL    HW291780   7.240   0.515   6.376
30586SOL     OW91781   5.817   1.713   6.069
30586SOL    HW191782   5.851   1.790   6.123
30586SOL    HW291783   5.861   1.713   5.979
30587SOL     OW91784   6.713   1.341   7.276
30587SOL    HW191785   6.760   1.341   7.364
30587SOL    HW291786   6.665   1.254   7.265
30588SOL     OW91787   5.816   1.434   6.124
30588SOL    HW191788   5.790   1.530   6.124
30588SOL    HW291789   5.745   1.380   6.169
30589SOL     OW91790   5.826   1.091   6.472
30589SOL    HW191791   5.840   1.007   6.524
30589SOL    HW291792   5.771   1.155   6.527
30590SOL     OW91793   6.206   1.786   7.025
30590SOL    HW191794   6.114   1.769   7.060
30590SOL    HW291795   6.234   1.878   7.051
30591SOL     OW91796   6.192   0.964   5.709
30591SOL    HW191797   6.199   1.048   5.655
30591SOL    HW291798   6.238   0.977   5.797
30592SOL     OW91799   7.180   0.114   7.066
30592SOL    HW191800   7.162   0.181   6.994
30592SOL    HW291801   7.177   0.160   7.155
30593SOL     OW91802   5.708   0.643   6.149
30593SOL    HW191803   5.663   0.555   6.166
30593SOL    HW291804   5.707   0.697   6.233
30594SOL     OW91805   7.428   1.767   5.945
30594SOL    HW191806   7.482   1.738   6.025
30594SOL    HW291807   7.458   1.857   5.916
30595SOL     OW91808   5.613   1.596   5.703
30595SOL    HW191809   5.594   1.500   5.724
30595SOL    HW291810   5.580   1.654   5.778
30596SOL     OW91811   7.275   0.922   6.198
30596SOL    HW191812   7.370   0.893   6.206
30596SOL    HW291813   7.267   0.987   6.123
30597SOL     OW91814   7.227   1.108   6.018
30597SOL    HW191815   7.313   1.110   5.966
30597SOL    HW291816   7.241   1.155   6.106
30598SOL     OW91817   5.699   0.737   7.183
30598SOL    HW191818   5.787   0.724   7.228
30598SOL    HW291819   5.686   0.834   7.161
30599SOL     OW91820   6.199   1.365   6.312
30599SOL    HW191821   6.150   1.278   6.321
30599SOL    HW291822   6.176   1.408   6.225
30600SOL     OW91823   6.879   1.228   7.009
30600SOL    HW191824   6.916   1.155   6.951
30600SOL    HW291825   6.931   1.233   7.094
30601SOL     OW91826   6.395   0.004   6.088
30601SOL    HW191827   6.435   0.095   6.079
30601SOL    HW291828   6.295   0.012   6.094
30602SOL     OW91829   5.783   0.976   6.850
30602SOL    HW191830   5.872   0.931   6.836
30602SOL    HW291831   5.710   0.911   6.831
30603SOL     OW91832   7.111   0.999   5.776
30603SOL    HW191833   7.048   0.923   5.789
30603SOL    HW291834   7.159   1.017   5.862
30604SOL     OW91835   6.773   1.792   7.202
30604SOL    HW191836   6.797   1.852   7.126
30604SOL    HW291837   6.780   1.697   7.172
30605SOL     OW91838   5.903   0.251   7.387
30605SOL    HW191839   5.974   0.322   7.393
30605SOL    HW291840   5.815   0.290   7.415
30606SOL     OW91841   7.052   1.417   6.539
30606SOL    HW191842   6.993   1.423   6.619
30606SOL    HW291843   7.037   1.329   6.493
30607SOL     OW91844   7.253   1.714   6.158
30607SOL    HW191845   7.212   1.691   6.070
30607SOL    HW291846   7.235   1.640   6.223
30608SOL     OW91847   6.184   0.729   5.856
30608SOL    HW191848   6.208   0.798   5.788
30608SOL    HW291849   6.106   0.762   5.910
30609SOL     OW91850   6.867   0.345   6.530
30609SOL    HW191851   6.781   0.295   6.517
30609SOL    HW291852   6.929   0.291   6.586
30610SOL     OW91853   7.162   1.662   5.893
30610SOL    HW191854   7.251   1.708   5.896
30610SOL    HW291855   7.141   1.638   5.798
30611SOL     OW91856   6.393   0.605   7.051
30611SOL    HW191857   6.346   0.602   7.140
30611SOL    HW291858   6.342   0.550   6.985
30612SOL     OW91859   6.980   0.469   7.260
30612SOL    HW191860   6.960   0.512   7.348
30612SOL    HW291861   7.058   0.407   7.269
30613SOL     OW91862   6.559   0.890   7.158
30613SOL    HW191863   6.605   0.806   7.129
30613SOL    HW291864   6.503   0.924   7.083
30614SOL     OW91865   6.577   0.410   6.828
30614SOL    HW191866   6.500   0.444   6.882
30614SOL    HW291867   6.543   0.359   6.749
30615SOL     OW91868   6.627   0.701   6.015
30615SOL    HW191869   6.653   0.697   6.111
30615SOL    HW291870   6.542   0.650   6.001
30616SOL     OW91871   5.662   0.811   6.375
30616SOL    HW191872   5.761   0.799   6.384
30616SOL    HW291873   5.638   0.906   6.396
30617SOL     OW91874   5.716   1.821   7.157
30617SOL    HW191875   5.706   1.806   7.256
30617SOL    HW291876   5.630   1.857   7.121
30618SOL     OW91877   6.451   0.348   5.781
30618SOL    HW191878   6.510   0.411   5.732
30618SOL    HW291879   6.470   0.254   5.752
30619SOL     OW91880   7.305   0.585   7.417
30619SOL    HW191881   7.279   0.674   7.381
30619SOL    HW291882   7.303   0.517   7.344
30620SOL     OW91883   6.948   1.144   6.131
30620SOL    HW191884   7.031   1.115   6.083
30620SOL    HW291885   6.899   1.211   6.075
30621SOL     OW91886   6.136   0.196   6.471
30621SOL    HW191887   6.131   0.191   6.571
30621SOL    HW291888   6.138   0.292   6.442
30622SOL     OW91889   6.594   1.456   6.063
30622SOL    HW191890   6.548   1.528   6.011
30622SOL    HW291891   6.590   1.476   6.161
30623SOL     OW91892   5.937   1.801   6.439
30623SOL    HW191893   5.987   1.715   6.445
30623SOL    HW291894   6.002   1.878   6.436
30624SOL     OW91895   7.381   1.066   6.459
30624SOL    HW191896   7.319   1.051   6.383
30624SOL    HW291897   7.329   1.077   6.544
30625SOL     OW91898   6.813   1.550   7.092
30625SOL    HW191899   6.819   1.473   7.156
30625SOL    HW291900   6.761   1.524   7.012
30626SOL     OW91901   5.907   0.943   5.828
30626SOL    HW191902   5.989   0.982   5.786
30626SOL    HW291903   5.880   0.861   5.779
30627SOL     OW91904   7.044   0.735   6.314
30627SOL    HW191905   7.039   0.670   6.389
30627SOL    HW291906   7.124   0.794   6.327
30628SOL     OW91907   6.047   1.266   7.313
30628SOL    HW191908   5.997   1.267   7.227
30628SOL    HW291909   5.984   1.248   7.389
30629SOL     OW91910   6.697   1.776   5.823
30629SOL    HW191911   6.637   1.714   5.873
30629SOL    HW291912   6.728   1.732   5.738
30630SOL     OW91913   5.788   0.285   7.084
30630SOL    HW191914   5.708   0.345   7.071
30630SOL    HW291915   5.778   0.236   7.170
30631SOL     OW91916   7.218   1.377   5.667
30631SOL    HW191917   7.186   1.471   5.657
30631SOL    HW291918   7.142   1.314   5.655
30632SOL     OW91919   6.050   1.743   5.909
30632SOL    HW191920   6.083   1.782   5.995
30632SOL    HW291921   6.126   1.736   5.844
30633SOL     OW91922   6.986   0.107   6.012
30633SOL    HW191923   6.962   0.070   5.922
30633SOL    HW291924   7.085   0.123   6.016
30634SOL     OW91925   5.835   1.785   6.827
30634SOL    HW191926   5.892   1.720   6.877
30634SOL    HW291927   5.819   1.752   6.734
30635SOL     OW91928   6.526   1.698   6.490
30635SOL    HW191929   6.606   1.641   6.511
30635SOL    HW291930   6.477   1.658   6.413
30636SOL     OW91931   5.968   0.700   6.066
30636SOL    HW191932   6.013   0.610   6.063
30636SOL    HW291933   5.874   0.689   6.099
30637SOL     OW91934   7.133   0.222   7.315
30637SOL    HW191935   7.128   0.259   7.407
30637SOL    HW291936   7.061   0.153   7.303
30638SOL     OW91937   6.200   0.122   5.703
30638SOL    HW191938   6.298   0.100   5.710
30638SOL    HW291939   6.169   0.105   5.610
30639SOL     OW91940   6.367   0.264   7.335
30639SOL    HW191941   6.434   0.203   7.378
30639SOL    HW291942   6.294   0.283   7.400
30640SOL     OW91943   6.474   1.514   6.781
30640SOL    HW191944   6.451   1.489   6.687
30640SOL    HW291945   6.535   1.445   6.820
30641SOL     OW91946   6.937   0.590   7.019
30641SOL    HW191947   6.965   0.547   7.104
30641SOL    HW291948   6.962   0.686   7.020
30642SOL     OW91949   6.389   1.402   6.510
30642SOL    HW191950   6.479   1.416   6.468
30642SOL    HW291951   6.318   1.404   6.439
30643SOL     OW91952   6.508   0.503   6.485
30643SOL    HW191953   6.483   0.494   6.389
30643SOL    HW291954   6.556   0.421   6.516
30644SOL     OW91955   6.125   0.064   6.098
30644SOL    HW191956   6.044   0.065   6.156
30644SOL    HW291957   6.128   0.147   6.043
30645SOL     OW91958   7.020   1.188   5.627
30645SOL    HW191959   7.052   1.112   5.684
30645SOL    HW291960   6.928   1.215   5.657
30646SOL     OW91961   5.883   0.035   5.757
30646SOL    HW191962   5.932   0.119   5.736
30646SOL    HW291963   5.945  -0.030   5.802
30647SOL     OW91964   6.521   0.236   6.066
30647SOL    HW191965   6.473   0.277   5.988
30647SOL    HW291966   6.620   0.234   6.047
30648SOL     OW91967   6.662   0.683   7.050
30648SOL    HW191968   6.582   0.622   7.053
30648SOL    HW291969   6.743   0.630   7.026
30649SOL     OW91970   6.813   1.570   6.379
30649SOL    HW191971   6.834   1.644   6.314
30649SOL    HW291972   6.881   1.570   6.452
30650SOL     OW91973   6.045   1.152   6.327
30650SOL    HW191974   5.974   1.125   6.392
30650SOL    HW291975   6.019   1.124   6.234
30651SOL     OW91976   6.857   1.797   6.177
30651SOL    HW191977   6.901   1.861   6.113
30651SOL    HW291978   6.807   1.849   6.247
30652SOL     OW91979   6.618   0.549   5.602
30652SOL    HW191980   6.577   0.631   5.563
30652SOL    HW291981   6.682   0.575   5.675
30653SOL     OW91982   5.664   0.556   6.972
30653SOL    HW191983   5.756   0.555   6.931
30653SOL    HW291984   5.658   0.630   7.039
30654SOL     OW91985   6.147   0.222   6.733
30654SOL    HW191986   6.185   0.138   6.770
30654SOL    HW291987   6.059   0.241   6.777
30655SOL     OW91988   6.452   0.454   6.228
30655SOL    HW191989   6.420   0.526   6.166
30655SOL    HW291990   6.476   0.373   6.175
30656SOL     OW91991   6.603   0.039   6.339
30656SOL    HW191992   6.531   0.044   6.270
30656SOL    HW291993   6.579  -0.030   6.408
30657SOL     OW91994   7.015   1.173   6.453
30657SOL    HW191995   6.960   1.089   6.446
30657SOL    HW291996   7.041   1.202   6.361
30658SOL     OW91997   7.052   0.590   6.578
30658SOL    HW191998   7.022   0.495   6.585
30658SOL    HW291999   7.125   0.606   6.644
30659SOL     OW92000   7.443   0.833   5.963
30659SOL    HW192001   7.485   0.769   6.027
30659SOL    HW292002   7.405   0.782   5.885
30660SOL     OW92003   6.074   1.385   5.760
30660SOL    HW192004   5.987   1.370   5.807
30660SOL    HW292005   6.057   1.411   5.665
30661SOL     OW92006   7.250   1.280   6.243
30661SOL    HW192007   7.349   1.288   6.257
30661SOL    HW292008   7.205   1.364   6.274
30662SOL     OW92009   6.976   0.575   5.664
30662SOL    HW192010   6.922   0.554   5.745
30662SOL    HW292011   7.067   0.534   5.673
30663SOL     OW92012   6.113   0.256   5.914
30663SOL    HW192013   6.140   0.197   5.839
30663SOL    HW292014   6.113   0.351   5.883
30664SOL     OW92015   7.340   1.223   7.174
30664SOL    HW192016   7.431   1.184   7.161
30664SOL    HW292017   7.348   1.319   7.198
30665SOL     OW92018   7.178   1.629   7.211
30665SOL    HW192019   7.205   1.663   7.121
30665SOL    HW292020   7.257   1.591   7.257
30666SOL     OW92021   6.697   1.195   6.686
30666SOL    HW192022   6.657   1.239   6.767
30666SOL    HW292023   6.656   1.232   6.603
30667SOL     OW92024   7.224   1.099   6.665
30667SOL    HW192025   7.229   1.180   6.724
30667SOL    HW292026   7.138   1.101   6.614
30668SOL     OW92027   6.501   0.089   6.988
30668SOL    HW192028   6.526   0.069   6.893
30668SOL    HW292029   6.573   0.145   7.030
30669SOL     OW92030   6.566   1.116   7.305
30669SOL    HW192031   6.467   1.122   7.315
30669SOL    HW292032   6.589   1.036   7.249
30670SOL     OW92033   6.291   1.050   5.954
30670SOL    HW192034   6.277   1.057   6.053
30670SOL    HW292035   6.375   0.999   5.936
30671SOL     OW92036   5.996   0.813   6.837
30671SOL    HW192037   6.082   0.825   6.887
30671SOL    HW292038   5.954   0.726   6.864
30672SOL     OW92039   6.860   0.386   6.848
30672SOL    HW192040   6.881   0.460   6.912
30672SOL    HW292041   6.771   0.403   6.805
30673SOL     OW92042   5.650   1.564   6.917
30673SOL    HW192043   5.604   1.646   6.883
30673SOL    HW292044   5.748   1.583   6.926
30674SOL     OW92045   5.953   1.100   6.087
30674SOL    HW192046   5.946   1.183   6.031
30674SOL    HW292047   5.957   1.020   6.027
30675SOL     OW92048   6.152   0.537   6.451
30675SOL    HW192049   6.164   0.603   6.377
30675SOL    HW292050   6.198   0.571   6.534
30676SOL     OW92051   6.838   1.348   5.974
30676SOL    HW192052   6.888   1.425   6.014
30676SOL    HW292053   6.743   1.350   6.006
30677SOL     OW92054   6.858   1.445   6.728
30677SOL    HW192055   6.905   1.458   6.815
30677SOL    HW292056   6.792   1.371   6.737
30678SOL     OW92057   7.168   0.639   6.058
30678SOL    HW192058   7.137   0.700   6.131
30678SOL    HW292059   7.218   0.691   5.989
30679SOL     OW92060   5.940   1.510   6.915
30679SOL    HW192061   5.919   1.466   6.828
30679SOL    HW292062   6.037   1.536   6.918
30680SOL     OW92063   5.988   0.751   7.184
30680SOL    HW192064   6.056   0.806   7.137
30680SOL    HW292065   6.028   0.663   7.211
30681SOL     OW92066   7.173   0.779   7.256
30681SOL    HW192067   7.081   0.817   7.251
30681SOL    HW292068   7.233   0.826   7.191
30682SOL     OW92069   6.599   0.105   7.356
30682SOL    HW192070   6.605   0.190   7.304
30682SOL    HW292071   6.631   0.029   7.299
30683SOL     OW92072   6.090   0.050   7.326
30683SOL    HW192073   6.048  -0.007   7.256
30683SOL    HW292074   6.024   0.119   7.358
30684SOL     OW92075   6.159   0.870   6.615
30684SOL    HW192076   6.203   0.959   6.606
30684SOL    HW292077   6.096   0.870   6.692
30685SOL     OW92078   6.946   0.862   6.631
30685SOL    HW192079   6.871   0.862   6.565
30685SOL    HW292080   6.983   0.770   6.640
30686SOL     OW92081   6.795   0.525   5.861
30686SOL    HW192082   6.808   0.441   5.915
30686SOL    HW292083   6.766   0.599   5.921
30687SOL     OW92084   5.893   0.213   6.817
30687SOL    HW192085   5.870   0.250   6.907
30687SOL    HW292086   5.863   0.118   6.811
30688SOL     OW92087   5.623   1.310   6.868
30688SOL    HW192088   5.676   1.261   6.936
30688SOL    HW292089   5.645   1.408   6.873
30689SOL     OW92090   6.318   0.634   6.650
30689SOL    HW192091   6.377   0.608   6.574
30689SOL    HW292092   6.290   0.730   6.639
30690SOL     OW92093   7.314   0.935   7.440
30690SOL    HW192094   7.268   0.928   7.351
30690SOL    HW292095   7.252   0.979   7.506
30691SOL     OW92096   5.893   0.063   6.204
30691SOL    HW192097   5.882   0.157   6.237
30691SOL    HW292098   5.888   0.000   6.281
30692SOL     OW92099   7.208   0.367   5.960
30692SOL    HW192100   7.210   0.291   6.024
30692SOL    HW292101   7.160   0.444   6.000
30693SOL     OW92102   6.609   0.766   6.552
30693SOL    HW192103   6.624   0.787   6.648
30693SOL    HW292104   6.579   0.671   6.543
30694SOL     OW92105   6.566   1.573   7.286
30694SOL    HW192106   6.546   1.617   7.198
30694SOL    HW292107   6.605   1.482   7.270
30695SOL     OW92108   7.445   1.518   7.191
30695SOL    HW192109   7.459   1.545   7.096
30695SOL    HW292110   7.528   1.540   7.244
30696SOL     OW92111   5.936   0.898   7.390
30696SOL    HW192112   6.012   0.942   7.438
30696SOL    HW292113   5.971   0.851   7.308
30697SOL     OW92114   7.126   0.274   5.711
30697SOL    HW192115   7.065   0.199   5.734
30697SOL    HW292116   7.148   0.326   5.794
30698SOL     OW92117   6.889   0.838   5.628
30698SOL    HW192118   6.923   0.745   5.643
30698SOL    HW292119   6.907   0.865   5.533
30699SOL     OW92120   6.654   1.333   6.435
30699SOL    HW192121   6.661   1.249   6.380
30699SOL    HW292122   6.716   1.402   6.399
30700SOL     OW92123   5.905   0.810   6.535
30700SOL    HW192124   5.998   0.846   6.540
30700SOL    HW292125   5.899   0.725   6.587
30701SOL     OW92126   5.925   0.509   6.592
30701SOL    HW192127   5.873   0.426   6.575
30701SOL    HW292128   6.002   0.514   6.528
30702SOL     OW92129   6.724   0.380   7.264
30702SOL    HW192130   6.679   0.443   7.328
30702SOL    HW292131   6.817   0.411   7.247
30703SOL     OW92132   6.746   0.207   7.063
30703SOL    HW192133   6.746   0.271   7.140
30703SOL    HW292134   6.774   0.255   6.980
30704SOL     OW92135   5.594   1.326   5.786
30704SOL    HW192136   5.501   1.347   5.755
30704SOL    HW292137   5.604   1.227   5.799
30705SOL     OW92138   5.674   1.801   6.513
30705SOL    HW192139   5.632   1.715   6.486
30705SOL    HW292140   5.768   1.804   6.479
30706SOL     OW92141   6.090   1.568   6.496
30706SOL    HW192142   6.156   1.642   6.505
30706SOL    HW292143   6.134   1.489   6.454
30707SOL     OW92144   6.588   0.796   6.824
30707SOL    HW192145   6.629   0.764   6.910
30707SOL    HW292146   6.492   0.769   6.821
30708SOL     OW92147   5.626   0.544   6.700
30708SOL    HW192148   5.711   0.511   6.659
30708SOL    HW292149   5.639   0.559   6.798
30709SOL     OW92150   5.775   0.520   7.308
30709SOL    HW192151   5.834   0.480   7.238
30709SOL    HW292152   5.717   0.591   7.267
30710SOL     OW92153   6.955   0.950   7.246
30710SOL    HW192154   6.994   1.039   7.266
30710SOL    HW292155   6.965   0.930   7.149
30711SOL     OW92156   6.401   0.572   5.911
30711SOL    HW192157   6.408   0.483   5.865
30711SOL    HW292158   6.307   0.606   5.903
30712SOL     OW92159   7.243   0.604   6.792
30712SOL    HW192160   7.205   0.535   6.854
30712SOL    HW292161   7.325   0.568   6.748
30713SOL     OW92162   5.838   1.564   7.330
30713SOL    HW192163   5.808   1.621   7.406
30713SOL    HW292164   5.831   1.467   7.356
30714SOL     OW92165   6.257   0.464   6.855
30714SOL    HW192166   6.223   0.375   6.825
30714SOL    HW292167   6.283   0.518   6.775
30715SOL     OW92168   6.516   1.678   7.051
30715SOL    HW192169   6.492   1.660   6.956
30715SOL    HW292170   6.546   1.772   7.061
30716SOL     OW92171   6.059   0.500   5.777
30716SOL    HW192172   6.120   0.580   5.781
30716SOL    HW292173   5.964   0.531   5.784
30717SOL     OW92174   5.745   1.137   7.052
30717SOL    HW192175   5.767   1.076   7.128
30717SOL    HW292176   5.755   1.088   6.966
30718SOL     OW92177   6.933   1.059   6.820
30718SOL    HW192178   6.957   0.996   6.746
30718SOL    HW292179   6.843   1.099   6.802
30719SOL     OW92180   6.888   0.855   5.895
30719SOL    HW192181   6.802   0.824   5.937
30719SOL    HW292182   6.884   0.841   5.796
30720SOL     OW92183   7.345   1.747   6.740
30720SOL    HW192184   7.406   1.777   6.667
30720SOL    HW292185   7.307   1.658   6.718
30721SOL     OW92186   6.838   1.731   6.714
30721SOL    HW192187   6.922   1.736   6.660
30721SOL    HW292188   6.815   1.635   6.732
30722SOL     OW92189   5.669   1.258   6.608
30722SOL    HW192190   5.664   1.257   6.708
30722SOL    HW292191   5.586   1.217   6.570
30723SOL     OW92192   6.274   1.662   7.302
30723SOL    HW192193   6.218   1.743   7.311
30723SOL    HW292194   6.326   1.666   7.216
30724SOL     OW92195   7.312   0.135   6.109
30724SOL    HW192196   7.385   0.118   6.042
30724SOL    HW292197   7.281   0.048   6.147
30725SOL     OW92198   6.974   1.573   6.063
30725SOL    HW192199   7.041   1.585   5.989
30725SOL    HW292200   6.934   1.662   6.086
30726SOL     OW92201   5.716   1.794   7.437
30726SOL    HW192202   5.675   1.720   7.490
30726SOL    HW292203   5.780   1.845   7.495
30727SOL     OW92204   6.866   0.927   6.258
30727SOL    HW192205   6.926   0.846   6.260
30727SOL    HW292206   6.906   0.996   6.198
30728SOL     OW92207   6.416   1.273   7.008
30728SOL    HW192208   6.411   1.306   7.103
30728SOL    HW292209   6.330   1.292   6.962
30729SOL     OW92210   6.258   1.616   5.740
30729SOL    HW192211   6.267   1.626   5.641
30729SOL    HW292212   6.218   1.527   5.761
30730SOL     OW92213   7.236   1.720   6.980
30730SOL    HW192214   7.289   1.730   6.896
30730SOL    HW292215   7.209   1.810   7.014
30731SOL     OW92216   7.427   0.175   6.549
30731SOL    HW192217   7.466   0.090   6.513
30731SOL    HW292218   7.329   0.177   6.530
30732SOL     OW92219   5.849   0.326   6.306
30732SOL    HW192220   5.770   0.377   6.272
30732SOL    HW292221   5.840   0.311   6.404
30733SOL     OW92222   6.780   1.612   5.617
30733SOL    HW192223   6.786   1.519   5.654
30733SOL    HW292224   6.721   1.612   5.537
30734SOL     OW92225   6.408   1.002   6.958
30734SOL    HW192226   6.448   1.001   6.866
30734SOL    HW292227   6.418   1.094   6.998
30735SOL     OW92228   6.502   0.910   5.877
30735SOL    HW192229   6.565   0.948   5.809
30735SOL    HW292230   6.542   0.827   5.916
30736SOL     OW92231   7.090   1.607   5.630
30736SOL    HW192232   6.998   1.644   5.637
30736SOL    HW292233   7.128   1.627   5.540
30737SOL     OW92234   5.958   1.288   7.076
30737SOL    HW192235   5.945   1.381   7.042
30737SOL    HW292236   5.874   1.236   7.063
30738SOL     OW92237   7.200   1.292   6.875
30738SOL    HW192238   7.260   1.295   6.955
30738SOL    HW292239   7.125   1.356   6.888
30739SOL     OW92240   6.625   1.098   6.282
30739SOL    HW192241   6.555   1.051   6.336
30739SOL    HW292242   6.684   1.030   6.239
30740SOL     OW92243   6.600   0.236   6.557
30740SOL    HW192244   6.592   0.200   6.464
30740SOL    HW292245   6.598   0.160   6.622
30741SOL     OW92246   6.176   1.487   6.077
30741SOL    HW192247   6.218   1.429   6.007
30741SOL    HW292248   6.132   1.566   6.033
30742SOL     OW92249   7.295   0.385   6.967
30742SOL    HW192250   7.368   0.454   6.971
30742SOL    HW292251   7.323   0.310   6.908
30743SOL     OW92252   5.841   1.348   5.876
30743SOL    HW192253   5.745   1.349   5.849
30743SOL    HW292254   5.853   1.401   5.960
30744SOL     OW92255   5.691   1.013   7.312
30744SOL    HW192256   5.614   0.980   7.366
30744SOL    HW292257   5.776   0.983   7.354
30745SOL     OW92258   6.258   0.203   7.075
30745SOL    HW192259   6.348   0.187   7.035
30745SOL    HW292260   6.266   0.208   7.174
30746SOL     OW92261   5.661   0.345   5.619
30746SOL    HW192262   5.569   0.317   5.590
30746SOL    HW292263   5.692   0.422   5.563
30747SOL     OW92264   7.026   0.856   6.984
30747SOL    HW192265   6.969   0.908   6.921
30747SOL    HW292266   7.122   0.868   6.960
30748SOL     OW92267   5.658   0.166   5.904
30748SOL    HW192268   5.641   0.249   5.850
30748SOL    HW292269   5.748   0.129   5.882
30749SOL     OW92270   6.769   1.335   5.705
30749SOL    HW192271   6.670   1.324   5.707
30749SOL    HW292272   6.803   1.350   5.798
30750SOL     OW92273   6.199   0.842   7.017
30750SOL    HW192274   6.255   0.923   7.000
30750SOL    HW292275   6.258   0.762   7.020
30751SOL     OW92276   7.079   1.767   6.545
30751SOL    HW192277   7.112   1.831   6.476
30751SOL    HW292278   7.145   1.761   6.620
30752SOL     OW92279   6.302   0.565   7.294
30752SOL    HW192280   6.321   0.630   7.368
30752SOL    HW292281   6.362   0.485   7.303
30753SOL     OW92282   7.036   1.220   7.219
30753SOL    HW192283   7.027   1.210   7.318
30753SOL    HW292284   7.132   1.213   7.193
30754SOL     OW92285   5.976   1.741   7.146
30754SOL    HW192286   5.885   1.782   7.144
30754SOL    HW292287   5.969   1.647   7.178
30755SOL     OW92288   7.260   0.883   6.840
30755SOL    HW192289   7.233   0.794   6.803
30755SOL    HW292290   7.261   0.951   6.767
30756SOL     OW92291   6.811   0.325   6.035
30756SOL    HW192292   6.876   0.251   6.024
30756SOL    HW292293   6.831   0.375   6.119
30757SOL     OW92294   6.180   0.745   6.238
30757SOL    HW192295   6.230   0.830   6.219
30757SOL    HW292296   6.092   0.747   6.190
30758SOL     OW92297   7.363   0.342   7.228
30758SOL    HW192298   7.346   0.373   7.134
30758SOL    HW292299   7.279   0.305   7.266
30759SOL     OW92300   7.316   0.934   7.103
30759SOL    HW192301   7.354   1.025   7.118
30759SOL    HW292302   7.308   0.917   7.004
30760SOL     OW92303   6.445   1.374   5.602
30760SOL    HW192304   6.399   1.389   5.690
30760SOL    HW292305   6.489   1.459   5.572
30761SOL     OW92306   6.247   1.790   6.539
30761SOL    HW192307   6.201   1.878   6.526
30761SOL    HW292308   6.346   1.802   6.532
30762SOL     OW92309   6.445   0.956   6.447
30762SOL    HW192310   6.499   0.887   6.495
30762SOL    HW292311   6.413   1.025   6.513
30763SOL     OW92312   6.669   0.984   5.673
30763SOL    HW192313   6.646   1.037   5.591
30763SOL    HW292314   6.750   0.928   5.654
30764SOL     OW92315   7.447   1.569   6.437
30764SOL    HW192316   7.376   1.557   6.367
30764SOL    HW292317   7.448   1.490   6.497
30765SOL     OW92318   5.807   1.314   7.430
30765SOL    HW192319   5.742   1.241   7.409
30765SOL    HW292320   5.811   1.328   7.528
30766SOL     OW92321   5.665   1.240   6.239
30766SOL    HW192322   5.664   1.193   6.327
30766SOL    HW292323   5.747   1.212   6.188
30767SOL     OW92324   6.258   1.391   7.210
30767SOL    HW192325   6.180   1.341   7.248
30767SOL    HW292326   6.255   1.486   7.241
30768SOL     OW92327   7.410   0.192   6.813
30768SOL    HW192328   7.406   0.102   6.857
30768SOL    HW292329   7.413   0.181   6.714
30769SOL     OW92330   6.014   0.424   6.106
30769SOL    HW192331   6.044   0.352   6.044
30769SOL    HW292332   5.975   0.384   6.189
30770SOL     OW92333   7.291   1.487   6.690
30770SOL    HW192334   7.198   1.462   6.663
30770SOL    HW292335   7.317   1.437   6.772
30771SOL     OW92336   5.903   0.547   6.866
30771SOL    HW192337   5.941   0.488   6.938
30771SOL    HW292338   5.943   0.521   6.778
30772SOL     OW92339   6.398   1.586   6.273
30772SOL    HW192340   6.430   1.596   6.179
30772SOL    HW292341   6.319   1.524   6.275
30773SOL     OW92342   7.010   0.214   6.698
30773SOL    HW192343   7.062   0.149   6.753
30773SOL    HW292344   6.961   0.277   6.759
30774SOL     OW92345   6.587   0.034   6.740
30774SOL    HW192346   6.524  -0.038   6.709
30774SOL    HW292347   6.680  -0.002   6.740
30775SOL     OW92348   6.356   1.330   5.887
30775SOL    HW192349   6.310   1.243   5.904
30775SOL    HW292350   6.447   1.327   5.928
30776SOL     OW92351   6.204   1.567   6.870
30776SOL    HW192352   6.199   1.649   6.927
30776SOL    HW292353   6.293   1.564   6.825
30777SOL     OW92354   6.938   0.052   5.754
30777SOL    HW192355   6.973   0.011   5.670
30777SOL    HW292356   6.848   0.014   5.774
30778SOL     OW92357   6.886   0.453   6.277
30778SOL    HW192358   6.827   0.533   6.281
30778SOL    HW292359   6.901   0.418   6.370
30779SOL     OW92360   7.179   0.221   6.468
30779SOL    HW192361   7.095   0.220   6.522
30779SOL    HW292362   7.181   0.304   6.412
30780SOL     OW92363   5.625   1.077   5.886
30780SOL    HW192364   5.724   1.066   5.877
30780SOL    HW292365   5.585   0.991   5.918
30781SOL     OW92366   6.461   1.646   5.923
30781SOL    HW192367   6.384   1.611   5.869
30781SOL    HW292368   6.429   1.717   5.985
30782SOL     OW92369   5.816   0.628   7.561
30782SOL    HW192370   5.723   0.626   7.598
30782SOL    HW292371   5.817   0.589   7.469
30783SOL     OW92372   5.811   0.275   8.444
30783SOL    HW192373   5.846   0.258   8.536
30783SOL    HW292374   5.723   0.230   8.432
30784SOL     OW92375   5.605   0.368   8.095
30784SOL    HW192376   5.523   0.411   8.134
30784SOL    HW292377   5.577   0.295   8.032
30785SOL     OW92378   6.155   1.275   8.613
30785SOL    HW192379   6.062   1.268   8.576
30785SOL    HW292380   6.166   1.364   8.657
30786SOL     OW92381   7.141   1.511   8.151
30786SOL    HW192382   7.084   1.495   8.232
30786SOL    HW292383   7.082   1.521   8.071
30787SOL     OW92384   6.721   0.703   8.165
30787SOL    HW192385   6.778   0.781   8.140
30787SOL    HW292386   6.661   0.729   8.241
30788SOL     OW92387   7.341   0.607   7.679
30788SOL    HW192388   7.329   0.594   7.580
30788SOL    HW292389   7.311   0.526   7.728
30789SOL     OW92390   6.354   1.144   8.471
30789SOL    HW192391   6.276   1.161   8.531
30789SOL    HW292392   6.388   1.231   8.435
30790SOL     OW92393   6.436   0.798   9.271
30790SOL    HW192394   6.432   0.874   9.336
30790SOL    HW292395   6.458   0.834   9.180
30791SOL     OW92396   6.271   1.012   8.113
30791SOL    HW192397   6.340   0.996   8.183
30791SOL    HW292398   6.198   1.069   8.151
30792SOL     OW92399   6.272   1.161   9.251
30792SOL    HW192400   6.332   1.240   9.265
30792SOL    HW292401   6.186   1.192   9.210
30793SOL     OW92402   5.921   1.435   8.509
30793SOL    HW192403   5.843   1.404   8.456
30793SOL    HW292404   5.979   1.493   8.452
30794SOL     OW92405   7.046   1.505   8.787
30794SOL    HW192406   7.070   1.599   8.813
30794SOL    HW292407   7.030   1.451   8.869
30795SOL     OW92408   6.024   0.392   8.947
30795SOL    HW192409   6.106   0.336   8.956
30795SOL    HW292410   5.943   0.334   8.951
30796SOL     OW92411   7.189   0.447   8.185
30796SOL    HW192412   7.115   0.493   8.135
30796SOL    HW292413   7.240   0.515   8.238
30797SOL     OW92414   5.817   1.713   7.931
30797SOL    HW192415   5.851   1.790   7.985
30797SOL    HW292416   5.861   1.713   7.841
30798SOL     OW92417   6.713   1.341   9.138
30798SOL    HW192418   6.760   1.341   9.226
30798SOL    HW292419   6.665   1.254   9.127
30799SOL     OW92420   5.816   1.434   7.986
30799SOL    HW192421   5.790   1.530   7.986
30799SOL    HW292422   5.745   1.380   8.031
30800SOL     OW92423   5.826   1.091   8.334
30800SOL    HW192424   5.840   1.007   8.386
30800SOL    HW292425   5.771   1.155   8.389
30801SOL     OW92426   6.206   1.786   8.887
30801SOL    HW192427   6.114   1.769   8.922
30801SOL    HW292428   6.234   1.878   8.913
30802SOL     OW92429   6.192   0.964   7.571
30802SOL    HW192430   6.199   1.048   7.517
30802SOL    HW292431   6.238   0.977   7.659
30803SOL     OW92432   7.180   0.114   8.928
30803SOL    HW192433   7.162   0.181   8.856
30803SOL    HW292434   7.177   0.160   9.017
30804SOL     OW92435   5.708   0.643   8.011
30804SOL    HW192436   5.663   0.555   8.028
30804SOL    HW292437   5.707   0.697   8.095
30805SOL     OW92438   7.428   1.767   7.807
30805SOL    HW192439   7.482   1.738   7.887
30805SOL    HW292440   7.458   1.857   7.778
30806SOL     OW92441   5.613   1.596   7.565
30806SOL    HW192442   5.594   1.500   7.586
30806SOL    HW292443   5.580   1.654   7.640
30807SOL     OW92444   7.275   0.922   8.060
30807SOL    HW192445   7.370   0.893   8.068
30807SOL    HW292446   7.267   0.987   7.985
30808SOL     OW92447   7.227   1.108   7.880
30808SOL    HW192448   7.313   1.110   7.828
30808SOL    HW292449   7.241   1.155   7.968
30809SOL     OW92450   5.699   0.737   9.045
30809SOL    HW192451   5.787   0.724   9.090
30809SOL    HW292452   5.686   0.834   9.023
30810SOL     OW92453   6.199   1.365   8.174
30810SOL    HW192454   6.150   1.278   8.183
30810SOL    HW292455   6.176   1.408   8.087
30811SOL     OW92456   6.879   1.228   8.871
30811SOL    HW192457   6.916   1.155   8.813
30811SOL    HW292458   6.931   1.233   8.956
30812SOL     OW92459   6.395   0.004   7.950
30812SOL    HW192460   6.435   0.095   7.941
30812SOL    HW292461   6.295   0.012   7.956
30813SOL     OW92462   5.783   0.976   8.712
30813SOL    HW192463   5.872   0.931   8.698
30813SOL    HW292464   5.710   0.911   8.693
30814SOL     OW92465   7.111   0.999   7.638
30814SOL    HW192466   7.048   0.923   7.651
30814SOL    HW292467   7.159   1.017   7.724
30815SOL     OW92468   6.773   1.792   9.064
30815SOL    HW192469   6.797   1.852   8.988
30815SOL    HW292470   6.780   1.697   9.034
30816SOL     OW92471   5.903   0.251   9.249
30816SOL    HW192472   5.974   0.322   9.255
30816SOL    HW292473   5.815   0.290   9.277
30817SOL     OW92474   7.052   1.417   8.401
30817SOL    HW192475   6.993   1.423   8.481
30817SOL    HW292476   7.037   1.329   8.355
30818SOL     OW92477   7.253   1.714   8.020
30818SOL    HW192478   7.212   1.691   7.932
30818SOL    HW292479   7.235   1.640   8.085
30819SOL     OW92480   6.184   0.729   7.718
30819SOL    HW192481   6.208   0.798   7.650
30819SOL    HW292482   6.106   0.762   7.772
30820SOL     OW92483   6.867   0.345   8.392
30820SOL    HW192484   6.781   0.295   8.379
30820SOL    HW292485   6.929   0.291   8.448
30821SOL     OW92486   7.162   1.662   7.755
30821SOL    HW192487   7.251   1.708   7.758
30821SOL    HW292488   7.141   1.638   7.660
30822SOL     OW92489   6.393   0.605   8.913
30822SOL    HW192490   6.346   0.602   9.002
30822SOL    HW292491   6.342   0.550   8.847
30823SOL     OW92492   6.980   0.469   9.122
30823SOL    HW192493   6.960   0.512   9.210
30823SOL    HW292494   7.058   0.407   9.131
30824SOL     OW92495   6.559   0.890   9.020
30824SOL    HW192496   6.605   0.806   8.991
30824SOL    HW292497   6.503   0.924   8.945
30825SOL     OW92498   6.577   0.410   8.690
30825SOL    HW192499   6.500   0.444   8.744
30825SOL    HW292500   6.543   0.359   8.611
30826SOL     OW92501   6.627   0.701   7.877
30826SOL    HW192502   6.653   0.697   7.973
30826SOL    HW292503   6.542   0.650   7.863
30827SOL     OW92504   5.662   0.811   8.237
30827SOL    HW192505   5.761   0.799   8.246
30827SOL    HW292506   5.638   0.906   8.258
30828SOL     OW92507   5.716   1.821   9.019
30828SOL    HW192508   5.706   1.806   9.118
30828SOL    HW292509   5.630   1.857   8.983
30829SOL     OW92510   6.451   0.348   7.643
30829SOL    HW192511   6.510   0.411   7.594
30829SOL    HW292512   6.470   0.254   7.614
30830SOL     OW92513   7.305   0.585   9.279
30830SOL    HW192514   7.279   0.674   9.243
30830SOL    HW292515   7.303   0.517   9.206
30831SOL     OW92516   6.948   1.144   7.993
30831SOL    HW192517   7.031   1.115   7.945
30831SOL    HW292518   6.899   1.211   7.937
30832SOL     OW92519   6.136   0.196   8.333
30832SOL    HW192520   6.131   0.191   8.433
30832SOL    HW292521   6.138   0.292   8.304
30833SOL     OW92522   6.594   1.456   7.925
30833SOL    HW192523   6.548   1.528   7.873
30833SOL    HW292524   6.590   1.476   8.023
30834SOL     OW92525   5.937   1.801   8.301
30834SOL    HW192526   5.987   1.715   8.307
30834SOL    HW292527   6.002   1.878   8.298
30835SOL     OW92528   7.381   1.066   8.321
30835SOL    HW192529   7.319   1.051   8.245
30835SOL    HW292530   7.329   1.077   8.406
30836SOL     OW92531   6.813   1.550   8.954
30836SOL    HW192532   6.819   1.473   9.018
30836SOL    HW292533   6.761   1.524   8.874
30837SOL     OW92534   5.907   0.943   7.690
30837SOL    HW192535   5.989   0.982   7.648
30837SOL    HW292536   5.880   0.861   7.641
30838SOL     OW92537   7.044   0.735   8.176
30838SOL    HW192538   7.039   0.670   8.251
30838SOL    HW292539   7.124   0.794   8.189
30839SOL     OW92540   6.047   1.266   9.175
30839SOL    HW192541   5.997   1.267   9.089
30839SOL    HW292542   5.984   1.248   9.251
30840SOL     OW92543   6.697   1.776   7.685
30840SOL    HW192544   6.637   1.714   7.735
30840SOL    HW292545   6.728   1.732   7.600
30841SOL     OW92546   5.788   0.285   8.946
30841SOL    HW192547   5.708   0.345   8.933
30841SOL    HW292548   5.778   0.236   9.032
30842SOL     OW92549   7.218   1.377   7.529
30842SOL    HW192550   7.186   1.471   7.519
30842SOL    HW292551   7.142   1.314   7.517
30843SOL     OW92552   6.050   1.743   7.771
30843SOL    HW192553   6.083   1.782   7.857
30843SOL    HW292554   6.126   1.736   7.706
30844SOL     OW92555   6.986   0.107   7.874
30844SOL    HW192556   6.962   0.070   7.784
30844SOL    HW292557   7.085   0.123   7.878
30845SOL     OW92558   5.835   1.785   8.689
30845SOL    HW192559   5.892   1.720   8.739
30845SOL    HW292560   5.819   1.752   8.596
30846SOL     OW92561   6.526   1.698   8.352
30846SOL    HW192562   6.606   1.641   8.373
30846SOL    HW292563   6.477   1.658   8.275
30847SOL     OW92564   5.968   0.700   7.928
30847SOL    HW192565   6.013   0.610   7.925
30847SOL    HW292566   5.874   0.689   7.961
30848SOL     OW92567   7.133   0.222   9.177
30848SOL    HW192568   7.128   0.259   9.269
30848SOL    HW292569   7.061   0.153   9.165
30849SOL     OW92570   6.200   0.122   7.565
30849SOL    HW192571   6.298   0.100   7.572
30849SOL    HW292572   6.169   0.105   7.472
30850SOL     OW92573   6.367   0.264   9.197
30850SOL    HW192574   6.434   0.203   9.240
30850SOL    HW292575   6.294   0.283   9.262
30851SOL     OW92576   6.474   1.514   8.643
30851SOL    HW192577   6.451   1.489   8.549
30851SOL    HW292578   6.535   1.445   8.682
30852SOL     OW92579   6.937   0.590   8.881
30852SOL    HW192580   6.965   0.547   8.966
30852SOL    HW292581   6.962   0.686   8.882
30853SOL     OW92582   6.389   1.402   8.372
30853SOL    HW192583   6.479   1.416   8.330
30853SOL    HW292584   6.318   1.404   8.301
30854SOL     OW92585   6.508   0.503   8.347
30854SOL    HW192586   6.483   0.494   8.251
30854SOL    HW292587   6.556   0.421   8.378
30855SOL     OW92588   6.125   0.064   7.960
30855SOL    HW192589   6.044   0.065   8.018
30855SOL    HW292590   6.128   0.147   7.905
30856SOL     OW92591   7.020   1.188   7.489
30856SOL    HW192592   7.052   1.112   7.546
30856SOL    HW292593   6.928   1.215   7.519
30857SOL     OW92594   5.883   0.035   7.619
30857SOL    HW192595   5.932   0.119   7.598
30857SOL    HW292596   5.945  -0.030   7.664
30858SOL     OW92597   6.521   0.236   7.928
30858SOL    HW192598   6.473   0.277   7.850
30858SOL    HW292599   6.620   0.234   7.909
30859SOL     OW92600   6.662   0.683   8.912
30859SOL    HW192601   6.582   0.622   8.915
30859SOL    HW292602   6.743   0.630   8.888
30860SOL     OW92603   6.813   1.570   8.241
30860SOL    HW192604   6.834   1.644   8.176
30860SOL    HW292605   6.881   1.570   8.314
30861SOL     OW92606   6.045   1.152   8.189
30861SOL    HW192607   5.974   1.125   8.254
30861SOL    HW292608   6.019   1.124   8.096
30862SOL     OW92609   6.857   1.797   8.039
30862SOL    HW192610   6.901   1.861   7.975
30862SOL    HW292611   6.807   1.849   8.109
30863SOL     OW92612   6.618   0.549   7.464
30863SOL    HW192613   6.577   0.631   7.425
30863SOL    HW292614   6.682   0.575   7.537
30864SOL     OW92615   5.664   0.556   8.834
30864SOL    HW192616   5.756   0.555   8.793
30864SOL    HW292617   5.658   0.630   8.901
30865SOL     OW92618   6.147   0.222   8.595
30865SOL    HW192619   6.185   0.138   8.632
30865SOL    HW292620   6.059   0.241   8.639
30866SOL     OW92621   6.452   0.454   8.090
30866SOL    HW192622   6.420   0.526   8.028
30866SOL    HW292623   6.476   0.373   8.037
30867SOL     OW92624   6.603   0.039   8.201
30867SOL    HW192625   6.531   0.044   8.132
30867SOL    HW292626   6.579  -0.030   8.270
30868SOL     OW92627   7.015   1.173   8.315
30868SOL    HW192628   6.960   1.089   8.308
30868SOL    HW292629   7.041   1.202   8.223
30869SOL     OW92630   7.052   0.590   8.440
30869SOL    HW192631   7.022   0.495   8.447
30869SOL    HW292632   7.125   0.606   8.506
30870SOL     OW92633   7.443   0.833   7.825
30870SOL    HW192634   7.485   0.769   7.889
30870SOL    HW292635   7.405   0.782   7.747
30871SOL     OW92636   6.074   1.385   7.622
30871SOL    HW192637   5.987   1.370   7.669
30871SOL    HW292638   6.057   1.411   7.527
30872SOL     OW92639   7.250   1.280   8.105
30872SOL    HW192640   7.349   1.288   8.119
30872SOL    HW292641   7.205   1.364   8.136
30873SOL     OW92642   6.976   0.575   7.526
30873SOL    HW192643   6.922   0.554   7.607
30873SOL    HW292644   7.067   0.534   7.535
30874SOL     OW92645   6.113   0.256   7.776
30874SOL    HW192646   6.140   0.197   7.701
30874SOL    HW292647   6.113   0.351   7.745
30875SOL     OW92648   7.340   1.223   9.036
30875SOL    HW192649   7.431   1.184   9.023
30875SOL    HW292650   7.348   1.319   9.060
30876SOL     OW92651   6.650   1.347   8.788
30876SOL    HW192652   6.570   1.324   8.843
30876SOL    HW292653   6.733   1.321   8.837
30877SOL     OW92654   7.178   1.629   9.073
30877SOL    HW192655   7.205   1.663   8.983
30877SOL    HW292656   7.257   1.591   9.119
30878SOL     OW92657   6.697   1.195   8.548
30878SOL    HW192658   6.657   1.239   8.629
30878SOL    HW292659   6.656   1.232   8.465
30879SOL     OW92660   7.224   1.099   8.527
30879SOL    HW192661   7.229   1.180   8.586
30879SOL    HW292662   7.138   1.101   8.476
30880SOL     OW92663   6.501   0.089   8.850
30880SOL    HW192664   6.526   0.069   8.755
30880SOL    HW292665   6.573   0.145   8.892
30881SOL     OW92666   6.566   1.116   9.167
30881SOL    HW192667   6.467   1.122   9.177
30881SOL    HW292668   6.589   1.036   9.111
30882SOL     OW92669   6.291   1.050   7.816
30882SOL    HW192670   6.277   1.057   7.915
30882SOL    HW292671   6.375   0.999   7.798
30883SOL     OW92672   5.996   0.813   8.699
30883SOL    HW192673   6.082   0.825   8.749
30883SOL    HW292674   5.954   0.726   8.726
30884SOL     OW92675   6.860   0.386   8.710
30884SOL    HW192676   6.881   0.460   8.774
30884SOL    HW292677   6.771   0.403   8.667
30885SOL     OW92678   5.650   1.564   8.779
30885SOL    HW192679   5.604   1.646   8.745
30885SOL    HW292680   5.748   1.583   8.788
30886SOL     OW92681   5.953   1.100   7.949
30886SOL    HW192682   5.946   1.183   7.893
30886SOL    HW292683   5.957   1.020   7.889
30887SOL     OW92684   6.152   0.537   8.313
30887SOL    HW192685   6.164   0.603   8.239
30887SOL    HW292686   6.198   0.571   8.396
30888SOL     OW92687   6.838   1.348   7.836
30888SOL    HW192688   6.888   1.425   7.876
30888SOL    HW292689   6.743   1.350   7.868
30889SOL     OW92690   6.858   1.445   8.590
30889SOL    HW192691   6.905   1.458   8.677
30889SOL    HW292692   6.792   1.371   8.599
30890SOL     OW92693   7.168   0.639   7.920
30890SOL    HW192694   7.137   0.700   7.993
30890SOL    HW292695   7.218   0.691   7.851
30891SOL     OW92696   5.940   1.510   8.777
30891SOL    HW192697   5.919   1.466   8.690
30891SOL    HW292698   6.037   1.536   8.780
30892SOL     OW92699   5.988   0.751   9.046
30892SOL    HW192700   6.056   0.806   8.999
30892SOL    HW292701   6.028   0.663   9.073
30893SOL     OW92702   7.173   0.779   9.118
30893SOL    HW192703   7.081   0.817   9.113
30893SOL    HW292704   7.233   0.826   9.053
30894SOL     OW92705   6.599   0.105   9.218
30894SOL    HW192706   6.605   0.190   9.166
30894SOL    HW292707   6.631   0.029   9.161
30895SOL     OW92708   6.090   0.050   9.188
30895SOL    HW192709   6.048  -0.007   9.118
30895SOL    HW292710   6.024   0.119   9.220
30896SOL     OW92711   6.159   0.870   8.477
30896SOL    HW192712   6.203   0.959   8.468
30896SOL    HW292713   6.096   0.870   8.554
30897SOL     OW92714   6.946   0.862   8.493
30897SOL    HW192715   6.871   0.862   8.427
30897SOL    HW292716   6.983   0.770   8.502
30898SOL     OW92717   6.795   0.525   7.723
30898SOL    HW192718   6.808   0.441   7.777
30898SOL    HW292719   6.766   0.599   7.783
30899SOL     OW92720   5.893   0.213   8.679
30899SOL    HW192721   5.870   0.250   8.769
30899SOL    HW292722   5.863   0.118   8.673
30900SOL     OW92723   5.623   1.310   8.730
30900SOL    HW192724   5.676   1.261   8.798
30900SOL    HW292725   5.645   1.408   8.735
30901SOL     OW92726   6.318   0.634   8.512
30901SOL    HW192727   6.377   0.608   8.436
30901SOL    HW292728   6.290   0.730   8.501
30902SOL     OW92729   7.314   0.935   9.302
30902SOL    HW192730   7.268   0.928   9.213
30902SOL    HW292731   7.252   0.979   9.368
30903SOL     OW92732   5.893   0.063   8.066
30903SOL    HW192733   5.882   0.157   8.099
30903SOL    HW292734   5.888   0.000   8.143
30904SOL     OW92735   7.208   0.367   7.822
30904SOL    HW192736   7.210   0.291   7.886
30904SOL    HW292737   7.160   0.444   7.862
30905SOL     OW92738   6.609   0.766   8.414
30905SOL    HW192739   6.624   0.787   8.510
30905SOL    HW292740   6.579   0.671   8.405
30906SOL     OW92741   6.566   1.573   9.148
30906SOL    HW192742   6.546   1.617   9.060
30906SOL    HW292743   6.605   1.482   9.132
30907SOL     OW92744   7.445   1.518   9.053
30907SOL    HW192745   7.459   1.545   8.958
30907SOL    HW292746   7.528   1.540   9.106
30908SOL     OW92747   5.936   0.898   9.252
30908SOL    HW192748   6.012   0.942   9.300
30908SOL    HW292749   5.971   0.851   9.170
30909SOL     OW92750   7.126   0.274   7.573
30909SOL    HW192751   7.065   0.199   7.596
30909SOL    HW292752   7.148   0.326   7.656
30910SOL     OW92753   6.889   0.838   7.490
30910SOL    HW192754   6.923   0.745   7.505
30910SOL    HW292755   6.907   0.865   7.395
30911SOL     OW92756   6.654   1.333   8.297
30911SOL    HW192757   6.661   1.249   8.242
30911SOL    HW292758   6.716   1.402   8.261
30912SOL     OW92759   5.905   0.810   8.397
30912SOL    HW192760   5.998   0.846   8.402
30912SOL    HW292761   5.899   0.725   8.449
30913SOL     OW92762   5.925   0.509   8.454
30913SOL    HW192763   5.873   0.426   8.437
30913SOL    HW292764   6.002   0.514   8.390
30914SOL     OW92765   6.724   0.380   9.126
30914SOL    HW192766   6.679   0.443   9.190
30914SOL    HW292767   6.817   0.411   9.109
30915SOL     OW92768   6.746   0.207   8.925
30915SOL    HW192769   6.746   0.271   9.002
30915SOL    HW292770   6.774   0.255   8.842
30916SOL     OW92771   5.594   1.326   7.648
30916SOL    HW192772   5.501   1.347   7.617
30916SOL    HW292773   5.604   1.227   7.661
30917SOL     OW92774   5.674   1.801   8.375
30917SOL    HW192775   5.632   1.715   8.348
30917SOL    HW292776   5.768   1.804   8.341
30918SOL     OW92777   6.090   1.568   8.358
30918SOL    HW192778   6.156   1.642   8.367
30918SOL    HW292779   6.134   1.489   8.316
30919SOL     OW92780   6.588   0.796   8.686
30919SOL    HW192781   6.629   0.764   8.772
30919SOL    HW292782   6.492   0.769   8.683
30920SOL     OW92783   5.626   0.544   8.562
30920SOL    HW192784   5.711   0.511   8.521
30920SOL    HW292785   5.639   0.559   8.660
30921SOL     OW92786   5.775   0.520   9.170
30921SOL    HW192787   5.834   0.480   9.100
30921SOL    HW292788   5.717   0.591   9.129
30922SOL     OW92789   6.955   0.950   9.108
30922SOL    HW192790   6.994   1.039   9.128
30922SOL    HW292791   6.965   0.930   9.011
30923SOL     OW92792   6.401   0.572   7.773
30923SOL    HW192793   6.408   0.483   7.727
30923SOL    HW292794   6.307   0.606   7.765
30924SOL     OW92795   7.243   0.604   8.654
30924SOL    HW192796   7.205   0.535   8.716
30924SOL    HW292797   7.325   0.568   8.610
30925SOL     OW92798   5.838   1.564   9.192
30925SOL    HW192799   5.808   1.621   9.268
30925SOL    HW292800   5.831   1.467   9.218
30926SOL     OW92801   6.257   0.464   8.717
30926SOL    HW192802   6.223   0.375   8.687
30926SOL    HW292803   6.283   0.518   8.637
30927SOL     OW92804   6.516   1.678   8.913
30927SOL    HW192805   6.492   1.660   8.818
30927SOL    HW292806   6.546   1.772   8.923
30928SOL     OW92807   6.059   0.500   7.639
30928SOL    HW192808   6.120   0.580   7.643
30928SOL    HW292809   5.964   0.531   7.646
30929SOL     OW92810   5.745   1.137   8.914
30929SOL    HW192811   5.767   1.076   8.990
30929SOL    HW292812   5.755   1.088   8.828
30930SOL     OW92813   6.933   1.059   8.682
30930SOL    HW192814   6.957   0.996   8.608
30930SOL    HW292815   6.843   1.099   8.664
30931SOL     OW92816   6.888   0.855   7.757
30931SOL    HW192817   6.802   0.824   7.799
30931SOL    HW292818   6.884   0.841   7.658
30932SOL     OW92819   7.345   1.747   8.602
30932SOL    HW192820   7.406   1.777   8.529
30932SOL    HW292821   7.307   1.658   8.580
30933SOL     OW92822   6.838   1.731   8.576
30933SOL    HW192823   6.922   1.736   8.522
30933SOL    HW292824   6.815   1.635   8.594
30934SOL     OW92825   5.669   1.258   8.470
30934SOL    HW192826   5.664   1.257   8.570
30934SOL    HW292827   5.586   1.217   8.432
30935SOL     OW92828   6.274   1.662   9.164
30935SOL    HW192829   6.218   1.743   9.173
30935SOL    HW292830   6.326   1.666   9.078
30936SOL     OW92831   7.312   0.135   7.971
30936SOL    HW192832   7.385   0.118   7.904
30936SOL    HW292833   7.281   0.048   8.009
30937SOL     OW92834   6.974   1.573   7.925
30937SOL    HW192835   7.041   1.585   7.851
30937SOL    HW292836   6.934   1.662   7.948
30938SOL     OW92837   5.716   1.794   9.299
30938SOL    HW192838   5.675   1.720   9.352
30938SOL    HW292839   5.780   1.845   9.357
30939SOL     OW92840   6.866   0.927   8.120
30939SOL    HW192841   6.926   0.846   8.122
30939SOL    HW292842   6.906   0.996   8.060
30940SOL     OW92843   6.416   1.273   8.870
30940SOL    HW192844   6.411   1.306   8.965
30940SOL    HW292845   6.330   1.292   8.824
30941SOL     OW92846   6.258   1.616   7.602
30941SOL    HW192847   6.267   1.626   7.503
30941SOL    HW292848   6.218   1.527   7.623
30942SOL     OW92849   7.236   1.720   8.842
30942SOL    HW192850   7.289   1.730   8.758
30942SOL    HW292851   7.209   1.810   8.876
30943SOL     OW92852   7.427   0.175   8.411
30943SOL    HW192853   7.466   0.090   8.375
30943SOL    HW292854   7.329   0.177   8.392
30944SOL     OW92855   5.849   0.326   8.168
30944SOL    HW192856   5.770   0.377   8.134
30944SOL    HW292857   5.840   0.311   8.266
30945SOL     OW92858   6.780   1.612   7.479
30945SOL    HW192859   6.786   1.519   7.516
30945SOL    HW292860   6.721   1.612   7.399
30946SOL     OW92861   6.408   1.002   8.820
30946SOL    HW192862   6.448   1.001   8.728
30946SOL    HW292863   6.418   1.094   8.860
30947SOL     OW92864   6.502   0.910   7.739
30947SOL    HW192865   6.565   0.948   7.671
30947SOL    HW292866   6.542   0.827   7.778
30948SOL     OW92867   7.090   1.607   7.492
30948SOL    HW192868   6.998   1.644   7.499
30948SOL    HW292869   7.128   1.627   7.402
30949SOL     OW92870   5.958   1.288   8.938
30949SOL    HW192871   5.945   1.381   8.904
30949SOL    HW292872   5.874   1.236   8.925
30950SOL     OW92873   7.200   1.292   8.737
30950SOL    HW192874   7.260   1.295   8.817
30950SOL    HW292875   7.125   1.356   8.750
30951SOL     OW92876   6.625   1.098   8.144
30951SOL    HW192877   6.555   1.051   8.198
30951SOL    HW292878   6.684   1.030   8.101
30952SOL     OW92879   6.600   0.236   8.419
30952SOL    HW192880   6.592   0.200   8.326
30952SOL    HW292881   6.598   0.160   8.484
30953SOL     OW92882   6.176   1.487   7.939
30953SOL    HW192883   6.218   1.429   7.869
30953SOL    HW292884   6.132   1.566   7.895
30954SOL     OW92885   7.295   0.385   8.829
30954SOL    HW192886   7.368   0.454   8.833
30954SOL    HW292887   7.323   0.310   8.770
30955SOL     OW92888   5.841   1.348   7.738
30955SOL    HW192889   5.745   1.349   7.711
30955SOL    HW292890   5.853   1.401   7.822
30956SOL     OW92891   5.691   1.013   9.174
30956SOL    HW192892   5.614   0.980   9.228
30956SOL    HW292893   5.776   0.983   9.216
30957SOL     OW92894   6.258   0.203   8.937
30957SOL    HW192895   6.348   0.187   8.897
30957SOL    HW292896   6.266   0.208   9.036
30958SOL     OW92897   5.661   0.345   7.481
30958SOL    HW192898   5.569   0.317   7.452
30958SOL    HW292899   5.692   0.422   7.425
30959SOL     OW92900   7.026   0.856   8.846
30959SOL    HW192901   6.969   0.908   8.783
30959SOL    HW292902   7.122   0.868   8.822
30960SOL     OW92903   5.658   0.166   7.766
30960SOL    HW192904   5.641   0.249   7.712
30960SOL    HW292905   5.748   0.129   7.744
30961SOL     OW92906   6.769   1.335   7.567
30961SOL    HW192907   6.670   1.324   7.569
30961SOL    HW292908   6.803   1.350   7.660
30962SOL     OW92909   6.199   0.842   8.879
30962SOL    HW192910   6.255   0.923   8.862
30962SOL    HW292911   6.258   0.762   8.882
30963SOL     OW92912   7.079   1.767   8.407
30963SOL    HW192913   7.112   1.831   8.338
30963SOL    HW292914   7.145   1.761   8.482
30964SOL     OW92915   6.302   0.565   9.156
30964SOL    HW192916   6.321   0.630   9.230
30964SOL    HW292917   6.362   0.485   9.165
30965SOL     OW92918   7.036   1.220   9.081
30965SOL    HW192919   7.027   1.210   9.180
30965SOL    HW292920   7.132   1.213   9.055
30966SOL     OW92921   5.976   1.741   9.008
30966SOL    HW192922   5.885   1.782   9.006
30966SOL    HW292923   5.969   1.647   9.040
30967SOL     OW92924   7.260   0.883   8.702
30967SOL    HW192925   7.233   0.794   8.665
30967SOL    HW292926   7.261   0.951   8.629
30968SOL     OW92927   6.811   0.325   7.897
30968SOL    HW192928   6.876   0.251   7.886
30968SOL    HW292929   6.831   0.375   7.981
30969SOL     OW92930   6.180   0.745   8.100
30969SOL    HW192931   6.230   0.830   8.081
30969SOL    HW292932   6.092   0.747   8.052
30970SOL     OW92933   7.363   0.342   9.090
30970SOL    HW192934   7.346   0.373   8.996
30970SOL    HW292935   7.279   0.305   9.128
30971SOL     OW92936   7.316   0.934   8.965
30971SOL    HW192937   7.354   1.025   8.980
30971SOL    HW292938   7.308   0.917   8.866
30972SOL     OW92939   6.445   1.374   7.464
30972SOL    HW192940   6.399   1.389   7.552
30972SOL    HW292941   6.489   1.459   7.434
30973SOL     OW92942   6.247   1.790   8.401
30973SOL    HW192943   6.201   1.878   8.388
30973SOL    HW292944   6.346   1.802   8.394
30974SOL     OW92945   6.445   0.956   8.309
30974SOL    HW192946   6.499   0.887   8.357
30974SOL    HW292947   6.413   1.025   8.375
30975SOL     OW92948   6.669   0.984   7.535
30975SOL    HW192949   6.646   1.037   7.453
30975SOL    HW292950   6.750   0.928   7.516
30976SOL     OW92951   7.447   1.569   8.299
30976SOL    HW192952   7.376   1.557   8.229
30976SOL    HW292953   7.448   1.490   8.359
30977SOL     OW92954   5.807   1.314   9.292
30977SOL    HW192955   5.742   1.241   9.271
30977SOL    HW292956   5.811   1.328   9.390
30978SOL     OW92957   5.665   1.240   8.101
30978SOL    HW192958   5.664   1.193   8.189
30978SOL    HW292959   5.747   1.212   8.050
30979SOL     OW92960   6.258   1.391   9.072
30979SOL    HW192961   6.180   1.341   9.110
30979SOL    HW292962   6.255   1.486   9.103
30980SOL     OW92963   7.410   0.192   8.675
30980SOL    HW192964   7.406   0.102   8.719
30980SOL    HW292965   7.413   0.181   8.576
30981SOL     OW92966   6.014   0.424   7.968
30981SOL    HW192967   6.044   0.352   7.906
30981SOL    HW292968   5.975   0.384   8.051
30982SOL     OW92969   7.291   1.487   8.552
30982SOL    HW192970   7.198   1.462   8.525
30982SOL    HW292971   7.317   1.437   8.634
30983SOL     OW92972   5.903   0.547   8.728
30983SOL    HW192973   5.941   0.488   8.800
30983SOL    HW292974   5.943   0.521   8.640
30984SOL     OW92975   6.398   1.586   8.135
30984SOL    HW192976   6.430   1.596   8.041
30984SOL    HW292977   6.319   1.524   8.137
30985SOL     OW92978   7.010   0.214   8.560
30985SOL    HW192979   7.062   0.149   8.615
30985SOL    HW292980   6.961   0.277   8.621
30986SOL     OW92981   6.587   0.034   8.602
30986SOL    HW192982   6.524  -0.038   8.571
30986SOL    HW292983   6.680  -0.002   8.602
30987SOL     OW92984   6.356   1.330   7.749
30987SOL    HW192985   6.310   1.243   7.766
30987SOL    HW292986   6.447   1.327   7.790
30988SOL     OW92987   6.204   1.567   8.732
30988SOL    HW192988   6.199   1.649   8.789
30988SOL    HW292989   6.293   1.564   8.687
30989SOL     OW92990   6.938   0.052   7.616
30989SOL    HW192991   6.973   0.011   7.532
30989SOL    HW292992   6.848   0.014   7.636
30990SOL     OW92993   6.886   0.453   8.139
30990SOL    HW192994   6.827   0.533   8.143
30990SOL    HW292995   6.901   0.418   8.232
30991SOL     OW92996   7.179   0.221   8.330
30991SOL    HW192997   7.095   0.220   8.384
30991SOL    HW292998   7.181   0.304   8.274
30992SOL     OW92999   5.625   1.077   7.748
30992SOL    HW193000   5.724   1.066   7.739
30992SOL    HW293001   5.585   0.991   7.780
30993SOL     OW93002   6.461   1.646   7.785
30993SOL    HW193003   6.384   1.611   7.731
30993SOL    HW293004   6.429   1.717   7.847
30994SOL     OW93005   5.816   0.628   9.423
30994SOL    HW193006   5.723   0.626   9.460
30994SOL    HW293007   5.817   0.589   9.331
30995SOL     OW93008   5.811   0.275  10.306
30995SOL    HW193009   5.846   0.258  10.398
30995SOL    HW293010   5.723   0.230  10.294
30996SOL     OW93011   5.605   0.368   9.957
30996SOL    HW193012   5.523   0.411   9.996
30996SOL    HW293013   5.577   0.295   9.894
30997SOL     OW93014   6.155   1.275  10.475
30997SOL    HW193015   6.062   1.268  10.438
30997SOL    HW293016   6.166   1.364  10.519
30998SOL     OW93017   7.141   1.511  10.013
30998SOL    HW193018   7.084   1.495  10.094
30998SOL    HW293019   7.082   1.521   9.933
30999SOL     OW93020   6.721   0.703  10.027
30999SOL    HW193021   6.778   0.781  10.002
30999SOL    HW293022   6.661   0.729  10.103
31000SOL     OW93023   7.341   0.607   9.541
31000SOL    HW193024   7.329   0.594   9.442
31000SOL    HW293025   7.311   0.526   9.590
31001SOL     OW93026   6.354   1.144  10.333
31001SOL    HW193027   6.276   1.161  10.393
31001SOL    HW293028   6.388   1.231  10.297
31002SOL     OW93029   6.436   0.798  11.133
31002SOL    HW193030   6.432   0.874  11.198
31002SOL    HW293031   6.458   0.834  11.042
31003SOL     OW93032   6.271   1.012   9.975
31003SOL    HW193033   6.340   0.996  10.045
31003SOL    HW293034   6.198   1.069  10.013
31004SOL     OW93035   6.272   1.161  11.113
31004SOL    HW193036   6.332   1.240  11.127
31004SOL    HW293037   6.186   1.192  11.072
31005SOL     OW93038   5.921   1.435  10.371
31005SOL    HW193039   5.843   1.404  10.318
31005SOL    HW293040   5.979   1.493  10.314
31006SOL     OW93041   7.046   1.505  10.649
31006SOL    HW193042   7.070   1.599  10.675
31006SOL    HW293043   7.030   1.451  10.731
31007SOL     OW93044   6.024   0.392  10.809
31007SOL    HW193045   6.106   0.336  10.818
31007SOL    HW293046   5.943   0.334  10.813
31008SOL     OW93047   7.189   0.447  10.047
31008SOL    HW193048   7.115   0.493   9.997
31008SOL    HW293049   7.240   0.515  10.100
31009SOL     OW93050   5.817   1.713   9.793
31009SOL    HW193051   5.851   1.790   9.847
31009SOL    HW293052   5.861   1.713   9.703
31010SOL     OW93053   6.713   1.341  11.000
31010SOL    HW193054   6.760   1.341  11.088
31010SOL    HW293055   6.665   1.254  10.989
31011SOL     OW93056   5.816   1.434   9.848
31011SOL    HW193057   5.790   1.530   9.848
31011SOL    HW293058   5.745   1.380   9.893
31012SOL     OW93059   5.826   1.091  10.196
31012SOL    HW193060   5.840   1.007  10.248
31012SOL    HW293061   5.771   1.155  10.251
31013SOL     OW93062   6.206   1.786  10.749
31013SOL    HW193063   6.114   1.769  10.784
31013SOL    HW293064   6.234   1.878  10.775
31014SOL     OW93065   6.192   0.964   9.433
31014SOL    HW193066   6.199   1.048   9.379
31014SOL    HW293067   6.238   0.977   9.521
31015SOL     OW93068   7.180   0.114  10.790
31015SOL    HW193069   7.162   0.181  10.718
31015SOL    HW293070   7.177   0.160  10.879
31016SOL     OW93071   5.708   0.643   9.873
31016SOL    HW193072   5.663   0.555   9.890
31016SOL    HW293073   5.707   0.697   9.957
31017SOL     OW93074   7.428   1.767   9.669
31017SOL    HW193075   7.482   1.738   9.749
31017SOL    HW293076   7.458   1.857   9.640
31018SOL     OW93077   5.613   1.596   9.427
31018SOL    HW193078   5.594   1.500   9.448
31018SOL    HW293079   5.580   1.654   9.502
31019SOL     OW93080   7.275   0.922   9.922
31019SOL    HW193081   7.370   0.893   9.930
31019SOL    HW293082   7.267   0.987   9.847
31020SOL     OW93083   7.227   1.108   9.742
31020SOL    HW193084   7.313   1.110   9.690
31020SOL    HW293085   7.241   1.155   9.830
31021SOL     OW93086   5.699   0.737  10.907
31021SOL    HW193087   5.787   0.724  10.952
31021SOL    HW293088   5.686   0.834  10.885
31022SOL     OW93089   6.199   1.365  10.036
31022SOL    HW193090   6.150   1.278  10.045
31022SOL    HW293091   6.176   1.408   9.949
31023SOL     OW93092   6.879   1.228  10.733
31023SOL    HW193093   6.916   1.155  10.675
31023SOL    HW293094   6.931   1.233  10.818
31024SOL     OW93095   6.395   0.004   9.812
31024SOL    HW193096   6.435   0.095   9.803
31024SOL    HW293097   6.295   0.012   9.818
31025SOL     OW93098   5.783   0.976  10.574
31025SOL    HW193099   5.872   0.931  10.560
31025SOL    HW293100   5.710   0.911  10.555
31026SOL     OW93101   7.111   0.999   9.500
31026SOL    HW193102   7.048   0.923   9.513
31026SOL    HW293103   7.159   1.017   9.586
31027SOL     OW93104   6.773   1.792  10.926
31027SOL    HW193105   6.797   1.852  10.850
31027SOL    HW293106   6.780   1.697  10.896
31028SOL     OW93107   5.903   0.251  11.111
31028SOL    HW193108   5.974   0.322  11.117
31028SOL    HW293109   5.815   0.290  11.139
31029SOL     OW93110   7.052   1.417  10.263
31029SOL    HW193111   6.993   1.423  10.343
31029SOL    HW293112   7.037   1.329  10.217
31030SOL     OW93113   7.253   1.714   9.882
31030SOL    HW193114   7.212   1.691   9.794
31030SOL    HW293115   7.235   1.640   9.947
31031SOL     OW93116   6.184   0.729   9.580
31031SOL    HW193117   6.208   0.798   9.512
31031SOL    HW293118   6.106   0.762   9.634
31032SOL     OW93119   6.867   0.345  10.254
31032SOL    HW193120   6.781   0.295  10.241
31032SOL    HW293121   6.929   0.291  10.310
31033SOL     OW93122   7.162   1.662   9.617
31033SOL    HW193123   7.251   1.708   9.620
31033SOL    HW293124   7.141   1.638   9.522
31034SOL     OW93125   6.393   0.605  10.775
31034SOL    HW193126   6.346   0.602  10.864
31034SOL    HW293127   6.342   0.550  10.709
31035SOL     OW93128   6.980   0.469  10.984
31035SOL    HW193129   6.960   0.512  11.072
31035SOL    HW293130   7.058   0.407  10.993
31036SOL     OW93131   6.559   0.890  10.882
31036SOL    HW193132   6.605   0.806  10.853
31036SOL    HW293133   6.503   0.924  10.807
31037SOL     OW93134   6.577   0.410  10.552
31037SOL    HW193135   6.500   0.444  10.606
31037SOL    HW293136   6.543   0.359  10.473
31038SOL     OW93137   6.627   0.701   9.739
31038SOL    HW193138   6.653   0.697   9.835
31038SOL    HW293139   6.542   0.650   9.725
31039SOL     OW93140   5.662   0.811  10.099
31039SOL    HW193141   5.761   0.799  10.108
31039SOL    HW293142   5.638   0.906  10.120
31040SOL     OW93143   5.716   1.821  10.881
31040SOL    HW193144   5.706   1.806  10.980
31040SOL    HW293145   5.630   1.857  10.845
31041SOL     OW93146   6.451   0.348   9.505
31041SOL    HW193147   6.510   0.411   9.456
31041SOL    HW293148   6.470   0.254   9.476
31042SOL     OW93149   7.305   0.585  11.141
31042SOL    HW193150   7.279   0.674  11.105
31042SOL    HW293151   7.303   0.517  11.068
31043SOL     OW93152   6.948   1.144   9.855
31043SOL    HW193153   7.031   1.115   9.807
31043SOL    HW293154   6.899   1.211   9.799
31044SOL     OW93155   6.136   0.196  10.195
31044SOL    HW193156   6.131   0.191  10.295
31044SOL    HW293157   6.138   0.292  10.166
31045SOL     OW93158   6.594   1.456   9.787
31045SOL    HW193159   6.548   1.528   9.735
31045SOL    HW293160   6.590   1.476   9.885
31046SOL     OW93161   5.937   1.801  10.163
31046SOL    HW193162   5.987   1.715  10.169
31046SOL    HW293163   6.002   1.878  10.160
31047SOL     OW93164   7.381   1.066  10.183
31047SOL    HW193165   7.319   1.051  10.107
31047SOL    HW293166   7.329   1.077  10.268
31048SOL     OW93167   6.813   1.550  10.816
31048SOL    HW193168   6.819   1.473  10.880
31048SOL    HW293169   6.761   1.524  10.736
31049SOL     OW93170   5.907   0.943   9.552
31049SOL    HW193171   5.989   0.982   9.510
31049SOL    HW293172   5.880   0.861   9.503
31050SOL     OW93173   7.044   0.735  10.038
31050SOL    HW193174   7.039   0.670  10.113
31050SOL    HW293175   7.124   0.794  10.051
31051SOL     OW93176   6.047   1.266  11.037
31051SOL    HW193177   5.997   1.267  10.951
31051SOL    HW293178   5.984   1.248  11.113
31052SOL     OW93179   6.697   1.776   9.547
31052SOL    HW193180   6.637   1.714   9.597
31052SOL    HW293181   6.728   1.732   9.462
31053SOL     OW93182   5.788   0.285  10.808
31053SOL    HW193183   5.708   0.345  10.795
31053SOL    HW293184   5.778   0.236  10.894
31054SOL     OW93185   6.050   1.743   9.633
31054SOL    HW193186   6.083   1.782   9.719
31054SOL    HW293187   6.126   1.736   9.568
31055SOL     OW93188   6.986   0.107   9.736
31055SOL    HW193189   6.962   0.070   9.646
31055SOL    HW293190   7.085   0.123   9.740
31056SOL     OW93191   5.835   1.785  10.551
31056SOL    HW193192   5.892   1.720  10.601
31056SOL    HW293193   5.819   1.752  10.458
31057SOL     OW93194   6.526   1.698  10.214
31057SOL    HW193195   6.606   1.641  10.235
31057SOL    HW293196   6.477   1.658  10.137
31058SOL     OW93197   5.968   0.700   9.790
31058SOL    HW193198   6.013   0.610   9.787
31058SOL    HW293199   5.874   0.689   9.823
31059SOL     OW93200   7.133   0.222  11.039
31059SOL    HW193201   7.128   0.259  11.131
31059SOL    HW293202   7.061   0.153  11.027
31060SOL     OW93203   6.200   0.122   9.427
31060SOL    HW193204   6.298   0.100   9.434
31060SOL    HW293205   6.169   0.105   9.334
31061SOL     OW93206   6.367   0.264  11.059
31061SOL    HW193207   6.434   0.203  11.102
31061SOL    HW293208   6.294   0.283  11.124
31062SOL     OW93209   6.474   1.514  10.505
31062SOL    HW193210   6.451   1.489  10.411
31062SOL    HW293211   6.535   1.445  10.544
31063SOL     OW93212   6.937   0.590  10.743
31063SOL    HW193213   6.965   0.547  10.828
31063SOL    HW293214   6.962   0.686  10.744
31064SOL     OW93215   6.389   1.402  10.234
31064SOL    HW193216   6.479   1.416  10.192
31064SOL    HW293217   6.318   1.404  10.163
31065SOL     OW93218   6.508   0.503  10.209
31065SOL    HW193219   6.483   0.494  10.113
31065SOL    HW293220   6.556   0.421  10.240
31066SOL     OW93221   6.125   0.064   9.822
31066SOL    HW193222   6.044   0.065   9.880
31066SOL    HW293223   6.128   0.147   9.767
31067SOL     OW93224   7.020   1.188   9.351
31067SOL    HW193225   7.052   1.112   9.408
31067SOL    HW293226   6.928   1.215   9.381
31068SOL     OW93227   5.883   0.035   9.481
31068SOL    HW193228   5.932   0.119   9.460
31068SOL    HW293229   5.945  -0.030   9.526
31069SOL     OW93230   6.521   0.236   9.790
31069SOL    HW193231   6.473   0.277   9.712
31069SOL    HW293232   6.620   0.234   9.771
31070SOL     OW93233   6.662   0.683  10.774
31070SOL    HW193234   6.582   0.622  10.777
31070SOL    HW293235   6.743   0.630  10.750
31071SOL     OW93236   6.813   1.570  10.103
31071SOL    HW193237   6.834   1.644  10.038
31071SOL    HW293238   6.881   1.570  10.176
31072SOL     OW93239   6.857   1.797   9.901
31072SOL    HW193240   6.901   1.861   9.837
31072SOL    HW293241   6.807   1.849   9.971
31073SOL     OW93242   6.618   0.549   9.326
31073SOL    HW193243   6.577   0.631   9.287
31073SOL    HW293244   6.682   0.575   9.399
31074SOL     OW93245   5.664   0.556  10.696
31074SOL    HW193246   5.756   0.555  10.655
31074SOL    HW293247   5.658   0.630  10.763
31075SOL     OW93248   6.147   0.222  10.457
31075SOL    HW193249   6.185   0.138  10.494
31075SOL    HW293250   6.059   0.241  10.501
31076SOL     OW93251   6.452   0.454   9.952
31076SOL    HW193252   6.420   0.526   9.890
31076SOL    HW293253   6.476   0.373   9.899
31077SOL     OW93254   6.603   0.039  10.063
31077SOL    HW193255   6.531   0.044   9.994
31077SOL    HW293256   6.579  -0.030  10.132
31078SOL     OW93257   7.015   1.173  10.177
31078SOL    HW193258   6.960   1.089  10.170
31078SOL    HW293259   7.041   1.202  10.085
31079SOL     OW93260   7.052   0.590  10.302
31079SOL    HW193261   7.022   0.495  10.309
31079SOL    HW293262   7.125   0.606  10.368
31080SOL     OW93263   7.443   0.833   9.687
31080SOL    HW193264   7.485   0.769   9.751
31080SOL    HW293265   7.405   0.782   9.609
31081SOL     OW93266   6.074   1.385   9.484
31081SOL    HW193267   5.987   1.370   9.531
31081SOL    HW293268   6.057   1.411   9.389
31082SOL     OW93269   7.250   1.280   9.967
31082SOL    HW193270   7.349   1.288   9.981
31082SOL    HW293271   7.205   1.364   9.998
31083SOL     OW93272   6.976   0.575   9.388
31083SOL    HW193273   6.922   0.554   9.469
31083SOL    HW293274   7.067   0.534   9.397
31084SOL     OW93275   6.113   0.256   9.638
31084SOL    HW193276   6.140   0.197   9.563
31084SOL    HW293277   6.113   0.351   9.607
31085SOL     OW93278   7.340   1.223  10.898
31085SOL    HW193279   7.431   1.184  10.885
31085SOL    HW293280   7.348   1.319  10.922
31086SOL     OW93281   6.650   1.347  10.650
31086SOL    HW193282   6.570   1.324  10.705
31086SOL    HW293283   6.733   1.321  10.699
31087SOL     OW93284   7.178   1.629  10.935
31087SOL    HW193285   7.205   1.663  10.845
31087SOL    HW293286   7.257   1.591  10.981
31088SOL     OW93287   6.697   1.195  10.410
31088SOL    HW193288   6.657   1.239  10.491
31088SOL    HW293289   6.656   1.232  10.327
31089SOL     OW93290   7.224   1.099  10.389
31089SOL    HW193291   7.229   1.180  10.448
31089SOL    HW293292   7.138   1.101  10.338
31090SOL     OW93293   6.501   0.089  10.712
31090SOL    HW193294   6.526   0.069  10.617
31090SOL    HW293295   6.573   0.145  10.754
31091SOL     OW93296   6.566   1.116  11.029
31091SOL    HW193297   6.467   1.122  11.039
31091SOL    HW293298   6.589   1.036  10.973
31092SOL     OW93299   6.291   1.050   9.678
31092SOL    HW193300   6.277   1.057   9.777
31092SOL    HW293301   6.375   0.999   9.660
31093SOL     OW93302   5.996   0.813  10.561
31093SOL    HW193303   6.082   0.825  10.611
31093SOL    HW293304   5.954   0.726  10.588
31094SOL     OW93305   6.860   0.386  10.572
31094SOL    HW193306   6.881   0.460  10.636
31094SOL    HW293307   6.771   0.403  10.529
31095SOL     OW93308   5.650   1.564  10.641
31095SOL    HW193309   5.604   1.646  10.607
31095SOL    HW293310   5.748   1.583  10.650
31096SOL     OW93311   5.953   1.100   9.811
31096SOL    HW193312   5.946   1.183   9.755
31096SOL    HW293313   5.957   1.020   9.751
31097SOL     OW93314   6.152   0.537  10.175
31097SOL    HW193315   6.164   0.603  10.101
31097SOL    HW293316   6.198   0.571  10.258
31098SOL     OW93317   6.838   1.348   9.698
31098SOL    HW193318   6.888   1.425   9.738
31098SOL    HW293319   6.743   1.350   9.730
31099SOL     OW93320   6.858   1.445  10.452
31099SOL    HW193321   6.905   1.458  10.539
31099SOL    HW293322   6.792   1.371  10.461
31100SOL     OW93323   7.168   0.639   9.782
31100SOL    HW193324   7.137   0.700   9.855
31100SOL    HW293325   7.218   0.691   9.713
31101SOL     OW93326   5.940   1.510  10.639
31101SOL    HW193327   5.919   1.466  10.552
31101SOL    HW293328   6.037   1.536  10.642
31102SOL     OW93329   5.988   0.751  10.908
31102SOL    HW193330   6.056   0.806  10.861
31102SOL    HW293331   6.028   0.663  10.935
31103SOL     OW93332   7.173   0.779  10.980
31103SOL    HW193333   7.081   0.817  10.975
31103SOL    HW293334   7.233   0.826  10.915
31104SOL     OW93335   6.599   0.105  11.080
31104SOL    HW193336   6.605   0.190  11.028
31104SOL    HW293337   6.631   0.029  11.023
31105SOL     OW93338   6.090   0.050  11.050
31105SOL    HW193339   6.048  -0.007  10.980
31105SOL    HW293340   6.024   0.119  11.082
31106SOL     OW93341   6.159   0.870  10.339
31106SOL    HW193342   6.203   0.959  10.330
31106SOL    HW293343   6.096   0.870  10.416
31107SOL     OW93344   6.946   0.862  10.355
31107SOL    HW193345   6.871   0.862  10.289
31107SOL    HW293346   6.983   0.770  10.364
31108SOL     OW93347   6.795   0.525   9.585
31108SOL    HW193348   6.808   0.441   9.639
31108SOL    HW293349   6.766   0.599   9.645
31109SOL     OW93350   5.893   0.213  10.541
31109SOL    HW193351   5.870   0.250  10.631
31109SOL    HW293352   5.863   0.118  10.535
31110SOL     OW93353   5.623   1.310  10.592
31110SOL    HW193354   5.676   1.261  10.660
31110SOL    HW293355   5.645   1.408  10.597
31111SOL     OW93356   6.318   0.634  10.374
31111SOL    HW193357   6.377   0.608  10.298
31111SOL    HW293358   6.290   0.730  10.363
31112SOL     OW93359   7.314   0.935  11.164
31112SOL    HW193360   7.268   0.928  11.075
31112SOL    HW293361   7.252   0.979  11.230
31113SOL     OW93362   5.893   0.063   9.928
31113SOL    HW193363   5.882   0.157   9.961
31113SOL    HW293364   5.888   0.000  10.005
31114SOL     OW93365   7.208   0.367   9.684
31114SOL    HW193366   7.210   0.291   9.748
31114SOL    HW293367   7.160   0.444   9.724
31115SOL     OW93368   6.609   0.766  10.276
31115SOL    HW193369   6.624   0.787  10.372
31115SOL    HW293370   6.579   0.671  10.267
31116SOL     OW93371   6.566   1.573  11.010
31116SOL    HW193372   6.546   1.617  10.922
31116SOL    HW293373   6.605   1.482  10.994
31117SOL     OW93374   7.445   1.518  10.915
31117SOL    HW193375   7.459   1.545  10.820
31117SOL    HW293376   7.528   1.540  10.968
31118SOL     OW93377   5.936   0.898  11.114
31118SOL    HW193378   6.012   0.942  11.162
31118SOL    HW293379   5.971   0.851  11.032
31119SOL     OW93380   7.126   0.274   9.435
31119SOL    HW193381   7.065   0.199   9.458
31119SOL    HW293382   7.148   0.326   9.518
31120SOL     OW93383   6.889   0.838   9.352
31120SOL    HW193384   6.923   0.745   9.367
31120SOL    HW293385   6.907   0.865   9.257
31121SOL     OW93386   6.654   1.333  10.159
31121SOL    HW193387   6.661   1.249  10.104
31121SOL    HW293388   6.716   1.402  10.123
31122SOL     OW93389   5.905   0.810  10.259
31122SOL    HW193390   5.998   0.846  10.264
31122SOL    HW293391   5.899   0.725  10.311
31123SOL     OW93392   5.925   0.509  10.316
31123SOL    HW193393   5.873   0.426  10.299
31123SOL    HW293394   6.002   0.514  10.252
31124SOL     OW93395   6.724   0.380  10.988
31124SOL    HW193396   6.679   0.443  11.052
31124SOL    HW293397   6.817   0.411  10.971
31125SOL     OW93398   6.746   0.207  10.787
31125SOL    HW193399   6.746   0.271  10.864
31125SOL    HW293400   6.774   0.255  10.704
31126SOL     OW93401   5.594   1.326   9.510
31126SOL    HW193402   5.501   1.347   9.479
31126SOL    HW293403   5.604   1.227   9.523
31127SOL     OW93404   5.674   1.801  10.237
31127SOL    HW193405   5.632   1.715  10.210
31127SOL    HW293406   5.768   1.804  10.203
31128SOL     OW93407   6.090   1.568  10.220
31128SOL    HW193408   6.156   1.642  10.229
31128SOL    HW293409   6.134   1.489  10.178
31129SOL     OW93410   6.588   0.796  10.548
31129SOL    HW193411   6.629   0.764  10.634
31129SOL    HW293412   6.492   0.769  10.545
31130SOL     OW93413   5.626   0.544  10.424
31130SOL    HW193414   5.711   0.511  10.383
31130SOL    HW293415   5.639   0.559  10.522
31131SOL     OW93416   5.775   0.520  11.032
31131SOL    HW193417   5.834   0.480  10.962
31131SOL    HW293418   5.717   0.591  10.991
31132SOL     OW93419   6.955   0.950  10.970
31132SOL    HW193420   6.994   1.039  10.990
31132SOL    HW293421   6.965   0.930  10.873
31133SOL     OW93422   6.401   0.572   9.635
31133SOL    HW193423   6.408   0.483   9.589
31133SOL    HW293424   6.307   0.606   9.627
31134SOL     OW93425   7.243   0.604  10.516
31134SOL    HW193426   7.205   0.535  10.578
31134SOL    HW293427   7.325   0.568  10.472
31135SOL     OW93428   5.838   1.564  11.054
31135SOL    HW193429   5.808   1.621  11.130
31135SOL    HW293430   5.831   1.467  11.080
31136SOL     OW93431   6.257   0.464  10.579
31136SOL    HW193432   6.223   0.375  10.549
31136SOL    HW293433   6.283   0.518  10.499
31137SOL     OW93434   6.516   1.678  10.775
31137SOL    HW193435   6.492   1.660  10.680
31137SOL    HW293436   6.546   1.772  10.785
31138SOL     OW93437   6.059   0.500   9.501
31138SOL    HW193438   6.120   0.580   9.505
31138SOL    HW293439   5.964   0.531   9.508
31139SOL     OW93440   5.745   1.137  10.776
31139SOL    HW193441   5.767   1.076  10.852
31139SOL    HW293442   5.755   1.088  10.690
31140SOL     OW93443   6.933   1.059  10.544
31140SOL    HW193444   6.957   0.996  10.470
31140SOL    HW293445   6.843   1.099  10.526
31141SOL     OW93446   6.888   0.855   9.619
31141SOL    HW193447   6.802   0.824   9.661
31141SOL    HW293448   6.884   0.841   9.520
31142SOL     OW93449   7.345   1.747  10.464
31142SOL    HW193450   7.406   1.777  10.391
31142SOL    HW293451   7.307   1.658  10.442
31143SOL     OW93452   6.838   1.731  10.438
31143SOL    HW193453   6.922   1.736  10.384
31143SOL    HW293454   6.815   1.635  10.456
31144SOL     OW93455   5.669   1.258  10.332
31144SOL    HW193456   5.664   1.257  10.432
31144SOL    HW293457   5.586   1.217  10.294
31145SOL     OW93458   6.274   1.662  11.026
31145SOL    HW193459   6.218   1.743  11.035
31145SOL    HW293460   6.326   1.666  10.940
31146SOL     OW93461   7.312   0.135   9.833
31146SOL    HW193462   7.385   0.118   9.766
31146SOL    HW293463   7.281   0.048   9.871
31147SOL     OW93464   6.974   1.573   9.787
31147SOL    HW193465   7.041   1.585   9.713
31147SOL    HW293466   6.934   1.662   9.810
31148SOL     OW93467   5.716   1.794  11.161
31148SOL    HW193468   5.675   1.720  11.214
31148SOL    HW293469   5.780   1.845  11.219
31149SOL     OW93470   6.866   0.927   9.982
31149SOL    HW193471   6.926   0.846   9.984
31149SOL    HW293472   6.906   0.996   9.922
31150SOL     OW93473   6.416   1.273  10.732
31150SOL    HW193474   6.411   1.306  10.827
31150SOL    HW293475   6.330   1.292  10.686
31151SOL     OW93476   6.258   1.616   9.464
31151SOL    HW193477   6.267   1.626   9.365
31151SOL    HW293478   6.218   1.527   9.485
31152SOL     OW93479   7.236   1.720  10.704
31152SOL    HW193480   7.289   1.730  10.620
31152SOL    HW293481   7.209   1.810  10.738
31153SOL     OW93482   7.427   0.175  10.273
31153SOL    HW193483   7.466   0.090  10.237
31153SOL    HW293484   7.329   0.177  10.254
31154SOL     OW93485   5.849   0.326  10.030
31154SOL    HW193486   5.770   0.377   9.996
31154SOL    HW293487   5.840   0.311  10.128
31155SOL     OW93488   6.780   1.612   9.341
31155SOL    HW193489   6.786   1.519   9.378
31155SOL    HW293490   6.721   1.612   9.261
31156SOL     OW93491   6.408   1.002  10.682
31156SOL    HW193492   6.448   1.001  10.590
31156SOL    HW293493   6.418   1.094  10.722
31157SOL     OW93494   6.502   0.910   9.601
31157SOL    HW193495   6.565   0.948   9.533
31157SOL    HW293496   6.542   0.827   9.640
31158SOL     OW93497   7.090   1.607   9.354
31158SOL    HW193498   6.998   1.644   9.361
31158SOL    HW293499   7.128   1.627   9.264
31159SOL     OW93500   5.958   1.288  10.800
31159SOL    HW193501   5.945   1.381  10.766
31159SOL    HW293502   5.874   1.236  10.787
31160SOL     OW93503   7.200   1.292  10.599
31160SOL    HW193504   7.260   1.295  10.679
31160SOL    HW293505   7.125   1.356  10.612
31161SOL     OW93506   6.625   1.098  10.006
31161SOL    HW193507   6.555   1.051  10.060
31161SOL    HW293508   6.684   1.030   9.963
31162SOL     OW93509   6.600   0.236  10.281
31162SOL    HW193510   6.592   0.200  10.188
31162SOL    HW293511   6.598   0.160  10.346
31163SOL     OW93512   6.176   1.487   9.801
31163SOL    HW193513   6.218   1.429   9.731
31163SOL    HW293514   6.132   1.566   9.757
31164SOL     OW93515   7.295   0.385  10.691
31164SOL    HW193516   7.368   0.454  10.695
31164SOL    HW293517   7.323   0.310  10.632
31165SOL     OW93518   5.841   1.348   9.600
31165SOL    HW193519   5.745   1.349   9.573
31165SOL    HW293520   5.853   1.401   9.684
31166SOL     OW93521   5.691   1.013  11.036
31166SOL    HW193522   5.614   0.980  11.090
31166SOL    HW293523   5.776   0.983  11.078
31167SOL     OW93524   6.258   0.203  10.799
31167SOL    HW193525   6.348   0.187  10.759
31167SOL    HW293526   6.266   0.208  10.898
31168SOL     OW93527   5.661   0.345   9.343
31168SOL    HW193528   5.569   0.317   9.314
31168SOL    HW293529   5.692   0.422   9.287
31169SOL     OW93530   7.026   0.856  10.708
31169SOL    HW193531   6.969   0.908  10.645
31169SOL    HW293532   7.122   0.868  10.684
31170SOL     OW93533   5.658   0.166   9.628
31170SOL    HW193534   5.641   0.249   9.574
31170SOL    HW293535   5.748   0.129   9.606
31171SOL     OW93536   6.769   1.335   9.429
31171SOL    HW193537   6.670   1.324   9.431
31171SOL    HW293538   6.803   1.350   9.522
31172SOL     OW93539   6.199   0.842  10.741
31172SOL    HW193540   6.255   0.923  10.724
31172SOL    HW293541   6.258   0.762  10.744
31173SOL     OW93542   7.079   1.767  10.269
31173SOL    HW193543   7.112   1.831  10.200
31173SOL    HW293544   7.145   1.761  10.344
31174SOL     OW93545   6.302   0.565  11.018
31174SOL    HW193546   6.321   0.630  11.092
31174SOL    HW293547   6.362   0.485  11.027
31175SOL     OW93548   7.036   1.220  10.943
31175SOL    HW193549   7.027   1.210  11.042
31175SOL    HW293550   7.132   1.213  10.917
31176SOL     OW93551   5.976   1.741  10.870
31176SOL    HW193552   5.885   1.782  10.868
31176SOL    HW293553   5.969   1.647  10.902
31177SOL     OW93554   7.260   0.883  10.564
31177SOL    HW193555   7.233   0.794  10.527
31177SOL    HW293556   7.261   0.951  10.491
31178SOL     OW93557   6.811   0.325   9.759
31178SOL    HW193558   6.876   0.251   9.748
31178SOL    HW293559   6.831   0.375   9.843
31179SOL     OW93560   6.180   0.745   9.962
31179SOL    HW193561   6.230   0.830   9.943
31179SOL    HW293562   6.092   0.747   9.914
31180SOL     OW93563   7.363   0.342  10.952
31180SOL    HW193564   7.346   0.373  10.858
31180SOL    HW293565   7.279   0.305  10.990
31181SOL     OW93566   7.316   0.934  10.827
31181SOL    HW193567   7.354   1.025  10.842
31181SOL    HW293568   7.308   0.917  10.728
31182SOL     OW93569   6.445   1.374   9.326
31182SOL    HW193570   6.399   1.389   9.414
31182SOL    HW293571   6.489   1.459   9.296
31183SOL     OW93572   6.247   1.790  10.263
31183SOL    HW193573   6.201   1.878  10.250
31183SOL    HW293574   6.346   1.802  10.256
31184SOL     OW93575   6.445   0.956  10.171
31184SOL    HW193576   6.499   0.887  10.219
31184SOL    HW293577   6.413   1.025  10.237
31185SOL     OW93578   6.669   0.984   9.397
31185SOL    HW193579   6.646   1.037   9.315
31185SOL    HW293580   6.750   0.928   9.378
31186SOL     OW93581   7.447   1.569  10.161
31186SOL    HW193582   7.376   1.557  10.091
31186SOL    HW293583   7.448   1.490  10.221
31187SOL     OW93584   5.807   1.314  11.154
31187SOL    HW193585   5.742   1.241  11.133
31187SOL    HW293586   5.811   1.328  11.252
31188SOL     OW93587   5.665   1.240   9.963
31188SOL    HW193588   5.664   1.193  10.051
31188SOL    HW293589   5.747   1.212   9.912
31189SOL     OW93590   6.258   1.391  10.934
31189SOL    HW193591   6.180   1.341  10.972
31189SOL    HW293592   6.255   1.486  10.965
31190SOL     OW93593   7.410   0.192  10.537
31190SOL    HW193594   7.406   0.102  10.581
31190SOL    HW293595   7.413   0.181  10.438
31191SOL     OW93596   6.014   0.424   9.830
31191SOL    HW193597   6.044   0.352   9.768
31191SOL    HW293598   5.975   0.384   9.913
31192SOL     OW93599   7.291   1.487  10.414
31192SOL    HW193600   7.198   1.462  10.387
31192SOL    HW293601   7.317   1.437  10.496
31193SOL     OW93602   5.903   0.547  10.590
31193SOL    HW193603   5.941   0.488  10.662
31193SOL    HW293604   5.943   0.521  10.502
31194SOL     OW93605   6.398   1.586   9.997
31194SOL    HW193606   6.430   1.596   9.903
31194SOL    HW293607   6.319   1.524   9.999
31195SOL     OW93608   7.010   0.214  10.422
31195SOL    HW193609   7.062   0.149  10.477
31195SOL    HW293610   6.961   0.277  10.483
31196SOL     OW93611   6.587   0.034  10.464
31196SOL    HW193612   6.524  -0.038  10.433
31196SOL    HW293613   6.680  -0.002  10.464
31197SOL     OW93614   6.356   1.330   9.611
31197SOL    HW193615   6.310   1.243   9.628
31197SOL    HW293616   6.447   1.327   9.652
31198SOL     OW93617   6.204   1.567  10.594
31198SOL    HW193618   6.199   1.649  10.651
31198SOL    HW293619   6.293   1.564  10.549
31199SOL     OW93620   6.938   0.052   9.478
31199SOL    HW193621   6.973   0.011   9.394
31199SOL    HW293622   6.848   0.014   9.498
31200SOL     OW93623   6.886   0.453  10.001
31200SOL    HW193624   6.827   0.533  10.005
31200SOL    HW293625   6.901   0.418  10.094
31201SOL     OW93626   7.179   0.221  10.192
31201SOL    HW193627   7.095   0.220  10.246
31201SOL    HW293628   7.181   0.304  10.136
31202SOL     OW93629   5.625   1.077   9.610
31202SOL    HW193630   5.724   1.066   9.601
31202SOL    HW293631   5.585   0.991   9.642
31203SOL     OW93632   6.461   1.646   9.647
31203SOL    HW193633   6.384   1.611   9.593
31203SOL    HW293634   6.429   1.717   9.709
31204SOL     OW93635   5.816   0.628  11.285
31204SOL    HW193636   5.723   0.626  11.322
31204SOL    HW293637   5.817   0.589  11.193
31205SOL     OW93638   5.811   0.275  12.168
31205SOL    HW193639   5.846   0.258  12.260
31205SOL    HW293640   5.723   0.230  12.156
31206SOL     OW93641   5.605   0.368  11.819
31206SOL    HW193642   5.523   0.411  11.858
31206SOL    HW293643   5.577   0.295  11.756
31207SOL     OW93644   6.155   1.275  12.337
31207SOL    HW193645   6.062   1.268  12.300
31207SOL    HW293646   6.166   1.364  12.381
31208SOL     OW93647   7.141   1.511  11.875
31208SOL    HW193648   7.084   1.495  11.956
31208SOL    HW293649   7.082   1.521  11.795
31209SOL     OW93650   6.721   0.703  11.889
31209SOL    HW193651   6.778   0.781  11.864
31209SOL    HW293652   6.661   0.729  11.965
31210SOL     OW93653   7.341   0.607  11.403
31210SOL    HW193654   7.329   0.594  11.304
31210SOL    HW293655   7.311   0.526  11.452
31211SOL     OW93656   6.354   1.144  12.195
31211SOL    HW193657   6.276   1.161  12.255
31211SOL    HW293658   6.388   1.231  12.159
31212SOL     OW93659   6.271   1.012  11.837
31212SOL    HW193660   6.340   0.996  11.907
31212SOL    HW293661   6.198   1.069  11.875
31213SOL     OW93662   5.921   1.435  12.233
31213SOL    HW193663   5.843   1.404  12.180
31213SOL    HW293664   5.979   1.493  12.176
31214SOL     OW93665   7.046   1.505  12.511
31214SOL    HW193666   7.070   1.599  12.537
31214SOL    HW293667   7.030   1.451  12.593
31215SOL     OW93668   6.024   0.392  12.671
31215SOL    HW193669   6.106   0.336  12.680
31215SOL    HW293670   5.943   0.334  12.675
31216SOL     OW93671   7.189   0.447  11.909
31216SOL    HW193672   7.115   0.493  11.859
31216SOL    HW293673   7.240   0.515  11.962
31217SOL     OW93674   5.817   1.713  11.655
31217SOL    HW193675   5.851   1.790  11.709
31217SOL    HW293676   5.861   1.713  11.565
31218SOL     OW93677   5.816   1.434  11.710
31218SOL    HW193678   5.790   1.530  11.710
31218SOL    HW293679   5.745   1.380  11.755
31219SOL     OW93680   5.826   1.091  12.058
31219SOL    HW193681   5.840   1.007  12.110
31219SOL    HW293682   5.771   1.155  12.113
31220SOL     OW93683   6.206   1.786  12.611
31220SOL    HW193684   6.114   1.769  12.646
31220SOL    HW293685   6.234   1.878  12.637
31221SOL     OW93686   6.192   0.964  11.295
31221SOL    HW193687   6.199   1.048  11.241
31221SOL    HW293688   6.238   0.977  11.383
31222SOL     OW93689   7.180   0.114  12.652
31222SOL    HW193690   7.162   0.181  12.580
31222SOL    HW293691   7.177   0.160  12.741
31223SOL     OW93692   5.708   0.643  11.735
31223SOL    HW193693   5.663   0.555  11.752
31223SOL    HW293694   5.707   0.697  11.819
31224SOL     OW93695   7.428   1.767  11.531
31224SOL    HW193696   7.482   1.738  11.611
31224SOL    HW293697   7.458   1.857  11.502
31225SOL     OW93698   5.613   1.596  11.289
31225SOL    HW193699   5.594   1.500  11.310
31225SOL    HW293700   5.580   1.654  11.364
31226SOL     OW93701   7.275   0.922  11.784
31226SOL    HW193702   7.370   0.893  11.792
31226SOL    HW293703   7.267   0.987  11.709
31227SOL     OW93704   7.227   1.108  11.604
31227SOL    HW193705   7.313   1.110  11.552
31227SOL    HW293706   7.241   1.155  11.692
31228SOL     OW93707   5.699   0.737  12.769
31228SOL    HW193708   5.787   0.724  12.814
31228SOL    HW293709   5.686   0.834  12.747
31229SOL     OW93710   6.199   1.365  11.898
31229SOL    HW193711   6.150   1.278  11.907
31229SOL    HW293712   6.176   1.408  11.811
31230SOL     OW93713   6.879   1.228  12.595
31230SOL    HW193714   6.916   1.155  12.537
31230SOL    HW293715   6.931   1.233  12.680
31231SOL     OW93716   6.395   0.004  11.674
31231SOL    HW193717   6.435   0.095  11.665
31231SOL    HW293718   6.295   0.012  11.680
31232SOL     OW93719   5.783   0.976  12.436
31232SOL    HW193720   5.872   0.931  12.422
31232SOL    HW293721   5.710   0.911  12.417
31233SOL     OW93722   7.111   0.999  11.362
31233SOL    HW193723   7.048   0.923  11.375
31233SOL    HW293724   7.159   1.017  11.448
31234SOL     OW93725   7.052   1.417  12.125
31234SOL    HW193726   6.993   1.423  12.205
31234SOL    HW293727   7.037   1.329  12.079
31235SOL     OW93728   7.253   1.714  11.744
31235SOL    HW193729   7.212   1.691  11.656
31235SOL    HW293730   7.235   1.640  11.809
31236SOL     OW93731   6.184   0.729  11.442
31236SOL    HW193732   6.208   0.798  11.374
31236SOL    HW293733   6.106   0.762  11.496
31237SOL     OW93734   6.867   0.345  12.116
31237SOL    HW193735   6.781   0.295  12.103
31237SOL    HW293736   6.929   0.291  12.172
31238SOL     OW93737   7.162   1.662  11.479
31238SOL    HW193738   7.251   1.708  11.482
31238SOL    HW293739   7.141   1.638  11.384
31239SOL     OW93740   6.393   0.605  12.637
31239SOL    HW193741   6.346   0.602  12.726
31239SOL    HW293742   6.342   0.550  12.571
31240SOL     OW93743   6.559   0.890  12.744
31240SOL    HW193744   6.605   0.806  12.715
31240SOL    HW293745   6.503   0.924  12.669
31241SOL     OW93746   6.577   0.410  12.414
31241SOL    HW193747   6.500   0.444  12.468
31241SOL    HW293748   6.543   0.359  12.335
31242SOL     OW93749   6.627   0.701  11.601
31242SOL    HW193750   6.653   0.697  11.697
31242SOL    HW293751   6.542   0.650  11.587
31243SOL     OW93752   5.662   0.811  11.961
31243SOL    HW193753   5.761   0.799  11.970
31243SOL    HW293754   5.638   0.906  11.982
31244SOL     OW93755   5.716   1.821  12.743
31244SOL    HW193756   5.706   1.806  12.842
31244SOL    HW293757   5.630   1.857  12.707
31245SOL     OW93758   6.451   0.348  11.367
31245SOL    HW193759   6.510   0.411  11.318
31245SOL    HW293760   6.470   0.254  11.338
31246SOL     OW93761   6.948   1.144  11.717
31246SOL    HW193762   7.031   1.115  11.669
31246SOL    HW293763   6.899   1.211  11.661
31247SOL     OW93764   6.136   0.196  12.057
31247SOL    HW193765   6.131   0.191  12.157
31247SOL    HW293766   6.138   0.292  12.028
31248SOL     OW93767   6.594   1.456  11.649
31248SOL    HW193768   6.548   1.528  11.597
31248SOL    HW293769   6.590   1.476  11.747
31249SOL     OW93770   5.937   1.801  12.025
31249SOL    HW193771   5.987   1.715  12.031
31249SOL    HW293772   6.002   1.878  12.022
31250SOL     OW93773   7.381   1.066  12.045
31250SOL    HW193774   7.319   1.051  11.969
31250SOL    HW293775   7.329   1.077  12.130
31251SOL     OW93776   6.813   1.550  12.678
31251SOL    HW193777   6.819   1.473  12.742
31251SOL    HW293778   6.761   1.524  12.598
31252SOL     OW93779   5.907   0.943  11.414
31252SOL    HW193780   5.989   0.982  11.372
31252SOL    HW293781   5.880   0.861  11.365
31253SOL     OW93782   7.044   0.735  11.900
31253SOL    HW193783   7.039   0.670  11.975
31253SOL    HW293784   7.124   0.794  11.913
31254SOL     OW93785   6.697   1.776  11.409
31254SOL    HW193786   6.637   1.714  11.459
31254SOL    HW293787   6.728   1.732  11.324
31255SOL     OW93788   5.788   0.285  12.670
31255SOL    HW193789   5.708   0.345  12.657
31255SOL    HW293790   5.778   0.236  12.756
31256SOL     OW93791   7.218   1.377  11.253
31256SOL    HW193792   7.186   1.471  11.243
31256SOL    HW293793   7.142   1.314  11.241
31257SOL     OW93794   6.050   1.743  11.495
31257SOL    HW193795   6.083   1.782  11.581
31257SOL    HW293796   6.126   1.736  11.430
31258SOL     OW93797   6.986   0.107  11.598
31258SOL    HW193798   6.962   0.070  11.508
31258SOL    HW293799   7.085   0.123  11.602
31259SOL     OW93800   5.835   1.785  12.413
31259SOL    HW193801   5.892   1.720  12.463
31259SOL    HW293802   5.819   1.752  12.320
31260SOL     OW93803   6.526   1.698  12.076
31260SOL    HW193804   6.606   1.641  12.097
31260SOL    HW293805   6.477   1.658  11.999
31261SOL     OW93806   5.968   0.700  11.652
31261SOL    HW193807   6.013   0.610  11.649
31261SOL    HW293808   5.874   0.689  11.685
31262SOL     OW93809   6.200   0.122  11.289
31262SOL    HW193810   6.298   0.100  11.296
31262SOL    HW293811   6.169   0.105  11.196
31263SOL     OW93812   6.474   1.514  12.367
31263SOL    HW193813   6.451   1.489  12.273
31263SOL    HW293814   6.535   1.445  12.406
31264SOL     OW93815   6.937   0.590  12.605
31264SOL    HW193816   6.965   0.547  12.690
31264SOL    HW293817   6.962   0.686  12.606
31265SOL     OW93818   6.389   1.402  12.096
31265SOL    HW193819   6.479   1.416  12.054
31265SOL    HW293820   6.318   1.404  12.025
31266SOL     OW93821   6.508   0.503  12.071
31266SOL    HW193822   6.483   0.494  11.975
31266SOL    HW293823   6.556   0.421  12.102
31267SOL     OW93824   6.125   0.064  11.684
31267SOL    HW193825   6.044   0.065  11.742
31267SOL    HW293826   6.128   0.147  11.629
31268SOL     OW93827   7.020   1.188  11.213
31268SOL    HW193828   7.052   1.112  11.270
31268SOL    HW293829   6.928   1.215  11.243
31269SOL     OW93830   5.883   0.035  11.343
31269SOL    HW193831   5.932   0.119  11.322
31269SOL    HW293832   5.945  -0.030  11.388
31270SOL     OW93833   6.521   0.236  11.652
31270SOL    HW193834   6.473   0.277  11.574
31270SOL    HW293835   6.620   0.234  11.633
31271SOL     OW93836   6.662   0.683  12.636
31271SOL    HW193837   6.582   0.622  12.639
31271SOL    HW293838   6.743   0.630  12.612
31272SOL     OW93839   6.813   1.570  11.965
31272SOL    HW193840   6.834   1.644  11.900
31272SOL    HW293841   6.881   1.570  12.038
31273SOL     OW93842   6.045   1.152  11.913
31273SOL    HW193843   5.974   1.125  11.978
31273SOL    HW293844   6.019   1.124  11.820
31274SOL     OW93845   6.857   1.797  11.763
31274SOL    HW193846   6.901   1.861  11.699
31274SOL    HW293847   6.807   1.849  11.833
31275SOL     OW93848   6.618   0.549  11.188
31275SOL    HW193849   6.577   0.631  11.149
31275SOL    HW293850   6.682   0.575  11.261
31276SOL     OW93851   5.664   0.556  12.558
31276SOL    HW193852   5.756   0.555  12.517
31276SOL    HW293853   5.658   0.630  12.625
31277SOL     OW93854   6.147   0.222  12.319
31277SOL    HW193855   6.185   0.138  12.356
31277SOL    HW293856   6.059   0.241  12.363
31278SOL     OW93857   6.452   0.454  11.814
31278SOL    HW193858   6.420   0.526  11.752
31278SOL    HW293859   6.476   0.373  11.761
31279SOL     OW93860   6.603   0.039  11.925
31279SOL    HW193861   6.531   0.044  11.856
31279SOL    HW293862   6.579  -0.030  11.994
31280SOL     OW93863   7.015   1.173  12.039
31280SOL    HW193864   6.960   1.089  12.032
31280SOL    HW293865   7.041   1.202  11.947
31281SOL     OW93866   7.052   0.590  12.164
31281SOL    HW193867   7.022   0.495  12.171
31281SOL    HW293868   7.125   0.606  12.230
31282SOL     OW93869   7.443   0.833  11.549
31282SOL    HW193870   7.485   0.769  11.613
31282SOL    HW293871   7.405   0.782  11.471
31283SOL     OW93872   6.074   1.385  11.346
31283SOL    HW193873   5.987   1.370  11.393
31283SOL    HW293874   6.057   1.411  11.251
31284SOL     OW93875   7.250   1.280  11.829
31284SOL    HW193876   7.349   1.288  11.843
31284SOL    HW293877   7.205   1.364  11.860
31285SOL     OW93878   6.976   0.575  11.250
31285SOL    HW193879   6.922   0.554  11.331
31285SOL    HW293880   7.067   0.534  11.259
31286SOL     OW93881   6.113   0.256  11.500
31286SOL    HW193882   6.140   0.197  11.425
31286SOL    HW293883   6.113   0.351  11.469
31287SOL     OW93884   7.340   1.223  12.760
31287SOL    HW193885   7.431   1.184  12.747
31287SOL    HW293886   7.348   1.319  12.784
31288SOL     OW93887   6.650   1.347  12.512
31288SOL    HW193888   6.570   1.324  12.567
31288SOL    HW293889   6.733   1.321  12.561
31289SOL     OW93890   6.697   1.195  12.272
31289SOL    HW193891   6.657   1.239  12.353
31289SOL    HW293892   6.656   1.232  12.189
31290SOL     OW93893   7.224   1.099  12.251
31290SOL    HW193894   7.229   1.180  12.310
31290SOL    HW293895   7.138   1.101  12.200
31291SOL     OW93896   6.501   0.089  12.574
31291SOL    HW193897   6.526   0.069  12.479
31291SOL    HW293898   6.573   0.145  12.616
31292SOL     OW93899   6.291   1.050  11.540
31292SOL    HW193900   6.277   1.057  11.639
31292SOL    HW293901   6.375   0.999  11.522
31293SOL     OW93902   5.996   0.813  12.423
31293SOL    HW193903   6.082   0.825  12.473
31293SOL    HW293904   5.954   0.726  12.450
31294SOL     OW93905   6.860   0.386  12.434
31294SOL    HW193906   6.881   0.460  12.498
31294SOL    HW293907   6.771   0.403  12.391
31295SOL     OW93908   5.650   1.564  12.503
31295SOL    HW193909   5.604   1.646  12.469
31295SOL    HW293910   5.748   1.583  12.512
31296SOL     OW93911   5.953   1.100  11.673
31296SOL    HW193912   5.946   1.183  11.617
31296SOL    HW293913   5.957   1.020  11.613
31297SOL     OW93914   6.152   0.537  12.037
31297SOL    HW193915   6.164   0.603  11.963
31297SOL    HW293916   6.198   0.571  12.120
31298SOL     OW93917   6.838   1.348  11.560
31298SOL    HW193918   6.888   1.425  11.600
31298SOL    HW293919   6.743   1.350  11.592
31299SOL     OW93920   6.858   1.445  12.314
31299SOL    HW193921   6.905   1.458  12.401
31299SOL    HW293922   6.792   1.371  12.323
31300SOL     OW93923   7.168   0.639  11.644
31300SOL    HW193924   7.137   0.700  11.717
31300SOL    HW293925   7.218   0.691  11.575
31301SOL     OW93926   5.940   1.510  12.501
31301SOL    HW193927   5.919   1.466  12.414
31301SOL    HW293928   6.037   1.536  12.504
31302SOL     OW93929   5.988   0.751  12.770
31302SOL    HW193930   6.056   0.806  12.723
31302SOL    HW293931   6.028   0.663  12.797
31303SOL     OW93932   7.173   0.779  12.842
31303SOL    HW193933   7.081   0.817  12.837
31303SOL    HW293934   7.233   0.826  12.777
31304SOL     OW93935   6.159   0.870  12.201
31304SOL    HW193936   6.203   0.959  12.192
31304SOL    HW293937   6.096   0.870  12.278
31305SOL     OW93938   6.946   0.862  12.217
31305SOL    HW193939   6.871   0.862  12.151
31305SOL    HW293940   6.983   0.770  12.226
31306SOL     OW93941   6.795   0.525  11.447
31306SOL    HW193942   6.808   0.441  11.501
31306SOL    HW293943   6.766   0.599  11.507
31307SOL     OW93944   5.893   0.213  12.403
31307SOL    HW193945   5.870   0.250  12.493
31307SOL    HW293946   5.863   0.118  12.397
31308SOL     OW93947   5.623   1.310  12.454
31308SOL    HW193948   5.676   1.261  12.522
31308SOL    HW293949   5.645   1.408  12.459
31309SOL     OW93950   6.318   0.634  12.236
31309SOL    HW193951   6.377   0.608  12.160
31309SOL    HW293952   6.290   0.730  12.225
31310SOL     OW93953   5.893   0.063  11.790
31310SOL    HW193954   5.882   0.157  11.823
31310SOL    HW293955   5.888   0.000  11.867
31311SOL     OW93956   7.208   0.367  11.546
31311SOL    HW193957   7.210   0.291  11.610
31311SOL    HW293958   7.160   0.444  11.586
31312SOL     OW93959   6.609   0.766  12.138
31312SOL    HW193960   6.624   0.787  12.234
31312SOL    HW293961   6.579   0.671  12.129
31313SOL     OW93962   7.126   0.274  11.297
31313SOL    HW193963   7.065   0.199  11.320
31313SOL    HW293964   7.148   0.326  11.380
31314SOL     OW93965   6.889   0.838  11.214
31314SOL    HW193966   6.923   0.745  11.229
31314SOL    HW293967   6.907   0.865  11.119
31315SOL     OW93968   6.654   1.333  12.021
31315SOL    HW193969   6.661   1.249  11.966
31315SOL    HW293970   6.716   1.402  11.985
31316SOL     OW93971   5.905   0.810  12.121
31316SOL    HW193972   5.998   0.846  12.126
31316SOL    HW293973   5.899   0.725  12.173
31317SOL     OW93974   5.925   0.509  12.178
31317SOL    HW193975   5.873   0.426  12.161
31317SOL    HW293976   6.002   0.514  12.114
31318SOL     OW93977   6.746   0.207  12.649
31318SOL    HW193978   6.746   0.271  12.726
31318SOL    HW293979   6.774   0.255  12.566
31319SOL     OW93980   5.594   1.326  11.372
31319SOL    HW193981   5.501   1.347  11.341
31319SOL    HW293982   5.604   1.227  11.385
31320SOL     OW93983   5.674   1.801  12.099
31320SOL    HW193984   5.632   1.715  12.072
31320SOL    HW293985   5.768   1.804  12.065
31321SOL     OW93986   6.090   1.568  12.082
31321SOL    HW193987   6.156   1.642  12.091
31321SOL    HW293988   6.134   1.489  12.040
31322SOL     OW93989   6.588   0.796  12.410
31322SOL    HW193990   6.629   0.764  12.496
31322SOL    HW293991   6.492   0.769  12.407
31323SOL     OW93992   5.626   0.544  12.286
31323SOL    HW193993   5.711   0.511  12.245
31323SOL    HW293994   5.639   0.559  12.384
31324SOL     OW93995   6.401   0.572  11.497
31324SOL    HW193996   6.408   0.483  11.451
31324SOL    HW293997   6.307   0.606  11.489
31325SOL     OW93998   7.243   0.604  12.378
31325SOL    HW193999   7.205   0.535  12.440
31325SOL    HW294000   7.325   0.568  12.334
31326SOL     OW94001   5.838   1.564  12.916
31326SOL    HW194002   5.808   1.621  12.992
31326SOL    HW294003   5.831   1.467  12.942
31327SOL     OW94004   6.257   0.464  12.441
31327SOL    HW194005   6.223   0.375  12.411
31327SOL    HW294006   6.283   0.518  12.361
31328SOL     OW94007   6.516   1.678  12.637
31328SOL    HW194008   6.492   1.660  12.542
31328SOL    HW294009   6.546   1.772  12.647
31329SOL     OW94010   6.059   0.500  11.363
31329SOL    HW194011   6.120   0.580  11.367
31329SOL    HW294012   5.964   0.531  11.370
31330SOL     OW94013   5.745   1.137  12.638
31330SOL    HW194014   5.767   1.076  12.714
31330SOL    HW294015   5.755   1.088  12.552
31331SOL     OW94016   6.933   1.059  12.406
31331SOL    HW194017   6.957   0.996  12.332
31331SOL    HW294018   6.843   1.099  12.388
31332SOL     OW94019   6.888   0.855  11.481
31332SOL    HW194020   6.802   0.824  11.523
31332SOL    HW294021   6.884   0.841  11.382
31333SOL     OW94022   7.345   1.747  12.326
31333SOL    HW194023   7.406   1.777  12.253
31333SOL    HW294024   7.307   1.658  12.304
31334SOL     OW94025   6.838   1.731  12.300
31334SOL    HW194026   6.922   1.736  12.246
31334SOL    HW294027   6.815   1.635  12.318
31335SOL     OW94028   5.669   1.258  12.194
31335SOL    HW194029   5.664   1.257  12.294
31335SOL    HW294030   5.586   1.217  12.156
31336SOL     OW94031   7.312   0.135  11.695
31336SOL    HW194032   7.385   0.118  11.628
31336SOL    HW294033   7.281   0.048  11.733
31337SOL     OW94034   6.974   1.573  11.649
31337SOL    HW194035   7.041   1.585  11.575
31337SOL    HW294036   6.934   1.662  11.672
31338SOL     OW94037   6.866   0.927  11.844
31338SOL    HW194038   6.926   0.846  11.846
31338SOL    HW294039   6.906   0.996  11.784
31339SOL     OW94040   6.416   1.273  12.594
31339SOL    HW194041   6.411   1.306  12.689
31339SOL    HW294042   6.330   1.292  12.548
31340SOL     OW94043   6.258   1.616  11.326
31340SOL    HW194044   6.267   1.626  11.227
31340SOL    HW294045   6.218   1.527  11.347
31341SOL     OW94046   7.236   1.720  12.566
31341SOL    HW194047   7.289   1.730  12.482
31341SOL    HW294048   7.209   1.810  12.600
31342SOL     OW94049   7.427   0.175  12.135
31342SOL    HW194050   7.466   0.090  12.099
31342SOL    HW294051   7.329   0.177  12.116
31343SOL     OW94052   5.849   0.326  11.892
31343SOL    HW194053   5.770   0.377  11.858
31343SOL    HW294054   5.840   0.311  11.990
31344SOL     OW94055   6.780   1.612  11.203
31344SOL    HW194056   6.786   1.519  11.240
31344SOL    HW294057   6.721   1.612  11.123
31345SOL     OW94058   6.408   1.002  12.544
31345SOL    HW194059   6.448   1.001  12.452
31345SOL    HW294060   6.418   1.094  12.584
31346SOL     OW94061   6.502   0.910  11.463
31346SOL    HW194062   6.565   0.948  11.395
31346SOL    HW294063   6.542   0.827  11.502
31347SOL     OW94064   7.090   1.607  11.216
31347SOL    HW194065   6.998   1.644  11.223
31347SOL    HW294066   7.128   1.627  11.126
31348SOL     OW94067   5.958   1.288  12.662
31348SOL    HW194068   5.945   1.381  12.628
31348SOL    HW294069   5.874   1.236  12.649
31349SOL     OW94070   7.200   1.292  12.461
31349SOL    HW194071   7.260   1.295  12.541
31349SOL    HW294072   7.125   1.356  12.474
31350SOL     OW94073   6.625   1.098  11.868
31350SOL    HW194074   6.555   1.051  11.922
31350SOL    HW294075   6.684   1.030  11.825
31351SOL     OW94076   6.600   0.236  12.143
31351SOL    HW194077   6.592   0.200  12.050
31351SOL    HW294078   6.598   0.160  12.208
31352SOL     OW94079   6.176   1.487  11.663
31352SOL    HW194080   6.218   1.429  11.593
31352SOL    HW294081   6.132   1.566  11.619
31353SOL     OW94082   7.295   0.385  12.553
31353SOL    HW194083   7.368   0.454  12.557
31353SOL    HW294084   7.323   0.310  12.494
31354SOL     OW94085   5.841   1.348  11.462
31354SOL    HW194086   5.745   1.349  11.435
31354SOL    HW294087   5.853   1.401  11.546
31355SOL     OW94088   5.691   1.013  12.898
31355SOL    HW194089   5.614   0.980  12.952
31355SOL    HW294090   5.776   0.983  12.940
31356SOL     OW94091   6.258   0.203  12.661
31356SOL    HW194092   6.348   0.187  12.621
31356SOL    HW294093   6.266   0.208  12.760
31357SOL     OW94094   5.661   0.345  11.205
31357SOL    HW194095   5.569   0.317  11.176
31357SOL    HW294096   5.692   0.422  11.149
31358SOL     OW94097   7.026   0.856  12.570
31358SOL    HW194098   6.969   0.908  12.507
31358SOL    HW294099   7.122   0.868  12.546
31359SOL     OW94100   5.658   0.166  11.490
31359SOL    HW194101   5.641   0.249  11.436
31359SOL    HW294102   5.748   0.129  11.468
31360SOL     OW94103   6.769   1.335  11.291
31360SOL    HW194104   6.670   1.324  11.293
31360SOL    HW294105   6.803   1.350  11.384
31361SOL     OW94106   6.199   0.842  12.603
31361SOL    HW194107   6.255   0.923  12.586
31361SOL    HW294108   6.258   0.762  12.606
31362SOL     OW94109   7.079   1.767  12.131
31362SOL    HW194110   7.112   1.831  12.062
31362SOL    HW294111   7.145   1.761  12.206
31363SOL     OW94112   6.302   0.565  12.880
31363SOL    HW194113   6.321   0.630  12.954
31363SOL    HW294114   6.362   0.485  12.889
31364SOL     OW94115   5.976   1.741  12.732
31364SOL    HW194116   5.885   1.782  12.730
31364SOL    HW294117   5.969   1.647  12.764
31365SOL     OW94118   7.260   0.883  12.426
31365SOL    HW194119   7.233   0.794  12.389
31365SOL    HW294120   7.261   0.951  12.353
31366SOL     OW94121   6.811   0.325  11.621
31366SOL    HW194122   6.876   0.251  11.610
31366SOL    HW294123   6.831   0.375  11.705
31367SOL     OW94124   6.180   0.745  11.824
31367SOL    HW194125   6.230   0.830  11.805
31367SOL    HW294126   6.092   0.747  11.776
31368SOL     OW94127   7.363   0.342  12.814
31368SOL    HW194128   7.346   0.373  12.720
31368SOL    HW294129   7.279   0.305  12.852
31369SOL     OW94130   7.316   0.934  12.689
31369SOL    HW194131   7.354   1.025  12.704
31369SOL    HW294132   7.308   0.917  12.590
31370SOL     OW94133   6.445   1.374  11.188
31370SOL    HW194134   6.399   1.389  11.276
31370SOL    HW294135   6.489   1.459  11.158
31371SOL     OW94136   6.247   1.790  12.125
31371SOL    HW194137   6.201   1.878  12.112
31371SOL    HW294138   6.346   1.802  12.118
31372SOL     OW94139   6.445   0.956  12.033
31372SOL    HW194140   6.499   0.887  12.081
31372SOL    HW294141   6.413   1.025  12.099
31373SOL     OW94142   6.669   0.984  11.259
31373SOL    HW194143   6.646   1.037  11.177
31373SOL    HW294144   6.750   0.928  11.240
31374SOL     OW94145   7.447   1.569  12.023
31374SOL    HW194146   7.376   1.557  11.953
31374SOL    HW294147   7.448   1.490  12.083
31375SOL     OW94148   5.665   1.240  11.825
31375SOL    HW194149   5.664   1.193  11.913
31375SOL    HW294150   5.747   1.212  11.774
31376SOL     OW94151   6.258   1.391  12.796
31376SOL    HW194152   6.180   1.341  12.834
31376SOL    HW294153   6.255   1.486  12.827
31377SOL     OW94154   7.410   0.192  12.399
31377SOL    HW194155   7.406   0.102  12.443
31377SOL    HW294156   7.413   0.181  12.300
31378SOL     OW94157   6.014   0.424  11.692
31378SOL    HW194158   6.044   0.352  11.630
31378SOL    HW294159   5.975   0.384  11.775
31379SOL     OW94160   7.291   1.487  12.276
31379SOL    HW194161   7.198   1.462  12.249
31379SOL    HW294162   7.317   1.437  12.358
31380SOL     OW94163   5.903   0.547  12.452
31380SOL    HW194164   5.941   0.488  12.524
31380SOL    HW294165   5.943   0.521  12.364
31381SOL     OW94166   6.398   1.586  11.859
31381SOL    HW194167   6.430   1.596  11.765
31381SOL    HW294168   6.319   1.524  11.861
31382SOL     OW94169   7.010   0.214  12.284
31382SOL    HW194170   7.062   0.149  12.339
31382SOL    HW294171   6.961   0.277  12.345
31383SOL     OW94172   6.587   0.034  12.326
31383SOL    HW194173   6.524  -0.038  12.295
31383SOL    HW294174   6.680  -0.002  12.326
31384SOL     OW94175   6.356   1.330  11.473
31384SOL    HW194176   6.310   1.243  11.490
31384SOL    HW294177   6.447   1.327  11.514
31385SOL     OW94178   6.204   1.567  12.456
31385SOL    HW194179   6.199   1.649  12.513
31385SOL    HW294180   6.293   1.564  12.411
31386SOL     OW94181   6.938   0.052  11.340
31386SOL    HW194182   6.973   0.011  11.256
31386SOL    HW294183   6.848   0.014  11.360
31387SOL     OW94184   6.886   0.453  11.863
31387SOL    HW194185   6.827   0.533  11.867
31387SOL    HW294186   6.901   0.418  11.956
31388SOL     OW94187   7.179   0.221  12.054
31388SOL    HW194188   7.095   0.220  12.108
31388SOL    HW294189   7.181   0.304  11.998
31389SOL     OW94190   5.625   1.077  11.472
31389SOL    HW194191   5.724   1.066  11.463
31389SOL    HW294192   5.585   0.991  11.504
31390SOL     OW94193   6.461   1.646  11.509
31390SOL    HW194194   6.384   1.611  11.455
31390SOL    HW294195   6.429   1.717  11.571
31391SOL     OW94196   5.816   2.490   0.113
31391SOL    HW194197   5.723   2.488   0.150
31391SOL    HW294198   5.817   2.451   0.021
31392SOL     OW94199   5.811   2.137   0.996
31392SOL    HW194200   5.846   2.120   1.088
31392SOL    HW294201   5.723   2.092   0.984
31393SOL     OW94202   5.605   2.230   0.647
31393SOL    HW194203   5.523   2.273   0.686
31393SOL    HW294204   5.577   2.157   0.584
31394SOL     OW94205   6.155   3.137   1.165
31394SOL    HW194206   6.062   3.130   1.128
31394SOL    HW294207   6.166   3.226   1.209
31395SOL     OW94208   7.141   3.373   0.703
31395SOL    HW194209   7.084   3.357   0.784
31395SOL    HW294210   7.082   3.383   0.623
31396SOL     OW94211   6.721   2.565   0.717
31396SOL    HW194212   6.778   2.643   0.692
31396SOL    HW294213   6.661   2.591   0.793
31397SOL     OW94214   7.341   2.469   0.231
31397SOL    HW194215   7.329   2.456   0.132
31397SOL    HW294216   7.311   2.388   0.280
31398SOL     OW94217   6.354   3.006   1.023
31398SOL    HW194218   6.276   3.023   1.083
31398SOL    HW294219   6.388   3.093   0.987
31399SOL     OW94220   6.436   2.660   1.823
31399SOL    HW194221   6.432   2.736   1.888
31399SOL    HW294222   6.458   2.696   1.732
31400SOL     OW94223   6.271   2.874   0.665
31400SOL    HW194224   6.340   2.858   0.735
31400SOL    HW294225   6.198   2.931   0.703
31401SOL     OW94226   6.272   3.023   1.803
31401SOL    HW194227   6.332   3.102   1.817
31401SOL    HW294228   6.186   3.054   1.762
31402SOL     OW94229   5.921   3.297   1.061
31402SOL    HW194230   5.843   3.266   1.008
31402SOL    HW294231   5.979   3.355   1.004
31403SOL     OW94232   7.046   3.367   1.339
31403SOL    HW194233   7.070   3.461   1.365
31403SOL    HW294234   7.030   3.313   1.421
31404SOL     OW94235   6.024   2.254   1.499
31404SOL    HW194236   6.106   2.198   1.508
31404SOL    HW294237   5.943   2.196   1.503
31405SOL     OW94238   7.189   2.309   0.737
31405SOL    HW194239   7.115   2.355   0.687
31405SOL    HW294240   7.240   2.377   0.790
31406SOL     OW94241   5.817   3.575   0.483
31406SOL    HW194242   5.851   3.652   0.537
31406SOL    HW294243   5.861   3.575   0.393
31407SOL     OW94244   6.713   3.203   1.690
31407SOL    HW194245   6.760   3.203   1.778
31407SOL    HW294246   6.665   3.116   1.679
31408SOL     OW94247   5.816   3.296   0.538
31408SOL    HW194248   5.790   3.392   0.538
31408SOL    HW294249   5.745   3.242   0.583
31409SOL     OW94250   5.826   2.953   0.886
31409SOL    HW194251   5.840   2.869   0.938
31409SOL    HW294252   5.771   3.017   0.941
31410SOL     OW94253   6.206   3.648   1.439
31410SOL    HW194254   6.114   3.631   1.474
31410SOL    HW294255   6.234   3.740   1.465
31411SOL     OW94256   6.192   2.826   0.123
31411SOL    HW194257   6.199   2.910   0.069
31411SOL    HW294258   6.238   2.839   0.211
31412SOL     OW94259   7.180   1.976   1.480
31412SOL    HW194260   7.162   2.043   1.408
31412SOL    HW294261   7.177   2.022   1.569
31413SOL     OW94262   5.708   2.505   0.563
31413SOL    HW194263   5.663   2.417   0.580
31413SOL    HW294264   5.707   2.559   0.647
31414SOL     OW94265   7.428   3.629   0.359
31414SOL    HW194266   7.482   3.600   0.439
31414SOL    HW294267   7.458   3.719   0.330
31415SOL     OW94268   5.613   3.458   0.117
31415SOL    HW194269   5.594   3.362   0.138
31415SOL    HW294270   5.580   3.516   0.192
31416SOL     OW94271   7.275   2.784   0.612
31416SOL    HW194272   7.370   2.755   0.620
31416SOL    HW294273   7.267   2.849   0.537
31417SOL     OW94274   7.227   2.970   0.432
31417SOL    HW194275   7.313   2.972   0.380
31417SOL    HW294276   7.241   3.017   0.520
31418SOL     OW94277   5.699   2.599   1.597
31418SOL    HW194278   5.787   2.586   1.642
31418SOL    HW294279   5.686   2.696   1.575
31419SOL     OW94280   6.199   3.227   0.726
31419SOL    HW194281   6.150   3.140   0.735
31419SOL    HW294282   6.176   3.270   0.639
31420SOL     OW94283   6.879   3.090   1.423
31420SOL    HW194284   6.916   3.017   1.365
31420SOL    HW294285   6.931   3.095   1.508
31421SOL     OW94286   6.395   1.866   0.502
31421SOL    HW194287   6.435   1.957   0.493
31421SOL    HW294288   6.295   1.874   0.508
31422SOL     OW94289   5.783   2.838   1.264
31422SOL    HW194290   5.872   2.793   1.250
31422SOL    HW294291   5.710   2.773   1.245
31423SOL     OW94292   7.111   2.861   0.190
31423SOL    HW194293   7.048   2.785   0.203
31423SOL    HW294294   7.159   2.879   0.276
31424SOL     OW94295   6.773   3.654   1.616
31424SOL    HW194296   6.797   3.714   1.540
31424SOL    HW294297   6.780   3.559   1.586
31425SOL     OW94298   5.903   2.113   1.801
31425SOL    HW194299   5.974   2.184   1.807
31425SOL    HW294300   5.815   2.152   1.829
31426SOL     OW94301   7.052   3.279   0.953
31426SOL    HW194302   6.993   3.285   1.033
31426SOL    HW294303   7.037   3.191   0.907
31427SOL     OW94304   7.253   3.576   0.572
31427SOL    HW194305   7.212   3.553   0.484
31427SOL    HW294306   7.235   3.502   0.637
31428SOL     OW94307   6.184   2.591   0.270
31428SOL    HW194308   6.208   2.660   0.202
31428SOL    HW294309   6.106   2.624   0.324
31429SOL     OW94310   6.867   2.207   0.944
31429SOL    HW194311   6.781   2.157   0.931
31429SOL    HW294312   6.929   2.153   1.000
31430SOL     OW94313   7.162   3.524   0.307
31430SOL    HW194314   7.251   3.570   0.310
31430SOL    HW294315   7.141   3.500   0.212
31431SOL     OW94316   6.393   2.467   1.465
31431SOL    HW194317   6.346   2.464   1.554
31431SOL    HW294318   6.342   2.412   1.399
31432SOL     OW94319   6.980   2.331   1.674
31432SOL    HW194320   6.960   2.374   1.762
31432SOL    HW294321   7.058   2.269   1.683
31433SOL     OW94322   6.577   2.272   1.242
31433SOL    HW194323   6.500   2.306   1.296
31433SOL    HW294324   6.543   2.221   1.163
31434SOL     OW94325   6.627   2.563   0.429
31434SOL    HW194326   6.653   2.559   0.525
31434SOL    HW294327   6.542   2.512   0.415
31435SOL     OW94328   5.662   2.673   0.789
31435SOL    HW194329   5.761   2.661   0.798
31435SOL    HW294330   5.638   2.768   0.810
31436SOL     OW94331   5.716   3.683   1.571
31436SOL    HW194332   5.706   3.668   1.670
31436SOL    HW294333   5.630   3.719   1.535
31437SOL     OW94334   6.451   2.210   0.195
31437SOL    HW194335   6.510   2.273   0.146
31437SOL    HW294336   6.470   2.116   0.166
31438SOL     OW94337   7.305   2.447   1.831
31438SOL    HW194338   7.279   2.536   1.795
31438SOL    HW294339   7.303   2.379   1.758
31439SOL     OW94340   6.948   3.006   0.545
31439SOL    HW194341   7.031   2.977   0.497
31439SOL    HW294342   6.899   3.073   0.489
31440SOL     OW94343   6.136   2.058   0.885
31440SOL    HW194344   6.131   2.053   0.985
31440SOL    HW294345   6.138   2.154   0.856
31441SOL     OW94346   6.594   3.318   0.477
31441SOL    HW194347   6.548   3.390   0.425
31441SOL    HW294348   6.590   3.338   0.575
31442SOL     OW94349   5.937   3.663   0.853
31442SOL    HW194350   5.987   3.577   0.859
31442SOL    HW294351   6.002   3.740   0.850
31443SOL     OW94352   7.381   2.928   0.873
31443SOL    HW194353   7.319   2.913   0.797
31443SOL    HW294354   7.329   2.939   0.958
31444SOL     OW94355   6.813   3.412   1.506
31444SOL    HW194356   6.819   3.335   1.570
31444SOL    HW294357   6.761   3.386   1.426
31445SOL     OW94358   5.907   2.805   0.242
31445SOL    HW194359   5.989   2.844   0.200
31445SOL    HW294360   5.880   2.723   0.193
31446SOL     OW94361   7.044   2.597   0.728
31446SOL    HW194362   7.039   2.532   0.803
31446SOL    HW294363   7.124   2.656   0.741
31447SOL     OW94364   6.047   3.128   1.727
31447SOL    HW194365   5.997   3.129   1.641
31447SOL    HW294366   5.984   3.110   1.803
31448SOL     OW94367   6.697   3.638   0.237
31448SOL    HW194368   6.637   3.576   0.287
31448SOL    HW294369   6.728   3.594   0.152
31449SOL     OW94370   5.788   2.147   1.498
31449SOL    HW194371   5.708   2.207   1.485
31449SOL    HW294372   5.778   2.098   1.584
31450SOL     OW94373   7.218   3.239   0.081
31450SOL    HW194374   7.186   3.333   0.071
31450SOL    HW294375   7.142   3.176   0.069
31451SOL     OW94376   6.050   3.605   0.323
31451SOL    HW194377   6.083   3.644   0.409
31451SOL    HW294378   6.126   3.598   0.258
31452SOL     OW94379   6.986   1.969   0.426
31452SOL    HW194380   6.962   1.932   0.336
31452SOL    HW294381   7.085   1.985   0.430
31453SOL     OW94382   5.835   3.647   1.241
31453SOL    HW194383   5.892   3.582   1.291
31453SOL    HW294384   5.819   3.614   1.148
31454SOL     OW94385   6.526   3.560   0.904
31454SOL    HW194386   6.606   3.503   0.925
31454SOL    HW294387   6.477   3.520   0.827
31455SOL     OW94388   5.968   2.562   0.480
31455SOL    HW194389   6.013   2.472   0.477
31455SOL    HW294390   5.874   2.551   0.513
31456SOL     OW94391   7.133   2.084   1.729
31456SOL    HW194392   7.128   2.121   1.821
31456SOL    HW294393   7.061   2.015   1.717
31457SOL     OW94394   6.200   1.984   0.117
31457SOL    HW194395   6.298   1.962   0.124
31457SOL    HW294396   6.169   1.967   0.024
31458SOL     OW94397   6.367   2.126   1.749
31458SOL    HW194398   6.434   2.065   1.792
31458SOL    HW294399   6.294   2.145   1.814
31459SOL     OW94400   6.474   3.376   1.195
31459SOL    HW194401   6.451   3.351   1.101
31459SOL    HW294402   6.535   3.307   1.234
31460SOL     OW94403   6.937   2.452   1.433
31460SOL    HW194404   6.965   2.409   1.518
31460SOL    HW294405   6.962   2.548   1.434
31461SOL     OW94406   6.389   3.264   0.924
31461SOL    HW194407   6.479   3.278   0.882
31461SOL    HW294408   6.318   3.266   0.853
31462SOL     OW94409   6.508   2.365   0.899
31462SOL    HW194410   6.483   2.356   0.803
31462SOL    HW294411   6.556   2.283   0.930
31463SOL     OW94412   6.125   1.926   0.512
31463SOL    HW194413   6.044   1.927   0.570
31463SOL    HW294414   6.128   2.009   0.457
31464SOL     OW94415   7.020   3.050   0.041
31464SOL    HW194416   7.052   2.974   0.098
31464SOL    HW294417   6.928   3.077   0.071
31465SOL     OW94418   5.883   1.897   0.171
31465SOL    HW194419   5.932   1.981   0.150
31465SOL    HW294420   5.945   1.832   0.216
31466SOL     OW94421   6.521   2.098   0.480
31466SOL    HW194422   6.473   2.139   0.402
31466SOL    HW294423   6.620   2.096   0.461
31467SOL     OW94424   6.662   2.545   1.464
31467SOL    HW194425   6.582   2.484   1.467
31467SOL    HW294426   6.743   2.492   1.440
31468SOL     OW94427   6.813   3.432   0.793
31468SOL    HW194428   6.834   3.506   0.728
31468SOL    HW294429   6.881   3.432   0.866
31469SOL     OW94430   6.045   3.014   0.741
31469SOL    HW194431   5.974   2.987   0.806
31469SOL    HW294432   6.019   2.986   0.648
31470SOL     OW94433   6.857   3.659   0.591
31470SOL    HW194434   6.901   3.723   0.527
31470SOL    HW294435   6.807   3.711   0.661
31471SOL     OW94436   6.618   2.411   0.016
31471SOL    HW194437   6.577   2.493  -0.023
31471SOL    HW294438   6.682   2.437   0.089
31472SOL     OW94439   5.664   2.418   1.386
31472SOL    HW194440   5.756   2.417   1.345
31472SOL    HW294441   5.658   2.492   1.453
31473SOL     OW94442   6.147   2.084   1.147
31473SOL    HW194443   6.185   2.000   1.184
31473SOL    HW294444   6.059   2.103   1.191
31474SOL     OW94445   6.452   2.316   0.642
31474SOL    HW194446   6.420   2.388   0.580
31474SOL    HW294447   6.476   2.235   0.589
31475SOL     OW94448   6.603   1.901   0.753
31475SOL    HW194449   6.531   1.906   0.684
31475SOL    HW294450   6.579   1.832   0.822
31476SOL     OW94451   7.015   3.035   0.867
31476SOL    HW194452   6.960   2.951   0.860
31476SOL    HW294453   7.041   3.064   0.775
31477SOL     OW94454   7.052   2.452   0.992
31477SOL    HW194455   7.022   2.357   0.999
31477SOL    HW294456   7.125   2.468   1.058
31478SOL     OW94457   7.443   2.695   0.377
31478SOL    HW194458   7.485   2.631   0.441
31478SOL    HW294459   7.405   2.644   0.299
31479SOL     OW94460   6.074   3.247   0.174
31479SOL    HW194461   5.987   3.232   0.221
31479SOL    HW294462   6.057   3.273   0.079
31480SOL     OW94463   7.250   3.142   0.657
31480SOL    HW194464   7.349   3.150   0.671
31480SOL    HW294465   7.205   3.226   0.688
31481SOL     OW94466   6.976   2.437   0.078
31481SOL    HW194467   6.922   2.416   0.159
31481SOL    HW294468   7.067   2.396   0.087
31482SOL     OW94469   6.113   2.118   0.328
31482SOL    HW194470   6.140   2.059   0.253
31482SOL    HW294471   6.113   2.213   0.297
31483SOL     OW94472   7.340   3.085   1.588
31483SOL    HW194473   7.431   3.046   1.575
31483SOL    HW294474   7.348   3.181   1.612
31484SOL     OW94475   6.650   3.209   1.340
31484SOL    HW194476   6.570   3.186   1.395
31484SOL    HW294477   6.733   3.183   1.389
31485SOL     OW94478   7.178   3.491   1.625
31485SOL    HW194479   7.205   3.525   1.535
31485SOL    HW294480   7.257   3.453   1.671
31486SOL     OW94481   6.697   3.057   1.100
31486SOL    HW194482   6.657   3.101   1.181
31486SOL    HW294483   6.656   3.094   1.017
31487SOL     OW94484   6.501   1.951   1.402
31487SOL    HW194485   6.526   1.931   1.307
31487SOL    HW294486   6.573   2.007   1.444
31488SOL     OW94487   6.566   2.978   1.719
31488SOL    HW194488   6.467   2.984   1.729
31488SOL    HW294489   6.589   2.898   1.663
31489SOL     OW94490   6.291   2.912   0.368
31489SOL    HW194491   6.277   2.919   0.467
31489SOL    HW294492   6.375   2.861   0.350
31490SOL     OW94493   5.996   2.675   1.251
31490SOL    HW194494   6.082   2.687   1.301
31490SOL    HW294495   5.954   2.588   1.278
31491SOL     OW94496   6.860   2.248   1.262
31491SOL    HW194497   6.881   2.322   1.326
31491SOL    HW294498   6.771   2.265   1.219
31492SOL     OW94499   5.650   3.426   1.331
31492SOL    HW194500   5.604   3.508   1.297
31492SOL    HW294501   5.748   3.445   1.340
31493SOL     OW94502   5.953   2.962   0.501
31493SOL    HW194503   5.946   3.045   0.445
31493SOL    HW294504   5.957   2.882   0.441
31494SOL     OW94505   6.152   2.399   0.865
31494SOL    HW194506   6.164   2.465   0.791
31494SOL    HW294507   6.198   2.433   0.948
31495SOL     OW94508   6.838   3.210   0.388
31495SOL    HW194509   6.888   3.287   0.428
31495SOL    HW294510   6.743   3.212   0.420
31496SOL     OW94511   6.858   3.307   1.142
31496SOL    HW194512   6.905   3.320   1.229
31496SOL    HW294513   6.792   3.233   1.151
31497SOL     OW94514   7.168   2.501   0.472
31497SOL    HW194515   7.137   2.562   0.545
31497SOL    HW294516   7.218   2.553   0.403
31498SOL     OW94517   5.940   3.372   1.329
31498SOL    HW194518   5.919   3.328   1.242
31498SOL    HW294519   6.037   3.398   1.332
31499SOL     OW94520   5.988   2.613   1.598
31499SOL    HW194521   6.056   2.668   1.551
31499SOL    HW294522   6.028   2.525   1.625
31500SOL     OW94523   7.173   2.641   1.670
31500SOL    HW194524   7.081   2.679   1.665
31500SOL    HW294525   7.233   2.688   1.605
31501SOL     OW94526   6.599   1.967   1.770
31501SOL    HW194527   6.605   2.052   1.718
31501SOL    HW294528   6.631   1.891   1.713
31502SOL     OW94529   6.090   1.912   1.740
31502SOL    HW194530   6.048   1.855   1.670
31502SOL    HW294531   6.024   1.981   1.772
31503SOL     OW94532   6.159   2.732   1.029
31503SOL    HW194533   6.203   2.821   1.020
31503SOL    HW294534   6.096   2.732   1.106
31504SOL     OW94535   6.946   2.724   1.045
31504SOL    HW194536   6.871   2.724   0.979
31504SOL    HW294537   6.983   2.632   1.054
31505SOL     OW94538   6.795   2.387   0.275
31505SOL    HW194539   6.808   2.303   0.329
31505SOL    HW294540   6.766   2.461   0.335
31506SOL     OW94541   5.893   2.075   1.231
31506SOL    HW194542   5.870   2.112   1.321
31506SOL    HW294543   5.863   1.980   1.225
31507SOL     OW94544   5.623   3.172   1.282
31507SOL    HW194545   5.676   3.123   1.350
31507SOL    HW294546   5.645   3.270   1.287
31508SOL     OW94547   6.318   2.496   1.064
31508SOL    HW194548   6.377   2.470   0.988
31508SOL    HW294549   6.290   2.592   1.053
31509SOL     OW94550   7.314   2.797   1.854
31509SOL    HW194551   7.268   2.790   1.765
31509SOL    HW294552   7.252   2.841   1.920
31510SOL     OW94553   5.893   1.925   0.618
31510SOL    HW194554   5.882   2.019   0.651
31510SOL    HW294555   5.888   1.862   0.695
31511SOL     OW94556   7.208   2.229   0.374
31511SOL    HW194557   7.210   2.153   0.438
31511SOL    HW294558   7.160   2.306   0.414
31512SOL     OW94559   6.609   2.628   0.966
31512SOL    HW194560   6.624   2.649   1.062
31512SOL    HW294561   6.579   2.533   0.957
31513SOL     OW94562   6.566   3.435   1.700
31513SOL    HW194563   6.546   3.479   1.612
31513SOL    HW294564   6.605   3.344   1.684
31514SOL     OW94565   7.445   3.380   1.605
31514SOL    HW194566   7.459   3.407   1.510
31514SOL    HW294567   7.528   3.402   1.658
31515SOL     OW94568   5.936   2.760   1.804
31515SOL    HW194569   6.012   2.804   1.852
31515SOL    HW294570   5.971   2.713   1.722
31516SOL     OW94571   7.126   2.136   0.125
31516SOL    HW194572   7.065   2.061   0.148
31516SOL    HW294573   7.148   2.188   0.208
31517SOL     OW94574   6.889   2.700   0.042
31517SOL    HW194575   6.923   2.607   0.057
31517SOL    HW294576   6.907   2.727  -0.053
31518SOL     OW94577   6.654   3.195   0.849
31518SOL    HW194578   6.661   3.111   0.794
31518SOL    HW294579   6.716   3.264   0.813
31519SOL     OW94580   5.905   2.672   0.949
31519SOL    HW194581   5.998   2.708   0.954
31519SOL    HW294582   5.899   2.587   1.001
31520SOL     OW94583   5.925   2.371   1.006
31520SOL    HW194584   5.873   2.288   0.989
31520SOL    HW294585   6.002   2.376   0.942
31521SOL     OW94586   6.724   2.242   1.678
31521SOL    HW194587   6.679   2.305   1.742
31521SOL    HW294588   6.817   2.273   1.661
31522SOL     OW94589   6.746   2.069   1.477
31522SOL    HW194590   6.746   2.133   1.554
31522SOL    HW294591   6.774   2.117   1.394
31523SOL     OW94592   5.594   3.188   0.200
31523SOL    HW194593   5.501   3.209   0.169
31523SOL    HW294594   5.604   3.089   0.213
31524SOL     OW94595   5.674   3.663   0.927
31524SOL    HW194596   5.632   3.577   0.900
31524SOL    HW294597   5.768   3.666   0.893
31525SOL     OW94598   6.090   3.430   0.910
31525SOL    HW194599   6.156   3.504   0.919
31525SOL    HW294600   6.134   3.351   0.868
31526SOL     OW94601   6.588   2.658   1.238
31526SOL    HW194602   6.629   2.626   1.324
31526SOL    HW294603   6.492   2.631   1.235
31527SOL     OW94604   5.626   2.406   1.114
31527SOL    HW194605   5.711   2.373   1.073
31527SOL    HW294606   5.639   2.421   1.212
31528SOL     OW94607   5.775   2.382   1.722
31528SOL    HW194608   5.834   2.342   1.652
31528SOL    HW294609   5.717   2.453   1.681
31529SOL     OW94610   6.955   2.812   1.660
31529SOL    HW194611   6.994   2.901   1.680
31529SOL    HW294612   6.965   2.792   1.563
31530SOL     OW94613   6.401   2.434   0.325
31530SOL    HW194614   6.408   2.345   0.279
31530SOL    HW294615   6.307   2.468   0.317
31531SOL     OW94616   7.243   2.466   1.206
31531SOL    HW194617   7.205   2.397   1.268
31531SOL    HW294618   7.325   2.430   1.162
31532SOL     OW94619   5.838   3.426   1.744
31532SOL    HW194620   5.808   3.483   1.820
31532SOL    HW294621   5.831   3.329   1.770
31533SOL     OW94622   6.257   2.326   1.269
31533SOL    HW194623   6.223   2.237   1.239
31533SOL    HW294624   6.283   2.380   1.189
31534SOL     OW94625   6.516   3.540   1.465
31534SOL    HW194626   6.492   3.522   1.370
31534SOL    HW294627   6.546   3.634   1.475
31535SOL     OW94628   6.059   2.362   0.191
31535SOL    HW194629   6.120   2.442   0.195
31535SOL    HW294630   5.964   2.393   0.198
31536SOL     OW94631   5.745   2.999   1.466
31536SOL    HW194632   5.767   2.938   1.542
31536SOL    HW294633   5.755   2.950   1.380
31537SOL     OW94634   6.933   2.921   1.234
31537SOL    HW194635   6.957   2.858   1.160
31537SOL    HW294636   6.843   2.961   1.216
31538SOL     OW94637   6.888   2.717   0.309
31538SOL    HW194638   6.802   2.686   0.351
31538SOL    HW294639   6.884   2.703   0.210
31539SOL     OW94640   7.345   3.609   1.154
31539SOL    HW194641   7.406   3.639   1.081
31539SOL    HW294642   7.307   3.520   1.132
31540SOL     OW94643   6.838   3.593   1.128
31540SOL    HW194644   6.922   3.598   1.074
31540SOL    HW294645   6.815   3.497   1.146
31541SOL     OW94646   5.669   3.120   1.022
31541SOL    HW194647   5.664   3.119   1.122
31541SOL    HW294648   5.586   3.079   0.984
31542SOL     OW94649   6.274   3.524   1.716
31542SOL    HW194650   6.218   3.605   1.725
31542SOL    HW294651   6.326   3.528   1.630
31543SOL     OW94652   6.489   1.948   0.133
31543SOL    HW194653   6.540   1.949   0.047
31543SOL    HW294654   6.545   1.906   0.204
31544SOL     OW94655   7.312   1.997   0.523
31544SOL    HW194656   7.385   1.980   0.456
31544SOL    HW294657   7.281   1.910   0.561
31545SOL     OW94658   6.974   3.435   0.477
31545SOL    HW194659   7.041   3.447   0.403
31545SOL    HW294660   6.934   3.524   0.500
31546SOL     OW94661   5.716   3.656   1.851
31546SOL    HW194662   5.675   3.582   1.904
31546SOL    HW294663   5.780   3.707   1.909
31547SOL     OW94664   6.866   2.789   0.672
31547SOL    HW194665   6.926   2.708   0.674
31547SOL    HW294666   6.906   2.858   0.612
31548SOL     OW94667   6.416   3.135   1.422
31548SOL    HW194668   6.411   3.168   1.517
31548SOL    HW294669   6.330   3.154   1.376
31549SOL     OW94670   6.258   3.478   0.154
31549SOL    HW194671   6.267   3.488   0.055
31549SOL    HW294672   6.218   3.389   0.175
31550SOL     OW94673   7.236   3.582   1.394
31550SOL    HW194674   7.289   3.592   1.310
31550SOL    HW294675   7.209   3.672   1.428
31551SOL     OW94676   7.427   2.037   0.963
31551SOL    HW194677   7.466   1.952   0.927
31551SOL    HW294678   7.329   2.039   0.944
31552SOL     OW94679   5.849   2.188   0.720
31552SOL    HW194680   5.770   2.239   0.686
31552SOL    HW294681   5.840   2.173   0.818
31553SOL     OW94682   6.780   3.474   0.031
31553SOL    HW194683   6.786   3.381   0.068
31553SOL    HW294684   6.721   3.474  -0.049
31554SOL     OW94685   6.408   2.864   1.372
31554SOL    HW194686   6.448   2.863   1.280
31554SOL    HW294687   6.418   2.956   1.412
31555SOL     OW94688   6.502   2.772   0.291
31555SOL    HW194689   6.565   2.810   0.223
31555SOL    HW294690   6.542   2.689   0.330
31556SOL     OW94691   7.090   3.469   0.044
31556SOL    HW194692   6.998   3.506   0.051
31556SOL    HW294693   7.128   3.489  -0.046
31557SOL     OW94694   5.958   3.150   1.490
31557SOL    HW194695   5.945   3.243   1.456
31557SOL    HW294696   5.874   3.098   1.477
31558SOL     OW94697   7.200   3.154   1.289
31558SOL    HW194698   7.260   3.157   1.369
31558SOL    HW294699   7.125   3.218   1.302
31559SOL     OW94700   6.625   2.960   0.696
31559SOL    HW194701   6.555   2.913   0.750
31559SOL    HW294702   6.684   2.892   0.653
31560SOL     OW94703   6.600   2.098   0.971
31560SOL    HW194704   6.592   2.062   0.878
31560SOL    HW294705   6.598   2.022   1.036
31561SOL     OW94706   6.176   3.349   0.491
31561SOL    HW194707   6.218   3.291   0.421
31561SOL    HW294708   6.132   3.428   0.447
31562SOL     OW94709   7.295   2.247   1.381
31562SOL    HW194710   7.368   2.316   1.385
31562SOL    HW294711   7.323   2.172   1.322
31563SOL     OW94712   5.841   3.210   0.290
31563SOL    HW194713   5.745   3.211   0.263
31563SOL    HW294714   5.853   3.263   0.374
31564SOL     OW94715   5.691   2.875   1.726
31564SOL    HW194716   5.614   2.842   1.780
31564SOL    HW294717   5.776   2.845   1.768
31565SOL     OW94718   6.258   2.065   1.489
31565SOL    HW194719   6.348   2.049   1.449
31565SOL    HW294720   6.266   2.070   1.588
31566SOL     OW94721   7.026   2.718   1.398
31566SOL    HW194722   6.969   2.770   1.335
31566SOL    HW294723   7.122   2.730   1.374
31567SOL     OW94724   5.658   2.028   0.318
31567SOL    HW194725   5.641   2.111   0.264
31567SOL    HW294726   5.748   1.991   0.296
31568SOL     OW94727   6.769   3.197   0.119
31568SOL    HW194728   6.670   3.186   0.121
31568SOL    HW294729   6.803   3.212   0.212
31569SOL     OW94730   6.199   2.704   1.431
31569SOL    HW194731   6.255   2.785   1.414
31569SOL    HW294732   6.258   2.624   1.434
31570SOL     OW94733   7.079   3.629   0.959
31570SOL    HW194734   7.112   3.693   0.890
31570SOL    HW294735   7.145   3.623   1.034
31571SOL     OW94736   6.302   2.427   1.708
31571SOL    HW194737   6.321   2.492   1.782
31571SOL    HW294738   6.362   2.347   1.717
31572SOL     OW94739   7.036   3.082   1.633
31572SOL    HW194740   7.027   3.072   1.732
31572SOL    HW294741   7.132   3.075   1.607
31573SOL     OW94742   5.976   3.603   1.560
31573SOL    HW194743   5.885   3.644   1.558
31573SOL    HW294744   5.969   3.509   1.592
31574SOL     OW94745   7.260   2.745   1.254
31574SOL    HW194746   7.233   2.656   1.217
31574SOL    HW294747   7.261   2.813   1.181
31575SOL     OW94748   6.811   2.187   0.449
31575SOL    HW194749   6.876   2.113   0.438
31575SOL    HW294750   6.831   2.237   0.533
31576SOL     OW94751   6.180   2.607   0.652
31576SOL    HW194752   6.230   2.692   0.633
31576SOL    HW294753   6.092   2.609   0.604
31577SOL     OW94754   7.363   2.204   1.642
31577SOL    HW194755   7.346   2.235   1.548
31577SOL    HW294756   7.279   2.167   1.680
31578SOL     OW94757   7.316   2.796   1.517
31578SOL    HW194758   7.354   2.887   1.532
31578SOL    HW294759   7.308   2.779   1.418
31579SOL     OW94760   6.445   3.236   0.016
31579SOL    HW194761   6.399   3.251   0.104
31579SOL    HW294762   6.489   3.321  -0.014
31580SOL     OW94763   6.247   3.652   0.953
31580SOL    HW194764   6.201   3.740   0.940
31580SOL    HW294765   6.346   3.664   0.946
31581SOL     OW94766   6.445   2.818   0.861
31581SOL    HW194767   6.499   2.749   0.909
31581SOL    HW294768   6.413   2.887   0.927
31582SOL     OW94769   6.669   2.846   0.087
31582SOL    HW194770   6.646   2.899   0.005
31582SOL    HW294771   6.750   2.790   0.068
31583SOL     OW94772   7.447   3.431   0.851
31583SOL    HW194773   7.376   3.419   0.781
31583SOL    HW294774   7.448   3.352   0.911
31584SOL     OW94775   5.807   3.176   1.844
31584SOL    HW194776   5.742   3.103   1.823
31584SOL    HW294777   5.811   3.190   1.942
31585SOL     OW94778   5.665   3.102   0.653
31585SOL    HW194779   5.664   3.055   0.741
31585SOL    HW294780   5.747   3.074   0.602
31586SOL     OW94781   6.258   3.253   1.624
31586SOL    HW194782   6.180   3.203   1.662
31586SOL    HW294783   6.255   3.348   1.655
31587SOL     OW94784   7.410   2.054   1.227
31587SOL    HW194785   7.406   1.964   1.271
31587SOL    HW294786   7.413   2.043   1.128
31588SOL     OW94787   6.014   2.286   0.520
31588SOL    HW194788   6.044   2.214   0.458
31588SOL    HW294789   5.975   2.246   0.603
31589SOL     OW94790   7.291   3.349   1.104
31589SOL    HW194791   7.198   3.324   1.077
31589SOL    HW294792   7.317   3.299   1.186
31590SOL     OW94793   5.903   2.409   1.280
31590SOL    HW194794   5.941   2.350   1.352
31590SOL    HW294795   5.943   2.383   1.192
31591SOL     OW94796   6.398   3.448   0.687
31591SOL    HW194797   6.430   3.458   0.593
31591SOL    HW294798   6.319   3.386   0.689
31592SOL     OW94799   7.010   2.076   1.112
31592SOL    HW194800   7.062   2.011   1.167
31592SOL    HW294801   6.961   2.139   1.173
31593SOL     OW94802   6.587   1.896   1.154
31593SOL    HW194803   6.524   1.824   1.123
31593SOL    HW294804   6.680   1.860   1.154
31594SOL     OW94805   6.356   3.192   0.301
31594SOL    HW194806   6.310   3.105   0.318
31594SOL    HW294807   6.447   3.189   0.342
31595SOL     OW94808   6.204   3.429   1.284
31595SOL    HW194809   6.199   3.511   1.341
31595SOL    HW294810   6.293   3.426   1.239
31596SOL     OW94811   6.938   1.914   0.168
31596SOL    HW194812   6.973   1.873   0.084
31596SOL    HW294813   6.848   1.876   0.188
31597SOL     OW94814   6.886   2.315   0.691
31597SOL    HW194815   6.827   2.395   0.695
31597SOL    HW294816   6.901   2.280   0.784
31598SOL     OW94817   7.179   2.083   0.882
31598SOL    HW194818   7.095   2.082   0.936
31598SOL    HW294819   7.181   2.166   0.826
31599SOL     OW94820   5.625   2.939   0.300
31599SOL    HW194821   5.724   2.928   0.291
31599SOL    HW294822   5.585   2.853   0.332
31600SOL     OW94823   6.461   3.508   0.337
31600SOL    HW194824   6.384   3.473   0.283
31600SOL    HW294825   6.429   3.579   0.399
31601SOL     OW94826   5.816   2.490   1.975
31601SOL    HW194827   5.723   2.488   2.012
31601SOL    HW294828   5.817   2.451   1.883
31602SOL     OW94829   5.811   2.137   2.858
31602SOL    HW194830   5.846   2.120   2.950
31602SOL    HW294831   5.723   2.092   2.846
31603SOL     OW94832   5.605   2.230   2.509
31603SOL    HW194833   5.523   2.273   2.548
31603SOL    HW294834   5.577   2.157   2.446
31604SOL     OW94835   6.155   3.137   3.027
31604SOL    HW194836   6.062   3.130   2.990
31604SOL    HW294837   6.166   3.226   3.071
31605SOL     OW94838   7.141   3.373   2.565
31605SOL    HW194839   7.084   3.357   2.646
31605SOL    HW294840   7.082   3.383   2.485
31606SOL     OW94841   6.721   2.565   2.579
31606SOL    HW194842   6.778   2.643   2.554
31606SOL    HW294843   6.661   2.591   2.655
31607SOL     OW94844   7.341   2.469   2.093
31607SOL    HW194845   7.329   2.456   1.994
31607SOL    HW294846   7.311   2.388   2.142
31608SOL     OW94847   6.354   3.006   2.885
31608SOL    HW194848   6.276   3.023   2.945
31608SOL    HW294849   6.388   3.093   2.849
31609SOL     OW94850   6.436   2.660   3.685
31609SOL    HW194851   6.432   2.736   3.750
31609SOL    HW294852   6.458   2.696   3.594
31610SOL     OW94853   6.271   2.874   2.527
31610SOL    HW194854   6.340   2.858   2.597
31610SOL    HW294855   6.198   2.931   2.565
31611SOL     OW94856   6.272   3.023   3.665
31611SOL    HW194857   6.332   3.102   3.679
31611SOL    HW294858   6.186   3.054   3.624
31612SOL     OW94859   5.921   3.297   2.923
31612SOL    HW194860   5.843   3.266   2.870
31612SOL    HW294861   5.979   3.355   2.866
31613SOL     OW94862   7.046   3.367   3.201
31613SOL    HW194863   7.070   3.461   3.227
31613SOL    HW294864   7.030   3.313   3.283
31614SOL     OW94865   6.024   2.254   3.361
31614SOL    HW194866   6.106   2.198   3.370
31614SOL    HW294867   5.943   2.196   3.365
31615SOL     OW94868   7.189   2.309   2.599
31615SOL    HW194869   7.115   2.355   2.549
31615SOL    HW294870   7.240   2.377   2.652
31616SOL     OW94871   5.817   3.575   2.345
31616SOL    HW194872   5.851   3.652   2.399
31616SOL    HW294873   5.861   3.575   2.255
31617SOL     OW94874   6.713   3.203   3.552
31617SOL    HW194875   6.760   3.203   3.640
31617SOL    HW294876   6.665   3.116   3.541
31618SOL     OW94877   5.816   3.296   2.400
31618SOL    HW194878   5.790   3.392   2.400
31618SOL    HW294879   5.745   3.242   2.445
31619SOL     OW94880   5.826   2.953   2.748
31619SOL    HW194881   5.840   2.869   2.800
31619SOL    HW294882   5.771   3.017   2.803
31620SOL     OW94883   6.206   3.648   3.301
31620SOL    HW194884   6.114   3.631   3.336
31620SOL    HW294885   6.234   3.740   3.327
31621SOL     OW94886   6.192   2.826   1.985
31621SOL    HW194887   6.199   2.910   1.931
31621SOL    HW294888   6.238   2.839   2.073
31622SOL     OW94889   7.180   1.976   3.342
31622SOL    HW194890   7.162   2.043   3.270
31622SOL    HW294891   7.177   2.022   3.431
31623SOL     OW94892   5.708   2.505   2.425
31623SOL    HW194893   5.663   2.417   2.442
31623SOL    HW294894   5.707   2.559   2.509
31624SOL     OW94895   7.428   3.629   2.221
31624SOL    HW194896   7.482   3.600   2.301
31624SOL    HW294897   7.458   3.719   2.192
31625SOL     OW94898   5.613   3.458   1.979
31625SOL    HW194899   5.594   3.362   2.000
31625SOL    HW294900   5.580   3.516   2.054
31626SOL     OW94901   7.275   2.784   2.474
31626SOL    HW194902   7.370   2.755   2.482
31626SOL    HW294903   7.267   2.849   2.399
31627SOL     OW94904   7.227   2.970   2.294
31627SOL    HW194905   7.313   2.972   2.242
31627SOL    HW294906   7.241   3.017   2.382
31628SOL     OW94907   5.699   2.599   3.459
31628SOL    HW194908   5.787   2.586   3.504
31628SOL    HW294909   5.686   2.696   3.437
31629SOL     OW94910   6.199   3.227   2.588
31629SOL    HW194911   6.150   3.140   2.597
31629SOL    HW294912   6.176   3.270   2.501
31630SOL     OW94913   6.879   3.090   3.285
31630SOL    HW194914   6.916   3.017   3.227
31630SOL    HW294915   6.931   3.095   3.370
31631SOL     OW94916   6.395   1.866   2.364
31631SOL    HW194917   6.435   1.957   2.355
31631SOL    HW294918   6.295   1.874   2.370
31632SOL     OW94919   5.783   2.838   3.126
31632SOL    HW194920   5.872   2.793   3.112
31632SOL    HW294921   5.710   2.773   3.107
31633SOL     OW94922   7.111   2.861   2.052
31633SOL    HW194923   7.048   2.785   2.065
31633SOL    HW294924   7.159   2.879   2.138
31634SOL     OW94925   6.773   3.654   3.478
31634SOL    HW194926   6.797   3.714   3.402
31634SOL    HW294927   6.780   3.559   3.448
31635SOL     OW94928   5.903   2.113   3.663
31635SOL    HW194929   5.974   2.184   3.669
31635SOL    HW294930   5.815   2.152   3.691
31636SOL     OW94931   7.052   3.279   2.815
31636SOL    HW194932   6.993   3.285   2.895
31636SOL    HW294933   7.037   3.191   2.769
31637SOL     OW94934   7.253   3.576   2.434
31637SOL    HW194935   7.212   3.553   2.346
31637SOL    HW294936   7.235   3.502   2.499
31638SOL     OW94937   6.184   2.591   2.132
31638SOL    HW194938   6.208   2.660   2.064
31638SOL    HW294939   6.106   2.624   2.186
31639SOL     OW94940   6.867   2.207   2.806
31639SOL    HW194941   6.781   2.157   2.793
31639SOL    HW294942   6.929   2.153   2.862
31640SOL     OW94943   7.162   3.524   2.169
31640SOL    HW194944   7.251   3.570   2.172
31640SOL    HW294945   7.141   3.500   2.074
31641SOL     OW94946   6.393   2.467   3.327
31641SOL    HW194947   6.346   2.464   3.416
31641SOL    HW294948   6.342   2.412   3.261
31642SOL     OW94949   6.980   2.331   3.536
31642SOL    HW194950   6.960   2.374   3.624
31642SOL    HW294951   7.058   2.269   3.545
31643SOL     OW94952   6.559   2.752   3.434
31643SOL    HW194953   6.605   2.668   3.405
31643SOL    HW294954   6.503   2.786   3.359
31644SOL     OW94955   6.577   2.272   3.104
31644SOL    HW194956   6.500   2.306   3.158
31644SOL    HW294957   6.543   2.221   3.025
31645SOL     OW94958   6.627   2.563   2.291
31645SOL    HW194959   6.653   2.559   2.387
31645SOL    HW294960   6.542   2.512   2.277
31646SOL     OW94961   5.662   2.673   2.651
31646SOL    HW194962   5.761   2.661   2.660
31646SOL    HW294963   5.638   2.768   2.672
31647SOL     OW94964   5.716   3.683   3.433
31647SOL    HW194965   5.706   3.668   3.532
31647SOL    HW294966   5.630   3.719   3.397
31648SOL     OW94967   6.451   2.210   2.057
31648SOL    HW194968   6.510   2.273   2.008
31648SOL    HW294969   6.470   2.116   2.028
31649SOL     OW94970   7.305   2.447   3.693
31649SOL    HW194971   7.279   2.536   3.657
31649SOL    HW294972   7.303   2.379   3.620
31650SOL     OW94973   6.948   3.006   2.407
31650SOL    HW194974   7.031   2.977   2.359
31650SOL    HW294975   6.899   3.073   2.351
31651SOL     OW94976   6.136   2.058   2.747
31651SOL    HW194977   6.131   2.053   2.847
31651SOL    HW294978   6.138   2.154   2.718
31652SOL     OW94979   6.594   3.318   2.339
31652SOL    HW194980   6.548   3.390   2.287
31652SOL    HW294981   6.590   3.338   2.437
31653SOL     OW94982   5.937   3.663   2.715
31653SOL    HW194983   5.987   3.577   2.721
31653SOL    HW294984   6.002   3.740   2.712
31654SOL     OW94985   7.381   2.928   2.735
31654SOL    HW194986   7.319   2.913   2.659
31654SOL    HW294987   7.329   2.939   2.820
31655SOL     OW94988   6.813   3.412   3.368
31655SOL    HW194989   6.819   3.335   3.432
31655SOL    HW294990   6.761   3.386   3.288
31656SOL     OW94991   5.907   2.805   2.104
31656SOL    HW194992   5.989   2.844   2.062
31656SOL    HW294993   5.880   2.723   2.055
31657SOL     OW94994   7.044   2.597   2.590
31657SOL    HW194995   7.039   2.532   2.665
31657SOL    HW294996   7.124   2.656   2.603
31658SOL     OW94997   6.047   3.128   3.589
31658SOL    HW194998   5.997   3.129   3.503
31658SOL    HW294999   5.984   3.110   3.665
31659SOL     OW95000   6.697   3.638   2.099
31659SOL    HW195001   6.637   3.576   2.149
31659SOL    HW295002   6.728   3.594   2.014
31660SOL     OW95003   5.788   2.147   3.360
31660SOL    HW195004   5.708   2.207   3.347
31660SOL    HW295005   5.778   2.098   3.446
31661SOL     OW95006   7.218   3.239   1.943
31661SOL    HW195007   7.186   3.333   1.933
31661SOL    HW295008   7.142   3.176   1.931
31662SOL     OW95009   6.050   3.605   2.185
31662SOL    HW195010   6.083   3.644   2.271
31662SOL    HW295011   6.126   3.598   2.120
31663SOL     OW95012   6.986   1.969   2.288
31663SOL    HW195013   6.962   1.932   2.198
31663SOL    HW295014   7.085   1.985   2.292
31664SOL     OW95015   5.835   3.647   3.103
31664SOL    HW195016   5.892   3.582   3.153
31664SOL    HW295017   5.819   3.614   3.010
31665SOL     OW95018   6.526   3.560   2.766
31665SOL    HW195019   6.606   3.503   2.787
31665SOL    HW295020   6.477   3.520   2.689
31666SOL     OW95021   5.968   2.562   2.342
31666SOL    HW195022   6.013   2.472   2.339
31666SOL    HW295023   5.874   2.551   2.375
31667SOL     OW95024   7.133   2.084   3.591
31667SOL    HW195025   7.128   2.121   3.683
31667SOL    HW295026   7.061   2.015   3.579
31668SOL     OW95027   6.200   1.984   1.979
31668SOL    HW195028   6.298   1.962   1.986
31668SOL    HW295029   6.169   1.967   1.886
31669SOL     OW95030   6.367   2.126   3.611
31669SOL    HW195031   6.434   2.065   3.654
31669SOL    HW295032   6.294   2.145   3.676
31670SOL     OW95033   6.474   3.376   3.057
31670SOL    HW195034   6.451   3.351   2.963
31670SOL    HW295035   6.535   3.307   3.096
31671SOL     OW95036   6.937   2.452   3.295
31671SOL    HW195037   6.965   2.409   3.380
31671SOL    HW295038   6.962   2.548   3.296
31672SOL     OW95039   6.389   3.264   2.786
31672SOL    HW195040   6.479   3.278   2.744
31672SOL    HW295041   6.318   3.266   2.715
31673SOL     OW95042   6.508   2.365   2.761
31673SOL    HW195043   6.483   2.356   2.665
31673SOL    HW295044   6.556   2.283   2.792
31674SOL     OW95045   6.125   1.926   2.374
31674SOL    HW195046   6.044   1.927   2.432
31674SOL    HW295047   6.128   2.009   2.319
31675SOL     OW95048   7.020   3.050   1.903
31675SOL    HW195049   7.052   2.974   1.960
31675SOL    HW295050   6.928   3.077   1.933
31676SOL     OW95051   5.883   1.897   2.033
31676SOL    HW195052   5.932   1.981   2.012
31676SOL    HW295053   5.945   1.832   2.078
31677SOL     OW95054   6.521   2.098   2.342
31677SOL    HW195055   6.473   2.139   2.264
31677SOL    HW295056   6.620   2.096   2.323
31678SOL     OW95057   6.662   2.545   3.326
31678SOL    HW195058   6.582   2.484   3.329
31678SOL    HW295059   6.743   2.492   3.302
31679SOL     OW95060   6.813   3.432   2.655
31679SOL    HW195061   6.834   3.506   2.590
31679SOL    HW295062   6.881   3.432   2.728
31680SOL     OW95063   6.045   3.014   2.603
31680SOL    HW195064   5.974   2.987   2.668
31680SOL    HW295065   6.019   2.986   2.510
31681SOL     OW95066   6.857   3.659   2.453
31681SOL    HW195067   6.901   3.723   2.389
31681SOL    HW295068   6.807   3.711   2.523
31682SOL     OW95069   6.618   2.411   1.878
31682SOL    HW195070   6.577   2.493   1.839
31682SOL    HW295071   6.682   2.437   1.951
31683SOL     OW95072   5.664   2.418   3.248
31683SOL    HW195073   5.756   2.417   3.207
31683SOL    HW295074   5.658   2.492   3.315
31684SOL     OW95075   6.147   2.084   3.009
31684SOL    HW195076   6.185   2.000   3.046
31684SOL    HW295077   6.059   2.103   3.053
31685SOL     OW95078   6.452   2.316   2.504
31685SOL    HW195079   6.420   2.388   2.442
31685SOL    HW295080   6.476   2.235   2.451
31686SOL     OW95081   6.603   1.901   2.615
31686SOL    HW195082   6.531   1.906   2.546
31686SOL    HW295083   6.579   1.832   2.684
31687SOL     OW95084   7.015   3.035   2.729
31687SOL    HW195085   6.960   2.951   2.722
31687SOL    HW295086   7.041   3.064   2.637
31688SOL     OW95087   7.052   2.452   2.854
31688SOL    HW195088   7.022   2.357   2.861
31688SOL    HW295089   7.125   2.468   2.920
31689SOL     OW95090   7.443   2.695   2.239
31689SOL    HW195091   7.485   2.631   2.303
31689SOL    HW295092   7.405   2.644   2.161
31690SOL     OW95093   6.074   3.247   2.036
31690SOL    HW195094   5.987   3.232   2.083
31690SOL    HW295095   6.057   3.273   1.941
31691SOL     OW95096   7.250   3.142   2.519
31691SOL    HW195097   7.349   3.150   2.533
31691SOL    HW295098   7.205   3.226   2.550
31692SOL     OW95099   6.976   2.437   1.940
31692SOL    HW195100   6.922   2.416   2.021
31692SOL    HW295101   7.067   2.396   1.949
31693SOL     OW95102   6.113   2.118   2.190
31693SOL    HW195103   6.140   2.059   2.115
31693SOL    HW295104   6.113   2.213   2.159
31694SOL     OW95105   7.340   3.085   3.450
31694SOL    HW195106   7.431   3.046   3.437
31694SOL    HW295107   7.348   3.181   3.474
31695SOL     OW95108   6.650   3.209   3.202
31695SOL    HW195109   6.570   3.186   3.257
31695SOL    HW295110   6.733   3.183   3.251
31696SOL     OW95111   7.178   3.491   3.487
31696SOL    HW195112   7.205   3.525   3.397
31696SOL    HW295113   7.257   3.453   3.533
31697SOL     OW95114   6.697   3.057   2.962
31697SOL    HW195115   6.657   3.101   3.043
31697SOL    HW295116   6.656   3.094   2.879
31698SOL     OW95117   7.224   2.961   2.941
31698SOL    HW195118   7.229   3.042   3.000
31698SOL    HW295119   7.138   2.963   2.890
31699SOL     OW95120   6.501   1.951   3.264
31699SOL    HW195121   6.526   1.931   3.169
31699SOL    HW295122   6.573   2.007   3.306
31700SOL     OW95123   6.566   2.978   3.581
31700SOL    HW195124   6.467   2.984   3.591
31700SOL    HW295125   6.589   2.898   3.525
31701SOL     OW95126   6.291   2.912   2.230
31701SOL    HW195127   6.277   2.919   2.329
31701SOL    HW295128   6.375   2.861   2.212
31702SOL     OW95129   5.996   2.675   3.113
31702SOL    HW195130   6.082   2.687   3.163
31702SOL    HW295131   5.954   2.588   3.140
31703SOL     OW95132   6.860   2.248   3.124
31703SOL    HW195133   6.881   2.322   3.188
31703SOL    HW295134   6.771   2.265   3.081
31704SOL     OW95135   5.650   3.426   3.193
31704SOL    HW195136   5.604   3.508   3.159
31704SOL    HW295137   5.748   3.445   3.202
31705SOL     OW95138   5.953   2.962   2.363
31705SOL    HW195139   5.946   3.045   2.307
31705SOL    HW295140   5.957   2.882   2.303
31706SOL     OW95141   6.152   2.399   2.727
31706SOL    HW195142   6.164   2.465   2.653
31706SOL    HW295143   6.198   2.433   2.810
31707SOL     OW95144   6.838   3.210   2.250
31707SOL    HW195145   6.888   3.287   2.290
31707SOL    HW295146   6.743   3.212   2.282
31708SOL     OW95147   6.858   3.307   3.004
31708SOL    HW195148   6.905   3.320   3.091
31708SOL    HW295149   6.792   3.233   3.013
31709SOL     OW95150   7.168   2.501   2.334
31709SOL    HW195151   7.137   2.562   2.407
31709SOL    HW295152   7.218   2.553   2.265
31710SOL     OW95153   5.940   3.372   3.191
31710SOL    HW195154   5.919   3.328   3.104
31710SOL    HW295155   6.037   3.398   3.194
31711SOL     OW95156   5.988   2.613   3.460
31711SOL    HW195157   6.056   2.668   3.413
31711SOL    HW295158   6.028   2.525   3.487
31712SOL     OW95159   7.173   2.641   3.532
31712SOL    HW195160   7.081   2.679   3.527
31712SOL    HW295161   7.233   2.688   3.467
31713SOL     OW95162   6.599   1.967   3.632
31713SOL    HW195163   6.605   2.052   3.580
31713SOL    HW295164   6.631   1.891   3.575
31714SOL     OW95165   6.090   1.912   3.602
31714SOL    HW195166   6.048   1.855   3.532
31714SOL    HW295167   6.024   1.981   3.634
31715SOL     OW95168   6.159   2.732   2.891
31715SOL    HW195169   6.203   2.821   2.882
31715SOL    HW295170   6.096   2.732   2.968
31716SOL     OW95171   6.946   2.724   2.907
31716SOL    HW195172   6.871   2.724   2.841
31716SOL    HW295173   6.983   2.632   2.916
31717SOL     OW95174   6.795   2.387   2.137
31717SOL    HW195175   6.808   2.303   2.191
31717SOL    HW295176   6.766   2.461   2.197
31718SOL     OW95177   5.893   2.075   3.093
31718SOL    HW195178   5.870   2.112   3.183
31718SOL    HW295179   5.863   1.980   3.087
31719SOL     OW95180   5.623   3.172   3.144
31719SOL    HW195181   5.676   3.123   3.212
31719SOL    HW295182   5.645   3.270   3.149
31720SOL     OW95183   6.318   2.496   2.926
31720SOL    HW195184   6.377   2.470   2.850
31720SOL    HW295185   6.290   2.592   2.915
31721SOL     OW95186   7.314   2.797   3.716
31721SOL    HW195187   7.268   2.790   3.627
31721SOL    HW295188   7.252   2.841   3.782
31722SOL     OW95189   5.893   1.925   2.480
31722SOL    HW195190   5.882   2.019   2.513
31722SOL    HW295191   5.888   1.862   2.557
31723SOL     OW95192   7.208   2.229   2.236
31723SOL    HW195193   7.210   2.153   2.300
31723SOL    HW295194   7.160   2.306   2.276
31724SOL     OW95195   6.609   2.628   2.828
31724SOL    HW195196   6.624   2.649   2.924
31724SOL    HW295197   6.579   2.533   2.819
31725SOL     OW95198   6.566   3.435   3.562
31725SOL    HW195199   6.546   3.479   3.474
31725SOL    HW295200   6.605   3.344   3.546
31726SOL     OW95201   7.445   3.380   3.467
31726SOL    HW195202   7.459   3.407   3.372
31726SOL    HW295203   7.528   3.402   3.520
31727SOL     OW95204   5.936   2.760   3.666
31727SOL    HW195205   6.012   2.804   3.714
31727SOL    HW295206   5.971   2.713   3.584
31728SOL     OW95207   7.126   2.136   1.987
31728SOL    HW195208   7.065   2.061   2.010
31728SOL    HW295209   7.148   2.188   2.070
31729SOL     OW95210   6.889   2.700   1.904
31729SOL    HW195211   6.923   2.607   1.919
31729SOL    HW295212   6.907   2.727   1.809
31730SOL     OW95213   6.654   3.195   2.711
31730SOL    HW195214   6.661   3.111   2.656
31730SOL    HW295215   6.716   3.264   2.675
31731SOL     OW95216   5.905   2.672   2.811
31731SOL    HW195217   5.998   2.708   2.816
31731SOL    HW295218   5.899   2.587   2.863
31732SOL     OW95219   5.925   2.371   2.868
31732SOL    HW195220   5.873   2.288   2.851
31732SOL    HW295221   6.002   2.376   2.804
31733SOL     OW95222   6.724   2.242   3.540
31733SOL    HW195223   6.679   2.305   3.604
31733SOL    HW295224   6.817   2.273   3.523
31734SOL     OW95225   6.746   2.069   3.339
31734SOL    HW195226   6.746   2.133   3.416
31734SOL    HW295227   6.774   2.117   3.256
31735SOL     OW95228   5.594   3.188   2.062
31735SOL    HW195229   5.501   3.209   2.031
31735SOL    HW295230   5.604   3.089   2.075
31736SOL     OW95231   5.674   3.663   2.789
31736SOL    HW195232   5.632   3.577   2.762
31736SOL    HW295233   5.768   3.666   2.755
31737SOL     OW95234   6.090   3.430   2.772
31737SOL    HW195235   6.156   3.504   2.781
31737SOL    HW295236   6.134   3.351   2.730
31738SOL     OW95237   6.588   2.658   3.100
31738SOL    HW195238   6.629   2.626   3.186
31738SOL    HW295239   6.492   2.631   3.097
31739SOL     OW95240   5.626   2.406   2.976
31739SOL    HW195241   5.711   2.373   2.935
31739SOL    HW295242   5.639   2.421   3.074
31740SOL     OW95243   5.775   2.382   3.584
31740SOL    HW195244   5.834   2.342   3.514
31740SOL    HW295245   5.717   2.453   3.543
31741SOL     OW95246   6.955   2.812   3.522
31741SOL    HW195247   6.994   2.901   3.542
31741SOL    HW295248   6.965   2.792   3.425
31742SOL     OW95249   6.401   2.434   2.187
31742SOL    HW195250   6.408   2.345   2.141
31742SOL    HW295251   6.307   2.468   2.179
31743SOL     OW95252   7.243   2.466   3.068
31743SOL    HW195253   7.205   2.397   3.130
31743SOL    HW295254   7.325   2.430   3.024
31744SOL     OW95255   5.838   3.426   3.606
31744SOL    HW195256   5.808   3.483   3.682
31744SOL    HW295257   5.831   3.329   3.632
31745SOL     OW95258   6.257   2.326   3.131
31745SOL    HW195259   6.223   2.237   3.101
31745SOL    HW295260   6.283   2.380   3.051
31746SOL     OW95261   6.516   3.540   3.327
31746SOL    HW195262   6.492   3.522   3.232
31746SOL    HW295263   6.546   3.634   3.337
31747SOL     OW95264   6.059   2.362   2.053
31747SOL    HW195265   6.120   2.442   2.057
31747SOL    HW295266   5.964   2.393   2.060
31748SOL     OW95267   5.745   2.999   3.328
31748SOL    HW195268   5.767   2.938   3.404
31748SOL    HW295269   5.755   2.950   3.242
31749SOL     OW95270   6.933   2.921   3.096
31749SOL    HW195271   6.957   2.858   3.022
31749SOL    HW295272   6.843   2.961   3.078
31750SOL     OW95273   6.888   2.717   2.171
31750SOL    HW195274   6.802   2.686   2.213
31750SOL    HW295275   6.884   2.703   2.072
31751SOL     OW95276   7.345   3.609   3.016
31751SOL    HW195277   7.406   3.639   2.943
31751SOL    HW295278   7.307   3.520   2.994
31752SOL     OW95279   6.838   3.593   2.990
31752SOL    HW195280   6.922   3.598   2.936
31752SOL    HW295281   6.815   3.497   3.008
31753SOL     OW95282   5.669   3.120   2.884
31753SOL    HW195283   5.664   3.119   2.984
31753SOL    HW295284   5.586   3.079   2.846
31754SOL     OW95285   6.274   3.524   3.578
31754SOL    HW195286   6.218   3.605   3.587
31754SOL    HW295287   6.326   3.528   3.492
31755SOL     OW95288   7.312   1.997   2.385
31755SOL    HW195289   7.385   1.980   2.318
31755SOL    HW295290   7.281   1.910   2.423
31756SOL     OW95291   6.974   3.435   2.339
31756SOL    HW195292   7.041   3.447   2.265
31756SOL    HW295293   6.934   3.524   2.362
31757SOL     OW95294   5.716   3.656   3.713
31757SOL    HW195295   5.675   3.582   3.766
31757SOL    HW295296   5.780   3.707   3.771
31758SOL     OW95297   6.866   2.789   2.534
31758SOL    HW195298   6.926   2.708   2.536
31758SOL    HW295299   6.906   2.858   2.474
31759SOL     OW95300   6.416   3.135   3.284
31759SOL    HW195301   6.411   3.168   3.379
31759SOL    HW295302   6.330   3.154   3.238
31760SOL     OW95303   6.258   3.478   2.016
31760SOL    HW195304   6.267   3.488   1.917
31760SOL    HW295305   6.218   3.389   2.037
31761SOL     OW95306   7.236   3.582   3.256
31761SOL    HW195307   7.289   3.592   3.172
31761SOL    HW295308   7.209   3.672   3.290
31762SOL     OW95309   7.427   2.037   2.825
31762SOL    HW195310   7.466   1.952   2.789
31762SOL    HW295311   7.329   2.039   2.806
31763SOL     OW95312   5.849   2.188   2.582
31763SOL    HW195313   5.770   2.239   2.548
31763SOL    HW295314   5.840   2.173   2.680
31764SOL     OW95315   6.780   3.474   1.893
31764SOL    HW195316   6.786   3.381   1.930
31764SOL    HW295317   6.721   3.474   1.813
31765SOL     OW95318   6.408   2.864   3.234
31765SOL    HW195319   6.448   2.863   3.142
31765SOL    HW295320   6.418   2.956   3.274
31766SOL     OW95321   6.502   2.772   2.153
31766SOL    HW195322   6.565   2.810   2.085
31766SOL    HW295323   6.542   2.689   2.192
31767SOL     OW95324   7.090   3.469   1.906
31767SOL    HW195325   6.998   3.506   1.913
31767SOL    HW295326   7.128   3.489   1.816
31768SOL     OW95327   5.958   3.150   3.352
31768SOL    HW195328   5.945   3.243   3.318
31768SOL    HW295329   5.874   3.098   3.339
31769SOL     OW95330   7.200   3.154   3.151
31769SOL    HW195331   7.260   3.157   3.231
31769SOL    HW295332   7.125   3.218   3.164
31770SOL     OW95333   6.625   2.960   2.558
31770SOL    HW195334   6.555   2.913   2.612
31770SOL    HW295335   6.684   2.892   2.515
31771SOL     OW95336   6.600   2.098   2.833
31771SOL    HW195337   6.592   2.062   2.740
31771SOL    HW295338   6.598   2.022   2.898
31772SOL     OW95339   6.176   3.349   2.353
31772SOL    HW195340   6.218   3.291   2.283
31772SOL    HW295341   6.132   3.428   2.309
31773SOL     OW95342   7.295   2.247   3.243
31773SOL    HW195343   7.368   2.316   3.247
31773SOL    HW295344   7.323   2.172   3.184
31774SOL     OW95345   5.841   3.210   2.152
31774SOL    HW195346   5.745   3.211   2.125
31774SOL    HW295347   5.853   3.263   2.236
31775SOL     OW95348   5.691   2.875   3.588
31775SOL    HW195349   5.614   2.842   3.642
31775SOL    HW295350   5.776   2.845   3.630
31776SOL     OW95351   6.258   2.065   3.351
31776SOL    HW195352   6.348   2.049   3.311
31776SOL    HW295353   6.266   2.070   3.450
31777SOL     OW95354   5.661   2.207   1.895
31777SOL    HW195355   5.569   2.179   1.866
31777SOL    HW295356   5.692   2.284   1.839
31778SOL     OW95357   7.026   2.718   3.260
31778SOL    HW195358   6.969   2.770   3.197
31778SOL    HW295359   7.122   2.730   3.236
31779SOL     OW95360   5.658   2.028   2.180
31779SOL    HW195361   5.641   2.111   2.126
31779SOL    HW295362   5.748   1.991   2.158
31780SOL     OW95363   6.769   3.197   1.981
31780SOL    HW195364   6.670   3.186   1.983
31780SOL    HW295365   6.803   3.212   2.074
31781SOL     OW95366   6.199   2.704   3.293
31781SOL    HW195367   6.255   2.785   3.276
31781SOL    HW295368   6.258   2.624   3.296
31782SOL     OW95369   7.079   3.629   2.821
31782SOL    HW195370   7.112   3.693   2.752
31782SOL    HW295371   7.145   3.623   2.896
31783SOL     OW95372   6.302   2.427   3.570
31783SOL    HW195373   6.321   2.492   3.644
31783SOL    HW295374   6.362   2.347   3.579
31784SOL     OW95375   7.036   3.082   3.495
31784SOL    HW195376   7.027   3.072   3.594
31784SOL    HW295377   7.132   3.075   3.469
31785SOL     OW95378   5.976   3.603   3.422
31785SOL    HW195379   5.885   3.644   3.420
31785SOL    HW295380   5.969   3.509   3.454
31786SOL     OW95381   7.260   2.745   3.116
31786SOL    HW195382   7.233   2.656   3.079
31786SOL    HW295383   7.261   2.813   3.043
31787SOL     OW95384   6.811   2.187   2.311
31787SOL    HW195385   6.876   2.113   2.300
31787SOL    HW295386   6.831   2.237   2.395
31788SOL     OW95387   6.180   2.607   2.514
31788SOL    HW195388   6.230   2.692   2.495
31788SOL    HW295389   6.092   2.609   2.466
31789SOL     OW95390   7.363   2.204   3.504
31789SOL    HW195391   7.346   2.235   3.410
31789SOL    HW295392   7.279   2.167   3.542
31790SOL     OW95393   7.316   2.796   3.379
31790SOL    HW195394   7.354   2.887   3.394
31790SOL    HW295395   7.308   2.779   3.280
31791SOL     OW95396   6.445   3.236   1.878
31791SOL    HW195397   6.399   3.251   1.966
31791SOL    HW295398   6.489   3.321   1.848
31792SOL     OW95399   6.247   3.652   2.815
31792SOL    HW195400   6.201   3.740   2.802
31792SOL    HW295401   6.346   3.664   2.808
31793SOL     OW95402   6.445   2.818   2.723
31793SOL    HW195403   6.499   2.749   2.771
31793SOL    HW295404   6.413   2.887   2.789
31794SOL     OW95405   6.669   2.846   1.949
31794SOL    HW195406   6.646   2.899   1.867
31794SOL    HW295407   6.750   2.790   1.930
31795SOL     OW95408   7.447   3.431   2.713
31795SOL    HW195409   7.376   3.419   2.643
31795SOL    HW295410   7.448   3.352   2.773
31796SOL     OW95411   5.807   3.176   3.706
31796SOL    HW195412   5.742   3.103   3.685
31796SOL    HW295413   5.811   3.190   3.804
31797SOL     OW95414   5.665   3.102   2.515
31797SOL    HW195415   5.664   3.055   2.603
31797SOL    HW295416   5.747   3.074   2.464
31798SOL     OW95417   6.258   3.253   3.486
31798SOL    HW195418   6.180   3.203   3.524
31798SOL    HW295419   6.255   3.348   3.517
31799SOL     OW95420   7.410   2.054   3.089
31799SOL    HW195421   7.406   1.964   3.133
31799SOL    HW295422   7.413   2.043   2.990
31800SOL     OW95423   6.014   2.286   2.382
31800SOL    HW195424   6.044   2.214   2.320
31800SOL    HW295425   5.975   2.246   2.465
31801SOL     OW95426   7.291   3.349   2.966
31801SOL    HW195427   7.198   3.324   2.939
31801SOL    HW295428   7.317   3.299   3.048
31802SOL     OW95429   5.903   2.409   3.142
31802SOL    HW195430   5.941   2.350   3.214
31802SOL    HW295431   5.943   2.383   3.054
31803SOL     OW95432   6.398   3.448   2.549
31803SOL    HW195433   6.430   3.458   2.455
31803SOL    HW295434   6.319   3.386   2.551
31804SOL     OW95435   6.587   1.896   3.016
31804SOL    HW195436   6.524   1.824   2.985
31804SOL    HW295437   6.680   1.860   3.016
31805SOL     OW95438   6.356   3.192   2.163
31805SOL    HW195439   6.310   3.105   2.180
31805SOL    HW295440   6.447   3.189   2.204
31806SOL     OW95441   6.204   3.429   3.146
31806SOL    HW195442   6.199   3.511   3.203
31806SOL    HW295443   6.293   3.426   3.101
31807SOL     OW95444   6.938   1.914   2.030
31807SOL    HW195445   6.973   1.873   1.946
31807SOL    HW295446   6.848   1.876   2.050
31808SOL     OW95447   6.886   2.315   2.553
31808SOL    HW195448   6.827   2.395   2.557
31808SOL    HW295449   6.901   2.280   2.646
31809SOL     OW95450   7.179   2.083   2.744
31809SOL    HW195451   7.095   2.082   2.798
31809SOL    HW295452   7.181   2.166   2.688
31810SOL     OW95453   5.625   2.939   2.162
31810SOL    HW195454   5.724   2.928   2.153
31810SOL    HW295455   5.585   2.853   2.194
31811SOL     OW95456   6.461   3.508   2.199
31811SOL    HW195457   6.384   3.473   2.145
31811SOL    HW295458   6.429   3.579   2.261
31812SOL     OW95459   5.816   2.490   3.837
31812SOL    HW195460   5.723   2.488   3.874
31812SOL    HW295461   5.817   2.451   3.745
31813SOL     OW95462   5.811   2.137   4.720
31813SOL    HW195463   5.846   2.120   4.812
31813SOL    HW295464   5.723   2.092   4.708
31814SOL     OW95465   5.605   2.230   4.371
31814SOL    HW195466   5.523   2.273   4.410
31814SOL    HW295467   5.577   2.157   4.308
31815SOL     OW95468   6.155   3.137   4.889
31815SOL    HW195469   6.062   3.130   4.852
31815SOL    HW295470   6.166   3.226   4.933
31816SOL     OW95471   7.141   3.373   4.427
31816SOL    HW195472   7.084   3.357   4.508
31816SOL    HW295473   7.082   3.383   4.347
31817SOL     OW95474   6.721   2.565   4.441
31817SOL    HW195475   6.778   2.643   4.416
31817SOL    HW295476   6.661   2.591   4.517
31818SOL     OW95477   7.341   2.469   3.955
31818SOL    HW195478   7.329   2.456   3.856
31818SOL    HW295479   7.311   2.388   4.004
31819SOL     OW95480   6.354   3.006   4.747
31819SOL    HW195481   6.276   3.023   4.807
31819SOL    HW295482   6.388   3.093   4.711
31820SOL     OW95483   6.436   2.660   5.547
31820SOL    HW195484   6.432   2.736   5.612
31820SOL    HW295485   6.458   2.696   5.456
31821SOL     OW95486   6.271   2.874   4.389
31821SOL    HW195487   6.340   2.858   4.459
31821SOL    HW295488   6.198   2.931   4.427
31822SOL     OW95489   6.272   3.023   5.527
31822SOL    HW195490   6.332   3.102   5.541
31822SOL    HW295491   6.186   3.054   5.486
31823SOL     OW95492   5.921   3.297   4.785
31823SOL    HW195493   5.843   3.266   4.732
31823SOL    HW295494   5.979   3.355   4.728
31824SOL     OW95495   7.046   3.367   5.063
31824SOL    HW195496   7.070   3.461   5.089
31824SOL    HW295497   7.030   3.313   5.145
31825SOL     OW95498   6.024   2.254   5.223
31825SOL    HW195499   6.106   2.198   5.232
31825SOL    HW295500   5.943   2.196   5.227
31826SOL     OW95501   7.189   2.309   4.461
31826SOL    HW195502   7.115   2.355   4.411
31826SOL    HW295503   7.240   2.377   4.514
31827SOL     OW95504   5.817   3.575   4.207
31827SOL    HW195505   5.851   3.652   4.261
31827SOL    HW295506   5.861   3.575   4.117
31828SOL     OW95507   6.713   3.203   5.414
31828SOL    HW195508   6.760   3.203   5.502
31828SOL    HW295509   6.665   3.116   5.403
31829SOL     OW95510   5.816   3.296   4.262
31829SOL    HW195511   5.790   3.392   4.262
31829SOL    HW295512   5.745   3.242   4.307
31830SOL     OW95513   5.826   2.953   4.610
31830SOL    HW195514   5.840   2.869   4.662
31830SOL    HW295515   5.771   3.017   4.665
31831SOL     OW95516   6.206   3.648   5.163
31831SOL    HW195517   6.114   3.631   5.198
31831SOL    HW295518   6.234   3.740   5.189
31832SOL     OW95519   6.192   2.826   3.847
31832SOL    HW195520   6.199   2.910   3.793
31832SOL    HW295521   6.238   2.839   3.935
31833SOL     OW95522   7.180   1.976   5.204
31833SOL    HW195523   7.162   2.043   5.132
31833SOL    HW295524   7.177   2.022   5.293
31834SOL     OW95525   5.708   2.505   4.287
31834SOL    HW195526   5.663   2.417   4.304
31834SOL    HW295527   5.707   2.559   4.371
31835SOL     OW95528   7.428   3.629   4.083
31835SOL    HW195529   7.482   3.600   4.163
31835SOL    HW295530   7.458   3.719   4.054
31836SOL     OW95531   5.613   3.458   3.841
31836SOL    HW195532   5.594   3.362   3.862
31836SOL    HW295533   5.580   3.516   3.916
31837SOL     OW95534   7.275   2.784   4.336
31837SOL    HW195535   7.370   2.755   4.344
31837SOL    HW295536   7.267   2.849   4.261
31838SOL     OW95537   7.227   2.970   4.156
31838SOL    HW195538   7.313   2.972   4.104
31838SOL    HW295539   7.241   3.017   4.244
31839SOL     OW95540   5.699   2.599   5.321
31839SOL    HW195541   5.787   2.586   5.366
31839SOL    HW295542   5.686   2.696   5.299
31840SOL     OW95543   6.199   3.227   4.450
31840SOL    HW195544   6.150   3.140   4.459
31840SOL    HW295545   6.176   3.270   4.363
31841SOL     OW95546   6.879   3.090   5.147
31841SOL    HW195547   6.916   3.017   5.089
31841SOL    HW295548   6.931   3.095   5.232
31842SOL     OW95549   6.395   1.866   4.226
31842SOL    HW195550   6.435   1.957   4.217
31842SOL    HW295551   6.295   1.874   4.232
31843SOL     OW95552   5.783   2.838   4.988
31843SOL    HW195553   5.872   2.793   4.974
31843SOL    HW295554   5.710   2.773   4.969
31844SOL     OW95555   7.111   2.861   3.914
31844SOL    HW195556   7.048   2.785   3.927
31844SOL    HW295557   7.159   2.879   4.000
31845SOL     OW95558   6.773   3.654   5.340
31845SOL    HW195559   6.797   3.714   5.264
31845SOL    HW295560   6.780   3.559   5.310
31846SOL     OW95561   5.903   2.113   5.525
31846SOL    HW195562   5.974   2.184   5.531
31846SOL    HW295563   5.815   2.152   5.553
31847SOL     OW95564   7.052   3.279   4.677
31847SOL    HW195565   6.993   3.285   4.757
31847SOL    HW295566   7.037   3.191   4.631
31848SOL     OW95567   7.253   3.576   4.296
31848SOL    HW195568   7.212   3.553   4.208
31848SOL    HW295569   7.235   3.502   4.361
31849SOL     OW95570   6.184   2.591   3.994
31849SOL    HW195571   6.208   2.660   3.926
31849SOL    HW295572   6.106   2.624   4.048
31850SOL     OW95573   6.867   2.207   4.668
31850SOL    HW195574   6.781   2.157   4.655
31850SOL    HW295575   6.929   2.153   4.724
31851SOL     OW95576   7.162   3.524   4.031
31851SOL    HW195577   7.251   3.570   4.034
31851SOL    HW295578   7.141   3.500   3.936
31852SOL     OW95579   6.393   2.467   5.189
31852SOL    HW195580   6.346   2.464   5.278
31852SOL    HW295581   6.342   2.412   5.123
31853SOL     OW95582   6.980   2.331   5.398
31853SOL    HW195583   6.960   2.374   5.486
31853SOL    HW295584   7.058   2.269   5.407
31854SOL     OW95585   6.559   2.752   5.296
31854SOL    HW195586   6.605   2.668   5.267
31854SOL    HW295587   6.503   2.786   5.221
31855SOL     OW95588   6.577   2.272   4.966
31855SOL    HW195589   6.500   2.306   5.020
31855SOL    HW295590   6.543   2.221   4.887
31856SOL     OW95591   6.627   2.563   4.153
31856SOL    HW195592   6.653   2.559   4.249
31856SOL    HW295593   6.542   2.512   4.139
31857SOL     OW95594   5.662   2.673   4.513
31857SOL    HW195595   5.761   2.661   4.522
31857SOL    HW295596   5.638   2.768   4.534
31858SOL     OW95597   5.716   3.683   5.295
31858SOL    HW195598   5.706   3.668   5.394
31858SOL    HW295599   5.630   3.719   5.259
31859SOL     OW95600   6.451   2.210   3.919
31859SOL    HW195601   6.510   2.273   3.870
31859SOL    HW295602   6.470   2.116   3.890
31860SOL     OW95603   7.305   2.447   5.555
31860SOL    HW195604   7.279   2.536   5.519
31860SOL    HW295605   7.303   2.379   5.482
31861SOL     OW95606   6.948   3.006   4.269
31861SOL    HW195607   7.031   2.977   4.221
31861SOL    HW295608   6.899   3.073   4.213
31862SOL     OW95609   6.136   2.058   4.609
31862SOL    HW195610   6.131   2.053   4.709
31862SOL    HW295611   6.138   2.154   4.580
31863SOL     OW95612   6.594   3.318   4.201
31863SOL    HW195613   6.548   3.390   4.149
31863SOL    HW295614   6.590   3.338   4.299
31864SOL     OW95615   5.937   3.663   4.577
31864SOL    HW195616   5.987   3.577   4.583
31864SOL    HW295617   6.002   3.740   4.574
31865SOL     OW95618   7.381   2.928   4.597
31865SOL    HW195619   7.319   2.913   4.521
31865SOL    HW295620   7.329   2.939   4.682
31866SOL     OW95621   6.813   3.412   5.230
31866SOL    HW195622   6.819   3.335   5.294
31866SOL    HW295623   6.761   3.386   5.150
31867SOL     OW95624   5.907   2.805   3.966
31867SOL    HW195625   5.989   2.844   3.924
31867SOL    HW295626   5.880   2.723   3.917
31868SOL     OW95627   7.044   2.597   4.452
31868SOL    HW195628   7.039   2.532   4.527
31868SOL    HW295629   7.124   2.656   4.465
31869SOL     OW95630   6.047   3.128   5.451
31869SOL    HW195631   5.997   3.129   5.365
31869SOL    HW295632   5.984   3.110   5.527
31870SOL     OW95633   6.697   3.638   3.961
31870SOL    HW195634   6.637   3.576   4.011
31870SOL    HW295635   6.728   3.594   3.876
31871SOL     OW95636   5.788   2.147   5.222
31871SOL    HW195637   5.708   2.207   5.209
31871SOL    HW295638   5.778   2.098   5.308
31872SOL     OW95639   7.218   3.239   3.805
31872SOL    HW195640   7.186   3.333   3.795
31872SOL    HW295641   7.142   3.176   3.793
31873SOL     OW95642   6.050   3.605   4.047
31873SOL    HW195643   6.083   3.644   4.133
31873SOL    HW295644   6.126   3.598   3.982
31874SOL     OW95645   6.986   1.969   4.150
31874SOL    HW195646   6.962   1.932   4.060
31874SOL    HW295647   7.085   1.985   4.154
31875SOL     OW95648   5.835   3.647   4.965
31875SOL    HW195649   5.892   3.582   5.015
31875SOL    HW295650   5.819   3.614   4.872
31876SOL     OW95651   6.526   3.560   4.628
31876SOL    HW195652   6.606   3.503   4.649
31876SOL    HW295653   6.477   3.520   4.551
31877SOL     OW95654   5.968   2.562   4.204
31877SOL    HW195655   6.013   2.472   4.201
31877SOL    HW295656   5.874   2.551   4.237
31878SOL     OW95657   7.133   2.084   5.453
31878SOL    HW195658   7.128   2.121   5.545
31878SOL    HW295659   7.061   2.015   5.441
31879SOL     OW95660   6.200   1.984   3.841
31879SOL    HW195661   6.298   1.962   3.848
31879SOL    HW295662   6.169   1.967   3.748
31880SOL     OW95663   6.367   2.126   5.473
31880SOL    HW195664   6.434   2.065   5.516
31880SOL    HW295665   6.294   2.145   5.538
31881SOL     OW95666   6.474   3.376   4.919
31881SOL    HW195667   6.451   3.351   4.825
31881SOL    HW295668   6.535   3.307   4.958
31882SOL     OW95669   6.937   2.452   5.157
31882SOL    HW195670   6.965   2.409   5.242
31882SOL    HW295671   6.962   2.548   5.158
31883SOL     OW95672   6.389   3.264   4.648
31883SOL    HW195673   6.479   3.278   4.606
31883SOL    HW295674   6.318   3.266   4.577
31884SOL     OW95675   6.508   2.365   4.623
31884SOL    HW195676   6.483   2.356   4.527
31884SOL    HW295677   6.556   2.283   4.654
31885SOL     OW95678   6.125   1.926   4.236
31885SOL    HW195679   6.044   1.927   4.294
31885SOL    HW295680   6.128   2.009   4.181
31886SOL     OW95681   7.020   3.050   3.765
31886SOL    HW195682   7.052   2.974   3.822
31886SOL    HW295683   6.928   3.077   3.795
31887SOL     OW95684   5.883   1.897   3.895
31887SOL    HW195685   5.932   1.981   3.874
31887SOL    HW295686   5.945   1.832   3.940
31888SOL     OW95687   6.521   2.098   4.204
31888SOL    HW195688   6.473   2.139   4.126
31888SOL    HW295689   6.620   2.096   4.185
31889SOL     OW95690   6.662   2.545   5.188
31889SOL    HW195691   6.582   2.484   5.191
31889SOL    HW295692   6.743   2.492   5.164
31890SOL     OW95693   6.813   3.432   4.517
31890SOL    HW195694   6.834   3.506   4.452
31890SOL    HW295695   6.881   3.432   4.590
31891SOL     OW95696   6.045   3.014   4.465
31891SOL    HW195697   5.974   2.987   4.530
31891SOL    HW295698   6.019   2.986   4.372
31892SOL     OW95699   6.857   3.659   4.315
31892SOL    HW195700   6.901   3.723   4.251
31892SOL    HW295701   6.807   3.711   4.385
31893SOL     OW95702   6.618   2.411   3.740
31893SOL    HW195703   6.577   2.493   3.701
31893SOL    HW295704   6.682   2.437   3.813
31894SOL     OW95705   5.664   2.418   5.110
31894SOL    HW195706   5.756   2.417   5.069
31894SOL    HW295707   5.658   2.492   5.177
31895SOL     OW95708   6.147   2.084   4.871
31895SOL    HW195709   6.185   2.000   4.908
31895SOL    HW295710   6.059   2.103   4.915
31896SOL     OW95711   6.452   2.316   4.366
31896SOL    HW195712   6.420   2.388   4.304
31896SOL    HW295713   6.476   2.235   4.313
31897SOL     OW95714   6.603   1.901   4.477
31897SOL    HW195715   6.531   1.906   4.408
31897SOL    HW295716   6.579   1.832   4.546
31898SOL     OW95717   7.015   3.035   4.591
31898SOL    HW195718   6.960   2.951   4.584
31898SOL    HW295719   7.041   3.064   4.499
31899SOL     OW95720   7.052   2.452   4.716
31899SOL    HW195721   7.022   2.357   4.723
31899SOL    HW295722   7.125   2.468   4.782
31900SOL     OW95723   7.443   2.695   4.101
31900SOL    HW195724   7.485   2.631   4.165
31900SOL    HW295725   7.405   2.644   4.023
31901SOL     OW95726   6.074   3.247   3.898
31901SOL    HW195727   5.987   3.232   3.945
31901SOL    HW295728   6.057   3.273   3.803
31902SOL     OW95729   7.250   3.142   4.381
31902SOL    HW195730   7.349   3.150   4.395
31902SOL    HW295731   7.205   3.226   4.412
31903SOL     OW95732   6.976   2.437   3.802
31903SOL    HW195733   6.922   2.416   3.883
31903SOL    HW295734   7.067   2.396   3.811
31904SOL     OW95735   6.113   2.118   4.052
31904SOL    HW195736   6.140   2.059   3.977
31904SOL    HW295737   6.113   2.213   4.021
31905SOL     OW95738   7.340   3.085   5.312
31905SOL    HW195739   7.431   3.046   5.299
31905SOL    HW295740   7.348   3.181   5.336
31906SOL     OW95741   6.650   3.209   5.064
31906SOL    HW195742   6.570   3.186   5.119
31906SOL    HW295743   6.733   3.183   5.113
31907SOL     OW95744   7.178   3.491   5.349
31907SOL    HW195745   7.205   3.525   5.259
31907SOL    HW295746   7.257   3.453   5.395
31908SOL     OW95747   6.697   3.057   4.824
31908SOL    HW195748   6.657   3.101   4.905
31908SOL    HW295749   6.656   3.094   4.741
31909SOL     OW95750   7.224   2.961   4.803
31909SOL    HW195751   7.229   3.042   4.862
31909SOL    HW295752   7.138   2.963   4.752
31910SOL     OW95753   6.501   1.951   5.126
31910SOL    HW195754   6.526   1.931   5.031
31910SOL    HW295755   6.573   2.007   5.168
31911SOL     OW95756   6.566   2.978   5.443
31911SOL    HW195757   6.467   2.984   5.453
31911SOL    HW295758   6.589   2.898   5.387
31912SOL     OW95759   6.291   2.912   4.092
31912SOL    HW195760   6.277   2.919   4.191
31912SOL    HW295761   6.375   2.861   4.074
31913SOL     OW95762   5.996   2.675   4.975
31913SOL    HW195763   6.082   2.687   5.025
31913SOL    HW295764   5.954   2.588   5.002
31914SOL     OW95765   6.860   2.248   4.986
31914SOL    HW195766   6.881   2.322   5.050
31914SOL    HW295767   6.771   2.265   4.943
31915SOL     OW95768   5.650   3.426   5.055
31915SOL    HW195769   5.604   3.508   5.021
31915SOL    HW295770   5.748   3.445   5.064
31916SOL     OW95771   5.953   2.962   4.225
31916SOL    HW195772   5.946   3.045   4.169
31916SOL    HW295773   5.957   2.882   4.165
31917SOL     OW95774   6.152   2.399   4.589
31917SOL    HW195775   6.164   2.465   4.515
31917SOL    HW295776   6.198   2.433   4.672
31918SOL     OW95777   6.838   3.210   4.112
31918SOL    HW195778   6.888   3.287   4.152
31918SOL    HW295779   6.743   3.212   4.144
31919SOL     OW95780   6.858   3.307   4.866
31919SOL    HW195781   6.905   3.320   4.953
31919SOL    HW295782   6.792   3.233   4.875
31920SOL     OW95783   7.168   2.501   4.196
31920SOL    HW195784   7.137   2.562   4.269
31920SOL    HW295785   7.218   2.553   4.127
31921SOL     OW95786   5.940   3.372   5.053
31921SOL    HW195787   5.919   3.328   4.966
31921SOL    HW295788   6.037   3.398   5.056
31922SOL     OW95789   5.988   2.613   5.322
31922SOL    HW195790   6.056   2.668   5.275
31922SOL    HW295791   6.028   2.525   5.349
31923SOL     OW95792   6.599   1.967   5.494
31923SOL    HW195793   6.605   2.052   5.442
31923SOL    HW295794   6.631   1.891   5.437
31924SOL     OW95795   6.090   1.912   5.464
31924SOL    HW195796   6.048   1.855   5.394
31924SOL    HW295797   6.024   1.981   5.496
31925SOL     OW95798   6.159   2.732   4.753
31925SOL    HW195799   6.203   2.821   4.744
31925SOL    HW295800   6.096   2.732   4.830
31926SOL     OW95801   6.946   2.724   4.769
31926SOL    HW195802   6.871   2.724   4.703
31926SOL    HW295803   6.983   2.632   4.778
31927SOL     OW95804   6.795   2.387   3.999
31927SOL    HW195805   6.808   2.303   4.053
31927SOL    HW295806   6.766   2.461   4.059
31928SOL     OW95807   5.893   2.075   4.955
31928SOL    HW195808   5.870   2.112   5.045
31928SOL    HW295809   5.863   1.980   4.949
31929SOL     OW95810   5.623   3.172   5.006
31929SOL    HW195811   5.676   3.123   5.074
31929SOL    HW295812   5.645   3.270   5.011
31930SOL     OW95813   6.318   2.496   4.788
31930SOL    HW195814   6.377   2.470   4.712
31930SOL    HW295815   6.290   2.592   4.777
31931SOL     OW95816   7.314   2.797   5.578
31931SOL    HW195817   7.268   2.790   5.489
31931SOL    HW295818   7.252   2.841   5.644
31932SOL     OW95819   5.893   1.925   4.342
31932SOL    HW195820   5.882   2.019   4.375
31932SOL    HW295821   5.888   1.862   4.419
31933SOL     OW95822   7.208   2.229   4.098
31933SOL    HW195823   7.210   2.153   4.162
31933SOL    HW295824   7.160   2.306   4.138
31934SOL     OW95825   6.609   2.628   4.690
31934SOL    HW195826   6.624   2.649   4.786
31934SOL    HW295827   6.579   2.533   4.681
31935SOL     OW95828   6.566   3.435   5.424
31935SOL    HW195829   6.546   3.479   5.336
31935SOL    HW295830   6.605   3.344   5.408
31936SOL     OW95831   7.445   3.380   5.329
31936SOL    HW195832   7.459   3.407   5.234
31936SOL    HW295833   7.528   3.402   5.382
31937SOL     OW95834   5.936   2.760   5.528
31937SOL    HW195835   6.012   2.804   5.576
31937SOL    HW295836   5.971   2.713   5.446
31938SOL     OW95837   7.126   2.136   3.849
31938SOL    HW195838   7.065   2.061   3.872
31938SOL    HW295839   7.148   2.188   3.932
31939SOL     OW95840   6.889   2.700   3.766
31939SOL    HW195841   6.923   2.607   3.781
31939SOL    HW295842   6.907   2.727   3.671
31940SOL     OW95843   6.654   3.195   4.573
31940SOL    HW195844   6.661   3.111   4.518
31940SOL    HW295845   6.716   3.264   4.537
31941SOL     OW95846   5.905   2.672   4.673
31941SOL    HW195847   5.998   2.708   4.678
31941SOL    HW295848   5.899   2.587   4.725
31942SOL     OW95849   5.925   2.371   4.730
31942SOL    HW195850   5.873   2.288   4.713
31942SOL    HW295851   6.002   2.376   4.666
31943SOL     OW95852   6.724   2.242   5.402
31943SOL    HW195853   6.679   2.305   5.466
31943SOL    HW295854   6.817   2.273   5.385
31944SOL     OW95855   6.746   2.069   5.201
31944SOL    HW195856   6.746   2.133   5.278
31944SOL    HW295857   6.774   2.117   5.118
31945SOL     OW95858   5.594   3.188   3.924
31945SOL    HW195859   5.501   3.209   3.893
31945SOL    HW295860   5.604   3.089   3.937
31946SOL     OW95861   5.674   3.663   4.651
31946SOL    HW195862   5.632   3.577   4.624
31946SOL    HW295863   5.768   3.666   4.617
31947SOL     OW95864   6.090   3.430   4.634
31947SOL    HW195865   6.156   3.504   4.643
31947SOL    HW295866   6.134   3.351   4.592
31948SOL     OW95867   6.588   2.658   4.962
31948SOL    HW195868   6.629   2.626   5.048
31948SOL    HW295869   6.492   2.631   4.959
31949SOL     OW95870   5.626   2.406   4.838
31949SOL    HW195871   5.711   2.373   4.797
31949SOL    HW295872   5.639   2.421   4.936
31950SOL     OW95873   5.775   2.382   5.446
31950SOL    HW195874   5.834   2.342   5.376
31950SOL    HW295875   5.717   2.453   5.405
31951SOL     OW95876   6.955   2.812   5.384
31951SOL    HW195877   6.994   2.901   5.404
31951SOL    HW295878   6.965   2.792   5.287
31952SOL     OW95879   6.401   2.434   4.049
31952SOL    HW195880   6.408   2.345   4.003
31952SOL    HW295881   6.307   2.468   4.041
31953SOL     OW95882   7.243   2.466   4.930
31953SOL    HW195883   7.205   2.397   4.992
31953SOL    HW295884   7.325   2.430   4.886
31954SOL     OW95885   5.838   3.426   5.468
31954SOL    HW195886   5.808   3.483   5.544
31954SOL    HW295887   5.831   3.329   5.494
31955SOL     OW95888   6.257   2.326   4.993
31955SOL    HW195889   6.223   2.237   4.963
31955SOL    HW295890   6.283   2.380   4.913
31956SOL     OW95891   6.516   3.540   5.189
31956SOL    HW195892   6.492   3.522   5.094
31956SOL    HW295893   6.546   3.634   5.199
31957SOL     OW95894   6.059   2.362   3.915
31957SOL    HW195895   6.120   2.442   3.919
31957SOL    HW295896   5.964   2.393   3.922
31958SOL     OW95897   5.745   2.999   5.190
31958SOL    HW195898   5.767   2.938   5.266
31958SOL    HW295899   5.755   2.950   5.104
31959SOL     OW95900   6.933   2.921   4.958
31959SOL    HW195901   6.957   2.858   4.884
31959SOL    HW295902   6.843   2.961   4.940
31960SOL     OW95903   6.888   2.717   4.033
31960SOL    HW195904   6.802   2.686   4.075
31960SOL    HW295905   6.884   2.703   3.934
31961SOL     OW95906   7.345   3.609   4.878
31961SOL    HW195907   7.406   3.639   4.805
31961SOL    HW295908   7.307   3.520   4.856
31962SOL     OW95909   6.838   3.593   4.852
31962SOL    HW195910   6.922   3.598   4.798
31962SOL    HW295911   6.815   3.497   4.870
31963SOL     OW95912   5.669   3.120   4.746
31963SOL    HW195913   5.664   3.119   4.846
31963SOL    HW295914   5.586   3.079   4.708
31964SOL     OW95915   6.274   3.524   5.440
31964SOL    HW195916   6.218   3.605   5.449
31964SOL    HW295917   6.326   3.528   5.354
31965SOL     OW95918   7.312   1.997   4.247
31965SOL    HW195919   7.385   1.980   4.180
31965SOL    HW295920   7.281   1.910   4.285
31966SOL     OW95921   6.974   3.435   4.201
31966SOL    HW195922   7.041   3.447   4.127
31966SOL    HW295923   6.934   3.524   4.224
31967SOL     OW95924   5.716   3.656   5.575
31967SOL    HW195925   5.675   3.582   5.628
31967SOL    HW295926   5.780   3.707   5.633
31968SOL     OW95927   6.866   2.789   4.396
31968SOL    HW195928   6.926   2.708   4.398
31968SOL    HW295929   6.906   2.858   4.336
31969SOL     OW95930   6.416   3.135   5.146
31969SOL    HW195931   6.411   3.168   5.241
31969SOL    HW295932   6.330   3.154   5.100
31970SOL     OW95933   6.258   3.478   3.878
31970SOL    HW195934   6.267   3.488   3.779
31970SOL    HW295935   6.218   3.389   3.899
31971SOL     OW95936   7.236   3.582   5.118
31971SOL    HW195937   7.289   3.592   5.034
31971SOL    HW295938   7.209   3.672   5.152
31972SOL     OW95939   7.427   2.037   4.687
31972SOL    HW195940   7.466   1.952   4.651
31972SOL    HW295941   7.329   2.039   4.668
31973SOL     OW95942   5.849   2.188   4.444
31973SOL    HW195943   5.770   2.239   4.410
31973SOL    HW295944   5.840   2.173   4.542
31974SOL     OW95945   6.780   3.474   3.755
31974SOL    HW195946   6.786   3.381   3.792
31974SOL    HW295947   6.721   3.474   3.675
31975SOL     OW95948   6.408   2.864   5.096
31975SOL    HW195949   6.448   2.863   5.004
31975SOL    HW295950   6.418   2.956   5.136
31976SOL     OW95951   6.502   2.772   4.015
31976SOL    HW195952   6.565   2.810   3.947
31976SOL    HW295953   6.542   2.689   4.054
31977SOL     OW95954   7.090   3.469   3.768
31977SOL    HW195955   6.998   3.506   3.775
31977SOL    HW295956   7.128   3.489   3.678
31978SOL     OW95957   5.958   3.150   5.214
31978SOL    HW195958   5.945   3.243   5.180
31978SOL    HW295959   5.874   3.098   5.201
31979SOL     OW95960   7.200   3.154   5.013
31979SOL    HW195961   7.260   3.157   5.093
31979SOL    HW295962   7.125   3.218   5.026
31980SOL     OW95963   6.625   2.960   4.420
31980SOL    HW195964   6.555   2.913   4.474
31980SOL    HW295965   6.684   2.892   4.377
31981SOL     OW95966   6.600   2.098   4.695
31981SOL    HW195967   6.592   2.062   4.602
31981SOL    HW295968   6.598   2.022   4.760
31982SOL     OW95969   6.176   3.349   4.215
31982SOL    HW195970   6.218   3.291   4.145
31982SOL    HW295971   6.132   3.428   4.171
31983SOL     OW95972   7.295   2.247   5.105
31983SOL    HW195973   7.368   2.316   5.109
31983SOL    HW295974   7.323   2.172   5.046
31984SOL     OW95975   5.841   3.210   4.014
31984SOL    HW195976   5.745   3.211   3.987
31984SOL    HW295977   5.853   3.263   4.098
31985SOL     OW95978   5.691   2.875   5.450
31985SOL    HW195979   5.614   2.842   5.504
31985SOL    HW295980   5.776   2.845   5.492
31986SOL     OW95981   6.258   2.065   5.213
31986SOL    HW195982   6.348   2.049   5.173
31986SOL    HW295983   6.266   2.070   5.312
31987SOL     OW95984   5.661   2.207   3.757
31987SOL    HW195985   5.569   2.179   3.728
31987SOL    HW295986   5.692   2.284   3.701
31988SOL     OW95987   7.026   2.718   5.122
31988SOL    HW195988   6.969   2.770   5.059
31988SOL    HW295989   7.122   2.730   5.098
31989SOL     OW95990   5.658   2.028   4.042
31989SOL    HW195991   5.641   2.111   3.988
31989SOL    HW295992   5.748   1.991   4.020
31990SOL     OW95993   6.769   3.197   3.843
31990SOL    HW195994   6.670   3.186   3.845
31990SOL    HW295995   6.803   3.212   3.936
31991SOL     OW95996   6.199   2.704   5.155
31991SOL    HW195997   6.255   2.785   5.138
31991SOL    HW295998   6.258   2.624   5.158
31992SOL     OW95999   7.079   3.629   4.683
31992SOL    HW196000   7.112   3.693   4.614
31992SOL    HW296001   7.145   3.623   4.758
31993SOL     OW96002   6.302   2.427   5.432
31993SOL    HW196003   6.321   2.492   5.506
31993SOL    HW296004   6.362   2.347   5.441
31994SOL     OW96005   7.036   3.082   5.357
31994SOL    HW196006   7.027   3.072   5.456
31994SOL    HW296007   7.132   3.075   5.331
31995SOL     OW96008   5.976   3.603   5.284
31995SOL    HW196009   5.885   3.644   5.282
31995SOL    HW296010   5.969   3.509   5.316
31996SOL     OW96011   7.260   2.745   4.978
31996SOL    HW196012   7.233   2.656   4.941
31996SOL    HW296013   7.261   2.813   4.905
31997SOL     OW96014   6.811   2.187   4.173
31997SOL    HW196015   6.876   2.113   4.162
31997SOL    HW296016   6.831   2.237   4.257
31998SOL     OW96017   6.180   2.607   4.376
31998SOL    HW196018   6.230   2.692   4.357
31998SOL    HW296019   6.092   2.609   4.328
31999SOL     OW96020   7.363   2.204   5.366
31999SOL    HW196021   7.346   2.235   5.272
31999SOL    HW296022   7.279   2.167   5.404
32000SOL     OW96023   7.316   2.796   5.241
32000SOL    HW196024   7.354   2.887   5.256
32000SOL    HW296025   7.308   2.779   5.142
32001SOL     OW96026   6.445   3.236   3.740
32001SOL    HW196027   6.399   3.251   3.828
32001SOL    HW296028   6.489   3.321   3.710
32002SOL     OW96029   6.247   3.652   4.677
32002SOL    HW196030   6.201   3.740   4.664
32002SOL    HW296031   6.346   3.664   4.670
32003SOL     OW96032   6.445   2.818   4.585
32003SOL    HW196033   6.499   2.749   4.633
32003SOL    HW296034   6.413   2.887   4.651
32004SOL     OW96035   6.669   2.846   3.811
32004SOL    HW196036   6.646   2.899   3.729
32004SOL    HW296037   6.750   2.790   3.792
32005SOL     OW96038   7.447   3.431   4.575
32005SOL    HW196039   7.376   3.419   4.505
32005SOL    HW296040   7.448   3.352   4.635
32006SOL     OW96041   5.807   3.176   5.568
32006SOL    HW196042   5.742   3.103   5.547
32006SOL    HW296043   5.811   3.190   5.666
32007SOL     OW96044   5.665   3.102   4.377
32007SOL    HW196045   5.664   3.055   4.465
32007SOL    HW296046   5.747   3.074   4.326
32008SOL     OW96047   6.258   3.253   5.348
32008SOL    HW196048   6.180   3.203   5.386
32008SOL    HW296049   6.255   3.348   5.379
32009SOL     OW96050   7.410   2.054   4.951
32009SOL    HW196051   7.406   1.964   4.995
32009SOL    HW296052   7.413   2.043   4.852
32010SOL     OW96053   6.014   2.286   4.244
32010SOL    HW196054   6.044   2.214   4.182
32010SOL    HW296055   5.975   2.246   4.327
32011SOL     OW96056   7.291   3.349   4.828
32011SOL    HW196057   7.198   3.324   4.801
32011SOL    HW296058   7.317   3.299   4.910
32012SOL     OW96059   5.903   2.409   5.004
32012SOL    HW196060   5.941   2.350   5.076
32012SOL    HW296061   5.943   2.383   4.916
32013SOL     OW96062   6.398   3.448   4.411
32013SOL    HW196063   6.430   3.458   4.317
32013SOL    HW296064   6.319   3.386   4.413
32014SOL     OW96065   7.010   2.076   4.836
32014SOL    HW196066   7.062   2.011   4.891
32014SOL    HW296067   6.961   2.139   4.897
32015SOL     OW96068   6.587   1.896   4.878
32015SOL    HW196069   6.524   1.824   4.847
32015SOL    HW296070   6.680   1.860   4.878
32016SOL     OW96071   6.356   3.192   4.025
32016SOL    HW196072   6.310   3.105   4.042
32016SOL    HW296073   6.447   3.189   4.066
32017SOL     OW96074   6.204   3.429   5.008
32017SOL    HW196075   6.199   3.511   5.065
32017SOL    HW296076   6.293   3.426   4.963
32018SOL     OW96077   6.938   1.914   3.892
32018SOL    HW196078   6.973   1.873   3.808
32018SOL    HW296079   6.848   1.876   3.912
32019SOL     OW96080   6.886   2.315   4.415
32019SOL    HW196081   6.827   2.395   4.419
32019SOL    HW296082   6.901   2.280   4.508
32020SOL     OW96083   7.179   2.083   4.606
32020SOL    HW196084   7.095   2.082   4.660
32020SOL    HW296085   7.181   2.166   4.550
32021SOL     OW96086   5.625   2.939   4.024
32021SOL    HW196087   5.724   2.928   4.015
32021SOL    HW296088   5.585   2.853   4.056
32022SOL     OW96089   6.461   3.508   4.061
32022SOL    HW196090   6.384   3.473   4.007
32022SOL    HW296091   6.429   3.579   4.123
32023SOL     OW96092   5.816   2.490   5.699
32023SOL    HW196093   5.723   2.488   5.736
32023SOL    HW296094   5.817   2.451   5.607
32024SOL     OW96095   5.811   2.137   6.582
32024SOL    HW196096   5.846   2.120   6.674
32024SOL    HW296097   5.723   2.092   6.570
32025SOL     OW96098   5.605   2.230   6.233
32025SOL    HW196099   5.523   2.273   6.272
32025SOL    HW296100   5.577   2.157   6.170
32026SOL     OW96101   6.155   3.137   6.751
32026SOL    HW196102   6.062   3.130   6.714
32026SOL    HW296103   6.166   3.226   6.795
32027SOL     OW96104   7.141   3.373   6.289
32027SOL    HW196105   7.084   3.357   6.370
32027SOL    HW296106   7.082   3.383   6.209
32028SOL     OW96107   6.721   2.565   6.303
32028SOL    HW196108   6.778   2.643   6.278
32028SOL    HW296109   6.661   2.591   6.379
32029SOL     OW96110   7.341   2.469   5.817
32029SOL    HW196111   7.329   2.456   5.718
32029SOL    HW296112   7.311   2.388   5.866
32030SOL     OW96113   6.354   3.006   6.609
32030SOL    HW196114   6.276   3.023   6.669
32030SOL    HW296115   6.388   3.093   6.573
32031SOL     OW96116   6.436   2.660   7.409
32031SOL    HW196117   6.432   2.736   7.474
32031SOL    HW296118   6.458   2.696   7.318
32032SOL     OW96119   6.271   2.874   6.251
32032SOL    HW196120   6.340   2.858   6.321
32032SOL    HW296121   6.198   2.931   6.289
32033SOL     OW96122   6.272   3.023   7.389
32033SOL    HW196123   6.332   3.102   7.403
32033SOL    HW296124   6.186   3.054   7.348
32034SOL     OW96125   5.921   3.297   6.647
32034SOL    HW196126   5.843   3.266   6.594
32034SOL    HW296127   5.979   3.355   6.590
32035SOL     OW96128   7.046   3.367   6.925
32035SOL    HW196129   7.070   3.461   6.951
32035SOL    HW296130   7.030   3.313   7.007
32036SOL     OW96131   6.024   2.254   7.085
32036SOL    HW196132   6.106   2.198   7.094
32036SOL    HW296133   5.943   2.196   7.089
32037SOL     OW96134   7.189   2.309   6.323
32037SOL    HW196135   7.115   2.355   6.273
32037SOL    HW296136   7.240   2.377   6.376
32038SOL     OW96137   5.817   3.575   6.069
32038SOL    HW196138   5.851   3.652   6.123
32038SOL    HW296139   5.861   3.575   5.979
32039SOL     OW96140   6.713   3.203   7.276
32039SOL    HW196141   6.760   3.203   7.364
32039SOL    HW296142   6.665   3.116   7.265
32040SOL     OW96143   5.816   3.296   6.124
32040SOL    HW196144   5.790   3.392   6.124
32040SOL    HW296145   5.745   3.242   6.169
32041SOL     OW96146   5.826   2.953   6.472
32041SOL    HW196147   5.840   2.869   6.524
32041SOL    HW296148   5.771   3.017   6.527
32042SOL     OW96149   6.206   3.648   7.025
32042SOL    HW196150   6.114   3.631   7.060
32042SOL    HW296151   6.234   3.740   7.051
32043SOL     OW96152   6.192   2.826   5.709
32043SOL    HW196153   6.199   2.910   5.655
32043SOL    HW296154   6.238   2.839   5.797
32044SOL     OW96155   7.180   1.976   7.066
32044SOL    HW196156   7.162   2.043   6.994
32044SOL    HW296157   7.177   2.022   7.155
32045SOL     OW96158   5.708   2.505   6.149
32045SOL    HW196159   5.663   2.417   6.166
32045SOL    HW296160   5.707   2.559   6.233
32046SOL     OW96161   7.428   3.629   5.945
32046SOL    HW196162   7.482   3.600   6.025
32046SOL    HW296163   7.458   3.719   5.916
32047SOL     OW96164   5.613   3.458   5.703
32047SOL    HW196165   5.594   3.362   5.724
32047SOL    HW296166   5.580   3.516   5.778
32048SOL     OW96167   7.275   2.784   6.198
32048SOL    HW196168   7.370   2.755   6.206
32048SOL    HW296169   7.267   2.849   6.123
32049SOL     OW96170   7.227   2.970   6.018
32049SOL    HW196171   7.313   2.972   5.966
32049SOL    HW296172   7.241   3.017   6.106
32050SOL     OW96173   5.699   2.599   7.183
32050SOL    HW196174   5.787   2.586   7.228
32050SOL    HW296175   5.686   2.696   7.161
32051SOL     OW96176   6.199   3.227   6.312
32051SOL    HW196177   6.150   3.140   6.321
32051SOL    HW296178   6.176   3.270   6.225
32052SOL     OW96179   6.879   3.090   7.009
32052SOL    HW196180   6.916   3.017   6.951
32052SOL    HW296181   6.931   3.095   7.094
32053SOL     OW96182   6.395   1.866   6.088
32053SOL    HW196183   6.435   1.957   6.079
32053SOL    HW296184   6.295   1.874   6.094
32054SOL     OW96185   5.783   2.838   6.850
32054SOL    HW196186   5.872   2.793   6.836
32054SOL    HW296187   5.710   2.773   6.831
32055SOL     OW96188   7.111   2.861   5.776
32055SOL    HW196189   7.048   2.785   5.789
32055SOL    HW296190   7.159   2.879   5.862
32056SOL     OW96191   6.773   3.654   7.202
32056SOL    HW196192   6.797   3.714   7.126
32056SOL    HW296193   6.780   3.559   7.172
32057SOL     OW96194   5.903   2.113   7.387
32057SOL    HW196195   5.974   2.184   7.393
32057SOL    HW296196   5.815   2.152   7.415
32058SOL     OW96197   7.052   3.279   6.539
32058SOL    HW196198   6.993   3.285   6.619
32058SOL    HW296199   7.037   3.191   6.493
32059SOL     OW96200   7.253   3.576   6.158
32059SOL    HW196201   7.212   3.553   6.070
32059SOL    HW296202   7.235   3.502   6.223
32060SOL     OW96203   6.184   2.591   5.856
32060SOL    HW196204   6.208   2.660   5.788
32060SOL    HW296205   6.106   2.624   5.910
32061SOL     OW96206   6.867   2.207   6.530
32061SOL    HW196207   6.781   2.157   6.517
32061SOL    HW296208   6.929   2.153   6.586
32062SOL     OW96209   7.162   3.524   5.893
32062SOL    HW196210   7.251   3.570   5.896
32062SOL    HW296211   7.141   3.500   5.798
32063SOL     OW96212   6.393   2.467   7.051
32063SOL    HW196213   6.346   2.464   7.140
32063SOL    HW296214   6.342   2.412   6.985
32064SOL     OW96215   6.980   2.331   7.260
32064SOL    HW196216   6.960   2.374   7.348
32064SOL    HW296217   7.058   2.269   7.269
32065SOL     OW96218   6.559   2.752   7.158
32065SOL    HW196219   6.605   2.668   7.129
32065SOL    HW296220   6.503   2.786   7.083
32066SOL     OW96221   6.577   2.272   6.828
32066SOL    HW196222   6.500   2.306   6.882
32066SOL    HW296223   6.543   2.221   6.749
32067SOL     OW96224   6.627   2.563   6.015
32067SOL    HW196225   6.653   2.559   6.111
32067SOL    HW296226   6.542   2.512   6.001
32068SOL     OW96227   5.662   2.673   6.375
32068SOL    HW196228   5.761   2.661   6.384
32068SOL    HW296229   5.638   2.768   6.396
32069SOL     OW96230   5.716   3.683   7.157
32069SOL    HW196231   5.706   3.668   7.256
32069SOL    HW296232   5.630   3.719   7.121
32070SOL     OW96233   6.451   2.210   5.781
32070SOL    HW196234   6.510   2.273   5.732
32070SOL    HW296235   6.470   2.116   5.752
32071SOL     OW96236   7.305   2.447   7.417
32071SOL    HW196237   7.279   2.536   7.381
32071SOL    HW296238   7.303   2.379   7.344
32072SOL     OW96239   6.948   3.006   6.131
32072SOL    HW196240   7.031   2.977   6.083
32072SOL    HW296241   6.899   3.073   6.075
32073SOL     OW96242   6.136   2.058   6.471
32073SOL    HW196243   6.131   2.053   6.571
32073SOL    HW296244   6.138   2.154   6.442
32074SOL     OW96245   6.594   3.318   6.063
32074SOL    HW196246   6.548   3.390   6.011
32074SOL    HW296247   6.590   3.338   6.161
32075SOL     OW96248   5.937   3.663   6.439
32075SOL    HW196249   5.987   3.577   6.445
32075SOL    HW296250   6.002   3.740   6.436
32076SOL     OW96251   7.381   2.928   6.459
32076SOL    HW196252   7.319   2.913   6.383
32076SOL    HW296253   7.329   2.939   6.544
32077SOL     OW96254   6.813   3.412   7.092
32077SOL    HW196255   6.819   3.335   7.156
32077SOL    HW296256   6.761   3.386   7.012
32078SOL     OW96257   5.907   2.805   5.828
32078SOL    HW196258   5.989   2.844   5.786
32078SOL    HW296259   5.880   2.723   5.779
32079SOL     OW96260   7.044   2.597   6.314
32079SOL    HW196261   7.039   2.532   6.389
32079SOL    HW296262   7.124   2.656   6.327
32080SOL     OW96263   6.047   3.128   7.313
32080SOL    HW196264   5.997   3.129   7.227
32080SOL    HW296265   5.984   3.110   7.389
32081SOL     OW96266   6.697   3.638   5.823
32081SOL    HW196267   6.637   3.576   5.873
32081SOL    HW296268   6.728   3.594   5.738
32082SOL     OW96269   5.788   2.147   7.084
32082SOL    HW196270   5.708   2.207   7.071
32082SOL    HW296271   5.778   2.098   7.170
32083SOL     OW96272   7.218   3.239   5.667
32083SOL    HW196273   7.186   3.333   5.657
32083SOL    HW296274   7.142   3.176   5.655
32084SOL     OW96275   6.050   3.605   5.909
32084SOL    HW196276   6.083   3.644   5.995
32084SOL    HW296277   6.126   3.598   5.844
32085SOL     OW96278   6.986   1.969   6.012
32085SOL    HW196279   6.962   1.932   5.922
32085SOL    HW296280   7.085   1.985   6.016
32086SOL     OW96281   5.835   3.647   6.827
32086SOL    HW196282   5.892   3.582   6.877
32086SOL    HW296283   5.819   3.614   6.734
32087SOL     OW96284   6.526   3.560   6.490
32087SOL    HW196285   6.606   3.503   6.511
32087SOL    HW296286   6.477   3.520   6.413
32088SOL     OW96287   5.968   2.562   6.066
32088SOL    HW196288   6.013   2.472   6.063
32088SOL    HW296289   5.874   2.551   6.099
32089SOL     OW96290   7.133   2.084   7.315
32089SOL    HW196291   7.128   2.121   7.407
32089SOL    HW296292   7.061   2.015   7.303
32090SOL     OW96293   6.200   1.984   5.703
32090SOL    HW196294   6.298   1.962   5.710
32090SOL    HW296295   6.169   1.967   5.610
32091SOL     OW96296   6.474   3.376   6.781
32091SOL    HW196297   6.451   3.351   6.687
32091SOL    HW296298   6.535   3.307   6.820
32092SOL     OW96299   6.937   2.452   7.019
32092SOL    HW196300   6.965   2.409   7.104
32092SOL    HW296301   6.962   2.548   7.020
32093SOL     OW96302   6.389   3.264   6.510
32093SOL    HW196303   6.479   3.278   6.468
32093SOL    HW296304   6.318   3.266   6.439
32094SOL     OW96305   6.508   2.365   6.485
32094SOL    HW196306   6.483   2.356   6.389
32094SOL    HW296307   6.556   2.283   6.516
32095SOL     OW96308   6.125   1.926   6.098
32095SOL    HW196309   6.044   1.927   6.156
32095SOL    HW296310   6.128   2.009   6.043
32096SOL     OW96311   7.020   3.050   5.627
32096SOL    HW196312   7.052   2.974   5.684
32096SOL    HW296313   6.928   3.077   5.657
32097SOL     OW96314   5.883   1.897   5.757
32097SOL    HW196315   5.932   1.981   5.736
32097SOL    HW296316   5.945   1.832   5.802
32098SOL     OW96317   6.521   2.098   6.066
32098SOL    HW196318   6.473   2.139   5.988
32098SOL    HW296319   6.620   2.096   6.047
32099SOL     OW96320   6.662   2.545   7.050
32099SOL    HW196321   6.582   2.484   7.053
32099SOL    HW296322   6.743   2.492   7.026
32100SOL     OW96323   6.813   3.432   6.379
32100SOL    HW196324   6.834   3.506   6.314
32100SOL    HW296325   6.881   3.432   6.452
32101SOL     OW96326   6.045   3.014   6.327
32101SOL    HW196327   5.974   2.987   6.392
32101SOL    HW296328   6.019   2.986   6.234
32102SOL     OW96329   6.857   3.659   6.177
32102SOL    HW196330   6.901   3.723   6.113
32102SOL    HW296331   6.807   3.711   6.247
32103SOL     OW96332   6.618   2.411   5.602
32103SOL    HW196333   6.577   2.493   5.563
32103SOL    HW296334   6.682   2.437   5.675
32104SOL     OW96335   5.664   2.418   6.972
32104SOL    HW196336   5.756   2.417   6.931
32104SOL    HW296337   5.658   2.492   7.039
32105SOL     OW96338   6.147   2.084   6.733
32105SOL    HW196339   6.185   2.000   6.770
32105SOL    HW296340   6.059   2.103   6.777
32106SOL     OW96341   6.452   2.316   6.228
32106SOL    HW196342   6.420   2.388   6.166
32106SOL    HW296343   6.476   2.235   6.175
32107SOL     OW96344   6.603   1.901   6.339
32107SOL    HW196345   6.531   1.906   6.270
32107SOL    HW296346   6.579   1.832   6.408
32108SOL     OW96347   7.015   3.035   6.453
32108SOL    HW196348   6.960   2.951   6.446
32108SOL    HW296349   7.041   3.064   6.361
32109SOL     OW96350   7.052   2.452   6.578
32109SOL    HW196351   7.022   2.357   6.585
32109SOL    HW296352   7.125   2.468   6.644
32110SOL     OW96353   7.443   2.695   5.963
32110SOL    HW196354   7.485   2.631   6.027
32110SOL    HW296355   7.405   2.644   5.885
32111SOL     OW96356   6.074   3.247   5.760
32111SOL    HW196357   5.987   3.232   5.807
32111SOL    HW296358   6.057   3.273   5.665
32112SOL     OW96359   7.250   3.142   6.243
32112SOL    HW196360   7.349   3.150   6.257
32112SOL    HW296361   7.205   3.226   6.274
32113SOL     OW96362   6.976   2.437   5.664
32113SOL    HW196363   6.922   2.416   5.745
32113SOL    HW296364   7.067   2.396   5.673
32114SOL     OW96365   6.113   2.118   5.914
32114SOL    HW196366   6.140   2.059   5.839
32114SOL    HW296367   6.113   2.213   5.883
32115SOL     OW96368   7.340   3.085   7.174
32115SOL    HW196369   7.431   3.046   7.161
32115SOL    HW296370   7.348   3.181   7.198
32116SOL     OW96371   6.650   3.209   6.926
32116SOL    HW196372   6.570   3.186   6.981
32116SOL    HW296373   6.733   3.183   6.975
32117SOL     OW96374   7.178   3.491   7.211
32117SOL    HW196375   7.205   3.525   7.121
32117SOL    HW296376   7.257   3.453   7.257
32118SOL     OW96377   6.697   3.057   6.686
32118SOL    HW196378   6.657   3.101   6.767
32118SOL    HW296379   6.656   3.094   6.603
32119SOL     OW96380   7.224   2.961   6.665
32119SOL    HW196381   7.229   3.042   6.724
32119SOL    HW296382   7.138   2.963   6.614
32120SOL     OW96383   6.501   1.951   6.988
32120SOL    HW196384   6.526   1.931   6.893
32120SOL    HW296385   6.573   2.007   7.030
32121SOL     OW96386   6.566   2.978   7.305
32121SOL    HW196387   6.467   2.984   7.315
32121SOL    HW296388   6.589   2.898   7.249
32122SOL     OW96389   6.291   2.912   5.954
32122SOL    HW196390   6.277   2.919   6.053
32122SOL    HW296391   6.375   2.861   5.936
32123SOL     OW96392   5.996   2.675   6.837
32123SOL    HW196393   6.082   2.687   6.887
32123SOL    HW296394   5.954   2.588   6.864
32124SOL     OW96395   6.860   2.248   6.848
32124SOL    HW196396   6.881   2.322   6.912
32124SOL    HW296397   6.771   2.265   6.805
32125SOL     OW96398   5.650   3.426   6.917
32125SOL    HW196399   5.604   3.508   6.883
32125SOL    HW296400   5.748   3.445   6.926
32126SOL     OW96401   5.953   2.962   6.087
32126SOL    HW196402   5.946   3.045   6.031
32126SOL    HW296403   5.957   2.882   6.027
32127SOL     OW96404   6.152   2.399   6.451
32127SOL    HW196405   6.164   2.465   6.377
32127SOL    HW296406   6.198   2.433   6.534
32128SOL     OW96407   6.838   3.210   5.974
32128SOL    HW196408   6.888   3.287   6.014
32128SOL    HW296409   6.743   3.212   6.006
32129SOL     OW96410   6.858   3.307   6.728
32129SOL    HW196411   6.905   3.320   6.815
32129SOL    HW296412   6.792   3.233   6.737
32130SOL     OW96413   7.168   2.501   6.058
32130SOL    HW196414   7.137   2.562   6.131
32130SOL    HW296415   7.218   2.553   5.989
32131SOL     OW96416   5.940   3.372   6.915
32131SOL    HW196417   5.919   3.328   6.828
32131SOL    HW296418   6.037   3.398   6.918
32132SOL     OW96419   5.988   2.613   7.184
32132SOL    HW196420   6.056   2.668   7.137
32132SOL    HW296421   6.028   2.525   7.211
32133SOL     OW96422   7.173   2.641   7.256
32133SOL    HW196423   7.081   2.679   7.251
32133SOL    HW296424   7.233   2.688   7.191
32134SOL     OW96425   6.599   1.967   7.356
32134SOL    HW196426   6.605   2.052   7.304
32134SOL    HW296427   6.631   1.891   7.299
32135SOL     OW96428   6.090   1.912   7.326
32135SOL    HW196429   6.048   1.855   7.256
32135SOL    HW296430   6.024   1.981   7.358
32136SOL     OW96431   6.159   2.732   6.615
32136SOL    HW196432   6.203   2.821   6.606
32136SOL    HW296433   6.096   2.732   6.692
32137SOL     OW96434   6.946   2.724   6.631
32137SOL    HW196435   6.871   2.724   6.565
32137SOL    HW296436   6.983   2.632   6.640
32138SOL     OW96437   6.795   2.387   5.861
32138SOL    HW196438   6.808   2.303   5.915
32138SOL    HW296439   6.766   2.461   5.921
32139SOL     OW96440   5.893   2.075   6.817
32139SOL    HW196441   5.870   2.112   6.907
32139SOL    HW296442   5.863   1.980   6.811
32140SOL     OW96443   5.623   3.172   6.868
32140SOL    HW196444   5.676   3.123   6.936
32140SOL    HW296445   5.645   3.270   6.873
32141SOL     OW96446   6.318   2.496   6.650
32141SOL    HW196447   6.377   2.470   6.574
32141SOL    HW296448   6.290   2.592   6.639
32142SOL     OW96449   7.314   2.797   7.440
32142SOL    HW196450   7.268   2.790   7.351
32142SOL    HW296451   7.252   2.841   7.506
32143SOL     OW96452   5.893   1.925   6.204
32143SOL    HW196453   5.882   2.019   6.237
32143SOL    HW296454   5.888   1.862   6.281
32144SOL     OW96455   7.208   2.229   5.960
32144SOL    HW196456   7.210   2.153   6.024
32144SOL    HW296457   7.160   2.306   6.000
32145SOL     OW96458   6.609   2.628   6.552
32145SOL    HW196459   6.624   2.649   6.648
32145SOL    HW296460   6.579   2.533   6.543
32146SOL     OW96461   6.566   3.435   7.286
32146SOL    HW196462   6.546   3.479   7.198
32146SOL    HW296463   6.605   3.344   7.270
32147SOL     OW96464   7.445   3.380   7.191
32147SOL    HW196465   7.459   3.407   7.096
32147SOL    HW296466   7.528   3.402   7.244
32148SOL     OW96467   5.936   2.760   7.390
32148SOL    HW196468   6.012   2.804   7.438
32148SOL    HW296469   5.971   2.713   7.308
32149SOL     OW96470   7.126   2.136   5.711
32149SOL    HW196471   7.065   2.061   5.734
32149SOL    HW296472   7.148   2.188   5.794
32150SOL     OW96473   6.889   2.700   5.628
32150SOL    HW196474   6.923   2.607   5.643
32150SOL    HW296475   6.907   2.727   5.533
32151SOL     OW96476   6.654   3.195   6.435
32151SOL    HW196477   6.661   3.111   6.380
32151SOL    HW296478   6.716   3.264   6.399
32152SOL     OW96479   5.905   2.672   6.535
32152SOL    HW196480   5.998   2.708   6.540
32152SOL    HW296481   5.899   2.587   6.587
32153SOL     OW96482   5.925   2.371   6.592
32153SOL    HW196483   5.873   2.288   6.575
32153SOL    HW296484   6.002   2.376   6.528
32154SOL     OW96485   6.724   2.242   7.264
32154SOL    HW196486   6.679   2.305   7.328
32154SOL    HW296487   6.817   2.273   7.247
32155SOL     OW96488   6.746   2.069   7.063
32155SOL    HW196489   6.746   2.133   7.140
32155SOL    HW296490   6.774   2.117   6.980
32156SOL     OW96491   5.594   3.188   5.786
32156SOL    HW196492   5.501   3.209   5.755
32156SOL    HW296493   5.604   3.089   5.799
32157SOL     OW96494   5.674   3.663   6.513
32157SOL    HW196495   5.632   3.577   6.486
32157SOL    HW296496   5.768   3.666   6.479
32158SOL     OW96497   6.090   3.430   6.496
32158SOL    HW196498   6.156   3.504   6.505
32158SOL    HW296499   6.134   3.351   6.454
32159SOL     OW96500   6.588   2.658   6.824
32159SOL    HW196501   6.629   2.626   6.910
32159SOL    HW296502   6.492   2.631   6.821
32160SOL     OW96503   5.626   2.406   6.700
32160SOL    HW196504   5.711   2.373   6.659
32160SOL    HW296505   5.639   2.421   6.798
32161SOL     OW96506   5.775   2.382   7.308
32161SOL    HW196507   5.834   2.342   7.238
32161SOL    HW296508   5.717   2.453   7.267
32162SOL     OW96509   6.955   2.812   7.246
32162SOL    HW196510   6.994   2.901   7.266
32162SOL    HW296511   6.965   2.792   7.149
32163SOL     OW96512   6.401   2.434   5.911
32163SOL    HW196513   6.408   2.345   5.865
32163SOL    HW296514   6.307   2.468   5.903
32164SOL     OW96515   7.243   2.466   6.792
32164SOL    HW196516   7.205   2.397   6.854
32164SOL    HW296517   7.325   2.430   6.748
32165SOL     OW96518   5.838   3.426   7.330
32165SOL    HW196519   5.808   3.483   7.406
32165SOL    HW296520   5.831   3.329   7.356
32166SOL     OW96521   6.257   2.326   6.855
32166SOL    HW196522   6.223   2.237   6.825
32166SOL    HW296523   6.283   2.380   6.775
32167SOL     OW96524   6.516   3.540   7.051
32167SOL    HW196525   6.492   3.522   6.956
32167SOL    HW296526   6.546   3.634   7.061
32168SOL     OW96527   6.059   2.362   5.777
32168SOL    HW196528   6.120   2.442   5.781
32168SOL    HW296529   5.964   2.393   5.784
32169SOL     OW96530   5.745   2.999   7.052
32169SOL    HW196531   5.767   2.938   7.128
32169SOL    HW296532   5.755   2.950   6.966
32170SOL     OW96533   6.933   2.921   6.820
32170SOL    HW196534   6.957   2.858   6.746
32170SOL    HW296535   6.843   2.961   6.802
32171SOL     OW96536   6.888   2.717   5.895
32171SOL    HW196537   6.802   2.686   5.937
32171SOL    HW296538   6.884   2.703   5.796
32172SOL     OW96539   7.345   3.609   6.740
32172SOL    HW196540   7.406   3.639   6.667
32172SOL    HW296541   7.307   3.520   6.718
32173SOL     OW96542   6.838   3.593   6.714
32173SOL    HW196543   6.922   3.598   6.660
32173SOL    HW296544   6.815   3.497   6.732
32174SOL     OW96545   5.669   3.120   6.608
32174SOL    HW196546   5.664   3.119   6.708
32174SOL    HW296547   5.586   3.079   6.570
32175SOL     OW96548   6.274   3.524   7.302
32175SOL    HW196549   6.218   3.605   7.311
32175SOL    HW296550   6.326   3.528   7.216
32176SOL     OW96551   7.312   1.997   6.109
32176SOL    HW196552   7.385   1.980   6.042
32176SOL    HW296553   7.281   1.910   6.147
32177SOL     OW96554   6.974   3.435   6.063
32177SOL    HW196555   7.041   3.447   5.989
32177SOL    HW296556   6.934   3.524   6.086
32178SOL     OW96557   5.716   3.656   7.437
32178SOL    HW196558   5.675   3.582   7.490
32178SOL    HW296559   5.780   3.707   7.495
32179SOL     OW96560   6.866   2.789   6.258
32179SOL    HW196561   6.926   2.708   6.260
32179SOL    HW296562   6.906   2.858   6.198
32180SOL     OW96563   6.416   3.135   7.008
32180SOL    HW196564   6.411   3.168   7.103
32180SOL    HW296565   6.330   3.154   6.962
32181SOL     OW96566   6.258   3.478   5.740
32181SOL    HW196567   6.267   3.488   5.641
32181SOL    HW296568   6.218   3.389   5.761
32182SOL     OW96569   7.236   3.582   6.980
32182SOL    HW196570   7.289   3.592   6.896
32182SOL    HW296571   7.209   3.672   7.014
32183SOL     OW96572   7.427   2.037   6.549
32183SOL    HW196573   7.466   1.952   6.513
32183SOL    HW296574   7.329   2.039   6.530
32184SOL     OW96575   5.849   2.188   6.306
32184SOL    HW196576   5.770   2.239   6.272
32184SOL    HW296577   5.840   2.173   6.404
32185SOL     OW96578   6.780   3.474   5.617
32185SOL    HW196579   6.786   3.381   5.654
32185SOL    HW296580   6.721   3.474   5.537
32186SOL     OW96581   6.408   2.864   6.958
32186SOL    HW196582   6.448   2.863   6.866
32186SOL    HW296583   6.418   2.956   6.998
32187SOL     OW96584   6.502   2.772   5.877
32187SOL    HW196585   6.565   2.810   5.809
32187SOL    HW296586   6.542   2.689   5.916
32188SOL     OW96587   7.090   3.469   5.630
32188SOL    HW196588   6.998   3.506   5.637
32188SOL    HW296589   7.128   3.489   5.540
32189SOL     OW96590   5.958   3.150   7.076
32189SOL    HW196591   5.945   3.243   7.042
32189SOL    HW296592   5.874   3.098   7.063
32190SOL     OW96593   7.200   3.154   6.875
32190SOL    HW196594   7.260   3.157   6.955
32190SOL    HW296595   7.125   3.218   6.888
32191SOL     OW96596   6.625   2.960   6.282
32191SOL    HW196597   6.555   2.913   6.336
32191SOL    HW296598   6.684   2.892   6.239
32192SOL     OW96599   6.600   2.098   6.557
32192SOL    HW196600   6.592   2.062   6.464
32192SOL    HW296601   6.598   2.022   6.622
32193SOL     OW96602   6.176   3.349   6.077
32193SOL    HW196603   6.218   3.291   6.007
32193SOL    HW296604   6.132   3.428   6.033
32194SOL     OW96605   7.295   2.247   6.967
32194SOL    HW196606   7.368   2.316   6.971
32194SOL    HW296607   7.323   2.172   6.908
32195SOL     OW96608   5.841   3.210   5.876
32195SOL    HW196609   5.745   3.211   5.849
32195SOL    HW296610   5.853   3.263   5.960
32196SOL     OW96611   5.691   2.875   7.312
32196SOL    HW196612   5.614   2.842   7.366
32196SOL    HW296613   5.776   2.845   7.354
32197SOL     OW96614   6.258   2.065   7.075
32197SOL    HW196615   6.348   2.049   7.035
32197SOL    HW296616   6.266   2.070   7.174
32198SOL     OW96617   5.661   2.207   5.619
32198SOL    HW196618   5.569   2.179   5.590
32198SOL    HW296619   5.692   2.284   5.563
32199SOL     OW96620   7.026   2.718   6.984
32199SOL    HW196621   6.969   2.770   6.921
32199SOL    HW296622   7.122   2.730   6.960
32200SOL     OW96623   5.658   2.028   5.904
32200SOL    HW196624   5.641   2.111   5.850
32200SOL    HW296625   5.748   1.991   5.882
32201SOL     OW96626   6.769   3.197   5.705
32201SOL    HW196627   6.670   3.186   5.707
32201SOL    HW296628   6.803   3.212   5.798
32202SOL     OW96629   6.199   2.704   7.017
32202SOL    HW196630   6.255   2.785   7.000
32202SOL    HW296631   6.258   2.624   7.020
32203SOL     OW96632   7.079   3.629   6.545
32203SOL    HW196633   7.112   3.693   6.476
32203SOL    HW296634   7.145   3.623   6.620
32204SOL     OW96635   6.302   2.427   7.294
32204SOL    HW196636   6.321   2.492   7.368
32204SOL    HW296637   6.362   2.347   7.303
32205SOL     OW96638   7.036   3.082   7.219
32205SOL    HW196639   7.027   3.072   7.318
32205SOL    HW296640   7.132   3.075   7.193
32206SOL     OW96641   5.976   3.603   7.146
32206SOL    HW196642   5.885   3.644   7.144
32206SOL    HW296643   5.969   3.509   7.178
32207SOL     OW96644   7.260   2.745   6.840
32207SOL    HW196645   7.233   2.656   6.803
32207SOL    HW296646   7.261   2.813   6.767
32208SOL     OW96647   6.811   2.187   6.035
32208SOL    HW196648   6.876   2.113   6.024
32208SOL    HW296649   6.831   2.237   6.119
32209SOL     OW96650   6.180   2.607   6.238
32209SOL    HW196651   6.230   2.692   6.219
32209SOL    HW296652   6.092   2.609   6.190
32210SOL     OW96653   7.363   2.204   7.228
32210SOL    HW196654   7.346   2.235   7.134
32210SOL    HW296655   7.279   2.167   7.266
32211SOL     OW96656   7.316   2.796   7.103
32211SOL    HW196657   7.354   2.887   7.118
32211SOL    HW296658   7.308   2.779   7.004
32212SOL     OW96659   6.445   3.236   5.602
32212SOL    HW196660   6.399   3.251   5.690
32212SOL    HW296661   6.489   3.321   5.572
32213SOL     OW96662   6.247   3.652   6.539
32213SOL    HW196663   6.201   3.740   6.526
32213SOL    HW296664   6.346   3.664   6.532
32214SOL     OW96665   6.445   2.818   6.447
32214SOL    HW196666   6.499   2.749   6.495
32214SOL    HW296667   6.413   2.887   6.513
32215SOL     OW96668   6.669   2.846   5.673
32215SOL    HW196669   6.646   2.899   5.591
32215SOL    HW296670   6.750   2.790   5.654
32216SOL     OW96671   7.447   3.431   6.437
32216SOL    HW196672   7.376   3.419   6.367
32216SOL    HW296673   7.448   3.352   6.497
32217SOL     OW96674   5.807   3.176   7.430
32217SOL    HW196675   5.742   3.103   7.409
32217SOL    HW296676   5.811   3.190   7.528
32218SOL     OW96677   5.665   3.102   6.239
32218SOL    HW196678   5.664   3.055   6.327
32218SOL    HW296679   5.747   3.074   6.188
32219SOL     OW96680   6.258   3.253   7.210
32219SOL    HW196681   6.180   3.203   7.248
32219SOL    HW296682   6.255   3.348   7.241
32220SOL     OW96683   7.410   2.054   6.813
32220SOL    HW196684   7.406   1.964   6.857
32220SOL    HW296685   7.413   2.043   6.714
32221SOL     OW96686   6.014   2.286   6.106
32221SOL    HW196687   6.044   2.214   6.044
32221SOL    HW296688   5.975   2.246   6.189
32222SOL     OW96689   7.291   3.349   6.690
32222SOL    HW196690   7.198   3.324   6.663
32222SOL    HW296691   7.317   3.299   6.772
32223SOL     OW96692   5.903   2.409   6.866
32223SOL    HW196693   5.941   2.350   6.938
32223SOL    HW296694   5.943   2.383   6.778
32224SOL     OW96695   6.398   3.448   6.273
32224SOL    HW196696   6.430   3.458   6.179
32224SOL    HW296697   6.319   3.386   6.275
32225SOL     OW96698   7.010   2.076   6.698
32225SOL    HW196699   7.062   2.011   6.753
32225SOL    HW296700   6.961   2.139   6.759
32226SOL     OW96701   6.587   1.896   6.740
32226SOL    HW196702   6.524   1.824   6.709
32226SOL    HW296703   6.680   1.860   6.740
32227SOL     OW96704   6.356   3.192   5.887
32227SOL    HW196705   6.310   3.105   5.904
32227SOL    HW296706   6.447   3.189   5.928
32228SOL     OW96707   6.204   3.429   6.870
32228SOL    HW196708   6.199   3.511   6.927
32228SOL    HW296709   6.293   3.426   6.825
32229SOL     OW96710   6.938   1.914   5.754
32229SOL    HW196711   6.973   1.873   5.670
32229SOL    HW296712   6.848   1.876   5.774
32230SOL     OW96713   6.886   2.315   6.277
32230SOL    HW196714   6.827   2.395   6.281
32230SOL    HW296715   6.901   2.280   6.370
32231SOL     OW96716   7.179   2.083   6.468
32231SOL    HW196717   7.095   2.082   6.522
32231SOL    HW296718   7.181   2.166   6.412
32232SOL     OW96719   5.625   2.939   5.886
32232SOL    HW196720   5.724   2.928   5.877
32232SOL    HW296721   5.585   2.853   5.918
32233SOL     OW96722   6.461   3.508   5.923
32233SOL    HW196723   6.384   3.473   5.869
32233SOL    HW296724   6.429   3.579   5.985
32234SOL     OW96725   5.816   2.490   7.561
32234SOL    HW196726   5.723   2.488   7.598
32234SOL    HW296727   5.817   2.451   7.469
32235SOL     OW96728   5.811   2.137   8.444
32235SOL    HW196729   5.846   2.120   8.536
32235SOL    HW296730   5.723   2.092   8.432
32236SOL     OW96731   5.605   2.230   8.095
32236SOL    HW196732   5.523   2.273   8.134
32236SOL    HW296733   5.577   2.157   8.032
32237SOL     OW96734   6.155   3.137   8.613
32237SOL    HW196735   6.062   3.130   8.576
32237SOL    HW296736   6.166   3.226   8.657
32238SOL     OW96737   7.141   3.373   8.151
32238SOL    HW196738   7.084   3.357   8.232
32238SOL    HW296739   7.082   3.383   8.071
32239SOL     OW96740   6.721   2.565   8.165
32239SOL    HW196741   6.778   2.643   8.140
32239SOL    HW296742   6.661   2.591   8.241
32240SOL     OW96743   7.341   2.469   7.679
32240SOL    HW196744   7.329   2.456   7.580
32240SOL    HW296745   7.311   2.388   7.728
32241SOL     OW96746   6.354   3.006   8.471
32241SOL    HW196747   6.276   3.023   8.531
32241SOL    HW296748   6.388   3.093   8.435
32242SOL     OW96749   6.436   2.660   9.271
32242SOL    HW196750   6.432   2.736   9.336
32242SOL    HW296751   6.458   2.696   9.180
32243SOL     OW96752   6.271   2.874   8.113
32243SOL    HW196753   6.340   2.858   8.183
32243SOL    HW296754   6.198   2.931   8.151
32244SOL     OW96755   6.272   3.023   9.251
32244SOL    HW196756   6.332   3.102   9.265
32244SOL    HW296757   6.186   3.054   9.210
32245SOL     OW96758   5.921   3.297   8.509
32245SOL    HW196759   5.843   3.266   8.456
32245SOL    HW296760   5.979   3.355   8.452
32246SOL     OW96761   7.046   3.367   8.787
32246SOL    HW196762   7.070   3.461   8.813
32246SOL    HW296763   7.030   3.313   8.869
32247SOL     OW96764   6.024   2.254   8.947
32247SOL    HW196765   6.106   2.198   8.956
32247SOL    HW296766   5.943   2.196   8.951
32248SOL     OW96767   7.189   2.309   8.185
32248SOL    HW196768   7.115   2.355   8.135
32248SOL    HW296769   7.240   2.377   8.238
32249SOL     OW96770   5.817   3.575   7.931
32249SOL    HW196771   5.851   3.652   7.985
32249SOL    HW296772   5.861   3.575   7.841
32250SOL     OW96773   6.713   3.203   9.138
32250SOL    HW196774   6.760   3.203   9.226
32250SOL    HW296775   6.665   3.116   9.127
32251SOL     OW96776   5.816   3.296   7.986
32251SOL    HW196777   5.790   3.392   7.986
32251SOL    HW296778   5.745   3.242   8.031
32252SOL     OW96779   5.826   2.953   8.334
32252SOL    HW196780   5.840   2.869   8.386
32252SOL    HW296781   5.771   3.017   8.389
32253SOL     OW96782   6.206   3.648   8.887
32253SOL    HW196783   6.114   3.631   8.922
32253SOL    HW296784   6.234   3.740   8.913
32254SOL     OW96785   6.192   2.826   7.571
32254SOL    HW196786   6.199   2.910   7.517
32254SOL    HW296787   6.238   2.839   7.659
32255SOL     OW96788   7.180   1.976   8.928
32255SOL    HW196789   7.162   2.043   8.856
32255SOL    HW296790   7.177   2.022   9.017
32256SOL     OW96791   5.708   2.505   8.011
32256SOL    HW196792   5.663   2.417   8.028
32256SOL    HW296793   5.707   2.559   8.095
32257SOL     OW96794   7.428   3.629   7.807
32257SOL    HW196795   7.482   3.600   7.887
32257SOL    HW296796   7.458   3.719   7.778
32258SOL     OW96797   5.613   3.458   7.565
32258SOL    HW196798   5.594   3.362   7.586
32258SOL    HW296799   5.580   3.516   7.640
32259SOL     OW96800   7.275   2.784   8.060
32259SOL    HW196801   7.370   2.755   8.068
32259SOL    HW296802   7.267   2.849   7.985
32260SOL     OW96803   7.227   2.970   7.880
32260SOL    HW196804   7.313   2.972   7.828
32260SOL    HW296805   7.241   3.017   7.968
32261SOL     OW96806   5.699   2.599   9.045
32261SOL    HW196807   5.787   2.586   9.090
32261SOL    HW296808   5.686   2.696   9.023
32262SOL     OW96809   6.199   3.227   8.174
32262SOL    HW196810   6.150   3.140   8.183
32262SOL    HW296811   6.176   3.270   8.087
32263SOL     OW96812   6.879   3.090   8.871
32263SOL    HW196813   6.916   3.017   8.813
32263SOL    HW296814   6.931   3.095   8.956
32264SOL     OW96815   6.395   1.866   7.950
32264SOL    HW196816   6.435   1.957   7.941
32264SOL    HW296817   6.295   1.874   7.956
32265SOL     OW96818   5.783   2.838   8.712
32265SOL    HW196819   5.872   2.793   8.698
32265SOL    HW296820   5.710   2.773   8.693
32266SOL     OW96821   7.111   2.861   7.638
32266SOL    HW196822   7.048   2.785   7.651
32266SOL    HW296823   7.159   2.879   7.724
32267SOL     OW96824   6.773   3.654   9.064
32267SOL    HW196825   6.797   3.714   8.988
32267SOL    HW296826   6.780   3.559   9.034
32268SOL     OW96827   5.903   2.113   9.249
32268SOL    HW196828   5.974   2.184   9.255
32268SOL    HW296829   5.815   2.152   9.277
32269SOL     OW96830   7.052   3.279   8.401
32269SOL    HW196831   6.993   3.285   8.481
32269SOL    HW296832   7.037   3.191   8.355
32270SOL     OW96833   7.253   3.576   8.020
32270SOL    HW196834   7.212   3.553   7.932
32270SOL    HW296835   7.235   3.502   8.085
32271SOL     OW96836   6.184   2.591   7.718
32271SOL    HW196837   6.208   2.660   7.650
32271SOL    HW296838   6.106   2.624   7.772
32272SOL     OW96839   6.867   2.207   8.392
32272SOL    HW196840   6.781   2.157   8.379
32272SOL    HW296841   6.929   2.153   8.448
32273SOL     OW96842   7.162   3.524   7.755
32273SOL    HW196843   7.251   3.570   7.758
32273SOL    HW296844   7.141   3.500   7.660
32274SOL     OW96845   6.393   2.467   8.913
32274SOL    HW196846   6.346   2.464   9.002
32274SOL    HW296847   6.342   2.412   8.847
32275SOL     OW96848   6.980   2.331   9.122
32275SOL    HW196849   6.960   2.374   9.210
32275SOL    HW296850   7.058   2.269   9.131
32276SOL     OW96851   6.559   2.752   9.020
32276SOL    HW196852   6.605   2.668   8.991
32276SOL    HW296853   6.503   2.786   8.945
32277SOL     OW96854   6.577   2.272   8.690
32277SOL    HW196855   6.500   2.306   8.744
32277SOL    HW296856   6.543   2.221   8.611
32278SOL     OW96857   6.627   2.563   7.877
32278SOL    HW196858   6.653   2.559   7.973
32278SOL    HW296859   6.542   2.512   7.863
32279SOL     OW96860   5.662   2.673   8.237
32279SOL    HW196861   5.761   2.661   8.246
32279SOL    HW296862   5.638   2.768   8.258
32280SOL     OW96863   5.716   3.683   9.019
32280SOL    HW196864   5.706   3.668   9.118
32280SOL    HW296865   5.630   3.719   8.983
32281SOL     OW96866   6.451   2.210   7.643
32281SOL    HW196867   6.510   2.273   7.594
32281SOL    HW296868   6.470   2.116   7.614
32282SOL     OW96869   7.305   2.447   9.279
32282SOL    HW196870   7.279   2.536   9.243
32282SOL    HW296871   7.303   2.379   9.206
32283SOL     OW96872   6.948   3.006   7.993
32283SOL    HW196873   7.031   2.977   7.945
32283SOL    HW296874   6.899   3.073   7.937
32284SOL     OW96875   6.136   2.058   8.333
32284SOL    HW196876   6.131   2.053   8.433
32284SOL    HW296877   6.138   2.154   8.304
32285SOL     OW96878   6.594   3.318   7.925
32285SOL    HW196879   6.548   3.390   7.873
32285SOL    HW296880   6.590   3.338   8.023
32286SOL     OW96881   5.937   3.663   8.301
32286SOL    HW196882   5.987   3.577   8.307
32286SOL    HW296883   6.002   3.740   8.298
32287SOL     OW96884   7.381   2.928   8.321
32287SOL    HW196885   7.319   2.913   8.245
32287SOL    HW296886   7.329   2.939   8.406
32288SOL     OW96887   6.813   3.412   8.954
32288SOL    HW196888   6.819   3.335   9.018
32288SOL    HW296889   6.761   3.386   8.874
32289SOL     OW96890   5.907   2.805   7.690
32289SOL    HW196891   5.989   2.844   7.648
32289SOL    HW296892   5.880   2.723   7.641
32290SOL     OW96893   7.044   2.597   8.176
32290SOL    HW196894   7.039   2.532   8.251
32290SOL    HW296895   7.124   2.656   8.189
32291SOL     OW96896   6.047   3.128   9.175
32291SOL    HW196897   5.997   3.129   9.089
32291SOL    HW296898   5.984   3.110   9.251
32292SOL     OW96899   6.697   3.638   7.685
32292SOL    HW196900   6.637   3.576   7.735
32292SOL    HW296901   6.728   3.594   7.600
32293SOL     OW96902   5.788   2.147   8.946
32293SOL    HW196903   5.708   2.207   8.933
32293SOL    HW296904   5.778   2.098   9.032
32294SOL     OW96905   7.218   3.239   7.529
32294SOL    HW196906   7.186   3.333   7.519
32294SOL    HW296907   7.142   3.176   7.517
32295SOL     OW96908   6.050   3.605   7.771
32295SOL    HW196909   6.083   3.644   7.857
32295SOL    HW296910   6.126   3.598   7.706
32296SOL     OW96911   6.986   1.969   7.874
32296SOL    HW196912   6.962   1.932   7.784
32296SOL    HW296913   7.085   1.985   7.878
32297SOL     OW96914   5.835   3.647   8.689
32297SOL    HW196915   5.892   3.582   8.739
32297SOL    HW296916   5.819   3.614   8.596
32298SOL     OW96917   6.526   3.560   8.352
32298SOL    HW196918   6.606   3.503   8.373
32298SOL    HW296919   6.477   3.520   8.275
32299SOL     OW96920   5.968   2.562   7.928
32299SOL    HW196921   6.013   2.472   7.925
32299SOL    HW296922   5.874   2.551   7.961
32300SOL     OW96923   7.133   2.084   9.177
32300SOL    HW196924   7.128   2.121   9.269
32300SOL    HW296925   7.061   2.015   9.165
32301SOL     OW96926   6.200   1.984   7.565
32301SOL    HW196927   6.298   1.962   7.572
32301SOL    HW296928   6.169   1.967   7.472
32302SOL     OW96929   6.367   2.126   9.197
32302SOL    HW196930   6.434   2.065   9.240
32302SOL    HW296931   6.294   2.145   9.262
32303SOL     OW96932   6.474   3.376   8.643
32303SOL    HW196933   6.451   3.351   8.549
32303SOL    HW296934   6.535   3.307   8.682
32304SOL     OW96935   6.937   2.452   8.881
32304SOL    HW196936   6.965   2.409   8.966
32304SOL    HW296937   6.962   2.548   8.882
32305SOL     OW96938   6.389   3.264   8.372
32305SOL    HW196939   6.479   3.278   8.330
32305SOL    HW296940   6.318   3.266   8.301
32306SOL     OW96941   6.508   2.365   8.347
32306SOL    HW196942   6.483   2.356   8.251
32306SOL    HW296943   6.556   2.283   8.378
32307SOL     OW96944   6.125   1.926   7.960
32307SOL    HW196945   6.044   1.927   8.018
32307SOL    HW296946   6.128   2.009   7.905
32308SOL     OW96947   7.020   3.050   7.489
32308SOL    HW196948   7.052   2.974   7.546
32308SOL    HW296949   6.928   3.077   7.519
32309SOL     OW96950   5.883   1.897   7.619
32309SOL    HW196951   5.932   1.981   7.598
32309SOL    HW296952   5.945   1.832   7.664
32310SOL     OW96953   6.521   2.098   7.928
32310SOL    HW196954   6.473   2.139   7.850
32310SOL    HW296955   6.620   2.096   7.909
32311SOL     OW96956   6.662   2.545   8.912
32311SOL    HW196957   6.582   2.484   8.915
32311SOL    HW296958   6.743   2.492   8.888
32312SOL     OW96959   6.813   3.432   8.241
32312SOL    HW196960   6.834   3.506   8.176
32312SOL    HW296961   6.881   3.432   8.314
32313SOL     OW96962   6.045   3.014   8.189
32313SOL    HW196963   5.974   2.987   8.254
32313SOL    HW296964   6.019   2.986   8.096
32314SOL     OW96965   6.857   3.659   8.039
32314SOL    HW196966   6.901   3.723   7.975
32314SOL    HW296967   6.807   3.711   8.109
32315SOL     OW96968   6.618   2.411   7.464
32315SOL    HW196969   6.577   2.493   7.425
32315SOL    HW296970   6.682   2.437   7.537
32316SOL     OW96971   5.664   2.418   8.834
32316SOL    HW196972   5.756   2.417   8.793
32316SOL    HW296973   5.658   2.492   8.901
32317SOL     OW96974   6.147   2.084   8.595
32317SOL    HW196975   6.185   2.000   8.632
32317SOL    HW296976   6.059   2.103   8.639
32318SOL     OW96977   6.452   2.316   8.090
32318SOL    HW196978   6.420   2.388   8.028
32318SOL    HW296979   6.476   2.235   8.037
32319SOL     OW96980   6.603   1.901   8.201
32319SOL    HW196981   6.531   1.906   8.132
32319SOL    HW296982   6.579   1.832   8.270
32320SOL     OW96983   7.015   3.035   8.315
32320SOL    HW196984   6.960   2.951   8.308
32320SOL    HW296985   7.041   3.064   8.223
32321SOL     OW96986   7.052   2.452   8.440
32321SOL    HW196987   7.022   2.357   8.447
32321SOL    HW296988   7.125   2.468   8.506
32322SOL     OW96989   7.443   2.695   7.825
32322SOL    HW196990   7.485   2.631   7.889
32322SOL    HW296991   7.405   2.644   7.747
32323SOL     OW96992   6.074   3.247   7.622
32323SOL    HW196993   5.987   3.232   7.669
32323SOL    HW296994   6.057   3.273   7.527
32324SOL     OW96995   7.250   3.142   8.105
32324SOL    HW196996   7.349   3.150   8.119
32324SOL    HW296997   7.205   3.226   8.136
32325SOL     OW96998   6.976   2.437   7.526
32325SOL    HW196999   6.922   2.416   7.607
32325SOL    HW297000   7.067   2.396   7.535
32326SOL     OW97001   6.113   2.118   7.776
32326SOL    HW197002   6.140   2.059   7.701
32326SOL    HW297003   6.113   2.213   7.745
32327SOL     OW97004   7.340   3.085   9.036
32327SOL    HW197005   7.431   3.046   9.023
32327SOL    HW297006   7.348   3.181   9.060
32328SOL     OW97007   6.650   3.209   8.788
32328SOL    HW197008   6.570   3.186   8.843
32328SOL    HW297009   6.733   3.183   8.837
32329SOL     OW97010   7.178   3.491   9.073
32329SOL    HW197011   7.205   3.525   8.983
32329SOL    HW297012   7.257   3.453   9.119
32330SOL     OW97013   6.697   3.057   8.548
32330SOL    HW197014   6.657   3.101   8.629
32330SOL    HW297015   6.656   3.094   8.465
32331SOL     OW97016   7.224   2.961   8.527
32331SOL    HW197017   7.229   3.042   8.586
32331SOL    HW297018   7.138   2.963   8.476
32332SOL     OW97019   6.501   1.951   8.850
32332SOL    HW197020   6.526   1.931   8.755
32332SOL    HW297021   6.573   2.007   8.892
32333SOL     OW97022   6.566   2.978   9.167
32333SOL    HW197023   6.467   2.984   9.177
32333SOL    HW297024   6.589   2.898   9.111
32334SOL     OW97025   6.291   2.912   7.816
32334SOL    HW197026   6.277   2.919   7.915
32334SOL    HW297027   6.375   2.861   7.798
32335SOL     OW97028   5.996   2.675   8.699
32335SOL    HW197029   6.082   2.687   8.749
32335SOL    HW297030   5.954   2.588   8.726
32336SOL     OW97031   6.860   2.248   8.710
32336SOL    HW197032   6.881   2.322   8.774
32336SOL    HW297033   6.771   2.265   8.667
32337SOL     OW97034   5.650   3.426   8.779
32337SOL    HW197035   5.604   3.508   8.745
32337SOL    HW297036   5.748   3.445   8.788
32338SOL     OW97037   5.953   2.962   7.949
32338SOL    HW197038   5.946   3.045   7.893
32338SOL    HW297039   5.957   2.882   7.889
32339SOL     OW97040   6.152   2.399   8.313
32339SOL    HW197041   6.164   2.465   8.239
32339SOL    HW297042   6.198   2.433   8.396
32340SOL     OW97043   6.838   3.210   7.836
32340SOL    HW197044   6.888   3.287   7.876
32340SOL    HW297045   6.743   3.212   7.868
32341SOL     OW97046   6.858   3.307   8.590
32341SOL    HW197047   6.905   3.320   8.677
32341SOL    HW297048   6.792   3.233   8.599
32342SOL     OW97049   7.168   2.501   7.920
32342SOL    HW197050   7.137   2.562   7.993
32342SOL    HW297051   7.218   2.553   7.851
32343SOL     OW97052   5.940   3.372   8.777
32343SOL    HW197053   5.919   3.328   8.690
32343SOL    HW297054   6.037   3.398   8.780
32344SOL     OW97055   5.988   2.613   9.046
32344SOL    HW197056   6.056   2.668   8.999
32344SOL    HW297057   6.028   2.525   9.073
32345SOL     OW97058   7.173   2.641   9.118
32345SOL    HW197059   7.081   2.679   9.113
32345SOL    HW297060   7.233   2.688   9.053
32346SOL     OW97061   6.599   1.967   9.218
32346SOL    HW197062   6.605   2.052   9.166
32346SOL    HW297063   6.631   1.891   9.161
32347SOL     OW97064   6.159   2.732   8.477
32347SOL    HW197065   6.203   2.821   8.468
32347SOL    HW297066   6.096   2.732   8.554
32348SOL     OW97067   6.946   2.724   8.493
32348SOL    HW197068   6.871   2.724   8.427
32348SOL    HW297069   6.983   2.632   8.502
32349SOL     OW97070   6.795   2.387   7.723
32349SOL    HW197071   6.808   2.303   7.777
32349SOL    HW297072   6.766   2.461   7.783
32350SOL     OW97073   5.893   2.075   8.679
32350SOL    HW197074   5.870   2.112   8.769
32350SOL    HW297075   5.863   1.980   8.673
32351SOL     OW97076   5.623   3.172   8.730
32351SOL    HW197077   5.676   3.123   8.798
32351SOL    HW297078   5.645   3.270   8.735
32352SOL     OW97079   6.318   2.496   8.512
32352SOL    HW197080   6.377   2.470   8.436
32352SOL    HW297081   6.290   2.592   8.501
32353SOL     OW97082   7.314   2.797   9.302
32353SOL    HW197083   7.268   2.790   9.213
32353SOL    HW297084   7.252   2.841   9.368
32354SOL     OW97085   5.893   1.925   8.066
32354SOL    HW197086   5.882   2.019   8.099
32354SOL    HW297087   5.888   1.862   8.143
32355SOL     OW97088   7.208   2.229   7.822
32355SOL    HW197089   7.210   2.153   7.886
32355SOL    HW297090   7.160   2.306   7.862
32356SOL     OW97091   6.609   2.628   8.414
32356SOL    HW197092   6.624   2.649   8.510
32356SOL    HW297093   6.579   2.533   8.405
32357SOL     OW97094   6.566   3.435   9.148
32357SOL    HW197095   6.546   3.479   9.060
32357SOL    HW297096   6.605   3.344   9.132
32358SOL     OW97097   7.445   3.380   9.053
32358SOL    HW197098   7.459   3.407   8.958
32358SOL    HW297099   7.528   3.402   9.106
32359SOL     OW97100   5.936   2.760   9.252
32359SOL    HW197101   6.012   2.804   9.300
32359SOL    HW297102   5.971   2.713   9.170
32360SOL     OW97103   7.126   2.136   7.573
32360SOL    HW197104   7.065   2.061   7.596
32360SOL    HW297105   7.148   2.188   7.656
32361SOL     OW97106   6.889   2.700   7.490
32361SOL    HW197107   6.923   2.607   7.505
32361SOL    HW297108   6.907   2.727   7.395
32362SOL     OW97109   6.654   3.195   8.297
32362SOL    HW197110   6.661   3.111   8.242
32362SOL    HW297111   6.716   3.264   8.261
32363SOL     OW97112   5.905   2.672   8.397
32363SOL    HW197113   5.998   2.708   8.402
32363SOL    HW297114   5.899   2.587   8.449
32364SOL     OW97115   5.925   2.371   8.454
32364SOL    HW197116   5.873   2.288   8.437
32364SOL    HW297117   6.002   2.376   8.390
32365SOL     OW97118   6.724   2.242   9.126
32365SOL    HW197119   6.679   2.305   9.190
32365SOL    HW297120   6.817   2.273   9.109
32366SOL     OW97121   6.746   2.069   8.925
32366SOL    HW197122   6.746   2.133   9.002
32366SOL    HW297123   6.774   2.117   8.842
32367SOL     OW97124   5.594   3.188   7.648
32367SOL    HW197125   5.501   3.209   7.617
32367SOL    HW297126   5.604   3.089   7.661
32368SOL     OW97127   5.674   3.663   8.375
32368SOL    HW197128   5.632   3.577   8.348
32368SOL    HW297129   5.768   3.666   8.341
32369SOL     OW97130   6.090   3.430   8.358
32369SOL    HW197131   6.156   3.504   8.367
32369SOL    HW297132   6.134   3.351   8.316
32370SOL     OW97133   6.588   2.658   8.686
32370SOL    HW197134   6.629   2.626   8.772
32370SOL    HW297135   6.492   2.631   8.683
32371SOL     OW97136   5.626   2.406   8.562
32371SOL    HW197137   5.711   2.373   8.521
32371SOL    HW297138   5.639   2.421   8.660
32372SOL     OW97139   5.775   2.382   9.170
32372SOL    HW197140   5.834   2.342   9.100
32372SOL    HW297141   5.717   2.453   9.129
32373SOL     OW97142   6.955   2.812   9.108
32373SOL    HW197143   6.994   2.901   9.128
32373SOL    HW297144   6.965   2.792   9.011
32374SOL     OW97145   6.401   2.434   7.773
32374SOL    HW197146   6.408   2.345   7.727
32374SOL    HW297147   6.307   2.468   7.765
32375SOL     OW97148   7.243   2.466   8.654
32375SOL    HW197149   7.205   2.397   8.716
32375SOL    HW297150   7.325   2.430   8.610
32376SOL     OW97151   5.838   3.426   9.192
32376SOL    HW197152   5.808   3.483   9.268
32376SOL    HW297153   5.831   3.329   9.218
32377SOL     OW97154   6.257   2.326   8.717
32377SOL    HW197155   6.223   2.237   8.687
32377SOL    HW297156   6.283   2.380   8.637
32378SOL     OW97157   6.516   3.540   8.913
32378SOL    HW197158   6.492   3.522   8.818
32378SOL    HW297159   6.546   3.634   8.923
32379SOL     OW97160   6.059   2.362   7.639
32379SOL    HW197161   6.120   2.442   7.643
32379SOL    HW297162   5.964   2.393   7.646
32380SOL     OW97163   5.745   2.999   8.914
32380SOL    HW197164   5.767   2.938   8.990
32380SOL    HW297165   5.755   2.950   8.828
32381SOL     OW97166   6.933   2.921   8.682
32381SOL    HW197167   6.957   2.858   8.608
32381SOL    HW297168   6.843   2.961   8.664
32382SOL     OW97169   6.888   2.717   7.757
32382SOL    HW197170   6.802   2.686   7.799
32382SOL    HW297171   6.884   2.703   7.658
32383SOL     OW97172   7.345   3.609   8.602
32383SOL    HW197173   7.406   3.639   8.529
32383SOL    HW297174   7.307   3.520   8.580
32384SOL     OW97175   6.838   3.593   8.576
32384SOL    HW197176   6.922   3.598   8.522
32384SOL    HW297177   6.815   3.497   8.594
32385SOL     OW97178   5.669   3.120   8.470
32385SOL    HW197179   5.664   3.119   8.570
32385SOL    HW297180   5.586   3.079   8.432
32386SOL     OW97181   6.274   3.524   9.164
32386SOL    HW197182   6.218   3.605   9.173
32386SOL    HW297183   6.326   3.528   9.078
32387SOL     OW97184   7.312   1.997   7.971
32387SOL    HW197185   7.385   1.980   7.904
32387SOL    HW297186   7.281   1.910   8.009
32388SOL     OW97187   6.974   3.435   7.925
32388SOL    HW197188   7.041   3.447   7.851
32388SOL    HW297189   6.934   3.524   7.948
32389SOL     OW97190   5.716   3.656   9.299
32389SOL    HW197191   5.675   3.582   9.352
32389SOL    HW297192   5.780   3.707   9.357
32390SOL     OW97193   6.866   2.789   8.120
32390SOL    HW197194   6.926   2.708   8.122
32390SOL    HW297195   6.906   2.858   8.060
32391SOL     OW97196   6.416   3.135   8.870
32391SOL    HW197197   6.411   3.168   8.965
32391SOL    HW297198   6.330   3.154   8.824
32392SOL     OW97199   6.258   3.478   7.602
32392SOL    HW197200   6.267   3.488   7.503
32392SOL    HW297201   6.218   3.389   7.623
32393SOL     OW97202   7.236   3.582   8.842
32393SOL    HW197203   7.289   3.592   8.758
32393SOL    HW297204   7.209   3.672   8.876
32394SOL     OW97205   7.427   2.037   8.411
32394SOL    HW197206   7.466   1.952   8.375
32394SOL    HW297207   7.329   2.039   8.392
32395SOL     OW97208   5.849   2.188   8.168
32395SOL    HW197209   5.770   2.239   8.134
32395SOL    HW297210   5.840   2.173   8.266
32396SOL     OW97211   6.780   3.474   7.479
32396SOL    HW197212   6.786   3.381   7.516
32396SOL    HW297213   6.721   3.474   7.399
32397SOL     OW97214   6.408   2.864   8.820
32397SOL    HW197215   6.448   2.863   8.728
32397SOL    HW297216   6.418   2.956   8.860
32398SOL     OW97217   6.502   2.772   7.739
32398SOL    HW197218   6.565   2.810   7.671
32398SOL    HW297219   6.542   2.689   7.778
32399SOL     OW97220   7.090   3.469   7.492
32399SOL    HW197221   6.998   3.506   7.499
32399SOL    HW297222   7.128   3.489   7.402
32400SOL     OW97223   5.958   3.150   8.938
32400SOL    HW197224   5.945   3.243   8.904
32400SOL    HW297225   5.874   3.098   8.925
32401SOL     OW97226   7.200   3.154   8.737
32401SOL    HW197227   7.260   3.157   8.817
32401SOL    HW297228   7.125   3.218   8.750
32402SOL     OW97229   6.625   2.960   8.144
32402SOL    HW197230   6.555   2.913   8.198
32402SOL    HW297231   6.684   2.892   8.101
32403SOL     OW97232   6.600   2.098   8.419
32403SOL    HW197233   6.592   2.062   8.326
32403SOL    HW297234   6.598   2.022   8.484
32404SOL     OW97235   6.176   3.349   7.939
32404SOL    HW197236   6.218   3.291   7.869
32404SOL    HW297237   6.132   3.428   7.895
32405SOL     OW97238   7.295   2.247   8.829
32405SOL    HW197239   7.368   2.316   8.833
32405SOL    HW297240   7.323   2.172   8.770
32406SOL     OW97241   5.841   3.210   7.738
32406SOL    HW197242   5.745   3.211   7.711
32406SOL    HW297243   5.853   3.263   7.822
32407SOL     OW97244   5.691   2.875   9.174
32407SOL    HW197245   5.614   2.842   9.228
32407SOL    HW297246   5.776   2.845   9.216
32408SOL     OW97247   6.258   2.065   8.937
32408SOL    HW197248   6.348   2.049   8.897
32408SOL    HW297249   6.266   2.070   9.036
32409SOL     OW97250   5.661   2.207   7.481
32409SOL    HW197251   5.569   2.179   7.452
32409SOL    HW297252   5.692   2.284   7.425
32410SOL     OW97253   7.026   2.718   8.846
32410SOL    HW197254   6.969   2.770   8.783
32410SOL    HW297255   7.122   2.730   8.822
32411SOL     OW97256   5.658   2.028   7.766
32411SOL    HW197257   5.641   2.111   7.712
32411SOL    HW297258   5.748   1.991   7.744
32412SOL     OW97259   6.769   3.197   7.567
32412SOL    HW197260   6.670   3.186   7.569
32412SOL    HW297261   6.803   3.212   7.660
32413SOL     OW97262   6.199   2.704   8.879
32413SOL    HW197263   6.255   2.785   8.862
32413SOL    HW297264   6.258   2.624   8.882
32414SOL     OW97265   7.079   3.629   8.407
32414SOL    HW197266   7.112   3.693   8.338
32414SOL    HW297267   7.145   3.623   8.482
32415SOL     OW97268   6.302   2.427   9.156
32415SOL    HW197269   6.321   2.492   9.230
32415SOL    HW297270   6.362   2.347   9.165
32416SOL     OW97271   7.036   3.082   9.081
32416SOL    HW197272   7.027   3.072   9.180
32416SOL    HW297273   7.132   3.075   9.055
32417SOL     OW97274   5.976   3.603   9.008
32417SOL    HW197275   5.885   3.644   9.006
32417SOL    HW297276   5.969   3.509   9.040
32418SOL     OW97277   7.260   2.745   8.702
32418SOL    HW197278   7.233   2.656   8.665
32418SOL    HW297279   7.261   2.813   8.629
32419SOL     OW97280   6.811   2.187   7.897
32419SOL    HW197281   6.876   2.113   7.886
32419SOL    HW297282   6.831   2.237   7.981
32420SOL     OW97283   6.180   2.607   8.100
32420SOL    HW197284   6.230   2.692   8.081
32420SOL    HW297285   6.092   2.609   8.052
32421SOL     OW97286   7.363   2.204   9.090
32421SOL    HW197287   7.346   2.235   8.996
32421SOL    HW297288   7.279   2.167   9.128
32422SOL     OW97289   7.316   2.796   8.965
32422SOL    HW197290   7.354   2.887   8.980
32422SOL    HW297291   7.308   2.779   8.866
32423SOL     OW97292   6.445   3.236   7.464
32423SOL    HW197293   6.399   3.251   7.552
32423SOL    HW297294   6.489   3.321   7.434
32424SOL     OW97295   6.247   3.652   8.401
32424SOL    HW197296   6.201   3.740   8.388
32424SOL    HW297297   6.346   3.664   8.394
32425SOL     OW97298   6.445   2.818   8.309
32425SOL    HW197299   6.499   2.749   8.357
32425SOL    HW297300   6.413   2.887   8.375
32426SOL     OW97301   6.669   2.846   7.535
32426SOL    HW197302   6.646   2.899   7.453
32426SOL    HW297303   6.750   2.790   7.516
32427SOL     OW97304   7.447   3.431   8.299
32427SOL    HW197305   7.376   3.419   8.229
32427SOL    HW297306   7.448   3.352   8.359
32428SOL     OW97307   5.807   3.176   9.292
32428SOL    HW197308   5.742   3.103   9.271
32428SOL    HW297309   5.811   3.190   9.390
32429SOL     OW97310   5.665   3.102   8.101
32429SOL    HW197311   5.664   3.055   8.189
32429SOL    HW297312   5.747   3.074   8.050
32430SOL     OW97313   6.258   3.253   9.072
32430SOL    HW197314   6.180   3.203   9.110
32430SOL    HW297315   6.255   3.348   9.103
32431SOL     OW97316   7.410   2.054   8.675
32431SOL    HW197317   7.406   1.964   8.719
32431SOL    HW297318   7.413   2.043   8.576
32432SOL     OW97319   6.014   2.286   7.968
32432SOL    HW197320   6.044   2.214   7.906
32432SOL    HW297321   5.975   2.246   8.051
32433SOL     OW97322   7.291   3.349   8.552
32433SOL    HW197323   7.198   3.324   8.525
32433SOL    HW297324   7.317   3.299   8.634
32434SOL     OW97325   5.903   2.409   8.728
32434SOL    HW197326   5.941   2.350   8.800
32434SOL    HW297327   5.943   2.383   8.640
32435SOL     OW97328   6.398   3.448   8.135
32435SOL    HW197329   6.430   3.458   8.041
32435SOL    HW297330   6.319   3.386   8.137
32436SOL     OW97331   7.010   2.076   8.560
32436SOL    HW197332   7.062   2.011   8.615
32436SOL    HW297333   6.961   2.139   8.621
32437SOL     OW97334   6.587   1.896   8.602
32437SOL    HW197335   6.524   1.824   8.571
32437SOL    HW297336   6.680   1.860   8.602
32438SOL     OW97337   6.356   3.192   7.749
32438SOL    HW197338   6.310   3.105   7.766
32438SOL    HW297339   6.447   3.189   7.790
32439SOL     OW97340   6.204   3.429   8.732
32439SOL    HW197341   6.199   3.511   8.789
32439SOL    HW297342   6.293   3.426   8.687
32440SOL     OW97343   6.938   1.914   7.616
32440SOL    HW197344   6.973   1.873   7.532
32440SOL    HW297345   6.848   1.876   7.636
32441SOL     OW97346   6.886   2.315   8.139
32441SOL    HW197347   6.827   2.395   8.143
32441SOL    HW297348   6.901   2.280   8.232
32442SOL     OW97349   7.179   2.083   8.330
32442SOL    HW197350   7.095   2.082   8.384
32442SOL    HW297351   7.181   2.166   8.274
32443SOL     OW97352   5.625   2.939   7.748
32443SOL    HW197353   5.724   2.928   7.739
32443SOL    HW297354   5.585   2.853   7.780
32444SOL     OW97355   6.461   3.508   7.785
32444SOL    HW197356   6.384   3.473   7.731
32444SOL    HW297357   6.429   3.579   7.847
32445SOL     OW97358   5.816   2.490   9.423
32445SOL    HW197359   5.723   2.488   9.460
32445SOL    HW297360   5.817   2.451   9.331
32446SOL     OW97361   5.811   2.137  10.306
32446SOL    HW197362   5.846   2.120  10.398
32446SOL    HW297363   5.723   2.092  10.294
32447SOL     OW97364   5.605   2.230   9.957
32447SOL    HW197365   5.523   2.273   9.996
32447SOL    HW297366   5.577   2.157   9.894
32448SOL     OW97367   6.155   3.137  10.475
32448SOL    HW197368   6.062   3.130  10.438
32448SOL    HW297369   6.166   3.226  10.519
32449SOL     OW97370   7.141   3.373  10.013
32449SOL    HW197371   7.084   3.357  10.094
32449SOL    HW297372   7.082   3.383   9.933
32450SOL     OW97373   6.721   2.565  10.027
32450SOL    HW197374   6.778   2.643  10.002
32450SOL    HW297375   6.661   2.591  10.103
32451SOL     OW97376   7.341   2.469   9.541
32451SOL    HW197377   7.329   2.456   9.442
32451SOL    HW297378   7.311   2.388   9.590
32452SOL     OW97379   6.354   3.006  10.333
32452SOL    HW197380   6.276   3.023  10.393
32452SOL    HW297381   6.388   3.093  10.297
32453SOL     OW97382   6.436   2.660  11.133
32453SOL    HW197383   6.432   2.736  11.198
32453SOL    HW297384   6.458   2.696  11.042
32454SOL     OW97385   6.271   2.874   9.975
32454SOL    HW197386   6.340   2.858  10.045
32454SOL    HW297387   6.198   2.931  10.013
32455SOL     OW97388   6.272   3.023  11.113
32455SOL    HW197389   6.332   3.102  11.127
32455SOL    HW297390   6.186   3.054  11.072
32456SOL     OW97391   5.921   3.297  10.371
32456SOL    HW197392   5.843   3.266  10.318
32456SOL    HW297393   5.979   3.355  10.314
32457SOL     OW97394   7.046   3.367  10.649
32457SOL    HW197395   7.070   3.461  10.675
32457SOL    HW297396   7.030   3.313  10.731
32458SOL     OW97397   6.024   2.254  10.809
32458SOL    HW197398   6.106   2.198  10.818
32458SOL    HW297399   5.943   2.196  10.813
32459SOL     OW97400   7.189   2.309  10.047
32459SOL    HW197401   7.115   2.355   9.997
32459SOL    HW297402   7.240   2.377  10.100
32460SOL     OW97403   5.817   3.575   9.793
32460SOL    HW197404   5.851   3.652   9.847
32460SOL    HW297405   5.861   3.575   9.703
32461SOL     OW97406   6.713   3.203  11.000
32461SOL    HW197407   6.760   3.203  11.088
32461SOL    HW297408   6.665   3.116  10.989
32462SOL     OW97409   5.816   3.296   9.848
32462SOL    HW197410   5.790   3.392   9.848
32462SOL    HW297411   5.745   3.242   9.893
32463SOL     OW97412   5.826   2.953  10.196
32463SOL    HW197413   5.840   2.869  10.248
32463SOL    HW297414   5.771   3.017  10.251
32464SOL     OW97415   6.206   3.648  10.749
32464SOL    HW197416   6.114   3.631  10.784
32464SOL    HW297417   6.234   3.740  10.775
32465SOL     OW97418   6.192   2.826   9.433
32465SOL    HW197419   6.199   2.910   9.379
32465SOL    HW297420   6.238   2.839   9.521
32466SOL     OW97421   7.180   1.976  10.790
32466SOL    HW197422   7.162   2.043  10.718
32466SOL    HW297423   7.177   2.022  10.879
32467SOL     OW97424   5.708   2.505   9.873
32467SOL    HW197425   5.663   2.417   9.890
32467SOL    HW297426   5.707   2.559   9.957
32468SOL     OW97427   7.428   3.629   9.669
32468SOL    HW197428   7.482   3.600   9.749
32468SOL    HW297429   7.458   3.719   9.640
32469SOL     OW97430   5.613   3.458   9.427
32469SOL    HW197431   5.594   3.362   9.448
32469SOL    HW297432   5.580   3.516   9.502
32470SOL     OW97433   7.275   2.784   9.922
32470SOL    HW197434   7.370   2.755   9.930
32470SOL    HW297435   7.267   2.849   9.847
32471SOL     OW97436   7.227   2.970   9.742
32471SOL    HW197437   7.313   2.972   9.690
32471SOL    HW297438   7.241   3.017   9.830
32472SOL     OW97439   5.699   2.599  10.907
32472SOL    HW197440   5.787   2.586  10.952
32472SOL    HW297441   5.686   2.696  10.885
32473SOL     OW97442   6.199   3.227  10.036
32473SOL    HW197443   6.150   3.140  10.045
32473SOL    HW297444   6.176   3.270   9.949
32474SOL     OW97445   6.879   3.090  10.733
32474SOL    HW197446   6.916   3.017  10.675
32474SOL    HW297447   6.931   3.095  10.818
32475SOL     OW97448   6.395   1.866   9.812
32475SOL    HW197449   6.435   1.957   9.803
32475SOL    HW297450   6.295   1.874   9.818
32476SOL     OW97451   5.783   2.838  10.574
32476SOL    HW197452   5.872   2.793  10.560
32476SOL    HW297453   5.710   2.773  10.555
32477SOL     OW97454   7.111   2.861   9.500
32477SOL    HW197455   7.048   2.785   9.513
32477SOL    HW297456   7.159   2.879   9.586
32478SOL     OW97457   6.773   3.654  10.926
32478SOL    HW197458   6.797   3.714  10.850
32478SOL    HW297459   6.780   3.559  10.896
32479SOL     OW97460   5.903   2.113  11.111
32479SOL    HW197461   5.974   2.184  11.117
32479SOL    HW297462   5.815   2.152  11.139
32480SOL     OW97463   7.052   3.279  10.263
32480SOL    HW197464   6.993   3.285  10.343
32480SOL    HW297465   7.037   3.191  10.217
32481SOL     OW97466   7.253   3.576   9.882
32481SOL    HW197467   7.212   3.553   9.794
32481SOL    HW297468   7.235   3.502   9.947
32482SOL     OW97469   6.184   2.591   9.580
32482SOL    HW197470   6.208   2.660   9.512
32482SOL    HW297471   6.106   2.624   9.634
32483SOL     OW97472   6.867   2.207  10.254
32483SOL    HW197473   6.781   2.157  10.241
32483SOL    HW297474   6.929   2.153  10.310
32484SOL     OW97475   7.162   3.524   9.617
32484SOL    HW197476   7.251   3.570   9.620
32484SOL    HW297477   7.141   3.500   9.522
32485SOL     OW97478   6.393   2.467  10.775
32485SOL    HW197479   6.346   2.464  10.864
32485SOL    HW297480   6.342   2.412  10.709
32486SOL     OW97481   6.980   2.331  10.984
32486SOL    HW197482   6.960   2.374  11.072
32486SOL    HW297483   7.058   2.269  10.993
32487SOL     OW97484   6.559   2.752  10.882
32487SOL    HW197485   6.605   2.668  10.853
32487SOL    HW297486   6.503   2.786  10.807
32488SOL     OW97487   6.577   2.272  10.552
32488SOL    HW197488   6.500   2.306  10.606
32488SOL    HW297489   6.543   2.221  10.473
32489SOL     OW97490   6.627   2.563   9.739
32489SOL    HW197491   6.653   2.559   9.835
32489SOL    HW297492   6.542   2.512   9.725
32490SOL     OW97493   5.662   2.673  10.099
32490SOL    HW197494   5.761   2.661  10.108
32490SOL    HW297495   5.638   2.768  10.120
32491SOL     OW97496   5.716   3.683  10.881
32491SOL    HW197497   5.706   3.668  10.980
32491SOL    HW297498   5.630   3.719  10.845
32492SOL     OW97499   6.451   2.210   9.505
32492SOL    HW197500   6.510   2.273   9.456
32492SOL    HW297501   6.470   2.116   9.476
32493SOL     OW97502   7.305   2.447  11.141
32493SOL    HW197503   7.279   2.536  11.105
32493SOL    HW297504   7.303   2.379  11.068
32494SOL     OW97505   6.948   3.006   9.855
32494SOL    HW197506   7.031   2.977   9.807
32494SOL    HW297507   6.899   3.073   9.799
32495SOL     OW97508   6.136   2.058  10.195
32495SOL    HW197509   6.131   2.053  10.295
32495SOL    HW297510   6.138   2.154  10.166
32496SOL     OW97511   6.594   3.318   9.787
32496SOL    HW197512   6.548   3.390   9.735
32496SOL    HW297513   6.590   3.338   9.885
32497SOL     OW97514   5.937   3.663  10.163
32497SOL    HW197515   5.987   3.577  10.169
32497SOL    HW297516   6.002   3.740  10.160
32498SOL     OW97517   7.381   2.928  10.183
32498SOL    HW197518   7.319   2.913  10.107
32498SOL    HW297519   7.329   2.939  10.268
32499SOL     OW97520   6.813   3.412  10.816
32499SOL    HW197521   6.819   3.335  10.880
32499SOL    HW297522   6.761   3.386  10.736
32500SOL     OW97523   5.907   2.805   9.552
32500SOL    HW197524   5.989   2.844   9.510
32500SOL    HW297525   5.880   2.723   9.503
32501SOL     OW97526   7.044   2.597  10.038
32501SOL    HW197527   7.039   2.532  10.113
32501SOL    HW297528   7.124   2.656  10.051
32502SOL     OW97529   6.047   3.128  11.037
32502SOL    HW197530   5.997   3.129  10.951
32502SOL    HW297531   5.984   3.110  11.113
32503SOL     OW97532   6.697   3.638   9.547
32503SOL    HW197533   6.637   3.576   9.597
32503SOL    HW297534   6.728   3.594   9.462
32504SOL     OW97535   5.788   2.147  10.808
32504SOL    HW197536   5.708   2.207  10.795
32504SOL    HW297537   5.778   2.098  10.894
32505SOL     OW97538   7.218   3.239   9.391
32505SOL    HW197539   7.186   3.333   9.381
32505SOL    HW297540   7.142   3.176   9.379
32506SOL     OW97541   6.050   3.605   9.633
32506SOL    HW197542   6.083   3.644   9.719
32506SOL    HW297543   6.126   3.598   9.568
32507SOL     OW97544   6.986   1.969   9.736
32507SOL    HW197545   6.962   1.932   9.646
32507SOL    HW297546   7.085   1.985   9.740
32508SOL     OW97547   5.835   3.647  10.551
32508SOL    HW197548   5.892   3.582  10.601
32508SOL    HW297549   5.819   3.614  10.458
32509SOL     OW97550   6.526   3.560  10.214
32509SOL    HW197551   6.606   3.503  10.235
32509SOL    HW297552   6.477   3.520  10.137
32510SOL     OW97553   5.968   2.562   9.790
32510SOL    HW197554   6.013   2.472   9.787
32510SOL    HW297555   5.874   2.551   9.823
32511SOL     OW97556   7.133   2.084  11.039
32511SOL    HW197557   7.128   2.121  11.131
32511SOL    HW297558   7.061   2.015  11.027
32512SOL     OW97559   6.200   1.984   9.427
32512SOL    HW197560   6.298   1.962   9.434
32512SOL    HW297561   6.169   1.967   9.334
32513SOL     OW97562   6.367   2.126  11.059
32513SOL    HW197563   6.434   2.065  11.102
32513SOL    HW297564   6.294   2.145  11.124
32514SOL     OW97565   6.474   3.376  10.505
32514SOL    HW197566   6.451   3.351  10.411
32514SOL    HW297567   6.535   3.307  10.544
32515SOL     OW97568   6.937   2.452  10.743
32515SOL    HW197569   6.965   2.409  10.828
32515SOL    HW297570   6.962   2.548  10.744
32516SOL     OW97571   6.389   3.264  10.234
32516SOL    HW197572   6.479   3.278  10.192
32516SOL    HW297573   6.318   3.266  10.163
32517SOL     OW97574   6.508   2.365  10.209
32517SOL    HW197575   6.483   2.356  10.113
32517SOL    HW297576   6.556   2.283  10.240
32518SOL     OW97577   6.125   1.926   9.822
32518SOL    HW197578   6.044   1.927   9.880
32518SOL    HW297579   6.128   2.009   9.767
32519SOL     OW97580   7.020   3.050   9.351
32519SOL    HW197581   7.052   2.974   9.408
32519SOL    HW297582   6.928   3.077   9.381
32520SOL     OW97583   5.883   1.897   9.481
32520SOL    HW197584   5.932   1.981   9.460
32520SOL    HW297585   5.945   1.832   9.526
32521SOL     OW97586   6.521   2.098   9.790
32521SOL    HW197587   6.473   2.139   9.712
32521SOL    HW297588   6.620   2.096   9.771
32522SOL     OW97589   6.662   2.545  10.774
32522SOL    HW197590   6.582   2.484  10.777
32522SOL    HW297591   6.743   2.492  10.750
32523SOL     OW97592   6.813   3.432  10.103
32523SOL    HW197593   6.834   3.506  10.038
32523SOL    HW297594   6.881   3.432  10.176
32524SOL     OW97595   6.045   3.014  10.051
32524SOL    HW197596   5.974   2.987  10.116
32524SOL    HW297597   6.019   2.986   9.958
32525SOL     OW97598   6.857   3.659   9.901
32525SOL    HW197599   6.901   3.723   9.837
32525SOL    HW297600   6.807   3.711   9.971
32526SOL     OW97601   5.664   2.418  10.696
32526SOL    HW197602   5.756   2.417  10.655
32526SOL    HW297603   5.658   2.492  10.763
32527SOL     OW97604   6.147   2.084  10.457
32527SOL    HW197605   6.185   2.000  10.494
32527SOL    HW297606   6.059   2.103  10.501
32528SOL     OW97607   6.452   2.316   9.952
32528SOL    HW197608   6.420   2.388   9.890
32528SOL    HW297609   6.476   2.235   9.899
32529SOL     OW97610   6.603   1.901  10.063
32529SOL    HW197611   6.531   1.906   9.994
32529SOL    HW297612   6.579   1.832  10.132
32530SOL     OW97613   7.015   3.035  10.177
32530SOL    HW197614   6.960   2.951  10.170
32530SOL    HW297615   7.041   3.064  10.085
32531SOL     OW97616   7.052   2.452  10.302
32531SOL    HW197617   7.022   2.357  10.309
32531SOL    HW297618   7.125   2.468  10.368
32532SOL     OW97619   7.443   2.695   9.687
32532SOL    HW197620   7.485   2.631   9.751
32532SOL    HW297621   7.405   2.644   9.609
32533SOL     OW97622   6.074   3.247   9.484
32533SOL    HW197623   5.987   3.232   9.531
32533SOL    HW297624   6.057   3.273   9.389
32534SOL     OW97625   7.250   3.142   9.967
32534SOL    HW197626   7.349   3.150   9.981
32534SOL    HW297627   7.205   3.226   9.998
32535SOL     OW97628   6.976   2.437   9.388
32535SOL    HW197629   6.922   2.416   9.469
32535SOL    HW297630   7.067   2.396   9.397
32536SOL     OW97631   6.113   2.118   9.638
32536SOL    HW197632   6.140   2.059   9.563
32536SOL    HW297633   6.113   2.213   9.607
32537SOL     OW97634   7.340   3.085  10.898
32537SOL    HW197635   7.431   3.046  10.885
32537SOL    HW297636   7.348   3.181  10.922
32538SOL     OW97637   6.650   3.209  10.650
32538SOL    HW197638   6.570   3.186  10.705
32538SOL    HW297639   6.733   3.183  10.699
32539SOL     OW97640   7.178   3.491  10.935
32539SOL    HW197641   7.205   3.525  10.845
32539SOL    HW297642   7.257   3.453  10.981
32540SOL     OW97643   6.697   3.057  10.410
32540SOL    HW197644   6.657   3.101  10.491
32540SOL    HW297645   6.656   3.094  10.327
32541SOL     OW97646   7.224   2.961  10.389
32541SOL    HW197647   7.229   3.042  10.448
32541SOL    HW297648   7.138   2.963  10.338
32542SOL     OW97649   6.501   1.951  10.712
32542SOL    HW197650   6.526   1.931  10.617
32542SOL    HW297651   6.573   2.007  10.754
32543SOL     OW97652   6.566   2.978  11.029
32543SOL    HW197653   6.467   2.984  11.039
32543SOL    HW297654   6.589   2.898  10.973
32544SOL     OW97655   6.291   2.912   9.678
32544SOL    HW197656   6.277   2.919   9.777
32544SOL    HW297657   6.375   2.861   9.660
32545SOL     OW97658   5.996   2.675  10.561
32545SOL    HW197659   6.082   2.687  10.611
32545SOL    HW297660   5.954   2.588  10.588
32546SOL     OW97661   6.860   2.248  10.572
32546SOL    HW197662   6.881   2.322  10.636
32546SOL    HW297663   6.771   2.265  10.529
32547SOL     OW97664   5.650   3.426  10.641
32547SOL    HW197665   5.604   3.508  10.607
32547SOL    HW297666   5.748   3.445  10.650
32548SOL     OW97667   5.953   2.962   9.811
32548SOL    HW197668   5.946   3.045   9.755
32548SOL    HW297669   5.957   2.882   9.751
32549SOL     OW97670   6.152   2.399  10.175
32549SOL    HW197671   6.164   2.465  10.101
32549SOL    HW297672   6.198   2.433  10.258
32550SOL     OW97673   6.838   3.210   9.698
32550SOL    HW197674   6.888   3.287   9.738
32550SOL    HW297675   6.743   3.212   9.730
32551SOL     OW97676   6.858   3.307  10.452
32551SOL    HW197677   6.905   3.320  10.539
32551SOL    HW297678   6.792   3.233  10.461
32552SOL     OW97679   7.168   2.501   9.782
32552SOL    HW197680   7.137   2.562   9.855
32552SOL    HW297681   7.218   2.553   9.713
32553SOL     OW97682   5.940   3.372  10.639
32553SOL    HW197683   5.919   3.328  10.552
32553SOL    HW297684   6.037   3.398  10.642
32554SOL     OW97685   5.988   2.613  10.908
32554SOL    HW197686   6.056   2.668  10.861
32554SOL    HW297687   6.028   2.525  10.935
32555SOL     OW97688   7.173   2.641  10.980
32555SOL    HW197689   7.081   2.679  10.975
32555SOL    HW297690   7.233   2.688  10.915
32556SOL     OW97691   6.599   1.967  11.080
32556SOL    HW197692   6.605   2.052  11.028
32556SOL    HW297693   6.631   1.891  11.023
32557SOL     OW97694   6.090   1.912  11.050
32557SOL    HW197695   6.048   1.855  10.980
32557SOL    HW297696   6.024   1.981  11.082
32558SOL     OW97697   6.159   2.732  10.339
32558SOL    HW197698   6.203   2.821  10.330
32558SOL    HW297699   6.096   2.732  10.416
32559SOL     OW97700   6.946   2.724  10.355
32559SOL    HW197701   6.871   2.724  10.289
32559SOL    HW297702   6.983   2.632  10.364
32560SOL     OW97703   6.795   2.387   9.585
32560SOL    HW197704   6.808   2.303   9.639
32560SOL    HW297705   6.766   2.461   9.645
32561SOL     OW97706   5.893   2.075  10.541
32561SOL    HW197707   5.870   2.112  10.631
32561SOL    HW297708   5.863   1.980  10.535
32562SOL     OW97709   5.623   3.172  10.592
32562SOL    HW197710   5.676   3.123  10.660
32562SOL    HW297711   5.645   3.270  10.597
32563SOL     OW97712   6.318   2.496  10.374
32563SOL    HW197713   6.377   2.470  10.298
32563SOL    HW297714   6.290   2.592  10.363
32564SOL     OW97715   7.314   2.797  11.164
32564SOL    HW197716   7.268   2.790  11.075
32564SOL    HW297717   7.252   2.841  11.230
32565SOL     OW97718   5.893   1.925   9.928
32565SOL    HW197719   5.882   2.019   9.961
32565SOL    HW297720   5.888   1.862  10.005
32566SOL     OW97721   7.208   2.229   9.684
32566SOL    HW197722   7.210   2.153   9.748
32566SOL    HW297723   7.160   2.306   9.724
32567SOL     OW97724   6.609   2.628  10.276
32567SOL    HW197725   6.624   2.649  10.372
32567SOL    HW297726   6.579   2.533  10.267
32568SOL     OW97727   6.566   3.435  11.010
32568SOL    HW197728   6.546   3.479  10.922
32568SOL    HW297729   6.605   3.344  10.994
32569SOL     OW97730   7.445   3.380  10.915
32569SOL    HW197731   7.459   3.407  10.820
32569SOL    HW297732   7.528   3.402  10.968
32570SOL     OW97733   5.936   2.760  11.114
32570SOL    HW197734   6.012   2.804  11.162
32570SOL    HW297735   5.971   2.713  11.032
32571SOL     OW97736   7.126   2.136   9.435
32571SOL    HW197737   7.065   2.061   9.458
32571SOL    HW297738   7.148   2.188   9.518
32572SOL     OW97739   6.889   2.700   9.352
32572SOL    HW197740   6.923   2.607   9.367
32572SOL    HW297741   6.907   2.727   9.257
32573SOL     OW97742   6.654   3.195  10.159
32573SOL    HW197743   6.661   3.111  10.104
32573SOL    HW297744   6.716   3.264  10.123
32574SOL     OW97745   5.905   2.672  10.259
32574SOL    HW197746   5.998   2.708  10.264
32574SOL    HW297747   5.899   2.587  10.311
32575SOL     OW97748   5.925   2.371  10.316
32575SOL    HW197749   5.873   2.288  10.299
32575SOL    HW297750   6.002   2.376  10.252
32576SOL     OW97751   6.724   2.242  10.988
32576SOL    HW197752   6.679   2.305  11.052
32576SOL    HW297753   6.817   2.273  10.971
32577SOL     OW97754   6.746   2.069  10.787
32577SOL    HW197755   6.746   2.133  10.864
32577SOL    HW297756   6.774   2.117  10.704
32578SOL     OW97757   5.594   3.188   9.510
32578SOL    HW197758   5.501   3.209   9.479
32578SOL    HW297759   5.604   3.089   9.523
32579SOL     OW97760   5.674   3.663  10.237
32579SOL    HW197761   5.632   3.577  10.210
32579SOL    HW297762   5.768   3.666  10.203
32580SOL     OW97763   6.090   3.430  10.220
32580SOL    HW197764   6.156   3.504  10.229
32580SOL    HW297765   6.134   3.351  10.178
32581SOL     OW97766   6.588   2.658  10.548
32581SOL    HW197767   6.629   2.626  10.634
32581SOL    HW297768   6.492   2.631  10.545
32582SOL     OW97769   5.626   2.406  10.424
32582SOL    HW197770   5.711   2.373  10.383
32582SOL    HW297771   5.639   2.421  10.522
32583SOL     OW97772   5.775   2.382  11.032
32583SOL    HW197773   5.834   2.342  10.962
32583SOL    HW297774   5.717   2.453  10.991
32584SOL     OW97775   6.955   2.812  10.970
32584SOL    HW197776   6.994   2.901  10.990
32584SOL    HW297777   6.965   2.792  10.873
32585SOL     OW97778   6.401   2.434   9.635
32585SOL    HW197779   6.408   2.345   9.589
32585SOL    HW297780   6.307   2.468   9.627
32586SOL     OW97781   7.243   2.466  10.516
32586SOL    HW197782   7.205   2.397  10.578
32586SOL    HW297783   7.325   2.430  10.472
32587SOL     OW97784   5.838   3.426  11.054
32587SOL    HW197785   5.808   3.483  11.130
32587SOL    HW297786   5.831   3.329  11.080
32588SOL     OW97787   6.257   2.326  10.579
32588SOL    HW197788   6.223   2.237  10.549
32588SOL    HW297789   6.283   2.380  10.499
32589SOL     OW97790   6.516   3.540  10.775
32589SOL    HW197791   6.492   3.522  10.680
32589SOL    HW297792   6.546   3.634  10.785
32590SOL     OW97793   6.059   2.362   9.501
32590SOL    HW197794   6.120   2.442   9.505
32590SOL    HW297795   5.964   2.393   9.508
32591SOL     OW97796   5.745   2.999  10.776
32591SOL    HW197797   5.767   2.938  10.852
32591SOL    HW297798   5.755   2.950  10.690
32592SOL     OW97799   6.933   2.921  10.544
32592SOL    HW197800   6.957   2.858  10.470
32592SOL    HW297801   6.843   2.961  10.526
32593SOL     OW97802   6.888   2.717   9.619
32593SOL    HW197803   6.802   2.686   9.661
32593SOL    HW297804   6.884   2.703   9.520
32594SOL     OW97805   7.345   3.609  10.464
32594SOL    HW197806   7.406   3.639  10.391
32594SOL    HW297807   7.307   3.520  10.442
32595SOL     OW97808   6.838   3.593  10.438
32595SOL    HW197809   6.922   3.598  10.384
32595SOL    HW297810   6.815   3.497  10.456
32596SOL     OW97811   5.669   3.120  10.332
32596SOL    HW197812   5.664   3.119  10.432
32596SOL    HW297813   5.586   3.079  10.294
32597SOL     OW97814   6.274   3.524  11.026
32597SOL    HW197815   6.218   3.605  11.035
32597SOL    HW297816   6.326   3.528  10.940
32598SOL     OW97817   7.312   1.997   9.833
32598SOL    HW197818   7.385   1.980   9.766
32598SOL    HW297819   7.281   1.910   9.871
32599SOL     OW97820   6.974   3.435   9.787
32599SOL    HW197821   7.041   3.447   9.713
32599SOL    HW297822   6.934   3.524   9.810
32600SOL     OW97823   5.716   3.656  11.161
32600SOL    HW197824   5.675   3.582  11.214
32600SOL    HW297825   5.780   3.707  11.219
32601SOL     OW97826   6.866   2.789   9.982
32601SOL    HW197827   6.926   2.708   9.984
32601SOL    HW297828   6.906   2.858   9.922
32602SOL     OW97829   6.416   3.135  10.732
32602SOL    HW197830   6.411   3.168  10.827
32602SOL    HW297831   6.330   3.154  10.686
32603SOL     OW97832   6.258   3.478   9.464
32603SOL    HW197833   6.267   3.488   9.365
32603SOL    HW297834   6.218   3.389   9.485
32604SOL     OW97835   7.236   3.582  10.704
32604SOL    HW197836   7.289   3.592  10.620
32604SOL    HW297837   7.209   3.672  10.738
32605SOL     OW97838   7.427   2.037  10.273
32605SOL    HW197839   7.466   1.952  10.237
32605SOL    HW297840   7.329   2.039  10.254
32606SOL     OW97841   5.849   2.188  10.030
32606SOL    HW197842   5.770   2.239   9.996
32606SOL    HW297843   5.840   2.173  10.128
32607SOL     OW97844   6.780   3.474   9.341
32607SOL    HW197845   6.786   3.381   9.378
32607SOL    HW297846   6.721   3.474   9.261
32608SOL     OW97847   6.408   2.864  10.682
32608SOL    HW197848   6.448   2.863  10.590
32608SOL    HW297849   6.418   2.956  10.722
32609SOL     OW97850   6.502   2.772   9.601
32609SOL    HW197851   6.565   2.810   9.533
32609SOL    HW297852   6.542   2.689   9.640
32610SOL     OW97853   7.090   3.469   9.354
32610SOL    HW197854   6.998   3.506   9.361
32610SOL    HW297855   7.128   3.489   9.264
32611SOL     OW97856   5.958   3.150  10.800
32611SOL    HW197857   5.945   3.243  10.766
32611SOL    HW297858   5.874   3.098  10.787
32612SOL     OW97859   7.200   3.154  10.599
32612SOL    HW197860   7.260   3.157  10.679
32612SOL    HW297861   7.125   3.218  10.612
32613SOL     OW97862   6.625   2.960  10.006
32613SOL    HW197863   6.555   2.913  10.060
32613SOL    HW297864   6.684   2.892   9.963
32614SOL     OW97865   6.600   2.098  10.281
32614SOL    HW197866   6.592   2.062  10.188
32614SOL    HW297867   6.598   2.022  10.346
32615SOL     OW97868   6.176   3.349   9.801
32615SOL    HW197869   6.218   3.291   9.731
32615SOL    HW297870   6.132   3.428   9.757
32616SOL     OW97871   7.295   2.247  10.691
32616SOL    HW197872   7.368   2.316  10.695
32616SOL    HW297873   7.323   2.172  10.632
32617SOL     OW97874   5.841   3.210   9.600
32617SOL    HW197875   5.745   3.211   9.573
32617SOL    HW297876   5.853   3.263   9.684
32618SOL     OW97877   5.691   2.875  11.036
32618SOL    HW197878   5.614   2.842  11.090
32618SOL    HW297879   5.776   2.845  11.078
32619SOL     OW97880   6.258   2.065  10.799
32619SOL    HW197881   6.348   2.049  10.759
32619SOL    HW297882   6.266   2.070  10.898
32620SOL     OW97883   5.661   2.207   9.343
32620SOL    HW197884   5.569   2.179   9.314
32620SOL    HW297885   5.692   2.284   9.287
32621SOL     OW97886   7.026   2.718  10.708
32621SOL    HW197887   6.969   2.770  10.645
32621SOL    HW297888   7.122   2.730  10.684
32622SOL     OW97889   5.658   2.028   9.628
32622SOL    HW197890   5.641   2.111   9.574
32622SOL    HW297891   5.748   1.991   9.606
32623SOL     OW97892   6.769   3.197   9.429
32623SOL    HW197893   6.670   3.186   9.431
32623SOL    HW297894   6.803   3.212   9.522
32624SOL     OW97895   6.199   2.704  10.741
32624SOL    HW197896   6.255   2.785  10.724
32624SOL    HW297897   6.258   2.624  10.744
32625SOL     OW97898   7.079   3.629  10.269
32625SOL    HW197899   7.112   3.693  10.200
32625SOL    HW297900   7.145   3.623  10.344
32626SOL     OW97901   6.302   2.427  11.018
32626SOL    HW197902   6.321   2.492  11.092
32626SOL    HW297903   6.362   2.347  11.027
32627SOL     OW97904   7.036   3.082  10.943
32627SOL    HW197905   7.027   3.072  11.042
32627SOL    HW297906   7.132   3.075  10.917
32628SOL     OW97907   5.976   3.603  10.870
32628SOL    HW197908   5.885   3.644  10.868
32628SOL    HW297909   5.969   3.509  10.902
32629SOL     OW97910   7.260   2.745  10.564
32629SOL    HW197911   7.233   2.656  10.527
32629SOL    HW297912   7.261   2.813  10.491
32630SOL     OW97913   6.811   2.187   9.759
32630SOL    HW197914   6.876   2.113   9.748
32630SOL    HW297915   6.831   2.237   9.843
32631SOL     OW97916   6.180   2.607   9.962
32631SOL    HW197917   6.230   2.692   9.943
32631SOL    HW297918   6.092   2.609   9.914
32632SOL     OW97919   7.363   2.204  10.952
32632SOL    HW197920   7.346   2.235  10.858
32632SOL    HW297921   7.279   2.167  10.990
32633SOL     OW97922   7.316   2.796  10.827
32633SOL    HW197923   7.354   2.887  10.842
32633SOL    HW297924   7.308   2.779  10.728
32634SOL     OW97925   6.445   3.236   9.326
32634SOL    HW197926   6.399   3.251   9.414
32634SOL    HW297927   6.489   3.321   9.296
32635SOL     OW97928   6.247   3.652  10.263
32635SOL    HW197929   6.201   3.740  10.250
32635SOL    HW297930   6.346   3.664  10.256
32636SOL     OW97931   6.445   2.818  10.171
32636SOL    HW197932   6.499   2.749  10.219
32636SOL    HW297933   6.413   2.887  10.237
32637SOL     OW97934   6.669   2.846   9.397
32637SOL    HW197935   6.646   2.899   9.315
32637SOL    HW297936   6.750   2.790   9.378
32638SOL     OW97937   7.447   3.431  10.161
32638SOL    HW197938   7.376   3.419  10.091
32638SOL    HW297939   7.448   3.352  10.221
32639SOL     OW97940   5.807   3.176  11.154
32639SOL    HW197941   5.742   3.103  11.133
32639SOL    HW297942   5.811   3.190  11.252
32640SOL     OW97943   5.665   3.102   9.963
32640SOL    HW197944   5.664   3.055  10.051
32640SOL    HW297945   5.747   3.074   9.912
32641SOL     OW97946   6.258   3.253  10.934
32641SOL    HW197947   6.180   3.203  10.972
32641SOL    HW297948   6.255   3.348  10.965
32642SOL     OW97949   7.410   2.054  10.537
32642SOL    HW197950   7.406   1.964  10.581
32642SOL    HW297951   7.413   2.043  10.438
32643SOL     OW97952   6.014   2.286   9.830
32643SOL    HW197953   6.044   2.214   9.768
32643SOL    HW297954   5.975   2.246   9.913
32644SOL     OW97955   7.291   3.349  10.414
32644SOL    HW197956   7.198   3.324  10.387
32644SOL    HW297957   7.317   3.299  10.496
32645SOL     OW97958   5.903   2.409  10.590
32645SOL    HW197959   5.941   2.350  10.662
32645SOL    HW297960   5.943   2.383  10.502
32646SOL     OW97961   6.398   3.448   9.997
32646SOL    HW197962   6.430   3.458   9.903
32646SOL    HW297963   6.319   3.386   9.999
32647SOL     OW97964   7.010   2.076  10.422
32647SOL    HW197965   7.062   2.011  10.477
32647SOL    HW297966   6.961   2.139  10.483
32648SOL     OW97967   6.587   1.896  10.464
32648SOL    HW197968   6.524   1.824  10.433
32648SOL    HW297969   6.680   1.860  10.464
32649SOL     OW97970   6.356   3.192   9.611
32649SOL    HW197971   6.310   3.105   9.628
32649SOL    HW297972   6.447   3.189   9.652
32650SOL     OW97973   6.204   3.429  10.594
32650SOL    HW197974   6.199   3.511  10.651
32650SOL    HW297975   6.293   3.426  10.549
32651SOL     OW97976   6.938   1.914   9.478
32651SOL    HW197977   6.973   1.873   9.394
32651SOL    HW297978   6.848   1.876   9.498
32652SOL     OW97979   6.886   2.315  10.001
32652SOL    HW197980   6.827   2.395  10.005
32652SOL    HW297981   6.901   2.280  10.094
32653SOL     OW97982   7.179   2.083  10.192
32653SOL    HW197983   7.095   2.082  10.246
32653SOL    HW297984   7.181   2.166  10.136
32654SOL     OW97985   5.625   2.939   9.610
32654SOL    HW197986   5.724   2.928   9.601
32654SOL    HW297987   5.585   2.853   9.642
32655SOL     OW97988   6.461   3.508   9.647
32655SOL    HW197989   6.384   3.473   9.593
32655SOL    HW297990   6.429   3.579   9.709
32656SOL     OW97991   5.816   2.490  11.285
32656SOL    HW197992   5.723   2.488  11.322
32656SOL    HW297993   5.817   2.451  11.193
32657SOL     OW97994   5.811   2.137  12.168
32657SOL    HW197995   5.846   2.120  12.260
32657SOL    HW297996   5.723   2.092  12.156
32658SOL     OW97997   5.605   2.230  11.819
32658SOL    HW197998   5.523   2.273  11.858
32658SOL    HW297999   5.577   2.157  11.756
32659SOL     OW98000   6.155   3.137  12.337
32659SOL    HW198001   6.062   3.130  12.300
32659SOL    HW298002   6.166   3.226  12.381
32660SOL     OW98003   7.141   3.373  11.875
32660SOL    HW198004   7.084   3.357  11.956
32660SOL    HW298005   7.082   3.383  11.795
32661SOL     OW98006   6.721   2.565  11.889
32661SOL    HW198007   6.778   2.643  11.864
32661SOL    HW298008   6.661   2.591  11.965
32662SOL     OW98009   7.341   2.469  11.403
32662SOL    HW198010   7.329   2.456  11.304
32662SOL    HW298011   7.311   2.388  11.452
32663SOL     OW98012   6.354   3.006  12.195
32663SOL    HW198013   6.276   3.023  12.255
32663SOL    HW298014   6.388   3.093  12.159
32664SOL     OW98015   6.271   2.874  11.837
32664SOL    HW198016   6.340   2.858  11.907
32664SOL    HW298017   6.198   2.931  11.875
32665SOL     OW98018   5.921   3.297  12.233
32665SOL    HW198019   5.843   3.266  12.180
32665SOL    HW298020   5.979   3.355  12.176
32666SOL     OW98021   7.046   3.367  12.511
32666SOL    HW198022   7.070   3.461  12.537
32666SOL    HW298023   7.030   3.313  12.593
32667SOL     OW98024   6.024   2.254  12.671
32667SOL    HW198025   6.106   2.198  12.680
32667SOL    HW298026   5.943   2.196  12.675
32668SOL     OW98027   7.189   2.309  11.909
32668SOL    HW198028   7.115   2.355  11.859
32668SOL    HW298029   7.240   2.377  11.962
32669SOL     OW98030   5.817   3.575  11.655
32669SOL    HW198031   5.851   3.652  11.709
32669SOL    HW298032   5.861   3.575  11.565
32670SOL     OW98033   5.816   3.296  11.710
32670SOL    HW198034   5.790   3.392  11.710
32670SOL    HW298035   5.745   3.242  11.755
32671SOL     OW98036   5.826   2.953  12.058
32671SOL    HW198037   5.840   2.869  12.110
32671SOL    HW298038   5.771   3.017  12.113
32672SOL     OW98039   6.206   3.648  12.611
32672SOL    HW198040   6.114   3.631  12.646
32672SOL    HW298041   6.234   3.740  12.637
32673SOL     OW98042   6.192   2.826  11.295
32673SOL    HW198043   6.199   2.910  11.241
32673SOL    HW298044   6.238   2.839  11.383
32674SOL     OW98045   7.180   1.976  12.652
32674SOL    HW198046   7.162   2.043  12.580
32674SOL    HW298047   7.177   2.022  12.741
32675SOL     OW98048   5.708   2.505  11.735
32675SOL    HW198049   5.663   2.417  11.752
32675SOL    HW298050   5.707   2.559  11.819
32676SOL     OW98051   7.428   3.629  11.531
32676SOL    HW198052   7.482   3.600  11.611
32676SOL    HW298053   7.458   3.719  11.502
32677SOL     OW98054   5.613   3.458  11.289
32677SOL    HW198055   5.594   3.362  11.310
32677SOL    HW298056   5.580   3.516  11.364
32678SOL     OW98057   7.275   2.784  11.784
32678SOL    HW198058   7.370   2.755  11.792
32678SOL    HW298059   7.267   2.849  11.709
32679SOL     OW98060   7.227   2.970  11.604
32679SOL    HW198061   7.313   2.972  11.552
32679SOL    HW298062   7.241   3.017  11.692
32680SOL     OW98063   5.699   2.599  12.769
32680SOL    HW198064   5.787   2.586  12.814
32680SOL    HW298065   5.686   2.696  12.747
32681SOL     OW98066   6.199   3.227  11.898
32681SOL    HW198067   6.150   3.140  11.907
32681SOL    HW298068   6.176   3.270  11.811
32682SOL     OW98069   6.879   3.090  12.595
32682SOL    HW198070   6.916   3.017  12.537
32682SOL    HW298071   6.931   3.095  12.680
32683SOL     OW98072   6.395   1.866  11.674
32683SOL    HW198073   6.435   1.957  11.665
32683SOL    HW298074   6.295   1.874  11.680
32684SOL     OW98075   5.783   2.838  12.436
32684SOL    HW198076   5.872   2.793  12.422
32684SOL    HW298077   5.710   2.773  12.417
32685SOL     OW98078   7.111   2.861  11.362
32685SOL    HW198079   7.048   2.785  11.375
32685SOL    HW298080   7.159   2.879  11.448
32686SOL     OW98081   7.052   3.279  12.125
32686SOL    HW198082   6.993   3.285  12.205
32686SOL    HW298083   7.037   3.191  12.079
32687SOL     OW98084   7.253   3.576  11.744
32687SOL    HW198085   7.212   3.553  11.656
32687SOL    HW298086   7.235   3.502  11.809
32688SOL     OW98087   6.184   2.591  11.442
32688SOL    HW198088   6.208   2.660  11.374
32688SOL    HW298089   6.106   2.624  11.496
32689SOL     OW98090   6.867   2.207  12.116
32689SOL    HW198091   6.781   2.157  12.103
32689SOL    HW298092   6.929   2.153  12.172
32690SOL     OW98093   7.162   3.524  11.479
32690SOL    HW198094   7.251   3.570  11.482
32690SOL    HW298095   7.141   3.500  11.384
32691SOL     OW98096   6.393   2.467  12.637
32691SOL    HW198097   6.346   2.464  12.726
32691SOL    HW298098   6.342   2.412  12.571
32692SOL     OW98099   6.559   2.752  12.744
32692SOL    HW198100   6.605   2.668  12.715
32692SOL    HW298101   6.503   2.786  12.669
32693SOL     OW98102   6.577   2.272  12.414
32693SOL    HW198103   6.500   2.306  12.468
32693SOL    HW298104   6.543   2.221  12.335
32694SOL     OW98105   6.627   2.563  11.601
32694SOL    HW198106   6.653   2.559  11.697
32694SOL    HW298107   6.542   2.512  11.587
32695SOL     OW98108   5.662   2.673  11.961
32695SOL    HW198109   5.761   2.661  11.970
32695SOL    HW298110   5.638   2.768  11.982
32696SOL     OW98111   5.716   3.683  12.743
32696SOL    HW198112   5.706   3.668  12.842
32696SOL    HW298113   5.630   3.719  12.707
32697SOL     OW98114   6.451   2.210  11.367
32697SOL    HW198115   6.510   2.273  11.318
32697SOL    HW298116   6.470   2.116  11.338
32698SOL     OW98117   6.948   3.006  11.717
32698SOL    HW198118   7.031   2.977  11.669
32698SOL    HW298119   6.899   3.073  11.661
32699SOL     OW98120   6.136   2.058  12.057
32699SOL    HW198121   6.131   2.053  12.157
32699SOL    HW298122   6.138   2.154  12.028
32700SOL     OW98123   6.594   3.318  11.649
32700SOL    HW198124   6.548   3.390  11.597
32700SOL    HW298125   6.590   3.338  11.747
32701SOL     OW98126   5.937   3.663  12.025
32701SOL    HW198127   5.987   3.577  12.031
32701SOL    HW298128   6.002   3.740  12.022
32702SOL     OW98129   7.381   2.928  12.045
32702SOL    HW198130   7.319   2.913  11.969
32702SOL    HW298131   7.329   2.939  12.130
32703SOL     OW98132   6.813   3.412  12.678
32703SOL    HW198133   6.819   3.335  12.742
32703SOL    HW298134   6.761   3.386  12.598
32704SOL     OW98135   5.907   2.805  11.414
32704SOL    HW198136   5.989   2.844  11.372
32704SOL    HW298137   5.880   2.723  11.365
32705SOL     OW98138   7.044   2.597  11.900
32705SOL    HW198139   7.039   2.532  11.975
32705SOL    HW298140   7.124   2.656  11.913
32706SOL     OW98141   6.697   3.638  11.409
32706SOL    HW198142   6.637   3.576  11.459
32706SOL    HW298143   6.728   3.594  11.324
32707SOL     OW98144   5.788   2.147  12.670
32707SOL    HW198145   5.708   2.207  12.657
32707SOL    HW298146   5.778   2.098  12.756
32708SOL     OW98147   7.218   3.239  11.253
32708SOL    HW198148   7.186   3.333  11.243
32708SOL    HW298149   7.142   3.176  11.241
32709SOL     OW98150   6.050   3.605  11.495
32709SOL    HW198151   6.083   3.644  11.581
32709SOL    HW298152   6.126   3.598  11.430
32710SOL     OW98153   6.986   1.969  11.598
32710SOL    HW198154   6.962   1.932  11.508
32710SOL    HW298155   7.085   1.985  11.602
32711SOL     OW98156   5.835   3.647  12.413
32711SOL    HW198157   5.892   3.582  12.463
32711SOL    HW298158   5.819   3.614  12.320
32712SOL     OW98159   6.526   3.560  12.076
32712SOL    HW198160   6.606   3.503  12.097
32712SOL    HW298161   6.477   3.520  11.999
32713SOL     OW98162   5.968   2.562  11.652
32713SOL    HW198163   6.013   2.472  11.649
32713SOL    HW298164   5.874   2.551  11.685
32714SOL     OW98165   6.200   1.984  11.289
32714SOL    HW198166   6.298   1.962  11.296
32714SOL    HW298167   6.169   1.967  11.196
32715SOL     OW98168   6.474   3.376  12.367
32715SOL    HW198169   6.451   3.351  12.273
32715SOL    HW298170   6.535   3.307  12.406
32716SOL     OW98171   6.937   2.452  12.605
32716SOL    HW198172   6.965   2.409  12.690
32716SOL    HW298173   6.962   2.548  12.606
32717SOL     OW98174   6.389   3.264  12.096
32717SOL    HW198175   6.479   3.278  12.054
32717SOL    HW298176   6.318   3.266  12.025
32718SOL     OW98177   6.508   2.365  12.071
32718SOL    HW198178   6.483   2.356  11.975
32718SOL    HW298179   6.556   2.283  12.102
32719SOL     OW98180   6.125   1.926  11.684
32719SOL    HW198181   6.044   1.927  11.742
32719SOL    HW298182   6.128   2.009  11.629
32720SOL     OW98183   7.020   3.050  11.213
32720SOL    HW198184   7.052   2.974  11.270
32720SOL    HW298185   6.928   3.077  11.243
32721SOL     OW98186   5.883   1.897  11.343
32721SOL    HW198187   5.932   1.981  11.322
32721SOL    HW298188   5.945   1.832  11.388
32722SOL     OW98189   6.521   2.098  11.652
32722SOL    HW198190   6.473   2.139  11.574
32722SOL    HW298191   6.620   2.096  11.633
32723SOL     OW98192   6.662   2.545  12.636
32723SOL    HW198193   6.582   2.484  12.639
32723SOL    HW298194   6.743   2.492  12.612
32724SOL     OW98195   6.813   3.432  11.965
32724SOL    HW198196   6.834   3.506  11.900
32724SOL    HW298197   6.881   3.432  12.038
32725SOL     OW98198   6.045   3.014  11.913
32725SOL    HW198199   5.974   2.987  11.978
32725SOL    HW298200   6.019   2.986  11.820
32726SOL     OW98201   6.857   3.659  11.763
32726SOL    HW198202   6.901   3.723  11.699
32726SOL    HW298203   6.807   3.711  11.833
32727SOL     OW98204   6.618   2.411  11.188
32727SOL    HW198205   6.577   2.493  11.149
32727SOL    HW298206   6.682   2.437  11.261
32728SOL     OW98207   5.664   2.418  12.558
32728SOL    HW198208   5.756   2.417  12.517
32728SOL    HW298209   5.658   2.492  12.625
32729SOL     OW98210   6.147   2.084  12.319
32729SOL    HW198211   6.185   2.000  12.356
32729SOL    HW298212   6.059   2.103  12.363
32730SOL     OW98213   6.452   2.316  11.814
32730SOL    HW198214   6.420   2.388  11.752
32730SOL    HW298215   6.476   2.235  11.761
32731SOL     OW98216   6.603   1.901  11.925
32731SOL    HW198217   6.531   1.906  11.856
32731SOL    HW298218   6.579   1.832  11.994
32732SOL     OW98219   7.015   3.035  12.039
32732SOL    HW198220   6.960   2.951  12.032
32732SOL    HW298221   7.041   3.064  11.947
32733SOL     OW98222   7.052   2.452  12.164
32733SOL    HW198223   7.022   2.357  12.171
32733SOL    HW298224   7.125   2.468  12.230
32734SOL     OW98225   7.443   2.695  11.549
32734SOL    HW198226   7.485   2.631  11.613
32734SOL    HW298227   7.405   2.644  11.471
32735SOL     OW98228   6.074   3.247  11.346
32735SOL    HW198229   5.987   3.232  11.393
32735SOL    HW298230   6.057   3.273  11.251
32736SOL     OW98231   7.250   3.142  11.829
32736SOL    HW198232   7.349   3.150  11.843
32736SOL    HW298233   7.205   3.226  11.860
32737SOL     OW98234   6.976   2.437  11.250
32737SOL    HW198235   6.922   2.416  11.331
32737SOL    HW298236   7.067   2.396  11.259
32738SOL     OW98237   6.113   2.118  11.500
32738SOL    HW198238   6.140   2.059  11.425
32738SOL    HW298239   6.113   2.213  11.469
32739SOL     OW98240   7.340   3.085  12.760
32739SOL    HW198241   7.431   3.046  12.747
32739SOL    HW298242   7.348   3.181  12.784
32740SOL     OW98243   6.650   3.209  12.512
32740SOL    HW198244   6.570   3.186  12.567
32740SOL    HW298245   6.733   3.183  12.561
32741SOL     OW98246   6.697   3.057  12.272
32741SOL    HW198247   6.657   3.101  12.353
32741SOL    HW298248   6.656   3.094  12.189
32742SOL     OW98249   7.224   2.961  12.251
32742SOL    HW198250   7.229   3.042  12.310
32742SOL    HW298251   7.138   2.963  12.200
32743SOL     OW98252   6.501   1.951  12.574
32743SOL    HW198253   6.526   1.931  12.479
32743SOL    HW298254   6.573   2.007  12.616
32744SOL     OW98255   6.291   2.912  11.540
32744SOL    HW198256   6.277   2.919  11.639
32744SOL    HW298257   6.375   2.861  11.522
32745SOL     OW98258   5.996   2.675  12.423
32745SOL    HW198259   6.082   2.687  12.473
32745SOL    HW298260   5.954   2.588  12.450
32746SOL     OW98261   6.860   2.248  12.434
32746SOL    HW198262   6.881   2.322  12.498
32746SOL    HW298263   6.771   2.265  12.391
32747SOL     OW98264   5.650   3.426  12.503
32747SOL    HW198265   5.604   3.508  12.469
32747SOL    HW298266   5.748   3.445  12.512
32748SOL     OW98267   5.953   2.962  11.673
32748SOL    HW198268   5.946   3.045  11.617
32748SOL    HW298269   5.957   2.882  11.613
32749SOL     OW98270   6.152   2.399  12.037
32749SOL    HW198271   6.164   2.465  11.963
32749SOL    HW298272   6.198   2.433  12.120
32750SOL     OW98273   6.838   3.210  11.560
32750SOL    HW198274   6.888   3.287  11.600
32750SOL    HW298275   6.743   3.212  11.592
32751SOL     OW98276   6.858   3.307  12.314
32751SOL    HW198277   6.905   3.320  12.401
32751SOL    HW298278   6.792   3.233  12.323
32752SOL     OW98279   7.168   2.501  11.644
32752SOL    HW198280   7.137   2.562  11.717
32752SOL    HW298281   7.218   2.553  11.575
32753SOL     OW98282   5.940   3.372  12.501
32753SOL    HW198283   5.919   3.328  12.414
32753SOL    HW298284   6.037   3.398  12.504
32754SOL     OW98285   5.988   2.613  12.770
32754SOL    HW198286   6.056   2.668  12.723
32754SOL    HW298287   6.028   2.525  12.797
32755SOL     OW98288   7.173   2.641  12.842
32755SOL    HW198289   7.081   2.679  12.837
32755SOL    HW298290   7.233   2.688  12.777
32756SOL     OW98291   6.159   2.732  12.201
32756SOL    HW198292   6.203   2.821  12.192
32756SOL    HW298293   6.096   2.732  12.278
32757SOL     OW98294   6.946   2.724  12.217
32757SOL    HW198295   6.871   2.724  12.151
32757SOL    HW298296   6.983   2.632  12.226
32758SOL     OW98297   6.795   2.387  11.447
32758SOL    HW198298   6.808   2.303  11.501
32758SOL    HW298299   6.766   2.461  11.507
32759SOL     OW98300   5.893   2.075  12.403
32759SOL    HW198301   5.870   2.112  12.493
32759SOL    HW298302   5.863   1.980  12.397
32760SOL     OW98303   5.623   3.172  12.454
32760SOL    HW198304   5.676   3.123  12.522
32760SOL    HW298305   5.645   3.270  12.459
32761SOL     OW98306   6.318   2.496  12.236
32761SOL    HW198307   6.377   2.470  12.160
32761SOL    HW298308   6.290   2.592  12.225
32762SOL     OW98309   5.893   1.925  11.790
32762SOL    HW198310   5.882   2.019  11.823
32762SOL    HW298311   5.888   1.862  11.867
32763SOL     OW98312   7.208   2.229  11.546
32763SOL    HW198313   7.210   2.153  11.610
32763SOL    HW298314   7.160   2.306  11.586
32764SOL     OW98315   6.609   2.628  12.138
32764SOL    HW198316   6.624   2.649  12.234
32764SOL    HW298317   6.579   2.533  12.129
32765SOL     OW98318   7.126   2.136  11.297
32765SOL    HW198319   7.065   2.061  11.320
32765SOL    HW298320   7.148   2.188  11.380
32766SOL     OW98321   6.889   2.700  11.214
32766SOL    HW198322   6.923   2.607  11.229
32766SOL    HW298323   6.907   2.727  11.119
32767SOL     OW98324   6.654   3.195  12.021
32767SOL    HW198325   6.661   3.111  11.966
32767SOL    HW298326   6.716   3.264  11.985
32768SOL     OW98327   5.905   2.672  12.121
32768SOL    HW198328   5.998   2.708  12.126
32768SOL    HW298329   5.899   2.587  12.173
32769SOL     OW98330   5.925   2.371  12.178
32769SOL    HW198331   5.873   2.288  12.161
32769SOL    HW298332   6.002   2.376  12.114
32770SOL     OW98333   6.746   2.069  12.649
32770SOL    HW198334   6.746   2.133  12.726
32770SOL    HW298335   6.774   2.117  12.566
32771SOL     OW98336   5.594   3.188  11.372
32771SOL    HW198337   5.501   3.209  11.341
32771SOL    HW298338   5.604   3.089  11.385
32772SOL     OW98339   5.674   3.663  12.099
32772SOL    HW198340   5.632   3.577  12.072
32772SOL    HW298341   5.768   3.666  12.065
32773SOL     OW98342   6.090   3.430  12.082
32773SOL    HW198343   6.156   3.504  12.091
32773SOL    HW298344   6.134   3.351  12.040
32774SOL     OW98345   6.588   2.658  12.410
32774SOL    HW198346   6.629   2.626  12.496
32774SOL    HW298347   6.492   2.631  12.407
32775SOL     OW98348   5.626   2.406  12.286
32775SOL    HW198349   5.711   2.373  12.245
32775SOL    HW298350   5.639   2.421  12.384
32776SOL     OW98351   6.401   2.434  11.497
32776SOL    HW198352   6.408   2.345  11.451
32776SOL    HW298353   6.307   2.468  11.489
32777SOL     OW98354   7.243   2.466  12.378
32777SOL    HW198355   7.205   2.397  12.440
32777SOL    HW298356   7.325   2.430  12.334
32778SOL     OW98357   5.838   3.426  12.916
32778SOL    HW198358   5.808   3.483  12.992
32778SOL    HW298359   5.831   3.329  12.942
32779SOL     OW98360   6.257   2.326  12.441
32779SOL    HW198361   6.223   2.237  12.411
32779SOL    HW298362   6.283   2.380  12.361
32780SOL     OW98363   6.516   3.540  12.637
32780SOL    HW198364   6.492   3.522  12.542
32780SOL    HW298365   6.546   3.634  12.647
32781SOL     OW98366   6.059   2.362  11.363
32781SOL    HW198367   6.120   2.442  11.367
32781SOL    HW298368   5.964   2.393  11.370
32782SOL     OW98369   5.745   2.999  12.638
32782SOL    HW198370   5.767   2.938  12.714
32782SOL    HW298371   5.755   2.950  12.552
32783SOL     OW98372   6.933   2.921  12.406
32783SOL    HW198373   6.957   2.858  12.332
32783SOL    HW298374   6.843   2.961  12.388
32784SOL     OW98375   6.888   2.717  11.481
32784SOL    HW198376   6.802   2.686  11.523
32784SOL    HW298377   6.884   2.703  11.382
32785SOL     OW98378   7.345   3.609  12.326
32785SOL    HW198379   7.406   3.639  12.253
32785SOL    HW298380   7.307   3.520  12.304
32786SOL     OW98381   6.838   3.593  12.300
32786SOL    HW198382   6.922   3.598  12.246
32786SOL    HW298383   6.815   3.497  12.318
32787SOL     OW98384   5.669   3.120  12.194
32787SOL    HW198385   5.664   3.119  12.294
32787SOL    HW298386   5.586   3.079  12.156
32788SOL     OW98387   7.312   1.997  11.695
32788SOL    HW198388   7.385   1.980  11.628
32788SOL    HW298389   7.281   1.910  11.733
32789SOL     OW98390   6.974   3.435  11.649
32789SOL    HW198391   7.041   3.447  11.575
32789SOL    HW298392   6.934   3.524  11.672
32790SOL     OW98393   6.866   2.789  11.844
32790SOL    HW198394   6.926   2.708  11.846
32790SOL    HW298395   6.906   2.858  11.784
32791SOL     OW98396   6.416   3.135  12.594
32791SOL    HW198397   6.411   3.168  12.689
32791SOL    HW298398   6.330   3.154  12.548
32792SOL     OW98399   6.258   3.478  11.326
32792SOL    HW198400   6.267   3.488  11.227
32792SOL    HW298401   6.218   3.389  11.347
32793SOL     OW98402   7.236   3.582  12.566
32793SOL    HW198403   7.289   3.592  12.482
32793SOL    HW298404   7.209   3.672  12.600
32794SOL     OW98405   7.427   2.037  12.135
32794SOL    HW198406   7.466   1.952  12.099
32794SOL    HW298407   7.329   2.039  12.116
32795SOL     OW98408   5.849   2.188  11.892
32795SOL    HW198409   5.770   2.239  11.858
32795SOL    HW298410   5.840   2.173  11.990
32796SOL     OW98411   6.780   3.474  11.203
32796SOL    HW198412   6.786   3.381  11.240
32796SOL    HW298413   6.721   3.474  11.123
32797SOL     OW98414   6.408   2.864  12.544
32797SOL    HW198415   6.448   2.863  12.452
32797SOL    HW298416   6.418   2.956  12.584
32798SOL     OW98417   6.502   2.772  11.463
32798SOL    HW198418   6.565   2.810  11.395
32798SOL    HW298419   6.542   2.689  11.502
32799SOL     OW98420   7.090   3.469  11.216
32799SOL    HW198421   6.998   3.506  11.223
32799SOL    HW298422   7.128   3.489  11.126
32800SOL     OW98423   5.958   3.150  12.662
32800SOL    HW198424   5.945   3.243  12.628
32800SOL    HW298425   5.874   3.098  12.649
32801SOL     OW98426   7.200   3.154  12.461
32801SOL    HW198427   7.260   3.157  12.541
32801SOL    HW298428   7.125   3.218  12.474
32802SOL     OW98429   6.625   2.960  11.868
32802SOL    HW198430   6.555   2.913  11.922
32802SOL    HW298431   6.684   2.892  11.825
32803SOL     OW98432   6.600   2.098  12.143
32803SOL    HW198433   6.592   2.062  12.050
32803SOL    HW298434   6.598   2.022  12.208
32804SOL     OW98435   6.176   3.349  11.663
32804SOL    HW198436   6.218   3.291  11.593
32804SOL    HW298437   6.132   3.428  11.619
32805SOL     OW98438   7.295   2.247  12.553
32805SOL    HW198439   7.368   2.316  12.557
32805SOL    HW298440   7.323   2.172  12.494
32806SOL     OW98441   5.841   3.210  11.462
32806SOL    HW198442   5.745   3.211  11.435
32806SOL    HW298443   5.853   3.263  11.546
32807SOL     OW98444   5.691   2.875  12.898
32807SOL    HW198445   5.614   2.842  12.952
32807SOL    HW298446   5.776   2.845  12.940
32808SOL     OW98447   6.258   2.065  12.661
32808SOL    HW198448   6.348   2.049  12.621
32808SOL    HW298449   6.266   2.070  12.760
32809SOL     OW98450   5.661   2.207  11.205
32809SOL    HW198451   5.569   2.179  11.176
32809SOL    HW298452   5.692   2.284  11.149
32810SOL     OW98453   7.026   2.718  12.570
32810SOL    HW198454   6.969   2.770  12.507
32810SOL    HW298455   7.122   2.730  12.546
32811SOL     OW98456   5.658   2.028  11.490
32811SOL    HW198457   5.641   2.111  11.436
32811SOL    HW298458   5.748   1.991  11.468
32812SOL     OW98459   6.769   3.197  11.291
32812SOL    HW198460   6.670   3.186  11.293
32812SOL    HW298461   6.803   3.212  11.384
32813SOL     OW98462   6.199   2.704  12.603
32813SOL    HW198463   6.255   2.785  12.586
32813SOL    HW298464   6.258   2.624  12.606
32814SOL     OW98465   7.079   3.629  12.131
32814SOL    HW198466   7.112   3.693  12.062
32814SOL    HW298467   7.145   3.623  12.206
32815SOL     OW98468   6.302   2.427  12.880
32815SOL    HW198469   6.321   2.492  12.954
32815SOL    HW298470   6.362   2.347  12.889
32816SOL     OW98471   5.976   3.603  12.732
32816SOL    HW198472   5.885   3.644  12.730
32816SOL    HW298473   5.969   3.509  12.764
32817SOL     OW98474   7.260   2.745  12.426
32817SOL    HW198475   7.233   2.656  12.389
32817SOL    HW298476   7.261   2.813  12.353
32818SOL     OW98477   6.811   2.187  11.621
32818SOL    HW198478   6.876   2.113  11.610
32818SOL    HW298479   6.831   2.237  11.705
32819SOL     OW98480   6.180   2.607  11.824
32819SOL    HW198481   6.230   2.692  11.805
32819SOL    HW298482   6.092   2.609  11.776
32820SOL     OW98483   7.363   2.204  12.814
32820SOL    HW198484   7.346   2.235  12.720
32820SOL    HW298485   7.279   2.167  12.852
32821SOL     OW98486   7.316   2.796  12.689
32821SOL    HW198487   7.354   2.887  12.704
32821SOL    HW298488   7.308   2.779  12.590
32822SOL     OW98489   6.445   3.236  11.188
32822SOL    HW198490   6.399   3.251  11.276
32822SOL    HW298491   6.489   3.321  11.158
32823SOL     OW98492   6.247   3.652  12.125
32823SOL    HW198493   6.201   3.740  12.112
32823SOL    HW298494   6.346   3.664  12.118
32824SOL     OW98495   6.445   2.818  12.033
32824SOL    HW198496   6.499   2.749  12.081
32824SOL    HW298497   6.413   2.887  12.099
32825SOL     OW98498   6.669   2.846  11.259
32825SOL    HW198499   6.646   2.899  11.177
32825SOL    HW298500   6.750   2.790  11.240
32826SOL     OW98501   7.447   3.431  12.023
32826SOL    HW198502   7.376   3.419  11.953
32826SOL    HW298503   7.448   3.352  12.083
32827SOL     OW98504   5.665   3.102  11.825
32827SOL    HW198505   5.664   3.055  11.913
32827SOL    HW298506   5.747   3.074  11.774
32828SOL     OW98507   7.410   2.054  12.399
32828SOL    HW198508   7.406   1.964  12.443
32828SOL    HW298509   7.413   2.043  12.300
32829SOL     OW98510   6.014   2.286  11.692
32829SOL    HW198511   6.044   2.214  11.630
32829SOL    HW298512   5.975   2.246  11.775
32830SOL     OW98513   7.291   3.349  12.276
32830SOL    HW198514   7.198   3.324  12.249
32830SOL    HW298515   7.317   3.299  12.358
32831SOL     OW98516   5.903   2.409  12.452
32831SOL    HW198517   5.941   2.350  12.524
32831SOL    HW298518   5.943   2.383  12.364
32832SOL     OW98519   6.398   3.448  11.859
32832SOL    HW198520   6.430   3.458  11.765
32832SOL    HW298521   6.319   3.386  11.861
32833SOL     OW98522   7.010   2.076  12.284
32833SOL    HW198523   7.062   2.011  12.339
32833SOL    HW298524   6.961   2.139  12.345
32834SOL     OW98525   6.587   1.896  12.326
32834SOL    HW198526   6.524   1.824  12.295
32834SOL    HW298527   6.680   1.860  12.326
32835SOL     OW98528   6.356   3.192  11.473
32835SOL    HW198529   6.310   3.105  11.490
32835SOL    HW298530   6.447   3.189  11.514
32836SOL     OW98531   6.204   3.429  12.456
32836SOL    HW198532   6.199   3.511  12.513
32836SOL    HW298533   6.293   3.426  12.411
32837SOL     OW98534   6.938   1.914  11.340
32837SOL    HW198535   6.973   1.873  11.256
32837SOL    HW298536   6.848   1.876  11.360
32838SOL     OW98537   6.886   2.315  11.863
32838SOL    HW198538   6.827   2.395  11.867
32838SOL    HW298539   6.901   2.280  11.956
32839SOL     OW98540   5.625   2.939  11.472
32839SOL    HW198541   5.724   2.928  11.463
32839SOL    HW298542   5.585   2.853  11.504
32840SOL     OW98543   6.461   3.508  11.509
32840SOL    HW198544   6.384   3.473  11.455
32840SOL    HW298545   6.429   3.579  11.571
32841SOL     OW98546   5.816   4.352   0.113
32841SOL    HW198547   5.723   4.350   0.150
32841SOL    HW298548   5.817   4.313   0.021
32842SOL     OW98549   5.811   3.999   0.996
32842SOL    HW198550   5.846   3.982   1.088
32842SOL    HW298551   5.723   3.954   0.984
32843SOL     OW98552   5.605   4.092   0.647
32843SOL    HW198553   5.523   4.135   0.686
32843SOL    HW298554   5.577   4.019   0.584
32844SOL     OW98555   6.155   4.999   1.165
32844SOL    HW198556   6.062   4.992   1.128
32844SOL    HW298557   6.166   5.088   1.209
32845SOL     OW98558   7.141   5.235   0.703
32845SOL    HW198559   7.084   5.219   0.784
32845SOL    HW298560   7.082   5.245   0.623
32846SOL     OW98561   6.721   4.427   0.717
32846SOL    HW198562   6.778   4.505   0.692
32846SOL    HW298563   6.661   4.453   0.793
32847SOL     OW98564   7.341   4.331   0.231
32847SOL    HW198565   7.329   4.318   0.132
32847SOL    HW298566   7.311   4.250   0.280
32848SOL     OW98567   6.354   4.868   1.023
32848SOL    HW198568   6.276   4.885   1.083
32848SOL    HW298569   6.388   4.955   0.987
32849SOL     OW98570   6.436   4.522   1.823
32849SOL    HW198571   6.432   4.598   1.888
32849SOL    HW298572   6.458   4.558   1.732
32850SOL     OW98573   6.271   4.736   0.665
32850SOL    HW198574   6.340   4.720   0.735
32850SOL    HW298575   6.198   4.793   0.703
32851SOL     OW98576   6.272   4.885   1.803
32851SOL    HW198577   6.332   4.964   1.817
32851SOL    HW298578   6.186   4.916   1.762
32852SOL     OW98579   5.921   5.159   1.061
32852SOL    HW198580   5.843   5.128   1.008
32852SOL    HW298581   5.979   5.217   1.004
32853SOL     OW98582   7.046   5.229   1.339
32853SOL    HW198583   7.070   5.323   1.365
32853SOL    HW298584   7.030   5.175   1.421
32854SOL     OW98585   6.024   4.116   1.499
32854SOL    HW198586   6.106   4.060   1.508
32854SOL    HW298587   5.943   4.058   1.503
32855SOL     OW98588   7.189   4.171   0.737
32855SOL    HW198589   7.115   4.217   0.687
32855SOL    HW298590   7.240   4.239   0.790
32856SOL     OW98591   5.817   5.437   0.483
32856SOL    HW198592   5.851   5.514   0.537
32856SOL    HW298593   5.861   5.437   0.393
32857SOL     OW98594   6.713   5.065   1.690
32857SOL    HW198595   6.760   5.065   1.778
32857SOL    HW298596   6.665   4.978   1.679
32858SOL     OW98597   5.816   5.158   0.538
32858SOL    HW198598   5.790   5.254   0.538
32858SOL    HW298599   5.745   5.104   0.583
32859SOL     OW98600   5.826   4.815   0.886
32859SOL    HW198601   5.840   4.731   0.938
32859SOL    HW298602   5.771   4.879   0.941
32860SOL     OW98603   6.206   5.510   1.439
32860SOL    HW198604   6.114   5.493   1.474
32860SOL    HW298605   6.234   5.602   1.465
32861SOL     OW98606   6.192   4.688   0.123
32861SOL    HW198607   6.199   4.772   0.069
32861SOL    HW298608   6.238   4.701   0.211
32862SOL     OW98609   7.180   3.838   1.480
32862SOL    HW198610   7.162   3.905   1.408
32862SOL    HW298611   7.177   3.884   1.569
32863SOL     OW98612   5.708   4.367   0.563
32863SOL    HW198613   5.663   4.279   0.580
32863SOL    HW298614   5.707   4.421   0.647
32864SOL     OW98615   7.428   5.491   0.359
32864SOL    HW198616   7.482   5.462   0.439
32864SOL    HW298617   7.458   5.581   0.330
32865SOL     OW98618   5.613   5.320   0.117
32865SOL    HW198619   5.594   5.224   0.138
32865SOL    HW298620   5.580   5.378   0.192
32866SOL     OW98621   7.275   4.646   0.612
32866SOL    HW198622   7.370   4.617   0.620
32866SOL    HW298623   7.267   4.711   0.537
32867SOL     OW98624   7.227   4.832   0.432
32867SOL    HW198625   7.313   4.834   0.380
32867SOL    HW298626   7.241   4.879   0.520
32868SOL     OW98627   5.699   4.461   1.597
32868SOL    HW198628   5.787   4.448   1.642
32868SOL    HW298629   5.686   4.558   1.575
32869SOL     OW98630   6.199   5.089   0.726
32869SOL    HW198631   6.150   5.002   0.735
32869SOL    HW298632   6.176   5.132   0.639
32870SOL     OW98633   6.879   4.952   1.423
32870SOL    HW198634   6.916   4.879   1.365
32870SOL    HW298635   6.931   4.957   1.508
32871SOL     OW98636   6.395   3.728   0.502
32871SOL    HW198637   6.435   3.819   0.493
32871SOL    HW298638   6.295   3.736   0.508
32872SOL     OW98639   5.783   4.700   1.264
32872SOL    HW198640   5.872   4.655   1.250
32872SOL    HW298641   5.710   4.635   1.245
32873SOL     OW98642   7.111   4.723   0.190
32873SOL    HW198643   7.048   4.647   0.203
32873SOL    HW298644   7.159   4.741   0.276
32874SOL     OW98645   6.773   5.516   1.616
32874SOL    HW198646   6.797   5.576   1.540
32874SOL    HW298647   6.780   5.421   1.586
32875SOL     OW98648   5.903   3.975   1.801
32875SOL    HW198649   5.974   4.046   1.807
32875SOL    HW298650   5.815   4.014   1.829
32876SOL     OW98651   7.052   5.141   0.953
32876SOL    HW198652   6.993   5.147   1.033
32876SOL    HW298653   7.037   5.053   0.907
32877SOL     OW98654   7.253   5.438   0.572
32877SOL    HW198655   7.212   5.415   0.484
32877SOL    HW298656   7.235   5.364   0.637
32878SOL     OW98657   6.184   4.453   0.270
32878SOL    HW198658   6.208   4.522   0.202
32878SOL    HW298659   6.106   4.486   0.324
32879SOL     OW98660   6.867   4.069   0.944
32879SOL    HW198661   6.781   4.019   0.931
32879SOL    HW298662   6.929   4.015   1.000
32880SOL     OW98663   7.162   5.386   0.307
32880SOL    HW198664   7.251   5.432   0.310
32880SOL    HW298665   7.141   5.362   0.212
32881SOL     OW98666   6.393   4.329   1.465
32881SOL    HW198667   6.346   4.326   1.554
32881SOL    HW298668   6.342   4.274   1.399
32882SOL     OW98669   6.980   4.193   1.674
32882SOL    HW198670   6.960   4.236   1.762
32882SOL    HW298671   7.058   4.131   1.683
32883SOL     OW98672   6.559   4.614   1.572
32883SOL    HW198673   6.605   4.530   1.543
32883SOL    HW298674   6.503   4.648   1.497
32884SOL     OW98675   6.577   4.134   1.242
32884SOL    HW198676   6.500   4.168   1.296
32884SOL    HW298677   6.543   4.083   1.163
32885SOL     OW98678   6.627   4.425   0.429
32885SOL    HW198679   6.653   4.421   0.525
32885SOL    HW298680   6.542   4.374   0.415
32886SOL     OW98681   5.662   4.535   0.789
32886SOL    HW198682   5.761   4.523   0.798
32886SOL    HW298683   5.638   4.630   0.810
32887SOL     OW98684   5.716   5.545   1.571
32887SOL    HW198685   5.706   5.530   1.670
32887SOL    HW298686   5.630   5.581   1.535
32888SOL     OW98687   6.451   4.072   0.195
32888SOL    HW198688   6.510   4.135   0.146
32888SOL    HW298689   6.470   3.978   0.166
32889SOL     OW98690   7.305   4.309   1.831
32889SOL    HW198691   7.279   4.398   1.795
32889SOL    HW298692   7.303   4.241   1.758
32890SOL     OW98693   6.948   4.868   0.545
32890SOL    HW198694   7.031   4.839   0.497
32890SOL    HW298695   6.899   4.935   0.489
32891SOL     OW98696   6.136   3.920   0.885
32891SOL    HW198697   6.131   3.915   0.985
32891SOL    HW298698   6.138   4.016   0.856
32892SOL     OW98699   6.594   5.180   0.477
32892SOL    HW198700   6.548   5.252   0.425
32892SOL    HW298701   6.590   5.200   0.575
32893SOL     OW98702   5.937   5.525   0.853
32893SOL    HW198703   5.987   5.439   0.859
32893SOL    HW298704   6.002   5.602   0.850
32894SOL     OW98705   7.381   4.790   0.873
32894SOL    HW198706   7.319   4.775   0.797
32894SOL    HW298707   7.329   4.801   0.958
32895SOL     OW98708   6.813   5.274   1.506
32895SOL    HW198709   6.819   5.197   1.570
32895SOL    HW298710   6.761   5.248   1.426
32896SOL     OW98711   5.907   4.667   0.242
32896SOL    HW198712   5.989   4.706   0.200
32896SOL    HW298713   5.880   4.585   0.193
32897SOL     OW98714   7.044   4.459   0.728
32897SOL    HW198715   7.039   4.394   0.803
32897SOL    HW298716   7.124   4.518   0.741
32898SOL     OW98717   6.047   4.990   1.727
32898SOL    HW198718   5.997   4.991   1.641
32898SOL    HW298719   5.984   4.972   1.803
32899SOL     OW98720   6.697   5.500   0.237
32899SOL    HW198721   6.637   5.438   0.287
32899SOL    HW298722   6.728   5.456   0.152
32900SOL     OW98723   5.788   4.009   1.498
32900SOL    HW198724   5.708   4.069   1.485
32900SOL    HW298725   5.778   3.960   1.584
32901SOL     OW98726   7.218   5.101   0.081
32901SOL    HW198727   7.186   5.195   0.071
32901SOL    HW298728   7.142   5.038   0.069
32902SOL     OW98729   6.050   5.467   0.323
32902SOL    HW198730   6.083   5.506   0.409
32902SOL    HW298731   6.126   5.460   0.258
32903SOL     OW98732   6.986   3.831   0.426
32903SOL    HW198733   6.962   3.794   0.336
32903SOL    HW298734   7.085   3.847   0.430
32904SOL     OW98735   5.835   5.509   1.241
32904SOL    HW198736   5.892   5.444   1.291
32904SOL    HW298737   5.819   5.476   1.148
32905SOL     OW98738   6.526   5.422   0.904
32905SOL    HW198739   6.606   5.365   0.925
32905SOL    HW298740   6.477   5.382   0.827
32906SOL     OW98741   5.968   4.424   0.480
32906SOL    HW198742   6.013   4.334   0.477
32906SOL    HW298743   5.874   4.413   0.513
32907SOL     OW98744   7.133   3.946   1.729
32907SOL    HW198745   7.128   3.983   1.821
32907SOL    HW298746   7.061   3.877   1.717
32908SOL     OW98747   6.200   3.846   0.117
32908SOL    HW198748   6.298   3.824   0.124
32908SOL    HW298749   6.169   3.829   0.024
32909SOL     OW98750   6.367   3.988   1.749
32909SOL    HW198751   6.434   3.927   1.792
32909SOL    HW298752   6.294   4.007   1.814
32910SOL     OW98753   6.474   5.238   1.195
32910SOL    HW198754   6.451   5.213   1.101
32910SOL    HW298755   6.535   5.169   1.234
32911SOL     OW98756   6.937   4.314   1.433
32911SOL    HW198757   6.965   4.271   1.518
32911SOL    HW298758   6.962   4.410   1.434
32912SOL     OW98759   6.389   5.126   0.924
32912SOL    HW198760   6.479   5.140   0.882
32912SOL    HW298761   6.318   5.128   0.853
32913SOL     OW98762   6.508   4.227   0.899
32913SOL    HW198763   6.483   4.218   0.803
32913SOL    HW298764   6.556   4.145   0.930
32914SOL     OW98765   6.125   3.788   0.512
32914SOL    HW198766   6.044   3.789   0.570
32914SOL    HW298767   6.128   3.871   0.457
32915SOL     OW98768   7.020   4.912   0.041
32915SOL    HW198769   7.052   4.836   0.098
32915SOL    HW298770   6.928   4.939   0.071
32916SOL     OW98771   5.883   3.759   0.171
32916SOL    HW198772   5.932   3.843   0.150
32916SOL    HW298773   5.945   3.694   0.216
32917SOL     OW98774   6.521   3.960   0.480
32917SOL    HW198775   6.473   4.001   0.402
32917SOL    HW298776   6.620   3.958   0.461
32918SOL     OW98777   6.662   4.407   1.464
32918SOL    HW198778   6.582   4.346   1.467
32918SOL    HW298779   6.743   4.354   1.440
32919SOL     OW98780   6.813   5.294   0.793
32919SOL    HW198781   6.834   5.368   0.728
32919SOL    HW298782   6.881   5.294   0.866
32920SOL     OW98783   6.045   4.876   0.741
32920SOL    HW198784   5.974   4.849   0.806
32920SOL    HW298785   6.019   4.848   0.648
32921SOL     OW98786   6.857   5.521   0.591
32921SOL    HW198787   6.901   5.585   0.527
32921SOL    HW298788   6.807   5.573   0.661
32922SOL     OW98789   6.618   4.273   0.016
32922SOL    HW198790   6.577   4.355  -0.023
32922SOL    HW298791   6.682   4.299   0.089
32923SOL     OW98792   5.664   4.280   1.386
32923SOL    HW198793   5.756   4.279   1.345
32923SOL    HW298794   5.658   4.354   1.453
32924SOL     OW98795   6.147   3.946   1.147
32924SOL    HW198796   6.185   3.862   1.184
32924SOL    HW298797   6.059   3.965   1.191
32925SOL     OW98798   6.452   4.178   0.642
32925SOL    HW198799   6.420   4.250   0.580
32925SOL    HW298800   6.476   4.097   0.589
32926SOL     OW98801   6.603   3.763   0.753
32926SOL    HW198802   6.531   3.768   0.684
32926SOL    HW298803   6.579   3.694   0.822
32927SOL     OW98804   7.015   4.897   0.867
32927SOL    HW198805   6.960   4.813   0.860
32927SOL    HW298806   7.041   4.926   0.775
32928SOL     OW98807   7.052   4.314   0.992
32928SOL    HW198808   7.022   4.219   0.999
32928SOL    HW298809   7.125   4.330   1.058
32929SOL     OW98810   7.443   4.557   0.377
32929SOL    HW198811   7.485   4.493   0.441
32929SOL    HW298812   7.405   4.506   0.299
32930SOL     OW98813   6.074   5.109   0.174
32930SOL    HW198814   5.987   5.094   0.221
32930SOL    HW298815   6.057   5.135   0.079
32931SOL     OW98816   6.976   4.299   0.078
32931SOL    HW198817   6.922   4.278   0.159
32931SOL    HW298818   7.067   4.258   0.087
32932SOL     OW98819   6.113   3.980   0.328
32932SOL    HW198820   6.140   3.921   0.253
32932SOL    HW298821   6.113   4.075   0.297
32933SOL     OW98822   7.340   4.947   1.588
32933SOL    HW198823   7.431   4.908   1.575
32933SOL    HW298824   7.348   5.043   1.612
32934SOL     OW98825   6.650   5.071   1.340
32934SOL    HW198826   6.570   5.048   1.395
32934SOL    HW298827   6.733   5.045   1.389
32935SOL     OW98828   7.178   5.353   1.625
32935SOL    HW198829   7.205   5.387   1.535
32935SOL    HW298830   7.257   5.315   1.671
32936SOL     OW98831   6.697   4.919   1.100
32936SOL    HW198832   6.657   4.963   1.181
32936SOL    HW298833   6.656   4.956   1.017
32937SOL     OW98834   7.224   4.823   1.079
32937SOL    HW198835   7.229   4.904   1.138
32937SOL    HW298836   7.138   4.825   1.028
32938SOL     OW98837   6.501   3.813   1.402
32938SOL    HW198838   6.526   3.793   1.307
32938SOL    HW298839   6.573   3.869   1.444
32939SOL     OW98840   6.566   4.840   1.719
32939SOL    HW198841   6.467   4.846   1.729
32939SOL    HW298842   6.589   4.760   1.663
32940SOL     OW98843   6.291   4.774   0.368
32940SOL    HW198844   6.277   4.781   0.467
32940SOL    HW298845   6.375   4.723   0.350
32941SOL     OW98846   5.996   4.537   1.251
32941SOL    HW198847   6.082   4.549   1.301
32941SOL    HW298848   5.954   4.450   1.278
32942SOL     OW98849   6.860   4.110   1.262
32942SOL    HW198850   6.881   4.184   1.326
32942SOL    HW298851   6.771   4.127   1.219
32943SOL     OW98852   5.650   5.288   1.331
32943SOL    HW198853   5.604   5.370   1.297
32943SOL    HW298854   5.748   5.307   1.340
32944SOL     OW98855   5.953   4.824   0.501
32944SOL    HW198856   5.946   4.907   0.445
32944SOL    HW298857   5.957   4.744   0.441
32945SOL     OW98858   6.152   4.261   0.865
32945SOL    HW198859   6.164   4.327   0.791
32945SOL    HW298860   6.198   4.295   0.948
32946SOL     OW98861   6.838   5.072   0.388
32946SOL    HW198862   6.888   5.149   0.428
32946SOL    HW298863   6.743   5.074   0.420
32947SOL     OW98864   6.858   5.169   1.142
32947SOL    HW198865   6.905   5.182   1.229
32947SOL    HW298866   6.792   5.095   1.151
32948SOL     OW98867   7.168   4.363   0.472
32948SOL    HW198868   7.137   4.424   0.545
32948SOL    HW298869   7.218   4.415   0.403
32949SOL     OW98870   5.940   5.234   1.329
32949SOL    HW198871   5.919   5.190   1.242
32949SOL    HW298872   6.037   5.260   1.332
32950SOL     OW98873   5.988   4.475   1.598
32950SOL    HW198874   6.056   4.530   1.551
32950SOL    HW298875   6.028   4.387   1.625
32951SOL     OW98876   7.173   4.503   1.670
32951SOL    HW198877   7.081   4.541   1.665
32951SOL    HW298878   7.233   4.550   1.605
32952SOL     OW98879   6.599   3.829   1.770
32952SOL    HW198880   6.605   3.914   1.718
32952SOL    HW298881   6.631   3.753   1.713
32953SOL     OW98882   6.090   3.774   1.740
32953SOL    HW198883   6.048   3.717   1.670
32953SOL    HW298884   6.024   3.843   1.772
32954SOL     OW98885   6.159   4.594   1.029
32954SOL    HW198886   6.203   4.683   1.020
32954SOL    HW298887   6.096   4.594   1.106
32955SOL     OW98888   6.946   4.586   1.045
32955SOL    HW198889   6.871   4.586   0.979
32955SOL    HW298890   6.983   4.494   1.054
32956SOL     OW98891   6.795   4.249   0.275
32956SOL    HW198892   6.808   4.165   0.329
32956SOL    HW298893   6.766   4.323   0.335
32957SOL     OW98894   5.893   3.937   1.231
32957SOL    HW198895   5.870   3.974   1.321
32957SOL    HW298896   5.863   3.842   1.225
32958SOL     OW98897   5.623   5.034   1.282
32958SOL    HW198898   5.676   4.985   1.350
32958SOL    HW298899   5.645   5.132   1.287
32959SOL     OW98900   6.318   4.358   1.064
32959SOL    HW198901   6.377   4.332   0.988
32959SOL    HW298902   6.290   4.454   1.053
32960SOL     OW98903   7.314   4.659   1.854
32960SOL    HW198904   7.268   4.652   1.765
32960SOL    HW298905   7.252   4.703   1.920
32961SOL     OW98906   5.893   3.787   0.618
32961SOL    HW198907   5.882   3.881   0.651
32961SOL    HW298908   5.888   3.724   0.695
32962SOL     OW98909   7.208   4.091   0.374
32962SOL    HW198910   7.210   4.015   0.438
32962SOL    HW298911   7.160   4.168   0.414
32963SOL     OW98912   6.609   4.490   0.966
32963SOL    HW198913   6.624   4.511   1.062
32963SOL    HW298914   6.579   4.395   0.957
32964SOL     OW98915   6.566   5.297   1.700
32964SOL    HW198916   6.546   5.341   1.612
32964SOL    HW298917   6.605   5.206   1.684
32965SOL     OW98918   7.445   5.242   1.605
32965SOL    HW198919   7.459   5.269   1.510
32965SOL    HW298920   7.528   5.264   1.658
32966SOL     OW98921   5.936   4.622   1.804
32966SOL    HW198922   6.012   4.666   1.852
32966SOL    HW298923   5.971   4.575   1.722
32967SOL     OW98924   7.126   3.998   0.125
32967SOL    HW198925   7.065   3.923   0.148
32967SOL    HW298926   7.148   4.050   0.208
32968SOL     OW98927   6.889   4.562   0.042
32968SOL    HW198928   6.923   4.469   0.057
32968SOL    HW298929   6.907   4.589  -0.053
32969SOL     OW98930   6.654   5.057   0.849
32969SOL    HW198931   6.661   4.973   0.794
32969SOL    HW298932   6.716   5.126   0.813
32970SOL     OW98933   5.905   4.534   0.949
32970SOL    HW198934   5.998   4.570   0.954
32970SOL    HW298935   5.899   4.449   1.001
32971SOL     OW98936   5.925   4.233   1.006
32971SOL    HW198937   5.873   4.150   0.989
32971SOL    HW298938   6.002   4.238   0.942
32972SOL     OW98939   6.724   4.104   1.678
32972SOL    HW198940   6.679   4.167   1.742
32972SOL    HW298941   6.817   4.135   1.661
32973SOL     OW98942   6.746   3.931   1.477
32973SOL    HW198943   6.746   3.995   1.554
32973SOL    HW298944   6.774   3.979   1.394
32974SOL     OW98945   5.594   5.050   0.200
32974SOL    HW198946   5.501   5.071   0.169
32974SOL    HW298947   5.604   4.951   0.213
32975SOL     OW98948   5.674   5.525   0.927
32975SOL    HW198949   5.632   5.439   0.900
32975SOL    HW298950   5.768   5.528   0.893
32976SOL     OW98951   6.090   5.292   0.910
32976SOL    HW198952   6.156   5.366   0.919
32976SOL    HW298953   6.134   5.213   0.868
32977SOL     OW98954   6.588   4.520   1.238
32977SOL    HW198955   6.629   4.488   1.324
32977SOL    HW298956   6.492   4.493   1.235
32978SOL     OW98957   5.626   4.268   1.114
32978SOL    HW198958   5.711   4.235   1.073
32978SOL    HW298959   5.639   4.283   1.212
32979SOL     OW98960   5.775   4.244   1.722
32979SOL    HW198961   5.834   4.204   1.652
32979SOL    HW298962   5.717   4.315   1.681
32980SOL     OW98963   6.955   4.674   1.660
32980SOL    HW198964   6.994   4.763   1.680
32980SOL    HW298965   6.965   4.654   1.563
32981SOL     OW98966   7.243   4.328   1.206
32981SOL    HW198967   7.205   4.259   1.268
32981SOL    HW298968   7.325   4.292   1.162
32982SOL     OW98969   5.838   5.288   1.744
32982SOL    HW198970   5.808   5.345   1.820
32982SOL    HW298971   5.831   5.191   1.770
32983SOL     OW98972   6.257   4.188   1.269
32983SOL    HW198973   6.223   4.099   1.239
32983SOL    HW298974   6.283   4.242   1.189
32984SOL     OW98975   6.516   5.402   1.465
32984SOL    HW198976   6.492   5.384   1.370
32984SOL    HW298977   6.546   5.496   1.475
32985SOL     OW98978   6.059   4.224   0.191
32985SOL    HW198979   6.120   4.304   0.195
32985SOL    HW298980   5.964   4.255   0.198
32986SOL     OW98981   5.745   4.861   1.466
32986SOL    HW198982   5.767   4.800   1.542
32986SOL    HW298983   5.755   4.812   1.380
32987SOL     OW98984   6.933   4.783   1.234
32987SOL    HW198985   6.957   4.720   1.160
32987SOL    HW298986   6.843   4.823   1.216
32988SOL     OW98987   6.888   4.579   0.309
32988SOL    HW198988   6.802   4.548   0.351
32988SOL    HW298989   6.884   4.565   0.210
32989SOL     OW98990   7.345   5.471   1.154
32989SOL    HW198991   7.406   5.501   1.081
32989SOL    HW298992   7.307   5.382   1.132
32990SOL     OW98993   6.838   5.455   1.128
32990SOL    HW198994   6.922   5.460   1.074
32990SOL    HW298995   6.815   5.359   1.146
32991SOL     OW98996   5.669   4.982   1.022
32991SOL    HW198997   5.664   4.981   1.122
32991SOL    HW298998   5.586   4.941   0.984
32992SOL     OW98999   6.274   5.386   1.716
32992SOL    HW199000   6.218   5.467   1.725
32992SOL    HW299001   6.326   5.390   1.630
32993SOL     OW99002   6.489   3.810   0.133
32993SOL    HW199003   6.540   3.811   0.047
32993SOL    HW299004   6.545   3.768   0.204
32994SOL     OW99005   7.312   3.859   0.523
32994SOL    HW199006   7.385   3.842   0.456
32994SOL    HW299007   7.281   3.772   0.561
32995SOL     OW99008   6.974   5.297   0.477
32995SOL    HW199009   7.041   5.309   0.403
32995SOL    HW299010   6.934   5.386   0.500
32996SOL     OW99011   5.716   5.518   1.851
32996SOL    HW199012   5.675   5.444   1.904
32996SOL    HW299013   5.780   5.569   1.909
32997SOL     OW99014   6.866   4.651   0.672
32997SOL    HW199015   6.926   4.570   0.674
32997SOL    HW299016   6.906   4.720   0.612
32998SOL     OW99017   6.416   4.997   1.422
32998SOL    HW199018   6.411   5.030   1.517
32998SOL    HW299019   6.330   5.016   1.376
32999SOL     OW99020   6.258   5.340   0.154
32999SOL    HW199021   6.267   5.350   0.055
32999SOL    HW299022   6.218   5.251   0.175
33000SOL     OW99023   7.236   5.444   1.394
33000SOL    HW199024   7.289   5.454   1.310
33000SOL    HW299025   7.209   5.534   1.428
33001SOL     OW99026   7.427   3.899   0.963
33001SOL    HW199027   7.466   3.814   0.927
33001SOL    HW299028   7.329   3.901   0.944
33002SOL     OW99029   5.849   4.050   0.720
33002SOL    HW199030   5.770   4.101   0.686
33002SOL    HW299031   5.840   4.035   0.818
33003SOL     OW99032   6.780   5.336   0.031
33003SOL    HW199033   6.786   5.243   0.068
33003SOL    HW299034   6.721   5.336  -0.049
33004SOL     OW99035   6.408   4.726   1.372
33004SOL    HW199036   6.448   4.725   1.280
33004SOL    HW299037   6.418   4.818   1.412
33005SOL     OW99038   6.502   4.634   0.291
33005SOL    HW199039   6.565   4.672   0.223
33005SOL    HW299040   6.542   4.551   0.330
33006SOL     OW99041   7.090   5.331   0.044
33006SOL    HW199042   6.998   5.368   0.051
33006SOL    HW299043   7.128   5.351  -0.046
33007SOL     OW99044   5.958   5.012   1.490
33007SOL    HW199045   5.945   5.105   1.456
33007SOL    HW299046   5.874   4.960   1.477
33008SOL     OW99047   7.200   5.016   1.289
33008SOL    HW199048   7.260   5.019   1.369
33008SOL    HW299049   7.125   5.080   1.302
33009SOL     OW99050   6.625   4.822   0.696
33009SOL    HW199051   6.555   4.775   0.750
33009SOL    HW299052   6.684   4.754   0.653
33010SOL     OW99053   6.600   3.960   0.971
33010SOL    HW199054   6.592   3.924   0.878
33010SOL    HW299055   6.598   3.884   1.036
33011SOL     OW99056   6.176   5.211   0.491
33011SOL    HW199057   6.218   5.153   0.421
33011SOL    HW299058   6.132   5.290   0.447
33012SOL     OW99059   7.295   4.109   1.381
33012SOL    HW199060   7.368   4.178   1.385
33012SOL    HW299061   7.323   4.034   1.322
33013SOL     OW99062   5.841   5.072   0.290
33013SOL    HW199063   5.745   5.073   0.263
33013SOL    HW299064   5.853   5.125   0.374
33014SOL     OW99065   5.691   4.737   1.726
33014SOL    HW199066   5.614   4.704   1.780
33014SOL    HW299067   5.776   4.707   1.768
33015SOL     OW99068   6.258   3.927   1.489
33015SOL    HW199069   6.348   3.911   1.449
33015SOL    HW299070   6.266   3.932   1.588
33016SOL     OW99071   7.026   4.580   1.398
33016SOL    HW199072   6.969   4.632   1.335
33016SOL    HW299073   7.122   4.592   1.374
33017SOL     OW99074   5.658   3.890   0.318
33017SOL    HW199075   5.641   3.973   0.264
33017SOL    HW299076   5.748   3.853   0.296
33018SOL     OW99077   6.769   5.059   0.119
33018SOL    HW199078   6.670   5.048   0.121
33018SOL    HW299079   6.803   5.074   0.212
33019SOL     OW99080   6.199   4.566   1.431
33019SOL    HW199081   6.255   4.647   1.414
33019SOL    HW299082   6.258   4.486   1.434
33020SOL     OW99083   7.079   5.491   0.959
33020SOL    HW199084   7.112   5.555   0.890
33020SOL    HW299085   7.145   5.485   1.034
33021SOL     OW99086   6.302   4.289   1.708
33021SOL    HW199087   6.321   4.354   1.782
33021SOL    HW299088   6.362   4.209   1.717
33022SOL     OW99089   7.036   4.944   1.633
33022SOL    HW199090   7.027   4.934   1.732
33022SOL    HW299091   7.132   4.937   1.607
33023SOL     OW99092   5.976   5.465   1.560
33023SOL    HW199093   5.885   5.506   1.558
33023SOL    HW299094   5.969   5.371   1.592
33024SOL     OW99095   7.260   4.607   1.254
33024SOL    HW199096   7.233   4.518   1.217
33024SOL    HW299097   7.261   4.675   1.181
33025SOL     OW99098   6.811   4.049   0.449
33025SOL    HW199099   6.876   3.975   0.438
33025SOL    HW299100   6.831   4.099   0.533
33026SOL     OW99101   6.180   4.469   0.652
33026SOL    HW199102   6.230   4.554   0.633
33026SOL    HW299103   6.092   4.471   0.604
33027SOL     OW99104   7.363   4.066   1.642
33027SOL    HW199105   7.346   4.097   1.548
33027SOL    HW299106   7.279   4.029   1.680
33028SOL     OW99107   7.316   4.658   1.517
33028SOL    HW199108   7.354   4.749   1.532
33028SOL    HW299109   7.308   4.641   1.418
33029SOL     OW99110   6.445   5.098   0.016
33029SOL    HW199111   6.399   5.113   0.104
33029SOL    HW299112   6.489   5.183  -0.014
33030SOL     OW99113   6.247   5.514   0.953
33030SOL    HW199114   6.201   5.602   0.940
33030SOL    HW299115   6.346   5.526   0.946
33031SOL     OW99116   6.445   4.680   0.861
33031SOL    HW199117   6.499   4.611   0.909
33031SOL    HW299118   6.413   4.749   0.927
33032SOL     OW99119   6.669   4.708   0.087
33032SOL    HW199120   6.646   4.761   0.005
33032SOL    HW299121   6.750   4.652   0.068
33033SOL     OW99122   7.447   5.293   0.851
33033SOL    HW199123   7.376   5.281   0.781
33033SOL    HW299124   7.448   5.214   0.911
33034SOL     OW99125   5.807   5.038   1.844
33034SOL    HW199126   5.742   4.965   1.823
33034SOL    HW299127   5.811   5.052   1.942
33035SOL     OW99128   5.665   4.964   0.653
33035SOL    HW199129   5.664   4.917   0.741
33035SOL    HW299130   5.747   4.936   0.602
33036SOL     OW99131   6.258   5.115   1.624
33036SOL    HW199132   6.180   5.065   1.662
33036SOL    HW299133   6.255   5.210   1.655
33037SOL     OW99134   7.410   3.916   1.227
33037SOL    HW199135   7.406   3.826   1.271
33037SOL    HW299136   7.413   3.905   1.128
33038SOL     OW99137   6.014   4.148   0.520
33038SOL    HW199138   6.044   4.076   0.458
33038SOL    HW299139   5.975   4.108   0.603
33039SOL     OW99140   7.291   5.211   1.104
33039SOL    HW199141   7.198   5.186   1.077
33039SOL    HW299142   7.317   5.161   1.186
33040SOL     OW99143   5.903   4.271   1.280
33040SOL    HW199144   5.941   4.212   1.352
33040SOL    HW299145   5.943   4.245   1.192
33041SOL     OW99146   6.398   5.310   0.687
33041SOL    HW199147   6.430   5.320   0.593
33041SOL    HW299148   6.319   5.248   0.689
33042SOL     OW99149   7.010   3.938   1.112
33042SOL    HW199150   7.062   3.873   1.167
33042SOL    HW299151   6.961   4.001   1.173
33043SOL     OW99152   6.587   3.758   1.154
33043SOL    HW199153   6.524   3.686   1.123
33043SOL    HW299154   6.680   3.722   1.154
33044SOL     OW99155   6.356   5.054   0.301
33044SOL    HW199156   6.310   4.967   0.318
33044SOL    HW299157   6.447   5.051   0.342
33045SOL     OW99158   6.204   5.291   1.284
33045SOL    HW199159   6.199   5.373   1.341
33045SOL    HW299160   6.293   5.288   1.239
33046SOL     OW99161   6.938   3.776   0.168
33046SOL    HW199162   6.973   3.735   0.084
33046SOL    HW299163   6.848   3.738   0.188
33047SOL     OW99164   6.886   4.177   0.691
33047SOL    HW199165   6.827   4.257   0.695
33047SOL    HW299166   6.901   4.142   0.784
33048SOL     OW99167   7.179   3.945   0.882
33048SOL    HW199168   7.095   3.944   0.936
33048SOL    HW299169   7.181   4.028   0.826
33049SOL     OW99170   5.625   4.801   0.300
33049SOL    HW199171   5.724   4.790   0.291
33049SOL    HW299172   5.585   4.715   0.332
33050SOL     OW99173   6.461   5.370   0.337
33050SOL    HW199174   6.384   5.335   0.283
33050SOL    HW299175   6.429   5.441   0.399
33051SOL     OW99176   5.816   4.352   1.975
33051SOL    HW199177   5.723   4.350   2.012
33051SOL    HW299178   5.817   4.313   1.883
33052SOL     OW99179   5.811   3.999   2.858
33052SOL    HW199180   5.846   3.982   2.950
33052SOL    HW299181   5.723   3.954   2.846
33053SOL     OW99182   5.605   4.092   2.509
33053SOL    HW199183   5.523   4.135   2.548
33053SOL    HW299184   5.577   4.019   2.446
33054SOL     OW99185   6.155   4.999   3.027
33054SOL    HW199186   6.062   4.992   2.990
33054SOL    HW299187   6.166   5.088   3.071
33055SOL     OW99188   7.141   5.235   2.565
33055SOL    HW199189   7.084   5.219   2.646
33055SOL    HW299190   7.082   5.245   2.485
33056SOL     OW99191   6.721   4.427   2.579
33056SOL    HW199192   6.778   4.505   2.554
33056SOL    HW299193   6.661   4.453   2.655
33057SOL     OW99194   7.341   4.331   2.093
33057SOL    HW199195   7.329   4.318   1.994
33057SOL    HW299196   7.311   4.250   2.142
33058SOL     OW99197   6.354   4.868   2.885
33058SOL    HW199198   6.276   4.885   2.945
33058SOL    HW299199   6.388   4.955   2.849
33059SOL     OW99200   6.436   4.522   3.685
33059SOL    HW199201   6.432   4.598   3.750
33059SOL    HW299202   6.458   4.558   3.594
33060SOL     OW99203   6.271   4.736   2.527
33060SOL    HW199204   6.340   4.720   2.597
33060SOL    HW299205   6.198   4.793   2.565
33061SOL     OW99206   6.272   4.885   3.665
33061SOL    HW199207   6.332   4.964   3.679
33061SOL    HW299208   6.186   4.916   3.624
33062SOL     OW99209   5.921   5.159   2.923
33062SOL    HW199210   5.843   5.128   2.870
33062SOL    HW299211   5.979   5.217   2.866
33063SOL     OW99212   7.046   5.229   3.201
33063SOL    HW199213   7.070   5.323   3.227
33063SOL    HW299214   7.030   5.175   3.283
33064SOL     OW99215   6.024   4.116   3.361
33064SOL    HW199216   6.106   4.060   3.370
33064SOL    HW299217   5.943   4.058   3.365
33065SOL     OW99218   7.189   4.171   2.599
33065SOL    HW199219   7.115   4.217   2.549
33065SOL    HW299220   7.240   4.239   2.652
33066SOL     OW99221   5.817   5.437   2.345
33066SOL    HW199222   5.851   5.514   2.399
33066SOL    HW299223   5.861   5.437   2.255
33067SOL     OW99224   6.713   5.065   3.552
33067SOL    HW199225   6.760   5.065   3.640
33067SOL    HW299226   6.665   4.978   3.541
33068SOL     OW99227   5.816   5.158   2.400
33068SOL    HW199228   5.790   5.254   2.400
33068SOL    HW299229   5.745   5.104   2.445
33069SOL     OW99230   5.826   4.815   2.748
33069SOL    HW199231   5.840   4.731   2.800
33069SOL    HW299232   5.771   4.879   2.803
33070SOL     OW99233   6.206   5.510   3.301
33070SOL    HW199234   6.114   5.493   3.336
33070SOL    HW299235   6.234   5.602   3.327
33071SOL     OW99236   6.192   4.688   1.985
33071SOL    HW199237   6.199   4.772   1.931
33071SOL    HW299238   6.238   4.701   2.073
33072SOL     OW99239   7.180   3.838   3.342
33072SOL    HW199240   7.162   3.905   3.270
33072SOL    HW299241   7.177   3.884   3.431
33073SOL     OW99242   5.708   4.367   2.425
33073SOL    HW199243   5.663   4.279   2.442
33073SOL    HW299244   5.707   4.421   2.509
33074SOL     OW99245   7.428   5.491   2.221
33074SOL    HW199246   7.482   5.462   2.301
33074SOL    HW299247   7.458   5.581   2.192
33075SOL     OW99248   5.613   5.320   1.979
33075SOL    HW199249   5.594   5.224   2.000
33075SOL    HW299250   5.580   5.378   2.054
33076SOL     OW99251   7.275   4.646   2.474
33076SOL    HW199252   7.370   4.617   2.482
33076SOL    HW299253   7.267   4.711   2.399
33077SOL     OW99254   7.227   4.832   2.294
33077SOL    HW199255   7.313   4.834   2.242
33077SOL    HW299256   7.241   4.879   2.382
33078SOL     OW99257   5.699   4.461   3.459
33078SOL    HW199258   5.787   4.448   3.504
33078SOL    HW299259   5.686   4.558   3.437
33079SOL     OW99260   6.199   5.089   2.588
33079SOL    HW199261   6.150   5.002   2.597
33079SOL    HW299262   6.176   5.132   2.501
33080SOL     OW99263   6.879   4.952   3.285
33080SOL    HW199264   6.916   4.879   3.227
33080SOL    HW299265   6.931   4.957   3.370
33081SOL     OW99266   6.395   3.728   2.364
33081SOL    HW199267   6.435   3.819   2.355
33081SOL    HW299268   6.295   3.736   2.370
33082SOL     OW99269   5.783   4.700   3.126
33082SOL    HW199270   5.872   4.655   3.112
33082SOL    HW299271   5.710   4.635   3.107
33083SOL     OW99272   7.111   4.723   2.052
33083SOL    HW199273   7.048   4.647   2.065
33083SOL    HW299274   7.159   4.741   2.138
33084SOL     OW99275   6.773   5.516   3.478
33084SOL    HW199276   6.797   5.576   3.402
33084SOL    HW299277   6.780   5.421   3.448
33085SOL     OW99278   5.903   3.975   3.663
33085SOL    HW199279   5.974   4.046   3.669
33085SOL    HW299280   5.815   4.014   3.691
33086SOL     OW99281   7.052   5.141   2.815
33086SOL    HW199282   6.993   5.147   2.895
33086SOL    HW299283   7.037   5.053   2.769
33087SOL     OW99284   7.253   5.438   2.434
33087SOL    HW199285   7.212   5.415   2.346
33087SOL    HW299286   7.235   5.364   2.499
33088SOL     OW99287   6.184   4.453   2.132
33088SOL    HW199288   6.208   4.522   2.064
33088SOL    HW299289   6.106   4.486   2.186
33089SOL     OW99290   6.867   4.069   2.806
33089SOL    HW199291   6.781   4.019   2.793
33089SOL    HW299292   6.929   4.015   2.862
33090SOL     OW99293   7.162   5.386   2.169
33090SOL    HW199294   7.251   5.432   2.172
33090SOL    HW299295   7.141   5.362   2.074
33091SOL     OW99296   6.393   4.329   3.327
33091SOL    HW199297   6.346   4.326   3.416
33091SOL    HW299298   6.342   4.274   3.261
33092SOL     OW99299   6.980   4.193   3.536
33092SOL    HW199300   6.960   4.236   3.624
33092SOL    HW299301   7.058   4.131   3.545
33093SOL     OW99302   6.559   4.614   3.434
33093SOL    HW199303   6.605   4.530   3.405
33093SOL    HW299304   6.503   4.648   3.359
33094SOL     OW99305   6.577   4.134   3.104
33094SOL    HW199306   6.500   4.168   3.158
33094SOL    HW299307   6.543   4.083   3.025
33095SOL     OW99308   6.627   4.425   2.291
33095SOL    HW199309   6.653   4.421   2.387
33095SOL    HW299310   6.542   4.374   2.277
33096SOL     OW99311   5.662   4.535   2.651
33096SOL    HW199312   5.761   4.523   2.660
33096SOL    HW299313   5.638   4.630   2.672
33097SOL     OW99314   5.716   5.545   3.433
33097SOL    HW199315   5.706   5.530   3.532
33097SOL    HW299316   5.630   5.581   3.397
33098SOL     OW99317   6.451   4.072   2.057
33098SOL    HW199318   6.510   4.135   2.008
33098SOL    HW299319   6.470   3.978   2.028
33099SOL     OW99320   7.305   4.309   3.693
33099SOL    HW199321   7.279   4.398   3.657
33099SOL    HW299322   7.303   4.241   3.620
33100SOL     OW99323   6.948   4.868   2.407
33100SOL    HW199324   7.031   4.839   2.359
33100SOL    HW299325   6.899   4.935   2.351
33101SOL     OW99326   6.136   3.920   2.747
33101SOL    HW199327   6.131   3.915   2.847
33101SOL    HW299328   6.138   4.016   2.718
33102SOL     OW99329   6.594   5.180   2.339
33102SOL    HW199330   6.548   5.252   2.287
33102SOL    HW299331   6.590   5.200   2.437
33103SOL     OW99332   5.937   5.525   2.715
33103SOL    HW199333   5.987   5.439   2.721
33103SOL    HW299334   6.002   5.602   2.712
33104SOL     OW99335   7.381   4.790   2.735
33104SOL    HW199336   7.319   4.775   2.659
33104SOL    HW299337   7.329   4.801   2.820
33105SOL     OW99338   6.813   5.274   3.368
33105SOL    HW199339   6.819   5.197   3.432
33105SOL    HW299340   6.761   5.248   3.288
33106SOL     OW99341   5.907   4.667   2.104
33106SOL    HW199342   5.989   4.706   2.062
33106SOL    HW299343   5.880   4.585   2.055
33107SOL     OW99344   7.044   4.459   2.590
33107SOL    HW199345   7.039   4.394   2.665
33107SOL    HW299346   7.124   4.518   2.603
33108SOL     OW99347   6.047   4.990   3.589
33108SOL    HW199348   5.997   4.991   3.503
33108SOL    HW299349   5.984   4.972   3.665
33109SOL     OW99350   6.697   5.500   2.099
33109SOL    HW199351   6.637   5.438   2.149
33109SOL    HW299352   6.728   5.456   2.014
33110SOL     OW99353   5.788   4.009   3.360
33110SOL    HW199354   5.708   4.069   3.347
33110SOL    HW299355   5.778   3.960   3.446
33111SOL     OW99356   7.218   5.101   1.943
33111SOL    HW199357   7.186   5.195   1.933
33111SOL    HW299358   7.142   5.038   1.931
33112SOL     OW99359   6.050   5.467   2.185
33112SOL    HW199360   6.083   5.506   2.271
33112SOL    HW299361   6.126   5.460   2.120
33113SOL     OW99362   6.986   3.831   2.288
33113SOL    HW199363   6.962   3.794   2.198
33113SOL    HW299364   7.085   3.847   2.292
33114SOL     OW99365   5.835   5.509   3.103
33114SOL    HW199366   5.892   5.444   3.153
33114SOL    HW299367   5.819   5.476   3.010
33115SOL     OW99368   6.526   5.422   2.766
33115SOL    HW199369   6.606   5.365   2.787
33115SOL    HW299370   6.477   5.382   2.689
33116SOL     OW99371   5.968   4.424   2.342
33116SOL    HW199372   6.013   4.334   2.339
33116SOL    HW299373   5.874   4.413   2.375
33117SOL     OW99374   7.133   3.946   3.591
33117SOL    HW199375   7.128   3.983   3.683
33117SOL    HW299376   7.061   3.877   3.579
33118SOL     OW99377   6.200   3.846   1.979
33118SOL    HW199378   6.298   3.824   1.986
33118SOL    HW299379   6.169   3.829   1.886
33119SOL     OW99380   6.367   3.988   3.611
33119SOL    HW199381   6.434   3.927   3.654
33119SOL    HW299382   6.294   4.007   3.676
33120SOL     OW99383   6.474   5.238   3.057
33120SOL    HW199384   6.451   5.213   2.963
33120SOL    HW299385   6.535   5.169   3.096
33121SOL     OW99386   6.937   4.314   3.295
33121SOL    HW199387   6.965   4.271   3.380
33121SOL    HW299388   6.962   4.410   3.296
33122SOL     OW99389   6.389   5.126   2.786
33122SOL    HW199390   6.479   5.140   2.744
33122SOL    HW299391   6.318   5.128   2.715
33123SOL     OW99392   6.508   4.227   2.761
33123SOL    HW199393   6.483   4.218   2.665
33123SOL    HW299394   6.556   4.145   2.792
33124SOL     OW99395   6.125   3.788   2.374
33124SOL    HW199396   6.044   3.789   2.432
33124SOL    HW299397   6.128   3.871   2.319
33125SOL     OW99398   7.020   4.912   1.903
33125SOL    HW199399   7.052   4.836   1.960
33125SOL    HW299400   6.928   4.939   1.933
33126SOL     OW99401   5.883   3.759   2.033
33126SOL    HW199402   5.932   3.843   2.012
33126SOL    HW299403   5.945   3.694   2.078
33127SOL     OW99404   6.662   4.407   3.326
33127SOL    HW199405   6.582   4.346   3.329
33127SOL    HW299406   6.743   4.354   3.302
33128SOL     OW99407   6.813   5.294   2.655
33128SOL    HW199408   6.834   5.368   2.590
33128SOL    HW299409   6.881   5.294   2.728
33129SOL     OW99410   6.045   4.876   2.603
33129SOL    HW199411   5.974   4.849   2.668
33129SOL    HW299412   6.019   4.848   2.510
33130SOL     OW99413   6.857   5.521   2.453
33130SOL    HW199414   6.901   5.585   2.389
33130SOL    HW299415   6.807   5.573   2.523
33131SOL     OW99416   6.618   4.273   1.878
33131SOL    HW199417   6.577   4.355   1.839
33131SOL    HW299418   6.682   4.299   1.951
33132SOL     OW99419   5.664   4.280   3.248
33132SOL    HW199420   5.756   4.279   3.207
33132SOL    HW299421   5.658   4.354   3.315
33133SOL     OW99422   6.147   3.946   3.009
33133SOL    HW199423   6.185   3.862   3.046
33133SOL    HW299424   6.059   3.965   3.053
33134SOL     OW99425   6.452   4.178   2.504
33134SOL    HW199426   6.420   4.250   2.442
33134SOL    HW299427   6.476   4.097   2.451
33135SOL     OW99428   6.603   3.763   2.615
33135SOL    HW199429   6.531   3.768   2.546
33135SOL    HW299430   6.579   3.694   2.684
33136SOL     OW99431   7.015   4.897   2.729
33136SOL    HW199432   6.960   4.813   2.722
33136SOL    HW299433   7.041   4.926   2.637
33137SOL     OW99434   7.052   4.314   2.854
33137SOL    HW199435   7.022   4.219   2.861
33137SOL    HW299436   7.125   4.330   2.920
33138SOL     OW99437   7.443   4.557   2.239
33138SOL    HW199438   7.485   4.493   2.303
33138SOL    HW299439   7.405   4.506   2.161
33139SOL     OW99440   6.074   5.109   2.036
33139SOL    HW199441   5.987   5.094   2.083
33139SOL    HW299442   6.057   5.135   1.941
33140SOL     OW99443   7.250   5.004   2.519
33140SOL    HW199444   7.349   5.012   2.533
33140SOL    HW299445   7.205   5.088   2.550
33141SOL     OW99446   6.976   4.299   1.940
33141SOL    HW199447   6.922   4.278   2.021
33141SOL    HW299448   7.067   4.258   1.949
33142SOL     OW99449   6.113   3.980   2.190
33142SOL    HW199450   6.140   3.921   2.115
33142SOL    HW299451   6.113   4.075   2.159
33143SOL     OW99452   7.340   4.947   3.450
33143SOL    HW199453   7.431   4.908   3.437
33143SOL    HW299454   7.348   5.043   3.474
33144SOL     OW99455   6.650   5.071   3.202
33144SOL    HW199456   6.570   5.048   3.257
33144SOL    HW299457   6.733   5.045   3.251
33145SOL     OW99458   7.178   5.353   3.487
33145SOL    HW199459   7.205   5.387   3.397
33145SOL    HW299460   7.257   5.315   3.533
33146SOL     OW99461   6.697   4.919   2.962
33146SOL    HW199462   6.657   4.963   3.043
33146SOL    HW299463   6.656   4.956   2.879
33147SOL     OW99464   7.224   4.823   2.941
33147SOL    HW199465   7.229   4.904   3.000
33147SOL    HW299466   7.138   4.825   2.890
33148SOL     OW99467   6.501   3.813   3.264
33148SOL    HW199468   6.526   3.793   3.169
33148SOL    HW299469   6.573   3.869   3.306
33149SOL     OW99470   6.566   4.840   3.581
33149SOL    HW199471   6.467   4.846   3.591
33149SOL    HW299472   6.589   4.760   3.525
33150SOL     OW99473   6.291   4.774   2.230
33150SOL    HW199474   6.277   4.781   2.329
33150SOL    HW299475   6.375   4.723   2.212
33151SOL     OW99476   6.860   4.110   3.124
33151SOL    HW199477   6.881   4.184   3.188
33151SOL    HW299478   6.771   4.127   3.081
33152SOL     OW99479   5.650   5.288   3.193
33152SOL    HW199480   5.604   5.370   3.159
33152SOL    HW299481   5.748   5.307   3.202
33153SOL     OW99482   5.953   4.824   2.363
33153SOL    HW199483   5.946   4.907   2.307
33153SOL    HW299484   5.957   4.744   2.303
33154SOL     OW99485   6.152   4.261   2.727
33154SOL    HW199486   6.164   4.327   2.653
33154SOL    HW299487   6.198   4.295   2.810
33155SOL     OW99488   6.838   5.072   2.250
33155SOL    HW199489   6.888   5.149   2.290
33155SOL    HW299490   6.743   5.074   2.282
33156SOL     OW99491   6.858   5.169   3.004
33156SOL    HW199492   6.905   5.182   3.091
33156SOL    HW299493   6.792   5.095   3.013
33157SOL     OW99494   7.168   4.363   2.334
33157SOL    HW199495   7.137   4.424   2.407
33157SOL    HW299496   7.218   4.415   2.265
33158SOL     OW99497   5.940   5.234   3.191
33158SOL    HW199498   5.919   5.190   3.104
33158SOL    HW299499   6.037   5.260   3.194
33159SOL     OW99500   5.988   4.475   3.460
33159SOL    HW199501   6.056   4.530   3.413
33159SOL    HW299502   6.028   4.387   3.487
33160SOL     OW99503   7.173   4.503   3.532
33160SOL    HW199504   7.081   4.541   3.527
33160SOL    HW299505   7.233   4.550   3.467
33161SOL     OW99506   6.599   3.829   3.632
33161SOL    HW199507   6.605   3.914   3.580
33161SOL    HW299508   6.631   3.753   3.575
33162SOL     OW99509   6.090   3.774   3.602
33162SOL    HW199510   6.048   3.717   3.532
33162SOL    HW299511   6.024   3.843   3.634
33163SOL     OW99512   6.159   4.594   2.891
33163SOL    HW199513   6.203   4.683   2.882
33163SOL    HW299514   6.096   4.594   2.968
33164SOL     OW99515   6.946   4.586   2.907
33164SOL    HW199516   6.871   4.586   2.841
33164SOL    HW299517   6.983   4.494   2.916
33165SOL     OW99518   6.795   4.249   2.137
33165SOL    HW199519   6.808   4.165   2.191
33165SOL    HW299520   6.766   4.323   2.197
33166SOL     OW99521   5.893   3.937   3.093
33166SOL    HW199522   5.870   3.974   3.183
33166SOL    HW299523   5.863   3.842   3.087
33167SOL     OW99524   5.623   5.034   3.144
33167SOL    HW199525   5.676   4.985   3.212
33167SOL    HW299526   5.645   5.132   3.149
33168SOL     OW99527   6.318   4.358   2.926
33168SOL    HW199528   6.377   4.332   2.850
33168SOL    HW299529   6.290   4.454   2.915
33169SOL     OW99530   7.314   4.659   3.716
33169SOL    HW199531   7.268   4.652   3.627
33169SOL    HW299532   7.252   4.703   3.782
33170SOL     OW99533   5.893   3.787   2.480
33170SOL    HW199534   5.882   3.881   2.513
33170SOL    HW299535   5.888   3.724   2.557
33171SOL     OW99536   7.208   4.091   2.236
33171SOL    HW199537   7.210   4.015   2.300
33171SOL    HW299538   7.160   4.168   2.276
33172SOL     OW99539   6.609   4.490   2.828
33172SOL    HW199540   6.624   4.511   2.924
33172SOL    HW299541   6.579   4.395   2.819
33173SOL     OW99542   6.566   5.297   3.562
33173SOL    HW199543   6.546   5.341   3.474
33173SOL    HW299544   6.605   5.206   3.546
33174SOL     OW99545   7.445   5.242   3.467
33174SOL    HW199546   7.459   5.269   3.372
33174SOL    HW299547   7.528   5.264   3.520
33175SOL     OW99548   5.936   4.622   3.666
33175SOL    HW199549   6.012   4.666   3.714
33175SOL    HW299550   5.971   4.575   3.584
33176SOL     OW99551   7.126   3.998   1.987
33176SOL    HW199552   7.065   3.923   2.010
33176SOL    HW299553   7.148   4.050   2.070
33177SOL     OW99554   6.889   4.562   1.904
33177SOL    HW199555   6.923   4.469   1.919
33177SOL    HW299556   6.907   4.589   1.809
33178SOL     OW99557   6.654   5.057   2.711
33178SOL    HW199558   6.661   4.973   2.656
33178SOL    HW299559   6.716   5.126   2.675
33179SOL     OW99560   5.905   4.534   2.811
33179SOL    HW199561   5.998   4.570   2.816
33179SOL    HW299562   5.899   4.449   2.863
33180SOL     OW99563   5.925   4.233   2.868
33180SOL    HW199564   5.873   4.150   2.851
33180SOL    HW299565   6.002   4.238   2.804
33181SOL     OW99566   6.724   4.104   3.540
33181SOL    HW199567   6.679   4.167   3.604
33181SOL    HW299568   6.817   4.135   3.523
33182SOL     OW99569   6.746   3.931   3.339
33182SOL    HW199570   6.746   3.995   3.416
33182SOL    HW299571   6.774   3.979   3.256
33183SOL     OW99572   5.594   5.050   2.062
33183SOL    HW199573   5.501   5.071   2.031
33183SOL    HW299574   5.604   4.951   2.075
33184SOL     OW99575   5.674   5.525   2.789
33184SOL    HW199576   5.632   5.439   2.762
33184SOL    HW299577   5.768   5.528   2.755
33185SOL     OW99578   6.090   5.292   2.772
33185SOL    HW199579   6.156   5.366   2.781
33185SOL    HW299580   6.134   5.213   2.730
33186SOL     OW99581   6.588   4.520   3.100
33186SOL    HW199582   6.629   4.488   3.186
33186SOL    HW299583   6.492   4.493   3.097
33187SOL     OW99584   5.626   4.268   2.976
33187SOL    HW199585   5.711   4.235   2.935
33187SOL    HW299586   5.639   4.283   3.074
33188SOL     OW99587   5.775   4.244   3.584
33188SOL    HW199588   5.834   4.204   3.514
33188SOL    HW299589   5.717   4.315   3.543
33189SOL     OW99590   6.955   4.674   3.522
33189SOL    HW199591   6.994   4.763   3.542
33189SOL    HW299592   6.965   4.654   3.425
33190SOL     OW99593   6.401   4.296   2.187
33190SOL    HW199594   6.408   4.207   2.141
33190SOL    HW299595   6.307   4.330   2.179
33191SOL     OW99596   7.243   4.328   3.068
33191SOL    HW199597   7.205   4.259   3.130
33191SOL    HW299598   7.325   4.292   3.024
33192SOL     OW99599   5.838   5.288   3.606
33192SOL    HW199600   5.808   5.345   3.682
33192SOL    HW299601   5.831   5.191   3.632
33193SOL     OW99602   6.257   4.188   3.131
33193SOL    HW199603   6.223   4.099   3.101
33193SOL    HW299604   6.283   4.242   3.051
33194SOL     OW99605   6.516   5.402   3.327
33194SOL    HW199606   6.492   5.384   3.232
33194SOL    HW299607   6.546   5.496   3.337
33195SOL     OW99608   6.059   4.224   2.053
33195SOL    HW199609   6.120   4.304   2.057
33195SOL    HW299610   5.964   4.255   2.060
33196SOL     OW99611   5.745   4.861   3.328
33196SOL    HW199612   5.767   4.800   3.404
33196SOL    HW299613   5.755   4.812   3.242
33197SOL     OW99614   6.933   4.783   3.096
33197SOL    HW199615   6.957   4.720   3.022
33197SOL    HW299616   6.843   4.823   3.078
33198SOL     OW99617   6.888   4.579   2.171
33198SOL    HW199618   6.802   4.548   2.213
33198SOL    HW299619   6.884   4.565   2.072
33199SOL     OW99620   7.345   5.471   3.016
33199SOL    HW199621   7.406   5.501   2.943
33199SOL    HW299622   7.307   5.382   2.994
33200SOL     OW99623   6.838   5.455   2.990
33200SOL    HW199624   6.922   5.460   2.936
33200SOL    HW299625   6.815   5.359   3.008
33201SOL     OW99626   5.669   4.982   2.884
33201SOL    HW199627   5.664   4.981   2.984
33201SOL    HW299628   5.586   4.941   2.846
33202SOL     OW99629   6.274   5.386   3.578
33202SOL    HW199630   6.218   5.467   3.587
33202SOL    HW299631   6.326   5.390   3.492
33203SOL     OW99632   7.312   3.859   2.385
33203SOL    HW199633   7.385   3.842   2.318
33203SOL    HW299634   7.281   3.772   2.423
33204SOL     OW99635   6.974   5.297   2.339
33204SOL    HW199636   7.041   5.309   2.265
33204SOL    HW299637   6.934   5.386   2.362
33205SOL     OW99638   5.716   5.518   3.713
33205SOL    HW199639   5.675   5.444   3.766
33205SOL    HW299640   5.780   5.569   3.771
33206SOL     OW99641   6.866   4.651   2.534
33206SOL    HW199642   6.926   4.570   2.536
33206SOL    HW299643   6.906   4.720   2.474
33207SOL     OW99644   6.416   4.997   3.284
33207SOL    HW199645   6.411   5.030   3.379
33207SOL    HW299646   6.330   5.016   3.238
33208SOL     OW99647   6.258   5.340   2.016
33208SOL    HW199648   6.267   5.350   1.917
33208SOL    HW299649   6.218   5.251   2.037
33209SOL     OW99650   7.236   5.444   3.256
33209SOL    HW199651   7.289   5.454   3.172
33209SOL    HW299652   7.209   5.534   3.290
33210SOL     OW99653   7.427   3.899   2.825
33210SOL    HW199654   7.466   3.814   2.789
33210SOL    HW299655   7.329   3.901   2.806
33211SOL     OW99656   5.849   4.050   2.582
33211SOL    HW199657   5.770   4.101   2.548
33211SOL    HW299658   5.840   4.035   2.680
33212SOL     OW99659   6.780   5.336   1.893
33212SOL    HW199660   6.786   5.243   1.930
33212SOL    HW299661   6.721   5.336   1.813
33213SOL     OW99662   6.408   4.726   3.234
33213SOL    HW199663   6.448   4.725   3.142
33213SOL    HW299664   6.418   4.818   3.274
33214SOL     OW99665   6.502   4.634   2.153
33214SOL    HW199666   6.565   4.672   2.085
33214SOL    HW299667   6.542   4.551   2.192
33215SOL     OW99668   7.090   5.331   1.906
33215SOL    HW199669   6.998   5.368   1.913
33215SOL    HW299670   7.128   5.351   1.816
33216SOL     OW99671   5.958   5.012   3.352
33216SOL    HW199672   5.945   5.105   3.318
33216SOL    HW299673   5.874   4.960   3.339
33217SOL     OW99674   7.200   5.016   3.151
33217SOL    HW199675   7.260   5.019   3.231
33217SOL    HW299676   7.125   5.080   3.164
33218SOL     OW99677   6.625   4.822   2.558
33218SOL    HW199678   6.555   4.775   2.612
33218SOL    HW299679   6.684   4.754   2.515
33219SOL     OW99680   6.600   3.960   2.833
33219SOL    HW199681   6.592   3.924   2.740
33219SOL    HW299682   6.598   3.884   2.898
33220SOL     OW99683   6.176   5.211   2.353
33220SOL    HW199684   6.218   5.153   2.283
33220SOL    HW299685   6.132   5.290   2.309
33221SOL     OW99686   7.295   4.109   3.243
33221SOL    HW199687   7.368   4.178   3.247
33221SOL    HW299688   7.323   4.034   3.184
33222SOL     OW99689   5.841   5.072   2.152
33222SOL    HW199690   5.745   5.073   2.125
33222SOL    HW299691   5.853   5.125   2.236
33223SOL     OW99692   5.691   4.737   3.588
33223SOL    HW199693   5.614   4.704   3.642
33223SOL    HW299694   5.776   4.707   3.630
33224SOL     OW99695   6.258   3.927   3.351
33224SOL    HW199696   6.348   3.911   3.311
33224SOL    HW299697   6.266   3.932   3.450
33225SOL     OW99698   5.661   4.069   1.895
33225SOL    HW199699   5.569   4.041   1.866
33225SOL    HW299700   5.692   4.146   1.839
33226SOL     OW99701   7.026   4.580   3.260
33226SOL    HW199702   6.969   4.632   3.197
33226SOL    HW299703   7.122   4.592   3.236
33227SOL     OW99704   5.658   3.890   2.180
33227SOL    HW199705   5.641   3.973   2.126
33227SOL    HW299706   5.748   3.853   2.158
33228SOL     OW99707   6.769   5.059   1.981
33228SOL    HW199708   6.670   5.048   1.983
33228SOL    HW299709   6.803   5.074   2.074
33229SOL     OW99710   6.199   4.566   3.293
33229SOL    HW199711   6.255   4.647   3.276
33229SOL    HW299712   6.258   4.486   3.296
33230SOL     OW99713   7.079   5.491   2.821
33230SOL    HW199714   7.112   5.555   2.752
33230SOL    HW299715   7.145   5.485   2.896
33231SOL     OW99716   6.302   4.289   3.570
33231SOL    HW199717   6.321   4.354   3.644
33231SOL    HW299718   6.362   4.209   3.579
33232SOL     OW99719   7.036   4.944   3.495
33232SOL    HW199720   7.027   4.934   3.594
33232SOL    HW299721   7.132   4.937   3.469
33233SOL     OW99722   5.976   5.465   3.422
33233SOL    HW199723   5.885   5.506   3.420
33233SOL    HW299724   5.969   5.371   3.454
33234SOL     OW99725   7.260   4.607   3.116
33234SOL    HW199726   7.233   4.518   3.079
33234SOL    HW299727   7.261   4.675   3.043
33235SOL     OW99728   6.811   4.049   2.311
33235SOL    HW199729   6.876   3.975   2.300
33235SOL    HW299730   6.831   4.099   2.395
33236SOL     OW99731   6.180   4.469   2.514
33236SOL    HW199732   6.230   4.554   2.495
33236SOL    HW299733   6.092   4.471   2.466
33237SOL     OW99734   7.363   4.066   3.504
33237SOL    HW199735   7.346   4.097   3.410
33237SOL    HW299736   7.279   4.029   3.542
33238SOL     OW99737   7.316   4.658   3.379
33238SOL    HW199738   7.354   4.749   3.394
33238SOL    HW299739   7.308   4.641   3.280
33239SOL     OW99740   6.445   5.098   1.878
33239SOL    HW199741   6.399   5.113   1.966
33239SOL    HW299742   6.489   5.183   1.848
33240SOL     OW99743   6.247   5.514   2.815
33240SOL    HW199744   6.201   5.602   2.802
33240SOL    HW299745   6.346   5.526   2.808
33241SOL     OW99746   6.445   4.680   2.723
33241SOL    HW199747   6.499   4.611   2.771
33241SOL    HW299748   6.413   4.749   2.789
33242SOL     OW99749   6.669   4.708   1.949
33242SOL    HW199750   6.646   4.761   1.867
33242SOL    HW299751   6.750   4.652   1.930
33243SOL     OW99752   7.447   5.293   2.713
33243SOL    HW199753   7.376   5.281   2.643
33243SOL    HW299754   7.448   5.214   2.773
33244SOL     OW99755   5.807   5.038   3.706
33244SOL    HW199756   5.742   4.965   3.685
33244SOL    HW299757   5.811   5.052   3.804
33245SOL     OW99758   5.665   4.964   2.515
33245SOL    HW199759   5.664   4.917   2.603
33245SOL    HW299760   5.747   4.936   2.464
33246SOL     OW99761   6.258   5.115   3.486
33246SOL    HW199762   6.180   5.065   3.524
33246SOL    HW299763   6.255   5.210   3.517
33247SOL     OW99764   7.410   3.916   3.089
33247SOL    HW199765   7.406   3.826   3.133
33247SOL    HW299766   7.413   3.905   2.990
33248SOL     OW99767   6.014   4.148   2.382
33248SOL    HW199768   6.044   4.076   2.320
33248SOL    HW299769   5.975   4.108   2.465
33249SOL     OW99770   7.291   5.211   2.966
33249SOL    HW199771   7.198   5.186   2.939
33249SOL    HW299772   7.317   5.161   3.048
33250SOL     OW99773   5.903   4.271   3.142
33250SOL    HW199774   5.941   4.212   3.214
33250SOL    HW299775   5.943   4.245   3.054
33251SOL     OW99776   6.398   5.310   2.549
33251SOL    HW199777   6.430   5.320   2.455
33251SOL    HW299778   6.319   5.248   2.551
33252SOL     OW99779   7.010   3.938   2.974
33252SOL    HW199780   7.062   3.873   3.029
33252SOL    HW299781   6.961   4.001   3.035
33253SOL     OW99782   6.587   3.758   3.016
33253SOL    HW199783   6.524   3.686   2.985
33253SOL    HW299784   6.680   3.722   3.016
33254SOL     OW99785   6.356   5.054   2.163
33254SOL    HW199786   6.310   4.967   2.180
33254SOL    HW299787   6.447   5.051   2.204
33255SOL     OW99788   6.204   5.291   3.146
33255SOL    HW199789   6.199   5.373   3.203
33255SOL    HW299790   6.293   5.288   3.101
33256SOL     OW99791   6.938   3.776   2.030
33256SOL    HW199792   6.973   3.735   1.946
33256SOL    HW299793   6.848   3.738   2.050
33257SOL     OW99794   6.886   4.177   2.553
33257SOL    HW199795   6.827   4.257   2.557
33257SOL    HW299796   6.901   4.142   2.646
33258SOL     OW99797   7.179   3.945   2.744
33258SOL    HW199798   7.095   3.944   2.798
33258SOL    HW299799   7.181   4.028   2.688
33259SOL     OW99800   5.625   4.801   2.162
33259SOL    HW199801   5.724   4.790   2.153
33259SOL    HW299802   5.585   4.715   2.194
33260SOL     OW99803   6.461   5.370   2.199
33260SOL    HW199804   6.384   5.335   2.145
33260SOL    HW299805   6.429   5.441   2.261
33261SOL     OW99806   5.816   4.352   3.837
33261SOL    HW199807   5.723   4.350   3.874
33261SOL    HW299808   5.817   4.313   3.745
33262SOL     OW99809   5.811   3.999   4.720
33262SOL    HW199810   5.846   3.982   4.812
33262SOL    HW299811   5.723   3.954   4.708
33263SOL     OW99812   5.605   4.092   4.371
33263SOL    HW199813   5.523   4.135   4.410
33263SOL    HW299814   5.577   4.019   4.308
33264SOL     OW99815   6.155   4.999   4.889
33264SOL    HW199816   6.062   4.992   4.852
33264SOL    HW299817   6.166   5.088   4.933
33265SOL     OW99818   7.141   5.235   4.427
33265SOL    HW199819   7.084   5.219   4.508
33265SOL    HW299820   7.082   5.245   4.347
33266SOL     OW99821   6.721   4.427   4.441
33266SOL    HW199822   6.778   4.505   4.416
33266SOL    HW299823   6.661   4.453   4.517
33267SOL     OW99824   7.341   4.331   3.955
33267SOL    HW199825   7.329   4.318   3.856
33267SOL    HW299826   7.311   4.250   4.004
33268SOL     OW99827   6.354   4.868   4.747
33268SOL    HW199828   6.276   4.885   4.807
33268SOL    HW299829   6.388   4.955   4.711
33269SOL     OW99830   6.436   4.522   5.547
33269SOL    HW199831   6.432   4.598   5.612
33269SOL    HW299832   6.458   4.558   5.456
33270SOL     OW99833   6.271   4.736   4.389
33270SOL    HW199834   6.340   4.720   4.459
33270SOL    HW299835   6.198   4.793   4.427
33271SOL     OW99836   6.272   4.885   5.527
33271SOL    HW199837   6.332   4.964   5.541
33271SOL    HW299838   6.186   4.916   5.486
33272SOL     OW99839   5.921   5.159   4.785
33272SOL    HW199840   5.843   5.128   4.732
33272SOL    HW299841   5.979   5.217   4.728
33273SOL     OW99842   7.046   5.229   5.063
33273SOL    HW199843   7.070   5.323   5.089
33273SOL    HW299844   7.030   5.175   5.145
33274SOL     OW99845   6.024   4.116   5.223
33274SOL    HW199846   6.106   4.060   5.232
33274SOL    HW299847   5.943   4.058   5.227
33275SOL     OW99848   7.189   4.171   4.461
33275SOL    HW199849   7.115   4.217   4.411
33275SOL    HW299850   7.240   4.239   4.514
33276SOL     OW99851   5.817   5.437   4.207
33276SOL    HW199852   5.851   5.514   4.261
33276SOL    HW299853   5.861   5.437   4.117
33277SOL     OW99854   6.713   5.065   5.414
33277SOL    HW199855   6.760   5.065   5.502
33277SOL    HW299856   6.665   4.978   5.403
33278SOL     OW99857   5.816   5.158   4.262
33278SOL    HW199858   5.790   5.254   4.262
33278SOL    HW299859   5.745   5.104   4.307
33279SOL     OW99860   5.826   4.815   4.610
33279SOL    HW199861   5.840   4.731   4.662
33279SOL    HW299862   5.771   4.879   4.665
33280SOL     OW99863   6.206   5.510   5.163
33280SOL    HW199864   6.114   5.493   5.198
33280SOL    HW299865   6.234   5.602   5.189
33281SOL     OW99866   6.192   4.688   3.847
33281SOL    HW199867   6.199   4.772   3.793
33281SOL    HW299868   6.238   4.701   3.935
33282SOL     OW99869   7.180   3.838   5.204
33282SOL    HW199870   7.162   3.905   5.132
33282SOL    HW299871   7.177   3.884   5.293
33283SOL     OW99872   5.708   4.367   4.287
33283SOL    HW199873   5.663   4.279   4.304
33283SOL    HW299874   5.707   4.421   4.371
33284SOL     OW99875   7.428   5.491   4.083
33284SOL    HW199876   7.482   5.462   4.163
33284SOL    HW299877   7.458   5.581   4.054
33285SOL     OW99878   5.613   5.320   3.841
33285SOL    HW199879   5.594   5.224   3.862
33285SOL    HW299880   5.580   5.378   3.916
33286SOL     OW99881   7.275   4.646   4.336
33286SOL    HW199882   7.370   4.617   4.344
33286SOL    HW299883   7.267   4.711   4.261
33287SOL     OW99884   7.227   4.832   4.156
33287SOL    HW199885   7.313   4.834   4.104
33287SOL    HW299886   7.241   4.879   4.244
33288SOL     OW99887   5.699   4.461   5.321
33288SOL    HW199888   5.787   4.448   5.366
33288SOL    HW299889   5.686   4.558   5.299
33289SOL     OW99890   6.199   5.089   4.450
33289SOL    HW199891   6.150   5.002   4.459
33289SOL    HW299892   6.176   5.132   4.363
33290SOL     OW99893   6.879   4.952   5.147
33290SOL    HW199894   6.916   4.879   5.089
33290SOL    HW299895   6.931   4.957   5.232
33291SOL     OW99896   6.395   3.728   4.226
33291SOL    HW199897   6.435   3.819   4.217
33291SOL    HW299898   6.295   3.736   4.232
33292SOL     OW99899   5.783   4.700   4.988
33292SOL    HW199900   5.872   4.655   4.974
33292SOL    HW299901   5.710   4.635   4.969
33293SOL     OW99902   7.111   4.723   3.914
33293SOL    HW199903   7.048   4.647   3.927
33293SOL    HW299904   7.159   4.741   4.000
33294SOL     OW99905   6.773   5.516   5.340
33294SOL    HW199906   6.797   5.576   5.264
33294SOL    HW299907   6.780   5.421   5.310
33295SOL     OW99908   5.903   3.975   5.525
33295SOL    HW199909   5.974   4.046   5.531
33295SOL    HW299910   5.815   4.014   5.553
33296SOL     OW99911   7.052   5.141   4.677
33296SOL    HW199912   6.993   5.147   4.757
33296SOL    HW299913   7.037   5.053   4.631
33297SOL     OW99914   7.253   5.438   4.296
33297SOL    HW199915   7.212   5.415   4.208
33297SOL    HW299916   7.235   5.364   4.361
33298SOL     OW99917   6.184   4.453   3.994
33298SOL    HW199918   6.208   4.522   3.926
33298SOL    HW299919   6.106   4.486   4.048
33299SOL     OW99920   6.867   4.069   4.668
33299SOL    HW199921   6.781   4.019   4.655
33299SOL    HW299922   6.929   4.015   4.724
33300SOL     OW99923   7.162   5.386   4.031
33300SOL    HW199924   7.251   5.432   4.034
33300SOL    HW299925   7.141   5.362   3.936
33301SOL     OW99926   6.393   4.329   5.189
33301SOL    HW199927   6.346   4.326   5.278
33301SOL    HW299928   6.342   4.274   5.123
33302SOL     OW99929   6.980   4.193   5.398
33302SOL    HW199930   6.960   4.236   5.486
33302SOL    HW299931   7.058   4.131   5.407
33303SOL     OW99932   6.559   4.614   5.296
33303SOL    HW199933   6.605   4.530   5.267
33303SOL    HW299934   6.503   4.648   5.221
33304SOL     OW99935   6.577   4.134   4.966
33304SOL    HW199936   6.500   4.168   5.020
33304SOL    HW299937   6.543   4.083   4.887
33305SOL     OW99938   6.627   4.425   4.153
33305SOL    HW199939   6.653   4.421   4.249
33305SOL    HW299940   6.542   4.374   4.139
33306SOL     OW99941   5.662   4.535   4.513
33306SOL    HW199942   5.761   4.523   4.522
33306SOL    HW299943   5.638   4.630   4.534
33307SOL     OW99944   5.716   5.545   5.295
33307SOL    HW199945   5.706   5.530   5.394
33307SOL    HW299946   5.630   5.581   5.259
33308SOL     OW99947   6.451   4.072   3.919
33308SOL    HW199948   6.510   4.135   3.870
33308SOL    HW299949   6.470   3.978   3.890
33309SOL     OW99950   7.305   4.309   5.555
33309SOL    HW199951   7.279   4.398   5.519
33309SOL    HW299952   7.303   4.241   5.482
33310SOL     OW99953   6.948   4.868   4.269
33310SOL    HW199954   7.031   4.839   4.221
33310SOL    HW299955   6.899   4.935   4.213
33311SOL     OW99956   6.136   3.920   4.609
33311SOL    HW199957   6.131   3.915   4.709
33311SOL    HW299958   6.138   4.016   4.580
33312SOL     OW99959   6.594   5.180   4.201
33312SOL    HW199960   6.548   5.252   4.149
33312SOL    HW299961   6.590   5.200   4.299
33313SOL     OW99962   5.937   5.525   4.577
33313SOL    HW199963   5.987   5.439   4.583
33313SOL    HW299964   6.002   5.602   4.574
33314SOL     OW99965   7.381   4.790   4.597
33314SOL    HW199966   7.319   4.775   4.521
33314SOL    HW299967   7.329   4.801   4.682
33315SOL     OW99968   6.813   5.274   5.230
33315SOL    HW199969   6.819   5.197   5.294
33315SOL    HW299970   6.761   5.248   5.150
33316SOL     OW99971   5.907   4.667   3.966
33316SOL    HW199972   5.989   4.706   3.924
33316SOL    HW299973   5.880   4.585   3.917
33317SOL     OW99974   7.044   4.459   4.452
33317SOL    HW199975   7.039   4.394   4.527
33317SOL    HW299976   7.124   4.518   4.465
33318SOL     OW99977   6.047   4.990   5.451
33318SOL    HW199978   5.997   4.991   5.365
33318SOL    HW299979   5.984   4.972   5.527
33319SOL     OW99980   6.697   5.500   3.961
33319SOL    HW199981   6.637   5.438   4.011
33319SOL    HW299982   6.728   5.456   3.876
33320SOL     OW99983   5.788   4.009   5.222
33320SOL    HW199984   5.708   4.069   5.209
33320SOL    HW299985   5.778   3.960   5.308
33321SOL     OW99986   7.218   5.101   3.805
33321SOL    HW199987   7.186   5.195   3.795
33321SOL    HW299988   7.142   5.038   3.793
33322SOL     OW99989   6.050   5.467   4.047
33322SOL    HW199990   6.083   5.506   4.133
33322SOL    HW299991   6.126   5.460   3.982
33323SOL     OW99992   6.986   3.831   4.150
33323SOL    HW199993   6.962   3.794   4.060
33323SOL    HW299994   7.085   3.847   4.154
33324SOL     OW99995   5.835   5.509   4.965
33324SOL    HW199996   5.892   5.444   5.015
33324SOL    HW299997   5.819   5.476   4.872
33325SOL     OW99998   6.526   5.422   4.628
33325SOL    HW199999   6.606   5.365   4.649
33325SOL    HW2    0   6.477   5.382   4.551
33326SOL     OW    1   5.968   4.424   4.204
33326SOL    HW1    2   6.013   4.334   4.201
33326SOL    HW2    3   5.874   4.413   4.237
33327SOL     OW    4   7.133   3.946   5.453
33327SOL    HW1    5   7.128   3.983   5.545
33327SOL    HW2    6   7.061   3.877   5.441
33328SOL     OW    7   6.200   3.846   3.841
33328SOL    HW1    8   6.298   3.824   3.848
33328SOL    HW2    9   6.169   3.829   3.748
33329SOL     OW   10   6.367   3.988   5.473
33329SOL    HW1   11   6.434   3.927   5.516
33329SOL    HW2   12   6.294   4.007   5.538
33330SOL     OW   13   6.474   5.238   4.919
33330SOL    HW1   14   6.451   5.213   4.825
33330SOL    HW2   15   6.535   5.169   4.958
33331SOL     OW   16   6.937   4.314   5.157
33331SOL    HW1   17   6.965   4.271   5.242
33331SOL    HW2   18   6.962   4.410   5.158
33332SOL     OW   19   6.389   5.126   4.648
33332SOL    HW1   20   6.479   5.140   4.606
33332SOL    HW2   21   6.318   5.128   4.577
33333SOL     OW   22   6.508   4.227   4.623
33333SOL    HW1   23   6.483   4.218   4.527
33333SOL    HW2   24   6.556   4.145   4.654
33334SOL     OW   25   6.125   3.788   4.236
33334SOL    HW1   26   6.044   3.789   4.294
33334SOL    HW2   27   6.128   3.871   4.181
33335SOL     OW   28   7.020   4.912   3.765
33335SOL    HW1   29   7.052   4.836   3.822
33335SOL    HW2   30   6.928   4.939   3.795
33336SOL     OW   31   5.883   3.759   3.895
33336SOL    HW1   32   5.932   3.843   3.874
33336SOL    HW2   33   5.945   3.694   3.940
33337SOL     OW   34   6.521   3.960   4.204
33337SOL    HW1   35   6.473   4.001   4.126
33337SOL    HW2   36   6.620   3.958   4.185
33338SOL     OW   37   6.662   4.407   5.188
33338SOL    HW1   38   6.582   4.346   5.191
33338SOL    HW2   39   6.743   4.354   5.164
33339SOL     OW   40   6.813   5.294   4.517
33339SOL    HW1   41   6.834   5.368   4.452
33339SOL    HW2   42   6.881   5.294   4.590
33340SOL     OW   43   6.045   4.876   4.465
33340SOL    HW1   44   5.974   4.849   4.530
33340SOL    HW2   45   6.019   4.848   4.372
33341SOL     OW   46   6.857   5.521   4.315
33341SOL    HW1   47   6.901   5.585   4.251
33341SOL    HW2   48   6.807   5.573   4.385
33342SOL     OW   49   6.618   4.273   3.740
33342SOL    HW1   50   6.577   4.355   3.701
33342SOL    HW2   51   6.682   4.299   3.813
33343SOL     OW   52   5.664   4.280   5.110
33343SOL    HW1   53   5.756   4.279   5.069
33343SOL    HW2   54   5.658   4.354   5.177
33344SOL     OW   55   6.147   3.946   4.871
33344SOL    HW1   56   6.185   3.862   4.908
33344SOL    HW2   57   6.059   3.965   4.915
33345SOL     OW   58   6.452   4.178   4.366
33345SOL    HW1   59   6.420   4.250   4.304
33345SOL    HW2   60   6.476   4.097   4.313
33346SOL     OW   61   6.603   3.763   4.477
33346SOL    HW1   62   6.531   3.768   4.408
33346SOL    HW2   63   6.579   3.694   4.546
33347SOL     OW   64   7.015   4.897   4.591
33347SOL    HW1   65   6.960   4.813   4.584
33347SOL    HW2   66   7.041   4.926   4.499
33348SOL     OW   67   7.052   4.314   4.716
33348SOL    HW1   68   7.022   4.219   4.723
33348SOL    HW2   69   7.125   4.330   4.782
33349SOL     OW   70   7.443   4.557   4.101
33349SOL    HW1   71   7.485   4.493   4.165
33349SOL    HW2   72   7.405   4.506   4.023
33350SOL     OW   73   6.074   5.109   3.898
33350SOL    HW1   74   5.987   5.094   3.945
33350SOL    HW2   75   6.057   5.135   3.803
33351SOL     OW   76   7.250   5.004   4.381
33351SOL    HW1   77   7.349   5.012   4.395
33351SOL    HW2   78   7.205   5.088   4.412
33352SOL     OW   79   6.976   4.299   3.802
33352SOL    HW1   80   6.922   4.278   3.883
33352SOL    HW2   81   7.067   4.258   3.811
33353SOL     OW   82   6.113   3.980   4.052
33353SOL    HW1   83   6.140   3.921   3.977
33353SOL    HW2   84   6.113   4.075   4.021
33354SOL     OW   85   7.340   4.947   5.312
33354SOL    HW1   86   7.431   4.908   5.299
33354SOL    HW2   87   7.348   5.043   5.336
33355SOL     OW   88   6.650   5.071   5.064
33355SOL    HW1   89   6.570   5.048   5.119
33355SOL    HW2   90   6.733   5.045   5.113
33356SOL     OW   91   7.178   5.353   5.349
33356SOL    HW1   92   7.205   5.387   5.259
33356SOL    HW2   93   7.257   5.315   5.395
33357SOL     OW   94   6.697   4.919   4.824
33357SOL    HW1   95   6.657   4.963   4.905
33357SOL    HW2   96   6.656   4.956   4.741
33358SOL     OW   97   7.224   4.823   4.803
33358SOL    HW1   98   7.229   4.904   4.862
33358SOL    HW2   99   7.138   4.825   4.752
33359SOL     OW  100   6.501   3.813   5.126
33359SOL    HW1  101   6.526   3.793   5.031
33359SOL    HW2  102   6.573   3.869   5.168
33360SOL     OW  103   6.566   4.840   5.443
33360SOL    HW1  104   6.467   4.846   5.453
33360SOL    HW2  105   6.589   4.760   5.387
33361SOL     OW  106   6.291   4.774   4.092
33361SOL    HW1  107   6.277   4.781   4.191
33361SOL    HW2  108   6.375   4.723   4.074
33362SOL     OW  109   5.996   4.537   4.975
33362SOL    HW1  110   6.082   4.549   5.025
33362SOL    HW2  111   5.954   4.450   5.002
33363SOL     OW  112   6.860   4.110   4.986
33363SOL    HW1  113   6.881   4.184   5.050
33363SOL    HW2  114   6.771   4.127   4.943
33364SOL     OW  115   5.650   5.288   5.055
33364SOL    HW1  116   5.604   5.370   5.021
33364SOL    HW2  117   5.748   5.307   5.064
33365SOL     OW  118   5.953   4.824   4.225
33365SOL    HW1  119   5.946   4.907   4.169
33365SOL    HW2  120   5.957   4.744   4.165
33366SOL     OW  121   6.152   4.261   4.589
33366SOL    HW1  122   6.164   4.327   4.515
33366SOL    HW2  123   6.198   4.295   4.672
33367SOL     OW  124   6.838   5.072   4.112
33367SOL    HW1  125   6.888   5.149   4.152
33367SOL    HW2  126   6.743   5.074   4.144
33368SOL     OW  127   6.858   5.169   4.866
33368SOL    HW1  128   6.905   5.182   4.953
33368SOL    HW2  129   6.792   5.095   4.875
33369SOL     OW  130   7.168   4.363   4.196
33369SOL    HW1  131   7.137   4.424   4.269
33369SOL    HW2  132   7.218   4.415   4.127
33370SOL     OW  133   5.940   5.234   5.053
33370SOL    HW1  134   5.919   5.190   4.966
33370SOL    HW2  135   6.037   5.260   5.056
33371SOL     OW  136   5.988   4.475   5.322
33371SOL    HW1  137   6.056   4.530   5.275
33371SOL    HW2  138   6.028   4.387   5.349
33372SOL     OW  139   7.173   4.503   5.394
33372SOL    HW1  140   7.081   4.541   5.389
33372SOL    HW2  141   7.233   4.550   5.329
33373SOL     OW  142   6.599   3.829   5.494
33373SOL    HW1  143   6.605   3.914   5.442
33373SOL    HW2  144   6.631   3.753   5.437
33374SOL     OW  145   6.090   3.774   5.464
33374SOL    HW1  146   6.048   3.717   5.394
33374SOL    HW2  147   6.024   3.843   5.496
33375SOL     OW  148   6.159   4.594   4.753
33375SOL    HW1  149   6.203   4.683   4.744
33375SOL    HW2  150   6.096   4.594   4.830
33376SOL     OW  151   6.946   4.586   4.769
33376SOL    HW1  152   6.871   4.586   4.703
33376SOL    HW2  153   6.983   4.494   4.778
33377SOL     OW  154   6.795   4.249   3.999
33377SOL    HW1  155   6.808   4.165   4.053
33377SOL    HW2  156   6.766   4.323   4.059
33378SOL     OW  157   5.893   3.937   4.955
33378SOL    HW1  158   5.870   3.974   5.045
33378SOL    HW2  159   5.863   3.842   4.949
33379SOL     OW  160   5.623   5.034   5.006
33379SOL    HW1  161   5.676   4.985   5.074
33379SOL    HW2  162   5.645   5.132   5.011
33380SOL     OW  163   6.318   4.358   4.788
33380SOL    HW1  164   6.377   4.332   4.712
33380SOL    HW2  165   6.290   4.454   4.777
33381SOL     OW  166   7.314   4.659   5.578
33381SOL    HW1  167   7.268   4.652   5.489
33381SOL    HW2  168   7.252   4.703   5.644
33382SOL     OW  169   5.893   3.787   4.342
33382SOL    HW1  170   5.882   3.881   4.375
33382SOL    HW2  171   5.888   3.724   4.419
33383SOL     OW  172   7.208   4.091   4.098
33383SOL    HW1  173   7.210   4.015   4.162
33383SOL    HW2  174   7.160   4.168   4.138
33384SOL     OW  175   6.609   4.490   4.690
33384SOL    HW1  176   6.624   4.511   4.786
33384SOL    HW2  177   6.579   4.395   4.681
33385SOL     OW  178   6.566   5.297   5.424
33385SOL    HW1  179   6.546   5.341   5.336
33385SOL    HW2  180   6.605   5.206   5.408
33386SOL     OW  181   7.445   5.242   5.329
33386SOL    HW1  182   7.459   5.269   5.234
33386SOL    HW2  183   7.528   5.264   5.382
33387SOL     OW  184   5.936   4.622   5.528
33387SOL    HW1  185   6.012   4.666   5.576
33387SOL    HW2  186   5.971   4.575   5.446
33388SOL     OW  187   7.126   3.998   3.849
33388SOL    HW1  188   7.065   3.923   3.872
33388SOL    HW2  189   7.148   4.050   3.932
33389SOL     OW  190   6.889   4.562   3.766
33389SOL    HW1  191   6.923   4.469   3.781
33389SOL    HW2  192   6.907   4.589   3.671
33390SOL     OW  193   6.654   5.057   4.573
33390SOL    HW1  194   6.661   4.973   4.518
33390SOL    HW2  195   6.716   5.126   4.537
33391SOL     OW  196   5.905   4.534   4.673
33391SOL    HW1  197   5.998   4.570   4.678
33391SOL    HW2  198   5.899   4.449   4.725
33392SOL     OW  199   5.925   4.233   4.730
33392SOL    HW1  200   5.873   4.150   4.713
33392SOL    HW2  201   6.002   4.238   4.666
33393SOL     OW  202   6.724   4.104   5.402
33393SOL    HW1  203   6.679   4.167   5.466
33393SOL    HW2  204   6.817   4.135   5.385
33394SOL     OW  205   6.746   3.931   5.201
33394SOL    HW1  206   6.746   3.995   5.278
33394SOL    HW2  207   6.774   3.979   5.118
33395SOL     OW  208   5.594   5.050   3.924
33395SOL    HW1  209   5.501   5.071   3.893
33395SOL    HW2  210   5.604   4.951   3.937
33396SOL     OW  211   5.674   5.525   4.651
33396SOL    HW1  212   5.632   5.439   4.624
33396SOL    HW2  213   5.768   5.528   4.617
33397SOL     OW  214   6.090   5.292   4.634
33397SOL    HW1  215   6.156   5.366   4.643
33397SOL    HW2  216   6.134   5.213   4.592
33398SOL     OW  217   6.588   4.520   4.962
33398SOL    HW1  218   6.629   4.488   5.048
33398SOL    HW2  219   6.492   4.493   4.959
33399SOL     OW  220   5.626   4.268   4.838
33399SOL    HW1  221   5.711   4.235   4.797
33399SOL    HW2  222   5.639   4.283   4.936
33400SOL     OW  223   5.775   4.244   5.446
33400SOL    HW1  224   5.834   4.204   5.376
33400SOL    HW2  225   5.717   4.315   5.405
33401SOL     OW  226   6.955   4.674   5.384
33401SOL    HW1  227   6.994   4.763   5.404
33401SOL    HW2  228   6.965   4.654   5.287
33402SOL     OW  229   6.401   4.296   4.049
33402SOL    HW1  230   6.408   4.207   4.003
33402SOL    HW2  231   6.307   4.330   4.041
33403SOL     OW  232   7.243   4.328   4.930
33403SOL    HW1  233   7.205   4.259   4.992
33403SOL    HW2  234   7.325   4.292   4.886
33404SOL     OW  235   5.838   5.288   5.468
33404SOL    HW1  236   5.808   5.345   5.544
33404SOL    HW2  237   5.831   5.191   5.494
33405SOL     OW  238   6.257   4.188   4.993
33405SOL    HW1  239   6.223   4.099   4.963
33405SOL    HW2  240   6.283   4.242   4.913
33406SOL     OW  241   6.516   5.402   5.189
33406SOL    HW1  242   6.492   5.384   5.094
33406SOL    HW2  243   6.546   5.496   5.199
33407SOL     OW  244   6.059   4.224   3.915
33407SOL    HW1  245   6.120   4.304   3.919
33407SOL    HW2  246   5.964   4.255   3.922
33408SOL     OW  247   5.745   4.861   5.190
33408SOL    HW1  248   5.767   4.800   5.266
33408SOL    HW2  249   5.755   4.812   5.104
33409SOL     OW  250   6.933   4.783   4.958
33409SOL    HW1  251   6.957   4.720   4.884
33409SOL    HW2  252   6.843   4.823   4.940
33410SOL     OW  253   6.888   4.579   4.033
33410SOL    HW1  254   6.802   4.548   4.075
33410SOL    HW2  255   6.884   4.565   3.934
33411SOL     OW  256   7.345   5.471   4.878
33411SOL    HW1  257   7.406   5.501   4.805
33411SOL    HW2  258   7.307   5.382   4.856
33412SOL     OW  259   6.838   5.455   4.852
33412SOL    HW1  260   6.922   5.460   4.798
33412SOL    HW2  261   6.815   5.359   4.870
33413SOL     OW  262   5.669   4.982   4.746
33413SOL    HW1  263   5.664   4.981   4.846
33413SOL    HW2  264   5.586   4.941   4.708
33414SOL     OW  265   6.274   5.386   5.440
33414SOL    HW1  266   6.218   5.467   5.449
33414SOL    HW2  267   6.326   5.390   5.354
33415SOL     OW  268   7.312   3.859   4.247
33415SOL    HW1  269   7.385   3.842   4.180
33415SOL    HW2  270   7.281   3.772   4.285
33416SOL     OW  271   6.974   5.297   4.201
33416SOL    HW1  272   7.041   5.309   4.127
33416SOL    HW2  273   6.934   5.386   4.224
33417SOL     OW  274   5.716   5.518   5.575
33417SOL    HW1  275   5.675   5.444   5.628
33417SOL    HW2  276   5.780   5.569   5.633
33418SOL     OW  277   6.866   4.651   4.396
33418SOL    HW1  278   6.926   4.570   4.398
33418SOL    HW2  279   6.906   4.720   4.336
33419SOL     OW  280   6.416   4.997   5.146
33419SOL    HW1  281   6.411   5.030   5.241
33419SOL    HW2  282   6.330   5.016   5.100
33420SOL     OW  283   6.258   5.340   3.878
33420SOL    HW1  284   6.267   5.350   3.779
33420SOL    HW2  285   6.218   5.251   3.899
33421SOL     OW  286   7.236   5.444   5.118
33421SOL    HW1  287   7.289   5.454   5.034
33421SOL    HW2  288   7.209   5.534   5.152
33422SOL     OW  289   7.427   3.899   4.687
33422SOL    HW1  290   7.466   3.814   4.651
33422SOL    HW2  291   7.329   3.901   4.668
33423SOL     OW  292   5.849   4.050   4.444
33423SOL    HW1  293   5.770   4.101   4.410
33423SOL    HW2  294   5.840   4.035   4.542
33424SOL     OW  295   6.780   5.336   3.755
33424SOL    HW1  296   6.786   5.243   3.792
33424SOL    HW2  297   6.721   5.336   3.675
33425SOL     OW  298   6.408   4.726   5.096
33425SOL    HW1  299   6.448   4.725   5.004
33425SOL    HW2  300   6.418   4.818   5.136
33426SOL     OW  301   6.502   4.634   4.015
33426SOL    HW1  302   6.565   4.672   3.947
33426SOL    HW2  303   6.542   4.551   4.054
33427SOL     OW  304   7.090   5.331   3.768
33427SOL    HW1  305   6.998   5.368   3.775
33427SOL    HW2  306   7.128   5.351   3.678
33428SOL     OW  307   5.958   5.012   5.214
33428SOL    HW1  308   5.945   5.105   5.180
33428SOL    HW2  309   5.874   4.960   5.201
33429SOL     OW  310   7.200   5.016   5.013
33429SOL    HW1  311   7.260   5.019   5.093
33429SOL    HW2  312   7.125   5.080   5.026
33430SOL     OW  313   6.625   4.822   4.420
33430SOL    HW1  314   6.555   4.775   4.474
33430SOL    HW2  315   6.684   4.754   4.377
33431SOL     OW  316   6.600   3.960   4.695
33431SOL    HW1  317   6.592   3.924   4.602
33431SOL    HW2  318   6.598   3.884   4.760
33432SOL     OW  319   6.176   5.211   4.215
33432SOL    HW1  320   6.218   5.153   4.145
33432SOL    HW2  321   6.132   5.290   4.171
33433SOL     OW  322   7.295   4.109   5.105
33433SOL    HW1  323   7.368   4.178   5.109
33433SOL    HW2  324   7.323   4.034   5.046
33434SOL     OW  325   5.841   5.072   4.014
33434SOL    HW1  326   5.745   5.073   3.987
33434SOL    HW2  327   5.853   5.125   4.098
33435SOL     OW  328   5.691   4.737   5.450
33435SOL    HW1  329   5.614   4.704   5.504
33435SOL    HW2  330   5.776   4.707   5.492
33436SOL     OW  331   6.258   3.927   5.213
33436SOL    HW1  332   6.348   3.911   5.173
33436SOL    HW2  333   6.266   3.932   5.312
33437SOL     OW  334   5.661   4.069   3.757
33437SOL    HW1  335   5.569   4.041   3.728
33437SOL    HW2  336   5.692   4.146   3.701
33438SOL     OW  337   7.026   4.580   5.122
33438SOL    HW1  338   6.969   4.632   5.059
33438SOL    HW2  339   7.122   4.592   5.098
33439SOL     OW  340   5.658   3.890   4.042
33439SOL    HW1  341   5.641   3.973   3.988
33439SOL    HW2  342   5.748   3.853   4.020
33440SOL     OW  343   6.769   5.059   3.843
33440SOL    HW1  344   6.670   5.048   3.845
33440SOL    HW2  345   6.803   5.074   3.936
33441SOL     OW  346   6.199   4.566   5.155
33441SOL    HW1  347   6.255   4.647   5.138
33441SOL    HW2  348   6.258   4.486   5.158
33442SOL     OW  349   7.079   5.491   4.683
33442SOL    HW1  350   7.112   5.555   4.614
33442SOL    HW2  351   7.145   5.485   4.758
33443SOL     OW  352   6.302   4.289   5.432
33443SOL    HW1  353   6.321   4.354   5.506
33443SOL    HW2  354   6.362   4.209   5.441
33444SOL     OW  355   7.036   4.944   5.357
33444SOL    HW1  356   7.027   4.934   5.456
33444SOL    HW2  357   7.132   4.937   5.331
33445SOL     OW  358   5.976   5.465   5.284
33445SOL    HW1  359   5.885   5.506   5.282
33445SOL    HW2  360   5.969   5.371   5.316
33446SOL     OW  361   7.260   4.607   4.978
33446SOL    HW1  362   7.233   4.518   4.941
33446SOL    HW2  363   7.261   4.675   4.905
33447SOL     OW  364   6.811   4.049   4.173
33447SOL    HW1  365   6.876   3.975   4.162
33447SOL    HW2  366   6.831   4.099   4.257
33448SOL     OW  367   6.180   4.469   4.376
33448SOL    HW1  368   6.230   4.554   4.357
33448SOL    HW2  369   6.092   4.471   4.328
33449SOL     OW  370   7.363   4.066   5.366
33449SOL    HW1  371   7.346   4.097   5.272
33449SOL    HW2  372   7.279   4.029   5.404
33450SOL     OW  373   7.316   4.658   5.241
33450SOL    HW1  374   7.354   4.749   5.256
33450SOL    HW2  375   7.308   4.641   5.142
33451SOL     OW  376   6.445   5.098   3.740
33451SOL    HW1  377   6.399   5.113   3.828
33451SOL    HW2  378   6.489   5.183   3.710
33452SOL     OW  379   6.247   5.514   4.677
33452SOL    HW1  380   6.201   5.602   4.664
33452SOL    HW2  381   6.346   5.526   4.670
33453SOL     OW  382   6.445   4.680   4.585
33453SOL    HW1  383   6.499   4.611   4.633
33453SOL    HW2  384   6.413   4.749   4.651
33454SOL     OW  385   6.669   4.708   3.811
33454SOL    HW1  386   6.646   4.761   3.729
33454SOL    HW2  387   6.750   4.652   3.792
33455SOL     OW  388   7.447   5.293   4.575
33455SOL    HW1  389   7.376   5.281   4.505
33455SOL    HW2  390   7.448   5.214   4.635
33456SOL     OW  391   5.807   5.038   5.568
33456SOL    HW1  392   5.742   4.965   5.547
33456SOL    HW2  393   5.811   5.052   5.666
33457SOL     OW  394   5.665   4.964   4.377
33457SOL    HW1  395   5.664   4.917   4.465
33457SOL    HW2  396   5.747   4.936   4.326
33458SOL     OW  397   6.258   5.115   5.348
33458SOL    HW1  398   6.180   5.065   5.386
33458SOL    HW2  399   6.255   5.210   5.379
33459SOL     OW  400   7.410   3.916   4.951
33459SOL    HW1  401   7.406   3.826   4.995
33459SOL    HW2  402   7.413   3.905   4.852
33460SOL     OW  403   6.014   4.148   4.244
33460SOL    HW1  404   6.044   4.076   4.182
33460SOL    HW2  405   5.975   4.108   4.327
33461SOL     OW  406   7.291   5.211   4.828
33461SOL    HW1  407   7.198   5.186   4.801
33461SOL    HW2  408   7.317   5.161   4.910
33462SOL     OW  409   5.903   4.271   5.004
33462SOL    HW1  410   5.941   4.212   5.076
33462SOL    HW2  411   5.943   4.245   4.916
33463SOL     OW  412   6.398   5.310   4.411
33463SOL    HW1  413   6.430   5.320   4.317
33463SOL    HW2  414   6.319   5.248   4.413
33464SOL     OW  415   7.010   3.938   4.836
33464SOL    HW1  416   7.062   3.873   4.891
33464SOL    HW2  417   6.961   4.001   4.897
33465SOL     OW  418   6.587   3.758   4.878
33465SOL    HW1  419   6.524   3.686   4.847
33465SOL    HW2  420   6.680   3.722   4.878
33466SOL     OW  421   6.356   5.054   4.025
33466SOL    HW1  422   6.310   4.967   4.042
33466SOL    HW2  423   6.447   5.051   4.066
33467SOL     OW  424   6.204   5.291   5.008
33467SOL    HW1  425   6.199   5.373   5.065
33467SOL    HW2  426   6.293   5.288   4.963
33468SOL     OW  427   6.938   3.776   3.892
33468SOL    HW1  428   6.973   3.735   3.808
33468SOL    HW2  429   6.848   3.738   3.912
33469SOL     OW  430   6.886   4.177   4.415
33469SOL    HW1  431   6.827   4.257   4.419
33469SOL    HW2  432   6.901   4.142   4.508
33470SOL     OW  433   7.179   3.945   4.606
33470SOL    HW1  434   7.095   3.944   4.660
33470SOL    HW2  435   7.181   4.028   4.550
33471SOL     OW  436   5.625   4.801   4.024
33471SOL    HW1  437   5.724   4.790   4.015
33471SOL    HW2  438   5.585   4.715   4.056
33472SOL     OW  439   6.461   5.370   4.061
33472SOL    HW1  440   6.384   5.335   4.007
33472SOL    HW2  441   6.429   5.441   4.123
33473SOL     OW  442   5.816   4.352   5.699
33473SOL    HW1  443   5.723   4.350   5.736
33473SOL    HW2  444   5.817   4.313   5.607
33474SOL     OW  445   5.811   3.999   6.582
33474SOL    HW1  446   5.846   3.982   6.674
33474SOL    HW2  447   5.723   3.954   6.570
33475SOL     OW  448   5.605   4.092   6.233
33475SOL    HW1  449   5.523   4.135   6.272
33475SOL    HW2  450   5.577   4.019   6.170
33476SOL     OW  451   6.155   4.999   6.751
33476SOL    HW1  452   6.062   4.992   6.714
33476SOL    HW2  453   6.166   5.088   6.795
33477SOL     OW  454   7.141   5.235   6.289
33477SOL    HW1  455   7.084   5.219   6.370
33477SOL    HW2  456   7.082   5.245   6.209
33478SOL     OW  457   6.721   4.427   6.303
33478SOL    HW1  458   6.778   4.505   6.278
33478SOL    HW2  459   6.661   4.453   6.379
33479SOL     OW  460   7.341   4.331   5.817
33479SOL    HW1  461   7.329   4.318   5.718
33479SOL    HW2  462   7.311   4.250   5.866
33480SOL     OW  463   6.354   4.868   6.609
33480SOL    HW1  464   6.276   4.885   6.669
33480SOL    HW2  465   6.388   4.955   6.573
33481SOL     OW  466   6.436   4.522   7.409
33481SOL    HW1  467   6.432   4.598   7.474
33481SOL    HW2  468   6.458   4.558   7.318
33482SOL     OW  469   6.271   4.736   6.251
33482SOL    HW1  470   6.340   4.720   6.321
33482SOL    HW2  471   6.198   4.793   6.289
33483SOL     OW  472   6.272   4.885   7.389
33483SOL    HW1  473   6.332   4.964   7.403
33483SOL    HW2  474   6.186   4.916   7.348
33484SOL     OW  475   5.921   5.159   6.647
33484SOL    HW1  476   5.843   5.128   6.594
33484SOL    HW2  477   5.979   5.217   6.590
33485SOL     OW  478   7.046   5.229   6.925
33485SOL    HW1  479   7.070   5.323   6.951
33485SOL    HW2  480   7.030   5.175   7.007
33486SOL     OW  481   6.024   4.116   7.085
33486SOL    HW1  482   6.106   4.060   7.094
33486SOL    HW2  483   5.943   4.058   7.089
33487SOL     OW  484   7.189   4.171   6.323
33487SOL    HW1  485   7.115   4.217   6.273
33487SOL    HW2  486   7.240   4.239   6.376
33488SOL     OW  487   5.817   5.437   6.069
33488SOL    HW1  488   5.851   5.514   6.123
33488SOL    HW2  489   5.861   5.437   5.979
33489SOL     OW  490   6.713   5.065   7.276
33489SOL    HW1  491   6.760   5.065   7.364
33489SOL    HW2  492   6.665   4.978   7.265
33490SOL     OW  493   5.816   5.158   6.124
33490SOL    HW1  494   5.790   5.254   6.124
33490SOL    HW2  495   5.745   5.104   6.169
33491SOL     OW  496   5.826   4.815   6.472
33491SOL    HW1  497   5.840   4.731   6.524
33491SOL    HW2  498   5.771   4.879   6.527
33492SOL     OW  499   6.206   5.510   7.025
33492SOL    HW1  500   6.114   5.493   7.060
33492SOL    HW2  501   6.234   5.602   7.051
33493SOL     OW  502   6.192   4.688   5.709
33493SOL    HW1  503   6.199   4.772   5.655
33493SOL    HW2  504   6.238   4.701   5.797
33494SOL     OW  505   7.180   3.838   7.066
33494SOL    HW1  506   7.162   3.905   6.994
33494SOL    HW2  507   7.177   3.884   7.155
33495SOL     OW  508   5.708   4.367   6.149
33495SOL    HW1  509   5.663   4.279   6.166
33495SOL    HW2  510   5.707   4.421   6.233
33496SOL     OW  511   7.428   5.491   5.945
33496SOL    HW1  512   7.482   5.462   6.025
33496SOL    HW2  513   7.458   5.581   5.916
33497SOL     OW  514   5.613   5.320   5.703
33497SOL    HW1  515   5.594   5.224   5.724
33497SOL    HW2  516   5.580   5.378   5.778
33498SOL     OW  517   7.275   4.646   6.198
33498SOL    HW1  518   7.370   4.617   6.206
33498SOL    HW2  519   7.267   4.711   6.123
33499SOL     OW  520   7.227   4.832   6.018
33499SOL    HW1  521   7.313   4.834   5.966
33499SOL    HW2  522   7.241   4.879   6.106
33500SOL     OW  523   5.699   4.461   7.183
33500SOL    HW1  524   5.787   4.448   7.228
33500SOL    HW2  525   5.686   4.558   7.161
33501SOL     OW  526   6.199   5.089   6.312
33501SOL    HW1  527   6.150   5.002   6.321
33501SOL    HW2  528   6.176   5.132   6.225
33502SOL     OW  529   6.879   4.952   7.009
33502SOL    HW1  530   6.916   4.879   6.951
33502SOL    HW2  531   6.931   4.957   7.094
33503SOL     OW  532   6.395   3.728   6.088
33503SOL    HW1  533   6.435   3.819   6.079
33503SOL    HW2  534   6.295   3.736   6.094
33504SOL     OW  535   5.783   4.700   6.850
33504SOL    HW1  536   5.872   4.655   6.836
33504SOL    HW2  537   5.710   4.635   6.831
33505SOL     OW  538   7.111   4.723   5.776
33505SOL    HW1  539   7.048   4.647   5.789
33505SOL    HW2  540   7.159   4.741   5.862
33506SOL     OW  541   6.773   5.516   7.202
33506SOL    HW1  542   6.797   5.576   7.126
33506SOL    HW2  543   6.780   5.421   7.172
33507SOL     OW  544   5.903   3.975   7.387
33507SOL    HW1  545   5.974   4.046   7.393
33507SOL    HW2  546   5.815   4.014   7.415
33508SOL     OW  547   7.052   5.141   6.539
33508SOL    HW1  548   6.993   5.147   6.619
33508SOL    HW2  549   7.037   5.053   6.493
33509SOL     OW  550   7.253   5.438   6.158
33509SOL    HW1  551   7.212   5.415   6.070
33509SOL    HW2  552   7.235   5.364   6.223
33510SOL     OW  553   6.184   4.453   5.856
33510SOL    HW1  554   6.208   4.522   5.788
33510SOL    HW2  555   6.106   4.486   5.910
33511SOL     OW  556   6.867   4.069   6.530
33511SOL    HW1  557   6.781   4.019   6.517
33511SOL    HW2  558   6.929   4.015   6.586
33512SOL     OW  559   7.162   5.386   5.893
33512SOL    HW1  560   7.251   5.432   5.896
33512SOL    HW2  561   7.141   5.362   5.798
33513SOL     OW  562   6.393   4.329   7.051
33513SOL    HW1  563   6.346   4.326   7.140
33513SOL    HW2  564   6.342   4.274   6.985
33514SOL     OW  565   6.980   4.193   7.260
33514SOL    HW1  566   6.960   4.236   7.348
33514SOL    HW2  567   7.058   4.131   7.269
33515SOL     OW  568   6.559   4.614   7.158
33515SOL    HW1  569   6.605   4.530   7.129
33515SOL    HW2  570   6.503   4.648   7.083
33516SOL     OW  571   6.577   4.134   6.828
33516SOL    HW1  572   6.500   4.168   6.882
33516SOL    HW2  573   6.543   4.083   6.749
33517SOL     OW  574   6.627   4.425   6.015
33517SOL    HW1  575   6.653   4.421   6.111
33517SOL    HW2  576   6.542   4.374   6.001
33518SOL     OW  577   5.662   4.535   6.375
33518SOL    HW1  578   5.761   4.523   6.384
33518SOL    HW2  579   5.638   4.630   6.396
33519SOL     OW  580   5.716   5.545   7.157
33519SOL    HW1  581   5.706   5.530   7.256
33519SOL    HW2  582   5.630   5.581   7.121
33520SOL     OW  583   6.451   4.072   5.781
33520SOL    HW1  584   6.510   4.135   5.732
33520SOL    HW2  585   6.470   3.978   5.752
33521SOL     OW  586   7.305   4.309   7.417
33521SOL    HW1  587   7.279   4.398   7.381
33521SOL    HW2  588   7.303   4.241   7.344
33522SOL     OW  589   6.948   4.868   6.131
33522SOL    HW1  590   7.031   4.839   6.083
33522SOL    HW2  591   6.899   4.935   6.075
33523SOL     OW  592   6.136   3.920   6.471
33523SOL    HW1  593   6.131   3.915   6.571
33523SOL    HW2  594   6.138   4.016   6.442
33524SOL     OW  595   6.594   5.180   6.063
33524SOL    HW1  596   6.548   5.252   6.011
33524SOL    HW2  597   6.590   5.200   6.161
33525SOL     OW  598   5.937   5.525   6.439
33525SOL    HW1  599   5.987   5.439   6.445
33525SOL    HW2  600   6.002   5.602   6.436
33526SOL     OW  601   7.381   4.790   6.459
33526SOL    HW1  602   7.319   4.775   6.383
33526SOL    HW2  603   7.329   4.801   6.544
33527SOL     OW  604   6.813   5.274   7.092
33527SOL    HW1  605   6.819   5.197   7.156
33527SOL    HW2  606   6.761   5.248   7.012
33528SOL     OW  607   5.907   4.667   5.828
33528SOL    HW1  608   5.989   4.706   5.786
33528SOL    HW2  609   5.880   4.585   5.779
33529SOL     OW  610   7.044   4.459   6.314
33529SOL    HW1  611   7.039   4.394   6.389
33529SOL    HW2  612   7.124   4.518   6.327
33530SOL     OW  613   6.047   4.990   7.313
33530SOL    HW1  614   5.997   4.991   7.227
33530SOL    HW2  615   5.984   4.972   7.389
33531SOL     OW  616   6.697   5.500   5.823
33531SOL    HW1  617   6.637   5.438   5.873
33531SOL    HW2  618   6.728   5.456   5.738
33532SOL     OW  619   5.788   4.009   7.084
33532SOL    HW1  620   5.708   4.069   7.071
33532SOL    HW2  621   5.778   3.960   7.170
33533SOL     OW  622   7.218   5.101   5.667
33533SOL    HW1  623   7.186   5.195   5.657
33533SOL    HW2  624   7.142   5.038   5.655
33534SOL     OW  625   6.050   5.467   5.909
33534SOL    HW1  626   6.083   5.506   5.995
33534SOL    HW2  627   6.126   5.460   5.844
33535SOL     OW  628   6.986   3.831   6.012
33535SOL    HW1  629   6.962   3.794   5.922
33535SOL    HW2  630   7.085   3.847   6.016
33536SOL     OW  631   5.835   5.509   6.827
33536SOL    HW1  632   5.892   5.444   6.877
33536SOL    HW2  633   5.819   5.476   6.734
33537SOL     OW  634   6.526   5.422   6.490
33537SOL    HW1  635   6.606   5.365   6.511
33537SOL    HW2  636   6.477   5.382   6.413
33538SOL     OW  637   5.968   4.424   6.066
33538SOL    HW1  638   6.013   4.334   6.063
33538SOL    HW2  639   5.874   4.413   6.099
33539SOL     OW  640   7.133   3.946   7.315
33539SOL    HW1  641   7.128   3.983   7.407
33539SOL    HW2  642   7.061   3.877   7.303
33540SOL     OW  643   6.200   3.846   5.703
33540SOL    HW1  644   6.298   3.824   5.710
33540SOL    HW2  645   6.169   3.829   5.610
33541SOL     OW  646   6.367   3.988   7.335
33541SOL    HW1  647   6.434   3.927   7.378
33541SOL    HW2  648   6.294   4.007   7.400
33542SOL     OW  649   6.474   5.238   6.781
33542SOL    HW1  650   6.451   5.213   6.687
33542SOL    HW2  651   6.535   5.169   6.820
33543SOL     OW  652   6.937   4.314   7.019
33543SOL    HW1  653   6.965   4.271   7.104
33543SOL    HW2  654   6.962   4.410   7.020
33544SOL     OW  655   6.389   5.126   6.510
33544SOL    HW1  656   6.479   5.140   6.468
33544SOL    HW2  657   6.318   5.128   6.439
33545SOL     OW  658   6.508   4.227   6.485
33545SOL    HW1  659   6.483   4.218   6.389
33545SOL    HW2  660   6.556   4.145   6.516
33546SOL     OW  661   6.125   3.788   6.098
33546SOL    HW1  662   6.044   3.789   6.156
33546SOL    HW2  663   6.128   3.871   6.043
33547SOL     OW  664   7.020   4.912   5.627
33547SOL    HW1  665   7.052   4.836   5.684
33547SOL    HW2  666   6.928   4.939   5.657
33548SOL     OW  667   5.883   3.759   5.757
33548SOL    HW1  668   5.932   3.843   5.736
33548SOL    HW2  669   5.945   3.694   5.802
33549SOL     OW  670   6.521   3.960   6.066
33549SOL    HW1  671   6.473   4.001   5.988
33549SOL    HW2  672   6.620   3.958   6.047
33550SOL     OW  673   6.662   4.407   7.050
33550SOL    HW1  674   6.582   4.346   7.053
33550SOL    HW2  675   6.743   4.354   7.026
33551SOL     OW  676   6.813   5.294   6.379
33551SOL    HW1  677   6.834   5.368   6.314
33551SOL    HW2  678   6.881   5.294   6.452
33552SOL     OW  679   6.045   4.876   6.327
33552SOL    HW1  680   5.974   4.849   6.392
33552SOL    HW2  681   6.019   4.848   6.234
33553SOL     OW  682   6.857   5.521   6.177
33553SOL    HW1  683   6.901   5.585   6.113
33553SOL    HW2  684   6.807   5.573   6.247
33554SOL     OW  685   6.618   4.273   5.602
33554SOL    HW1  686   6.577   4.355   5.563
33554SOL    HW2  687   6.682   4.299   5.675
33555SOL     OW  688   5.664   4.280   6.972
33555SOL    HW1  689   5.756   4.279   6.931
33555SOL    HW2  690   5.658   4.354   7.039
33556SOL     OW  691   6.147   3.946   6.733
33556SOL    HW1  692   6.185   3.862   6.770
33556SOL    HW2  693   6.059   3.965   6.777
33557SOL     OW  694   6.452   4.178   6.228
33557SOL    HW1  695   6.420   4.250   6.166
33557SOL    HW2  696   6.476   4.097   6.175
33558SOL     OW  697   6.603   3.763   6.339
33558SOL    HW1  698   6.531   3.768   6.270
33558SOL    HW2  699   6.579   3.694   6.408
33559SOL     OW  700   7.015   4.897   6.453
33559SOL    HW1  701   6.960   4.813   6.446
33559SOL    HW2  702   7.041   4.926   6.361
33560SOL     OW  703   7.052   4.314   6.578
33560SOL    HW1  704   7.022   4.219   6.585
33560SOL    HW2  705   7.125   4.330   6.644
33561SOL     OW  706   7.443   4.557   5.963
33561SOL    HW1  707   7.485   4.493   6.027
33561SOL    HW2  708   7.405   4.506   5.885
33562SOL     OW  709   6.074   5.109   5.760
33562SOL    HW1  710   5.987   5.094   5.807
33562SOL    HW2  711   6.057   5.135   5.665
33563SOL     OW  712   7.250   5.004   6.243
33563SOL    HW1  713   7.349   5.012   6.257
33563SOL    HW2  714   7.205   5.088   6.274
33564SOL     OW  715   6.976   4.299   5.664
33564SOL    HW1  716   6.922   4.278   5.745
33564SOL    HW2  717   7.067   4.258   5.673
33565SOL     OW  718   6.113   3.980   5.914
33565SOL    HW1  719   6.140   3.921   5.839
33565SOL    HW2  720   6.113   4.075   5.883
33566SOL     OW  721   7.340   4.947   7.174
33566SOL    HW1  722   7.431   4.908   7.161
33566SOL    HW2  723   7.348   5.043   7.198
33567SOL     OW  724   6.650   5.071   6.926
33567SOL    HW1  725   6.570   5.048   6.981
33567SOL    HW2  726   6.733   5.045   6.975
33568SOL     OW  727   7.178   5.353   7.211
33568SOL    HW1  728   7.205   5.387   7.121
33568SOL    HW2  729   7.257   5.315   7.257
33569SOL     OW  730   6.697   4.919   6.686
33569SOL    HW1  731   6.657   4.963   6.767
33569SOL    HW2  732   6.656   4.956   6.603
33570SOL     OW  733   7.224   4.823   6.665
33570SOL    HW1  734   7.229   4.904   6.724
33570SOL    HW2  735   7.138   4.825   6.614
33571SOL     OW  736   6.501   3.813   6.988
33571SOL    HW1  737   6.526   3.793   6.893
33571SOL    HW2  738   6.573   3.869   7.030
33572SOL     OW  739   6.566   4.840   7.305
33572SOL    HW1  740   6.467   4.846   7.315
33572SOL    HW2  741   6.589   4.760   7.249
33573SOL     OW  742   6.291   4.774   5.954
33573SOL    HW1  743   6.277   4.781   6.053
33573SOL    HW2  744   6.375   4.723   5.936
33574SOL     OW  745   5.996   4.537   6.837
33574SOL    HW1  746   6.082   4.549   6.887
33574SOL    HW2  747   5.954   4.450   6.864
33575SOL     OW  748   6.860   4.110   6.848
33575SOL    HW1  749   6.881   4.184   6.912
33575SOL    HW2  750   6.771   4.127   6.805
33576SOL     OW  751   5.650   5.288   6.917
33576SOL    HW1  752   5.604   5.370   6.883
33576SOL    HW2  753   5.748   5.307   6.926
33577SOL     OW  754   5.953   4.824   6.087
33577SOL    HW1  755   5.946   4.907   6.031
33577SOL    HW2  756   5.957   4.744   6.027
33578SOL     OW  757   6.152   4.261   6.451
33578SOL    HW1  758   6.164   4.327   6.377
33578SOL    HW2  759   6.198   4.295   6.534
33579SOL     OW  760   6.838   5.072   5.974
33579SOL    HW1  761   6.888   5.149   6.014
33579SOL    HW2  762   6.743   5.074   6.006
33580SOL     OW  763   6.858   5.169   6.728
33580SOL    HW1  764   6.905   5.182   6.815
33580SOL    HW2  765   6.792   5.095   6.737
33581SOL     OW  766   7.168   4.363   6.058
33581SOL    HW1  767   7.137   4.424   6.131
33581SOL    HW2  768   7.218   4.415   5.989
33582SOL     OW  769   5.940   5.234   6.915
33582SOL    HW1  770   5.919   5.190   6.828
33582SOL    HW2  771   6.037   5.260   6.918
33583SOL     OW  772   5.988   4.475   7.184
33583SOL    HW1  773   6.056   4.530   7.137
33583SOL    HW2  774   6.028   4.387   7.211
33584SOL     OW  775   7.173   4.503   7.256
33584SOL    HW1  776   7.081   4.541   7.251
33584SOL    HW2  777   7.233   4.550   7.191
33585SOL     OW  778   6.599   3.829   7.356
33585SOL    HW1  779   6.605   3.914   7.304
33585SOL    HW2  780   6.631   3.753   7.299
33586SOL     OW  781   6.090   3.774   7.326
33586SOL    HW1  782   6.048   3.717   7.256
33586SOL    HW2  783   6.024   3.843   7.358
33587SOL     OW  784   6.159   4.594   6.615
33587SOL    HW1  785   6.203   4.683   6.606
33587SOL    HW2  786   6.096   4.594   6.692
33588SOL     OW  787   6.946   4.586   6.631
33588SOL    HW1  788   6.871   4.586   6.565
33588SOL    HW2  789   6.983   4.494   6.640
33589SOL     OW  790   6.795   4.249   5.861
33589SOL    HW1  791   6.808   4.165   5.915
33589SOL    HW2  792   6.766   4.323   5.921
33590SOL     OW  793   5.893   3.937   6.817
33590SOL    HW1  794   5.870   3.974   6.907
33590SOL    HW2  795   5.863   3.842   6.811
33591SOL     OW  796   5.623   5.034   6.868
33591SOL    HW1  797   5.676   4.985   6.936
33591SOL    HW2  798   5.645   5.132   6.873
33592SOL     OW  799   6.318   4.358   6.650
33592SOL    HW1  800   6.377   4.332   6.574
33592SOL    HW2  801   6.290   4.454   6.639
33593SOL     OW  802   7.314   4.659   7.440
33593SOL    HW1  803   7.268   4.652   7.351
33593SOL    HW2  804   7.252   4.703   7.506
33594SOL     OW  805   5.893   3.787   6.204
33594SOL    HW1  806   5.882   3.881   6.237
33594SOL    HW2  807   5.888   3.724   6.281
33595SOL     OW  808   7.208   4.091   5.960
33595SOL    HW1  809   7.210   4.015   6.024
33595SOL    HW2  810   7.160   4.168   6.000
33596SOL     OW  811   6.609   4.490   6.552
33596SOL    HW1  812   6.624   4.511   6.648
33596SOL    HW2  813   6.579   4.395   6.543
33597SOL     OW  814   6.566   5.297   7.286
33597SOL    HW1  815   6.546   5.341   7.198
33597SOL    HW2  816   6.605   5.206   7.270
33598SOL     OW  817   7.445   5.242   7.191
33598SOL    HW1  818   7.459   5.269   7.096
33598SOL    HW2  819   7.528   5.264   7.244
33599SOL     OW  820   5.936   4.622   7.390
33599SOL    HW1  821   6.012   4.666   7.438
33599SOL    HW2  822   5.971   4.575   7.308
33600SOL     OW  823   7.126   3.998   5.711
33600SOL    HW1  824   7.065   3.923   5.734
33600SOL    HW2  825   7.148   4.050   5.794
33601SOL     OW  826   6.889   4.562   5.628
33601SOL    HW1  827   6.923   4.469   5.643
33601SOL    HW2  828   6.907   4.589   5.533
33602SOL     OW  829   6.654   5.057   6.435
33602SOL    HW1  830   6.661   4.973   6.380
33602SOL    HW2  831   6.716   5.126   6.399
33603SOL     OW  832   5.905   4.534   6.535
33603SOL    HW1  833   5.998   4.570   6.540
33603SOL    HW2  834   5.899   4.449   6.587
33604SOL     OW  835   5.925   4.233   6.592
33604SOL    HW1  836   5.873   4.150   6.575
33604SOL    HW2  837   6.002   4.238   6.528
33605SOL     OW  838   6.724   4.104   7.264
33605SOL    HW1  839   6.679   4.167   7.328
33605SOL    HW2  840   6.817   4.135   7.247
33606SOL     OW  841   6.746   3.931   7.063
33606SOL    HW1  842   6.746   3.995   7.140
33606SOL    HW2  843   6.774   3.979   6.980
33607SOL     OW  844   5.594   5.050   5.786
33607SOL    HW1  845   5.501   5.071   5.755
33607SOL    HW2  846   5.604   4.951   5.799
33608SOL     OW  847   5.674   5.525   6.513
33608SOL    HW1  848   5.632   5.439   6.486
33608SOL    HW2  849   5.768   5.528   6.479
33609SOL     OW  850   6.090   5.292   6.496
33609SOL    HW1  851   6.156   5.366   6.505
33609SOL    HW2  852   6.134   5.213   6.454
33610SOL     OW  853   6.588   4.520   6.824
33610SOL    HW1  854   6.629   4.488   6.910
33610SOL    HW2  855   6.492   4.493   6.821
33611SOL     OW  856   5.626   4.268   6.700
33611SOL    HW1  857   5.711   4.235   6.659
33611SOL    HW2  858   5.639   4.283   6.798
33612SOL     OW  859   5.775   4.244   7.308
33612SOL    HW1  860   5.834   4.204   7.238
33612SOL    HW2  861   5.717   4.315   7.267
33613SOL     OW  862   6.955   4.674   7.246
33613SOL    HW1  863   6.994   4.763   7.266
33613SOL    HW2  864   6.965   4.654   7.149
33614SOL     OW  865   6.401   4.296   5.911
33614SOL    HW1  866   6.408   4.207   5.865
33614SOL    HW2  867   6.307   4.330   5.903
33615SOL     OW  868   7.243   4.328   6.792
33615SOL    HW1  869   7.205   4.259   6.854
33615SOL    HW2  870   7.325   4.292   6.748
33616SOL     OW  871   5.838   5.288   7.330
33616SOL    HW1  872   5.808   5.345   7.406
33616SOL    HW2  873   5.831   5.191   7.356
33617SOL     OW  874   6.257   4.188   6.855
33617SOL    HW1  875   6.223   4.099   6.825
33617SOL    HW2  876   6.283   4.242   6.775
33618SOL     OW  877   6.516   5.402   7.051
33618SOL    HW1  878   6.492   5.384   6.956
33618SOL    HW2  879   6.546   5.496   7.061
33619SOL     OW  880   6.059   4.224   5.777
33619SOL    HW1  881   6.120   4.304   5.781
33619SOL    HW2  882   5.964   4.255   5.784
33620SOL     OW  883   5.745   4.861   7.052
33620SOL    HW1  884   5.767   4.800   7.128
33620SOL    HW2  885   5.755   4.812   6.966
33621SOL     OW  886   6.933   4.783   6.820
33621SOL    HW1  887   6.957   4.720   6.746
33621SOL    HW2  888   6.843   4.823   6.802
33622SOL     OW  889   6.888   4.579   5.895
33622SOL    HW1  890   6.802   4.548   5.937
33622SOL    HW2  891   6.884   4.565   5.796
33623SOL     OW  892   7.345   5.471   6.740
33623SOL    HW1  893   7.406   5.501   6.667
33623SOL    HW2  894   7.307   5.382   6.718
33624SOL     OW  895   6.838   5.455   6.714
33624SOL    HW1  896   6.922   5.460   6.660
33624SOL    HW2  897   6.815   5.359   6.732
33625SOL     OW  898   5.669   4.982   6.608
33625SOL    HW1  899   5.664   4.981   6.708
33625SOL    HW2  900   5.586   4.941   6.570
33626SOL     OW  901   6.274   5.386   7.302
33626SOL    HW1  902   6.218   5.467   7.311
33626SOL    HW2  903   6.326   5.390   7.216
33627SOL     OW  904   7.312   3.859   6.109
33627SOL    HW1  905   7.385   3.842   6.042
33627SOL    HW2  906   7.281   3.772   6.147
33628SOL     OW  907   6.974   5.297   6.063
33628SOL    HW1  908   7.041   5.309   5.989
33628SOL    HW2  909   6.934   5.386   6.086
33629SOL     OW  910   5.716   5.518   7.437
33629SOL    HW1  911   5.675   5.444   7.490
33629SOL    HW2  912   5.780   5.569   7.495
33630SOL     OW  913   6.866   4.651   6.258
33630SOL    HW1  914   6.926   4.570   6.260
33630SOL    HW2  915   6.906   4.720   6.198
33631SOL     OW  916   6.416   4.997   7.008
33631SOL    HW1  917   6.411   5.030   7.103
33631SOL    HW2  918   6.330   5.016   6.962
33632SOL     OW  919   6.258   5.340   5.740
33632SOL    HW1  920   6.267   5.350   5.641
33632SOL    HW2  921   6.218   5.251   5.761
33633SOL     OW  922   7.236   5.444   6.980
33633SOL    HW1  923   7.289   5.454   6.896
33633SOL    HW2  924   7.209   5.534   7.014
33634SOL     OW  925   7.427   3.899   6.549
33634SOL    HW1  926   7.466   3.814   6.513
33634SOL    HW2  927   7.329   3.901   6.530
33635SOL     OW  928   5.849   4.050   6.306
33635SOL    HW1  929   5.770   4.101   6.272
33635SOL    HW2  930   5.840   4.035   6.404
33636SOL     OW  931   6.780   5.336   5.617
33636SOL    HW1  932   6.786   5.243   5.654
33636SOL    HW2  933   6.721   5.336   5.537
33637SOL     OW  934   6.408   4.726   6.958
33637SOL    HW1  935   6.448   4.725   6.866
33637SOL    HW2  936   6.418   4.818   6.998
33638SOL     OW  937   6.502   4.634   5.877
33638SOL    HW1  938   6.565   4.672   5.809
33638SOL    HW2  939   6.542   4.551   5.916
33639SOL     OW  940   7.090   5.331   5.630
33639SOL    HW1  941   6.998   5.368   5.637
33639SOL    HW2  942   7.128   5.351   5.540
33640SOL     OW  943   5.958   5.012   7.076
33640SOL    HW1  944   5.945   5.105   7.042
33640SOL    HW2  945   5.874   4.960   7.063
33641SOL     OW  946   7.200   5.016   6.875
33641SOL    HW1  947   7.260   5.019   6.955
33641SOL    HW2  948   7.125   5.080   6.888
33642SOL     OW  949   6.625   4.822   6.282
33642SOL    HW1  950   6.555   4.775   6.336
33642SOL    HW2  951   6.684   4.754   6.239
33643SOL     OW  952   6.600   3.960   6.557
33643SOL    HW1  953   6.592   3.924   6.464
33643SOL    HW2  954   6.598   3.884   6.622
33644SOL     OW  955   6.176   5.211   6.077
33644SOL    HW1  956   6.218   5.153   6.007
33644SOL    HW2  957   6.132   5.290   6.033
33645SOL     OW  958   7.295   4.109   6.967
33645SOL    HW1  959   7.368   4.178   6.971
33645SOL    HW2  960   7.323   4.034   6.908
33646SOL     OW  961   5.841   5.072   5.876
33646SOL    HW1  962   5.745   5.073   5.849
33646SOL    HW2  963   5.853   5.125   5.960
33647SOL     OW  964   5.691   4.737   7.312
33647SOL    HW1  965   5.614   4.704   7.366
33647SOL    HW2  966   5.776   4.707   7.354
33648SOL     OW  967   6.258   3.927   7.075
33648SOL    HW1  968   6.348   3.911   7.035
33648SOL    HW2  969   6.266   3.932   7.174
33649SOL     OW  970   5.661   4.069   5.619
33649SOL    HW1  971   5.569   4.041   5.590
33649SOL    HW2  972   5.692   4.146   5.563
33650SOL     OW  973   7.026   4.580   6.984
33650SOL    HW1  974   6.969   4.632   6.921
33650SOL    HW2  975   7.122   4.592   6.960
33651SOL     OW  976   5.658   3.890   5.904
33651SOL    HW1  977   5.641   3.973   5.850
33651SOL    HW2  978   5.748   3.853   5.882
33652SOL     OW  979   6.769   5.059   5.705
33652SOL    HW1  980   6.670   5.048   5.707
33652SOL    HW2  981   6.803   5.074   5.798
33653SOL     OW  982   6.199   4.566   7.017
33653SOL    HW1  983   6.255   4.647   7.000
33653SOL    HW2  984   6.258   4.486   7.020
33654SOL     OW  985   7.079   5.491   6.545
33654SOL    HW1  986   7.112   5.555   6.476
33654SOL    HW2  987   7.145   5.485   6.620
33655SOL     OW  988   6.302   4.289   7.294
33655SOL    HW1  989   6.321   4.354   7.368
33655SOL    HW2  990   6.362   4.209   7.303
33656SOL     OW  991   7.036   4.944   7.219
33656SOL    HW1  992   7.027   4.934   7.318
33656SOL    HW2  993   7.132   4.937   7.193
33657SOL     OW  994   5.976   5.465   7.146
33657SOL    HW1  995   5.885   5.506   7.144
33657SOL    HW2  996   5.969   5.371   7.178
33658SOL     OW  997   7.260   4.607   6.840
33658SOL    HW1  998   7.233   4.518   6.803
33658SOL    HW2  999   7.261   4.675   6.767
33659SOL     OW 1000   6.811   4.049   6.035
33659SOL    HW1 1001   6.876   3.975   6.024
33659SOL    HW2 1002   6.831   4.099   6.119
33660SOL     OW 1003   6.180   4.469   6.238
33660SOL    HW1 1004   6.230   4.554   6.219
33660SOL    HW2 1005   6.092   4.471   6.190
33661SOL     OW 1006   7.363   4.066   7.228
33661SOL    HW1 1007   7.346   4.097   7.134
33661SOL    HW2 1008   7.279   4.029   7.266
33662SOL     OW 1009   7.316   4.658   7.103
33662SOL    HW1 1010   7.354   4.749   7.118
33662SOL    HW2 1011   7.308   4.641   7.004
33663SOL     OW 1012   6.247   5.514   6.539
33663SOL    HW1 1013   6.201   5.602   6.526
33663SOL    HW2 1014   6.346   5.526   6.532
33664SOL     OW 1015   6.445   4.680   6.447
33664SOL    HW1 1016   6.499   4.611   6.495
33664SOL    HW2 1017   6.413   4.749   6.513
33665SOL     OW 1018   6.669   4.708   5.673
33665SOL    HW1 1019   6.646   4.761   5.591
33665SOL    HW2 1020   6.750   4.652   5.654
33666SOL     OW 1021   7.447   5.293   6.437
33666SOL    HW1 1022   7.376   5.281   6.367
33666SOL    HW2 1023   7.448   5.214   6.497
33667SOL     OW 1024   5.807   5.038   7.430
33667SOL    HW1 1025   5.742   4.965   7.409
33667SOL    HW2 1026   5.811   5.052   7.528
33668SOL     OW 1027   5.665   4.964   6.239
33668SOL    HW1 1028   5.664   4.917   6.327
33668SOL    HW2 1029   5.747   4.936   6.188
33669SOL     OW 1030   6.258   5.115   7.210
33669SOL    HW1 1031   6.180   5.065   7.248
33669SOL    HW2 1032   6.255   5.210   7.241
33670SOL     OW 1033   7.410   3.916   6.813
33670SOL    HW1 1034   7.406   3.826   6.857
33670SOL    HW2 1035   7.413   3.905   6.714
33671SOL     OW 1036   6.014   4.148   6.106
33671SOL    HW1 1037   6.044   4.076   6.044
33671SOL    HW2 1038   5.975   4.108   6.189
33672SOL     OW 1039   7.291   5.211   6.690
33672SOL    HW1 1040   7.198   5.186   6.663
33672SOL    HW2 1041   7.317   5.161   6.772
33673SOL     OW 1042   5.903   4.271   6.866
33673SOL    HW1 1043   5.941   4.212   6.938
33673SOL    HW2 1044   5.943   4.245   6.778
33674SOL     OW 1045   6.398   5.310   6.273
33674SOL    HW1 1046   6.430   5.320   6.179
33674SOL    HW2 1047   6.319   5.248   6.275
33675SOL     OW 1048   7.010   3.938   6.698
33675SOL    HW1 1049   7.062   3.873   6.753
33675SOL    HW2 1050   6.961   4.001   6.759
33676SOL     OW 1051   6.587   3.758   6.740
33676SOL    HW1 1052   6.524   3.686   6.709
33676SOL    HW2 1053   6.680   3.722   6.740
33677SOL     OW 1054   6.356   5.054   5.887
33677SOL    HW1 1055   6.310   4.967   5.904
33677SOL    HW2 1056   6.447   5.051   5.928
33678SOL     OW 1057   6.204   5.291   6.870
33678SOL    HW1 1058   6.199   5.373   6.927
33678SOL    HW2 1059   6.293   5.288   6.825
33679SOL     OW 1060   6.938   3.776   5.754
33679SOL    HW1 1061   6.973   3.735   5.670
33679SOL    HW2 1062   6.848   3.738   5.774
33680SOL     OW 1063   6.886   4.177   6.277
33680SOL    HW1 1064   6.827   4.257   6.281
33680SOL    HW2 1065   6.901   4.142   6.370
33681SOL     OW 1066   7.179   3.945   6.468
33681SOL    HW1 1067   7.095   3.944   6.522
33681SOL    HW2 1068   7.181   4.028   6.412
33682SOL     OW 1069   5.625   4.801   5.886
33682SOL    HW1 1070   5.724   4.790   5.877
33682SOL    HW2 1071   5.585   4.715   5.918
33683SOL     OW 1072   6.461   5.370   5.923
33683SOL    HW1 1073   6.384   5.335   5.869
33683SOL    HW2 1074   6.429   5.441   5.985
33684SOL     OW 1075   5.816   4.352   7.561
33684SOL    HW1 1076   5.723   4.350   7.598
33684SOL    HW2 1077   5.817   4.313   7.469
33685SOL     OW 1078   5.811   3.999   8.444
33685SOL    HW1 1079   5.846   3.982   8.536
33685SOL    HW2 1080   5.723   3.954   8.432
33686SOL     OW 1081   5.605   4.092   8.095
33686SOL    HW1 1082   5.523   4.135   8.134
33686SOL    HW2 1083   5.577   4.019   8.032
33687SOL     OW 1084   6.155   4.999   8.613
33687SOL    HW1 1085   6.062   4.992   8.576
33687SOL    HW2 1086   6.166   5.088   8.657
33688SOL     OW 1087   7.141   5.235   8.151
33688SOL    HW1 1088   7.084   5.219   8.232
33688SOL    HW2 1089   7.082   5.245   8.071
33689SOL     OW 1090   6.721   4.427   8.165
33689SOL    HW1 1091   6.778   4.505   8.140
33689SOL    HW2 1092   6.661   4.453   8.241
33690SOL     OW 1093   7.341   4.331   7.679
33690SOL    HW1 1094   7.329   4.318   7.580
33690SOL    HW2 1095   7.311   4.250   7.728
33691SOL     OW 1096   6.354   4.868   8.471
33691SOL    HW1 1097   6.276   4.885   8.531
33691SOL    HW2 1098   6.388   4.955   8.435
33692SOL     OW 1099   6.436   4.522   9.271
33692SOL    HW1 1100   6.432   4.598   9.336
33692SOL    HW2 1101   6.458   4.558   9.180
33693SOL     OW 1102   6.271   4.736   8.113
33693SOL    HW1 1103   6.340   4.720   8.183
33693SOL    HW2 1104   6.198   4.793   8.151
33694SOL     OW 1105   6.272   4.885   9.251
33694SOL    HW1 1106   6.332   4.964   9.265
33694SOL    HW2 1107   6.186   4.916   9.210
33695SOL     OW 1108   5.921   5.159   8.509
33695SOL    HW1 1109   5.843   5.128   8.456
33695SOL    HW2 1110   5.979   5.217   8.452
33696SOL     OW 1111   7.046   5.229   8.787
33696SOL    HW1 1112   7.070   5.323   8.813
33696SOL    HW2 1113   7.030   5.175   8.869
33697SOL     OW 1114   6.024   4.116   8.947
33697SOL    HW1 1115   6.106   4.060   8.956
33697SOL    HW2 1116   5.943   4.058   8.951
33698SOL     OW 1117   7.189   4.171   8.185
33698SOL    HW1 1118   7.115   4.217   8.135
33698SOL    HW2 1119   7.240   4.239   8.238
33699SOL     OW 1120   5.817   5.437   7.931
33699SOL    HW1 1121   5.851   5.514   7.985
33699SOL    HW2 1122   5.861   5.437   7.841
33700SOL     OW 1123   6.713   5.065   9.138
33700SOL    HW1 1124   6.760   5.065   9.226
33700SOL    HW2 1125   6.665   4.978   9.127
33701SOL     OW 1126   5.816   5.158   7.986
33701SOL    HW1 1127   5.790   5.254   7.986
33701SOL    HW2 1128   5.745   5.104   8.031
33702SOL     OW 1129   5.826   4.815   8.334
33702SOL    HW1 1130   5.840   4.731   8.386
33702SOL    HW2 1131   5.771   4.879   8.389
33703SOL     OW 1132   6.206   5.510   8.887
33703SOL    HW1 1133   6.114   5.493   8.922
33703SOL    HW2 1134   6.234   5.602   8.913
33704SOL     OW 1135   6.192   4.688   7.571
33704SOL    HW1 1136   6.199   4.772   7.517
33704SOL    HW2 1137   6.238   4.701   7.659
33705SOL     OW 1138   7.180   3.838   8.928
33705SOL    HW1 1139   7.162   3.905   8.856
33705SOL    HW2 1140   7.177   3.884   9.017
33706SOL     OW 1141   5.708   4.367   8.011
33706SOL    HW1 1142   5.663   4.279   8.028
33706SOL    HW2 1143   5.707   4.421   8.095
33707SOL     OW 1144   7.428   5.491   7.807
33707SOL    HW1 1145   7.482   5.462   7.887
33707SOL    HW2 1146   7.458   5.581   7.778
33708SOL     OW 1147   5.613   5.320   7.565
33708SOL    HW1 1148   5.594   5.224   7.586
33708SOL    HW2 1149   5.580   5.378   7.640
33709SOL     OW 1150   7.227   4.832   7.880
33709SOL    HW1 1151   7.313   4.834   7.828
33709SOL    HW2 1152   7.241   4.879   7.968
33710SOL     OW 1153   5.699   4.461   9.045
33710SOL    HW1 1154   5.787   4.448   9.090
33710SOL    HW2 1155   5.686   4.558   9.023
33711SOL     OW 1156   6.199   5.089   8.174
33711SOL    HW1 1157   6.150   5.002   8.183
33711SOL    HW2 1158   6.176   5.132   8.087
33712SOL     OW 1159   6.879   4.952   8.871
33712SOL    HW1 1160   6.916   4.879   8.813
33712SOL    HW2 1161   6.931   4.957   8.956
33713SOL     OW 1162   6.395   3.728   7.950
33713SOL    HW1 1163   6.435   3.819   7.941
33713SOL    HW2 1164   6.295   3.736   7.956
33714SOL     OW 1165   5.783   4.700   8.712
33714SOL    HW1 1166   5.872   4.655   8.698
33714SOL    HW2 1167   5.710   4.635   8.693
33715SOL     OW 1168   7.111   4.723   7.638
33715SOL    HW1 1169   7.048   4.647   7.651
33715SOL    HW2 1170   7.159   4.741   7.724
33716SOL     OW 1171   6.773   5.516   9.064
33716SOL    HW1 1172   6.797   5.576   8.988
33716SOL    HW2 1173   6.780   5.421   9.034
33717SOL     OW 1174   5.903   3.975   9.249
33717SOL    HW1 1175   5.974   4.046   9.255
33717SOL    HW2 1176   5.815   4.014   9.277
33718SOL     OW 1177   7.052   5.141   8.401
33718SOL    HW1 1178   6.993   5.147   8.481
33718SOL    HW2 1179   7.037   5.053   8.355
33719SOL     OW 1180   7.253   5.438   8.020
33719SOL    HW1 1181   7.212   5.415   7.932
33719SOL    HW2 1182   7.235   5.364   8.085
33720SOL     OW 1183   6.184   4.453   7.718
33720SOL    HW1 1184   6.208   4.522   7.650
33720SOL    HW2 1185   6.106   4.486   7.772
33721SOL     OW 1186   6.867   4.069   8.392
33721SOL    HW1 1187   6.781   4.019   8.379
33721SOL    HW2 1188   6.929   4.015   8.448
33722SOL     OW 1189   7.162   5.386   7.755
33722SOL    HW1 1190   7.251   5.432   7.758
33722SOL    HW2 1191   7.141   5.362   7.660
33723SOL     OW 1192   6.393   4.329   8.913
33723SOL    HW1 1193   6.346   4.326   9.002
33723SOL    HW2 1194   6.342   4.274   8.847
33724SOL     OW 1195   6.980   4.193   9.122
33724SOL    HW1 1196   6.960   4.236   9.210
33724SOL    HW2 1197   7.058   4.131   9.131
33725SOL     OW 1198   6.559   4.614   9.020
33725SOL    HW1 1199   6.605   4.530   8.991
33725SOL    HW2 1200   6.503   4.648   8.945
33726SOL     OW 1201   6.577   4.134   8.690
33726SOL    HW1 1202   6.500   4.168   8.744
33726SOL    HW2 1203   6.543   4.083   8.611
33727SOL     OW 1204   6.627   4.425   7.877
33727SOL    HW1 1205   6.653   4.421   7.973
33727SOL    HW2 1206   6.542   4.374   7.863
33728SOL     OW 1207   5.662   4.535   8.237
33728SOL    HW1 1208   5.761   4.523   8.246
33728SOL    HW2 1209   5.638   4.630   8.258
33729SOL     OW 1210   5.716   5.545   9.019
33729SOL    HW1 1211   5.706   5.530   9.118
33729SOL    HW2 1212   5.630   5.581   8.983
33730SOL     OW 1213   6.451   4.072   7.643
33730SOL    HW1 1214   6.510   4.135   7.594
33730SOL    HW2 1215   6.470   3.978   7.614
33731SOL     OW 1216   7.305   4.309   9.279
33731SOL    HW1 1217   7.279   4.398   9.243
33731SOL    HW2 1218   7.303   4.241   9.206
33732SOL     OW 1219   6.948   4.868   7.993
33732SOL    HW1 1220   7.031   4.839   7.945
33732SOL    HW2 1221   6.899   4.935   7.937
33733SOL     OW 1222   6.136   3.920   8.333
33733SOL    HW1 1223   6.131   3.915   8.433
33733SOL    HW2 1224   6.138   4.016   8.304
33734SOL     OW 1225   6.594   5.180   7.925
33734SOL    HW1 1226   6.548   5.252   7.873
33734SOL    HW2 1227   6.590   5.200   8.023
33735SOL     OW 1228   5.937   5.525   8.301
33735SOL    HW1 1229   5.987   5.439   8.307
33735SOL    HW2 1230   6.002   5.602   8.298
33736SOL     OW 1231   7.381   4.790   8.321
33736SOL    HW1 1232   7.319   4.775   8.245
33736SOL    HW2 1233   7.329   4.801   8.406
33737SOL     OW 1234   6.813   5.274   8.954
33737SOL    HW1 1235   6.819   5.197   9.018
33737SOL    HW2 1236   6.761   5.248   8.874
33738SOL     OW 1237   5.907   4.667   7.690
33738SOL    HW1 1238   5.989   4.706   7.648
33738SOL    HW2 1239   5.880   4.585   7.641
33739SOL     OW 1240   7.044   4.459   8.176
33739SOL    HW1 1241   7.039   4.394   8.251
33739SOL    HW2 1242   7.124   4.518   8.189
33740SOL     OW 1243   6.047   4.990   9.175
33740SOL    HW1 1244   5.997   4.991   9.089
33740SOL    HW2 1245   5.984   4.972   9.251
33741SOL     OW 1246   6.697   5.500   7.685
33741SOL    HW1 1247   6.637   5.438   7.735
33741SOL    HW2 1248   6.728   5.456   7.600
33742SOL     OW 1249   5.788   4.009   8.946
33742SOL    HW1 1250   5.708   4.069   8.933
33742SOL    HW2 1251   5.778   3.960   9.032
33743SOL     OW 1252   7.218   5.101   7.529
33743SOL    HW1 1253   7.186   5.195   7.519
33743SOL    HW2 1254   7.142   5.038   7.517
33744SOL     OW 1255   6.050   5.467   7.771
33744SOL    HW1 1256   6.083   5.506   7.857
33744SOL    HW2 1257   6.126   5.460   7.706
33745SOL     OW 1258   6.986   3.831   7.874
33745SOL    HW1 1259   6.962   3.794   7.784
33745SOL    HW2 1260   7.085   3.847   7.878
33746SOL     OW 1261   5.835   5.509   8.689
33746SOL    HW1 1262   5.892   5.444   8.739
33746SOL    HW2 1263   5.819   5.476   8.596
33747SOL     OW 1264   6.526   5.422   8.352
33747SOL    HW1 1265   6.606   5.365   8.373
33747SOL    HW2 1266   6.477   5.382   8.275
33748SOL     OW 1267   5.968   4.424   7.928
33748SOL    HW1 1268   6.013   4.334   7.925
33748SOL    HW2 1269   5.874   4.413   7.961
33749SOL     OW 1270   7.133   3.946   9.177
33749SOL    HW1 1271   7.128   3.983   9.269
33749SOL    HW2 1272   7.061   3.877   9.165
33750SOL     OW 1273   6.200   3.846   7.565
33750SOL    HW1 1274   6.298   3.824   7.572
33750SOL    HW2 1275   6.169   3.829   7.472
33751SOL     OW 1276   6.367   3.988   9.197
33751SOL    HW1 1277   6.434   3.927   9.240
33751SOL    HW2 1278   6.294   4.007   9.262
33752SOL     OW 1279   6.474   5.238   8.643
33752SOL    HW1 1280   6.451   5.213   8.549
33752SOL    HW2 1281   6.535   5.169   8.682
33753SOL     OW 1282   6.937   4.314   8.881
33753SOL    HW1 1283   6.965   4.271   8.966
33753SOL    HW2 1284   6.962   4.410   8.882
33754SOL     OW 1285   6.389   5.126   8.372
33754SOL    HW1 1286   6.479   5.140   8.330
33754SOL    HW2 1287   6.318   5.128   8.301
33755SOL     OW 1288   6.508   4.227   8.347
33755SOL    HW1 1289   6.483   4.218   8.251
33755SOL    HW2 1290   6.556   4.145   8.378
33756SOL     OW 1291   6.125   3.788   7.960
33756SOL    HW1 1292   6.044   3.789   8.018
33756SOL    HW2 1293   6.128   3.871   7.905
33757SOL     OW 1294   7.020   4.912   7.489
33757SOL    HW1 1295   7.052   4.836   7.546
33757SOL    HW2 1296   6.928   4.939   7.519
33758SOL     OW 1297   5.883   3.759   7.619
33758SOL    HW1 1298   5.932   3.843   7.598
33758SOL    HW2 1299   5.945   3.694   7.664
33759SOL     OW 1300   6.521   3.960   7.928
33759SOL    HW1 1301   6.473   4.001   7.850
33759SOL    HW2 1302   6.620   3.958   7.909
33760SOL     OW 1303   6.662   4.407   8.912
33760SOL    HW1 1304   6.582   4.346   8.915
33760SOL    HW2 1305   6.743   4.354   8.888
33761SOL     OW 1306   6.813   5.294   8.241
33761SOL    HW1 1307   6.834   5.368   8.176
33761SOL    HW2 1308   6.881   5.294   8.314
33762SOL     OW 1309   6.045   4.876   8.189
33762SOL    HW1 1310   5.974   4.849   8.254
33762SOL    HW2 1311   6.019   4.848   8.096
33763SOL     OW 1312   6.857   5.521   8.039
33763SOL    HW1 1313   6.901   5.585   7.975
33763SOL    HW2 1314   6.807   5.573   8.109
33764SOL     OW 1315   6.618   4.273   7.464
33764SOL    HW1 1316   6.577   4.355   7.425
33764SOL    HW2 1317   6.682   4.299   7.537
33765SOL     OW 1318   5.664   4.280   8.834
33765SOL    HW1 1319   5.756   4.279   8.793
33765SOL    HW2 1320   5.658   4.354   8.901
33766SOL     OW 1321   6.147   3.946   8.595
33766SOL    HW1 1322   6.185   3.862   8.632
33766SOL    HW2 1323   6.059   3.965   8.639
33767SOL     OW 1324   6.452   4.178   8.090
33767SOL    HW1 1325   6.420   4.250   8.028
33767SOL    HW2 1326   6.476   4.097   8.037
33768SOL     OW 1327   6.603   3.763   8.201
33768SOL    HW1 1328   6.531   3.768   8.132
33768SOL    HW2 1329   6.579   3.694   8.270
33769SOL     OW 1330   7.015   4.897   8.315
33769SOL    HW1 1331   6.960   4.813   8.308
33769SOL    HW2 1332   7.041   4.926   8.223
33770SOL     OW 1333   7.052   4.314   8.440
33770SOL    HW1 1334   7.022   4.219   8.447
33770SOL    HW2 1335   7.125   4.330   8.506
33771SOL     OW 1336   7.443   4.557   7.825
33771SOL    HW1 1337   7.485   4.493   7.889
33771SOL    HW2 1338   7.405   4.506   7.747
33772SOL     OW 1339   6.074   5.109   7.622
33772SOL    HW1 1340   5.987   5.094   7.669
33772SOL    HW2 1341   6.057   5.135   7.527
33773SOL     OW 1342   7.250   5.004   8.105
33773SOL    HW1 1343   7.349   5.012   8.119
33773SOL    HW2 1344   7.205   5.088   8.136
33774SOL     OW 1345   6.976   4.299   7.526
33774SOL    HW1 1346   6.922   4.278   7.607
33774SOL    HW2 1347   7.067   4.258   7.535
33775SOL     OW 1348   6.113   3.980   7.776
33775SOL    HW1 1349   6.140   3.921   7.701
33775SOL    HW2 1350   6.113   4.075   7.745
33776SOL     OW 1351   7.340   4.947   9.036
33776SOL    HW1 1352   7.431   4.908   9.023
33776SOL    HW2 1353   7.348   5.043   9.060
33777SOL     OW 1354   6.650   5.071   8.788
33777SOL    HW1 1355   6.570   5.048   8.843
33777SOL    HW2 1356   6.733   5.045   8.837
33778SOL     OW 1357   7.178   5.353   9.073
33778SOL    HW1 1358   7.205   5.387   8.983
33778SOL    HW2 1359   7.257   5.315   9.119
33779SOL     OW 1360   6.697   4.919   8.548
33779SOL    HW1 1361   6.657   4.963   8.629
33779SOL    HW2 1362   6.656   4.956   8.465
33780SOL     OW 1363   7.224   4.823   8.527
33780SOL    HW1 1364   7.229   4.904   8.586
33780SOL    HW2 1365   7.138   4.825   8.476
33781SOL     OW 1366   6.501   3.813   8.850
33781SOL    HW1 1367   6.526   3.793   8.755
33781SOL    HW2 1368   6.573   3.869   8.892
33782SOL     OW 1369   6.566   4.840   9.167
33782SOL    HW1 1370   6.467   4.846   9.177
33782SOL    HW2 1371   6.589   4.760   9.111
33783SOL     OW 1372   6.291   4.774   7.816
33783SOL    HW1 1373   6.277   4.781   7.915
33783SOL    HW2 1374   6.375   4.723   7.798
33784SOL     OW 1375   5.996   4.537   8.699
33784SOL    HW1 1376   6.082   4.549   8.749
33784SOL    HW2 1377   5.954   4.450   8.726
33785SOL     OW 1378   6.860   4.110   8.710
33785SOL    HW1 1379   6.881   4.184   8.774
33785SOL    HW2 1380   6.771   4.127   8.667
33786SOL     OW 1381   5.650   5.288   8.779
33786SOL    HW1 1382   5.604   5.370   8.745
33786SOL    HW2 1383   5.748   5.307   8.788
33787SOL     OW 1384   5.953   4.824   7.949
33787SOL    HW1 1385   5.946   4.907   7.893
33787SOL    HW2 1386   5.957   4.744   7.889
33788SOL     OW 1387   6.152   4.261   8.313
33788SOL    HW1 1388   6.164   4.327   8.239
33788SOL    HW2 1389   6.198   4.295   8.396
33789SOL     OW 1390   6.838   5.072   7.836
33789SOL    HW1 1391   6.888   5.149   7.876
33789SOL    HW2 1392   6.743   5.074   7.868
33790SOL     OW 1393   6.858   5.169   8.590
33790SOL    HW1 1394   6.905   5.182   8.677
33790SOL    HW2 1395   6.792   5.095   8.599
33791SOL     OW 1396   7.168   4.363   7.920
33791SOL    HW1 1397   7.137   4.424   7.993
33791SOL    HW2 1398   7.218   4.415   7.851
33792SOL     OW 1399   5.940   5.234   8.777
33792SOL    HW1 1400   5.919   5.190   8.690
33792SOL    HW2 1401   6.037   5.260   8.780
33793SOL     OW 1402   5.988   4.475   9.046
33793SOL    HW1 1403   6.056   4.530   8.999
33793SOL    HW2 1404   6.028   4.387   9.073
33794SOL     OW 1405   7.173   4.503   9.118
33794SOL    HW1 1406   7.081   4.541   9.113
33794SOL    HW2 1407   7.233   4.550   9.053
33795SOL     OW 1408   6.599   3.829   9.218
33795SOL    HW1 1409   6.605   3.914   9.166
33795SOL    HW2 1410   6.631   3.753   9.161
33796SOL     OW 1411   6.090   3.774   9.188
33796SOL    HW1 1412   6.048   3.717   9.118
33796SOL    HW2 1413   6.024   3.843   9.220
33797SOL     OW 1414   6.159   4.594   8.477
33797SOL    HW1 1415   6.203   4.683   8.468
33797SOL    HW2 1416   6.096   4.594   8.554
33798SOL     OW 1417   6.946   4.586   8.493
33798SOL    HW1 1418   6.871   4.586   8.427
33798SOL    HW2 1419   6.983   4.494   8.502
33799SOL     OW 1420   6.795   4.249   7.723
33799SOL    HW1 1421   6.808   4.165   7.777
33799SOL    HW2 1422   6.766   4.323   7.783
33800SOL     OW 1423   5.893   3.937   8.679
33800SOL    HW1 1424   5.870   3.974   8.769
33800SOL    HW2 1425   5.863   3.842   8.673
33801SOL     OW 1426   5.623   5.034   8.730
33801SOL    HW1 1427   5.676   4.985   8.798
33801SOL    HW2 1428   5.645   5.132   8.735
33802SOL     OW 1429   6.318   4.358   8.512
33802SOL    HW1 1430   6.377   4.332   8.436
33802SOL    HW2 1431   6.290   4.454   8.501
33803SOL     OW 1432   7.314   4.659   9.302
33803SOL    HW1 1433   7.268   4.652   9.213
33803SOL    HW2 1434   7.252   4.703   9.368
33804SOL     OW 1435   5.893   3.787   8.066
33804SOL    HW1 1436   5.882   3.881   8.099
33804SOL    HW2 1437   5.888   3.724   8.143
33805SOL     OW 1438   7.208   4.091   7.822
33805SOL    HW1 1439   7.210   4.015   7.886
33805SOL    HW2 1440   7.160   4.168   7.862
33806SOL     OW 1441   6.609   4.490   8.414
33806SOL    HW1 1442   6.624   4.511   8.510
33806SOL    HW2 1443   6.579   4.395   8.405
33807SOL     OW 1444   6.566   5.297   9.148
33807SOL    HW1 1445   6.546   5.341   9.060
33807SOL    HW2 1446   6.605   5.206   9.132
33808SOL     OW 1447   7.445   5.242   9.053
33808SOL    HW1 1448   7.459   5.269   8.958
33808SOL    HW2 1449   7.528   5.264   9.106
33809SOL     OW 1450   5.936   4.622   9.252
33809SOL    HW1 1451   6.012   4.666   9.300
33809SOL    HW2 1452   5.971   4.575   9.170
33810SOL     OW 1453   7.126   3.998   7.573
33810SOL    HW1 1454   7.065   3.923   7.596
33810SOL    HW2 1455   7.148   4.050   7.656
33811SOL     OW 1456   6.889   4.562   7.490
33811SOL    HW1 1457   6.923   4.469   7.505
33811SOL    HW2 1458   6.907   4.589   7.395
33812SOL     OW 1459   6.654   5.057   8.297
33812SOL    HW1 1460   6.661   4.973   8.242
33812SOL    HW2 1461   6.716   5.126   8.261
33813SOL     OW 1462   5.905   4.534   8.397
33813SOL    HW1 1463   5.998   4.570   8.402
33813SOL    HW2 1464   5.899   4.449   8.449
33814SOL     OW 1465   5.925   4.233   8.454
33814SOL    HW1 1466   5.873   4.150   8.437
33814SOL    HW2 1467   6.002   4.238   8.390
33815SOL     OW 1468   6.724   4.104   9.126
33815SOL    HW1 1469   6.679   4.167   9.190
33815SOL    HW2 1470   6.817   4.135   9.109
33816SOL     OW 1471   6.746   3.931   8.925
33816SOL    HW1 1472   6.746   3.995   9.002
33816SOL    HW2 1473   6.774   3.979   8.842
33817SOL     OW 1474   5.594   5.050   7.648
33817SOL    HW1 1475   5.501   5.071   7.617
33817SOL    HW2 1476   5.604   4.951   7.661
33818SOL     OW 1477   5.674   5.525   8.375
33818SOL    HW1 1478   5.632   5.439   8.348
33818SOL    HW2 1479   5.768   5.528   8.341
33819SOL     OW 1480   6.090   5.292   8.358
33819SOL    HW1 1481   6.156   5.366   8.367
33819SOL    HW2 1482   6.134   5.213   8.316
33820SOL     OW 1483   6.588   4.520   8.686
33820SOL    HW1 1484   6.629   4.488   8.772
33820SOL    HW2 1485   6.492   4.493   8.683
33821SOL     OW 1486   5.626   4.268   8.562
33821SOL    HW1 1487   5.711   4.235   8.521
33821SOL    HW2 1488   5.639   4.283   8.660
33822SOL     OW 1489   5.775   4.244   9.170
33822SOL    HW1 1490   5.834   4.204   9.100
33822SOL    HW2 1491   5.717   4.315   9.129
33823SOL     OW 1492   6.955   4.674   9.108
33823SOL    HW1 1493   6.994   4.763   9.128
33823SOL    HW2 1494   6.965   4.654   9.011
33824SOL     OW 1495   6.401   4.296   7.773
33824SOL    HW1 1496   6.408   4.207   7.727
33824SOL    HW2 1497   6.307   4.330   7.765
33825SOL     OW 1498   7.243   4.328   8.654
33825SOL    HW1 1499   7.205   4.259   8.716
33825SOL    HW2 1500   7.325   4.292   8.610
33826SOL     OW 1501   5.838   5.288   9.192
33826SOL    HW1 1502   5.808   5.345   9.268
33826SOL    HW2 1503   5.831   5.191   9.218
33827SOL     OW 1504   6.257   4.188   8.717
33827SOL    HW1 1505   6.223   4.099   8.687
33827SOL    HW2 1506   6.283   4.242   8.637
33828SOL     OW 1507   6.516   5.402   8.913
33828SOL    HW1 1508   6.492   5.384   8.818
33828SOL    HW2 1509   6.546   5.496   8.923
33829SOL     OW 1510   6.059   4.224   7.639
33829SOL    HW1 1511   6.120   4.304   7.643
33829SOL    HW2 1512   5.964   4.255   7.646
33830SOL     OW 1513   5.745   4.861   8.914
33830SOL    HW1 1514   5.767   4.800   8.990
33830SOL    HW2 1515   5.755   4.812   8.828
33831SOL     OW 1516   6.933   4.783   8.682
33831SOL    HW1 1517   6.957   4.720   8.608
33831SOL    HW2 1518   6.843   4.823   8.664
33832SOL     OW 1519   6.888   4.579   7.757
33832SOL    HW1 1520   6.802   4.548   7.799
33832SOL    HW2 1521   6.884   4.565   7.658
33833SOL     OW 1522   7.345   5.471   8.602
33833SOL    HW1 1523   7.406   5.501   8.529
33833SOL    HW2 1524   7.307   5.382   8.580
33834SOL     OW 1525   6.838   5.455   8.576
33834SOL    HW1 1526   6.922   5.460   8.522
33834SOL    HW2 1527   6.815   5.359   8.594
33835SOL     OW 1528   5.669   4.982   8.470
33835SOL    HW1 1529   5.664   4.981   8.570
33835SOL    HW2 1530   5.586   4.941   8.432
33836SOL     OW 1531   6.274   5.386   9.164
33836SOL    HW1 1532   6.218   5.467   9.173
33836SOL    HW2 1533   6.326   5.390   9.078
33837SOL     OW 1534   7.312   3.859   7.971
33837SOL    HW1 1535   7.385   3.842   7.904
33837SOL    HW2 1536   7.281   3.772   8.009
33838SOL     OW 1537   6.974   5.297   7.925
33838SOL    HW1 1538   7.041   5.309   7.851
33838SOL    HW2 1539   6.934   5.386   7.948
33839SOL     OW 1540   5.716   5.518   9.299
33839SOL    HW1 1541   5.675   5.444   9.352
33839SOL    HW2 1542   5.780   5.569   9.357
33840SOL     OW 1543   6.866   4.651   8.120
33840SOL    HW1 1544   6.926   4.570   8.122
33840SOL    HW2 1545   6.906   4.720   8.060
33841SOL     OW 1546   6.416   4.997   8.870
33841SOL    HW1 1547   6.411   5.030   8.965
33841SOL    HW2 1548   6.330   5.016   8.824
33842SOL     OW 1549   6.258   5.340   7.602
33842SOL    HW1 1550   6.267   5.350   7.503
33842SOL    HW2 1551   6.218   5.251   7.623
33843SOL     OW 1552   7.236   5.444   8.842
33843SOL    HW1 1553   7.289   5.454   8.758
33843SOL    HW2 1554   7.209   5.534   8.876
33844SOL     OW 1555   7.427   3.899   8.411
33844SOL    HW1 1556   7.466   3.814   8.375
33844SOL    HW2 1557   7.329   3.901   8.392
33845SOL     OW 1558   5.849   4.050   8.168
33845SOL    HW1 1559   5.770   4.101   8.134
33845SOL    HW2 1560   5.840   4.035   8.266
33846SOL     OW 1561   6.780   5.336   7.479
33846SOL    HW1 1562   6.786   5.243   7.516
33846SOL    HW2 1563   6.721   5.336   7.399
33847SOL     OW 1564   6.408   4.726   8.820
33847SOL    HW1 1565   6.448   4.725   8.728
33847SOL    HW2 1566   6.418   4.818   8.860
33848SOL     OW 1567   6.502   4.634   7.739
33848SOL    HW1 1568   6.565   4.672   7.671
33848SOL    HW2 1569   6.542   4.551   7.778
33849SOL     OW 1570   7.090   5.331   7.492
33849SOL    HW1 1571   6.998   5.368   7.499
33849SOL    HW2 1572   7.128   5.351   7.402
33850SOL     OW 1573   5.958   5.012   8.938
33850SOL    HW1 1574   5.945   5.105   8.904
33850SOL    HW2 1575   5.874   4.960   8.925
33851SOL     OW 1576   7.200   5.016   8.737
33851SOL    HW1 1577   7.260   5.019   8.817
33851SOL    HW2 1578   7.125   5.080   8.750
33852SOL     OW 1579   6.625   4.822   8.144
33852SOL    HW1 1580   6.555   4.775   8.198
33852SOL    HW2 1581   6.684   4.754   8.101
33853SOL     OW 1582   6.600   3.960   8.419
33853SOL    HW1 1583   6.592   3.924   8.326
33853SOL    HW2 1584   6.598   3.884   8.484
33854SOL     OW 1585   6.176   5.211   7.939
33854SOL    HW1 1586   6.218   5.153   7.869
33854SOL    HW2 1587   6.132   5.290   7.895
33855SOL     OW 1588   7.295   4.109   8.829
33855SOL    HW1 1589   7.368   4.178   8.833
33855SOL    HW2 1590   7.323   4.034   8.770
33856SOL     OW 1591   5.841   5.072   7.738
33856SOL    HW1 1592   5.745   5.073   7.711
33856SOL    HW2 1593   5.853   5.125   7.822
33857SOL     OW 1594   5.691   4.737   9.174
33857SOL    HW1 1595   5.614   4.704   9.228
33857SOL    HW2 1596   5.776   4.707   9.216
33858SOL     OW 1597   6.258   3.927   8.937
33858SOL    HW1 1598   6.348   3.911   8.897
33858SOL    HW2 1599   6.266   3.932   9.036
33859SOL     OW 1600   5.661   4.069   7.481
33859SOL    HW1 1601   5.569   4.041   7.452
33859SOL    HW2 1602   5.692   4.146   7.425
33860SOL     OW 1603   7.026   4.580   8.846
33860SOL    HW1 1604   6.969   4.632   8.783
33860SOL    HW2 1605   7.122   4.592   8.822
33861SOL     OW 1606   5.658   3.890   7.766
33861SOL    HW1 1607   5.641   3.973   7.712
33861SOL    HW2 1608   5.748   3.853   7.744
33862SOL     OW 1609   6.769   5.059   7.567
33862SOL    HW1 1610   6.670   5.048   7.569
33862SOL    HW2 1611   6.803   5.074   7.660
33863SOL     OW 1612   6.199   4.566   8.879
33863SOL    HW1 1613   6.255   4.647   8.862
33863SOL    HW2 1614   6.258   4.486   8.882
33864SOL     OW 1615   7.079   5.491   8.407
33864SOL    HW1 1616   7.112   5.555   8.338
33864SOL    HW2 1617   7.145   5.485   8.482
33865SOL     OW 1618   6.302   4.289   9.156
33865SOL    HW1 1619   6.321   4.354   9.230
33865SOL    HW2 1620   6.362   4.209   9.165
33866SOL     OW 1621   7.036   4.944   9.081
33866SOL    HW1 1622   7.027   4.934   9.180
33866SOL    HW2 1623   7.132   4.937   9.055
33867SOL     OW 1624   5.976   5.465   9.008
33867SOL    HW1 1625   5.885   5.506   9.006
33867SOL    HW2 1626   5.969   5.371   9.040
33868SOL     OW 1627   7.260   4.607   8.702
33868SOL    HW1 1628   7.233   4.518   8.665
33868SOL    HW2 1629   7.261   4.675   8.629
33869SOL     OW 1630   6.811   4.049   7.897
33869SOL    HW1 1631   6.876   3.975   7.886
33869SOL    HW2 1632   6.831   4.099   7.981
33870SOL     OW 1633   6.180   4.469   8.100
33870SOL    HW1 1634   6.230   4.554   8.081
33870SOL    HW2 1635   6.092   4.471   8.052
33871SOL     OW 1636   7.363   4.066   9.090
33871SOL    HW1 1637   7.346   4.097   8.996
33871SOL    HW2 1638   7.279   4.029   9.128
33872SOL     OW 1639   7.316   4.658   8.965
33872SOL    HW1 1640   7.354   4.749   8.980
33872SOL    HW2 1641   7.308   4.641   8.866
33873SOL     OW 1642   6.445   5.098   7.464
33873SOL    HW1 1643   6.399   5.113   7.552
33873SOL    HW2 1644   6.489   5.183   7.434
33874SOL     OW 1645   6.247   5.514   8.401
33874SOL    HW1 1646   6.201   5.602   8.388
33874SOL    HW2 1647   6.346   5.526   8.394
33875SOL     OW 1648   6.445   4.680   8.309
33875SOL    HW1 1649   6.499   4.611   8.357
33875SOL    HW2 1650   6.413   4.749   8.375
33876SOL     OW 1651   6.669   4.708   7.535
33876SOL    HW1 1652   6.646   4.761   7.453
33876SOL    HW2 1653   6.750   4.652   7.516
33877SOL     OW 1654   7.447   5.293   8.299
33877SOL    HW1 1655   7.376   5.281   8.229
33877SOL    HW2 1656   7.448   5.214   8.359
33878SOL     OW 1657   5.807   5.038   9.292
33878SOL    HW1 1658   5.742   4.965   9.271
33878SOL    HW2 1659   5.811   5.052   9.390
33879SOL     OW 1660   5.665   4.964   8.101
33879SOL    HW1 1661   5.664   4.917   8.189
33879SOL    HW2 1662   5.747   4.936   8.050
33880SOL     OW 1663   6.258   5.115   9.072
33880SOL    HW1 1664   6.180   5.065   9.110
33880SOL    HW2 1665   6.255   5.210   9.103
33881SOL     OW 1666   7.410   3.916   8.675
33881SOL    HW1 1667   7.406   3.826   8.719
33881SOL    HW2 1668   7.413   3.905   8.576
33882SOL     OW 1669   6.014   4.148   7.968
33882SOL    HW1 1670   6.044   4.076   7.906
33882SOL    HW2 1671   5.975   4.108   8.051
33883SOL     OW 1672   7.291   5.211   8.552
33883SOL    HW1 1673   7.198   5.186   8.525
33883SOL    HW2 1674   7.317   5.161   8.634
33884SOL     OW 1675   5.903   4.271   8.728
33884SOL    HW1 1676   5.941   4.212   8.800
33884SOL    HW2 1677   5.943   4.245   8.640
33885SOL     OW 1678   6.398   5.310   8.135
33885SOL    HW1 1679   6.430   5.320   8.041
33885SOL    HW2 1680   6.319   5.248   8.137
33886SOL     OW 1681   7.010   3.938   8.560
33886SOL    HW1 1682   7.062   3.873   8.615
33886SOL    HW2 1683   6.961   4.001   8.621
33887SOL     OW 1684   6.587   3.758   8.602
33887SOL    HW1 1685   6.524   3.686   8.571
33887SOL    HW2 1686   6.680   3.722   8.602
33888SOL     OW 1687   6.356   5.054   7.749
33888SOL    HW1 1688   6.310   4.967   7.766
33888SOL    HW2 1689   6.447   5.051   7.790
33889SOL     OW 1690   6.204   5.291   8.732
33889SOL    HW1 1691   6.199   5.373   8.789
33889SOL    HW2 1692   6.293   5.288   8.687
33890SOL     OW 1693   6.938   3.776   7.616
33890SOL    HW1 1694   6.973   3.735   7.532
33890SOL    HW2 1695   6.848   3.738   7.636
33891SOL     OW 1696   6.886   4.177   8.139
33891SOL    HW1 1697   6.827   4.257   8.143
33891SOL    HW2 1698   6.901   4.142   8.232
33892SOL     OW 1699   7.179   3.945   8.330
33892SOL    HW1 1700   7.095   3.944   8.384
33892SOL    HW2 1701   7.181   4.028   8.274
33893SOL     OW 1702   5.625   4.801   7.748
33893SOL    HW1 1703   5.724   4.790   7.739
33893SOL    HW2 1704   5.585   4.715   7.780
33894SOL     OW 1705   6.461   5.370   7.785
33894SOL    HW1 1706   6.384   5.335   7.731
33894SOL    HW2 1707   6.429   5.441   7.847
33895SOL     OW 1708   5.816   4.352   9.423
33895SOL    HW1 1709   5.723   4.350   9.460
33895SOL    HW2 1710   5.817   4.313   9.331
33896SOL     OW 1711   5.811   3.999  10.306
33896SOL    HW1 1712   5.846   3.982  10.398
33896SOL    HW2 1713   5.723   3.954  10.294
33897SOL     OW 1714   5.605   4.092   9.957
33897SOL    HW1 1715   5.523   4.135   9.996
33897SOL    HW2 1716   5.577   4.019   9.894
33898SOL     OW 1717   6.155   4.999  10.475
33898SOL    HW1 1718   6.062   4.992  10.438
33898SOL    HW2 1719   6.166   5.088  10.519
33899SOL     OW 1720   7.141   5.235  10.013
33899SOL    HW1 1721   7.084   5.219  10.094
33899SOL    HW2 1722   7.082   5.245   9.933
33900SOL     OW 1723   6.721   4.427  10.027
33900SOL    HW1 1724   6.778   4.505  10.002
33900SOL    HW2 1725   6.661   4.453  10.103
33901SOL     OW 1726   7.341   4.331   9.541
33901SOL    HW1 1727   7.329   4.318   9.442
33901SOL    HW2 1728   7.311   4.250   9.590
33902SOL     OW 1729   6.354   4.868  10.333
33902SOL    HW1 1730   6.276   4.885  10.393
33902SOL    HW2 1731   6.388   4.955  10.297
33903SOL     OW 1732   6.436   4.522  11.133
33903SOL    HW1 1733   6.432   4.598  11.198
33903SOL    HW2 1734   6.458   4.558  11.042
33904SOL     OW 1735   6.271   4.736   9.975
33904SOL    HW1 1736   6.340   4.720  10.045
33904SOL    HW2 1737   6.198   4.793  10.013
33905SOL     OW 1738   6.272   4.885  11.113
33905SOL    HW1 1739   6.332   4.964  11.127
33905SOL    HW2 1740   6.186   4.916  11.072
33906SOL     OW 1741   5.921   5.159  10.371
33906SOL    HW1 1742   5.843   5.128  10.318
33906SOL    HW2 1743   5.979   5.217  10.314
33907SOL     OW 1744   7.046   5.229  10.649
33907SOL    HW1 1745   7.070   5.323  10.675
33907SOL    HW2 1746   7.030   5.175  10.731
33908SOL     OW 1747   6.024   4.116  10.809
33908SOL    HW1 1748   6.106   4.060  10.818
33908SOL    HW2 1749   5.943   4.058  10.813
33909SOL     OW 1750   7.189   4.171  10.047
33909SOL    HW1 1751   7.115   4.217   9.997
33909SOL    HW2 1752   7.240   4.239  10.100
33910SOL     OW 1753   5.817   5.437   9.793
33910SOL    HW1 1754   5.851   5.514   9.847
33910SOL    HW2 1755   5.861   5.437   9.703
33911SOL     OW 1756   6.713   5.065  11.000
33911SOL    HW1 1757   6.760   5.065  11.088
33911SOL    HW2 1758   6.665   4.978  10.989
33912SOL     OW 1759   5.816   5.158   9.848
33912SOL    HW1 1760   5.790   5.254   9.848
33912SOL    HW2 1761   5.745   5.104   9.893
33913SOL     OW 1762   5.826   4.815  10.196
33913SOL    HW1 1763   5.840   4.731  10.248
33913SOL    HW2 1764   5.771   4.879  10.251
33914SOL     OW 1765   6.206   5.510  10.749
33914SOL    HW1 1766   6.114   5.493  10.784
33914SOL    HW2 1767   6.234   5.602  10.775
33915SOL     OW 1768   6.192   4.688   9.433
33915SOL    HW1 1769   6.199   4.772   9.379
33915SOL    HW2 1770   6.238   4.701   9.521
33916SOL     OW 1771   7.180   3.838  10.790
33916SOL    HW1 1772   7.162   3.905  10.718
33916SOL    HW2 1773   7.177   3.884  10.879
33917SOL     OW 1774   5.708   4.367   9.873
33917SOL    HW1 1775   5.663   4.279   9.890
33917SOL    HW2 1776   5.707   4.421   9.957
33918SOL     OW 1777   7.428   5.491   9.669
33918SOL    HW1 1778   7.482   5.462   9.749
33918SOL    HW2 1779   7.458   5.581   9.640
33919SOL     OW 1780   5.613   5.320   9.427
33919SOL    HW1 1781   5.594   5.224   9.448
33919SOL    HW2 1782   5.580   5.378   9.502
33920SOL     OW 1783   7.275   4.646   9.922
33920SOL    HW1 1784   7.370   4.617   9.930
33920SOL    HW2 1785   7.267   4.711   9.847
33921SOL     OW 1786   7.227   4.832   9.742
33921SOL    HW1 1787   7.313   4.834   9.690
33921SOL    HW2 1788   7.241   4.879   9.830
33922SOL     OW 1789   5.699   4.461  10.907
33922SOL    HW1 1790   5.787   4.448  10.952
33922SOL    HW2 1791   5.686   4.558  10.885
33923SOL     OW 1792   6.199   5.089  10.036
33923SOL    HW1 1793   6.150   5.002  10.045
33923SOL    HW2 1794   6.176   5.132   9.949
33924SOL     OW 1795   6.879   4.952  10.733
33924SOL    HW1 1796   6.916   4.879  10.675
33924SOL    HW2 1797   6.931   4.957  10.818
33925SOL     OW 1798   6.395   3.728   9.812
33925SOL    HW1 1799   6.435   3.819   9.803
33925SOL    HW2 1800   6.295   3.736   9.818
33926SOL     OW 1801   5.783   4.700  10.574
33926SOL    HW1 1802   5.872   4.655  10.560
33926SOL    HW2 1803   5.710   4.635  10.555
33927SOL     OW 1804   7.111   4.723   9.500
33927SOL    HW1 1805   7.048   4.647   9.513
33927SOL    HW2 1806   7.159   4.741   9.586
33928SOL     OW 1807   6.773   5.516  10.926
33928SOL    HW1 1808   6.797   5.576  10.850
33928SOL    HW2 1809   6.780   5.421  10.896
33929SOL     OW 1810   5.903   3.975  11.111
33929SOL    HW1 1811   5.974   4.046  11.117
33929SOL    HW2 1812   5.815   4.014  11.139
33930SOL     OW 1813   7.052   5.141  10.263
33930SOL    HW1 1814   6.993   5.147  10.343
33930SOL    HW2 1815   7.037   5.053  10.217
33931SOL     OW 1816   7.253   5.438   9.882
33931SOL    HW1 1817   7.212   5.415   9.794
33931SOL    HW2 1818   7.235   5.364   9.947
33932SOL     OW 1819   6.184   4.453   9.580
33932SOL    HW1 1820   6.208   4.522   9.512
33932SOL    HW2 1821   6.106   4.486   9.634
33933SOL     OW 1822   6.867   4.069  10.254
33933SOL    HW1 1823   6.781   4.019  10.241
33933SOL    HW2 1824   6.929   4.015  10.310
33934SOL     OW 1825   7.162   5.386   9.617
33934SOL    HW1 1826   7.251   5.432   9.620
33934SOL    HW2 1827   7.141   5.362   9.522
33935SOL     OW 1828   6.393   4.329  10.775
33935SOL    HW1 1829   6.346   4.326  10.864
33935SOL    HW2 1830   6.342   4.274  10.709
33936SOL     OW 1831   6.980   4.193  10.984
33936SOL    HW1 1832   6.960   4.236  11.072
33936SOL    HW2 1833   7.058   4.131  10.993
33937SOL     OW 1834   6.559   4.614  10.882
33937SOL    HW1 1835   6.605   4.530  10.853
33937SOL    HW2 1836   6.503   4.648  10.807
33938SOL     OW 1837   6.577   4.134  10.552
33938SOL    HW1 1838   6.500   4.168  10.606
33938SOL    HW2 1839   6.543   4.083  10.473
33939SOL     OW 1840   6.627   4.425   9.739
33939SOL    HW1 1841   6.653   4.421   9.835
33939SOL    HW2 1842   6.542   4.374   9.725
33940SOL     OW 1843   5.662   4.535  10.099
33940SOL    HW1 1844   5.761   4.523  10.108
33940SOL    HW2 1845   5.638   4.630  10.120
33941SOL     OW 1846   5.716   5.545  10.881
33941SOL    HW1 1847   5.706   5.530  10.980
33941SOL    HW2 1848   5.630   5.581  10.845
33942SOL     OW 1849   6.451   4.072   9.505
33942SOL    HW1 1850   6.510   4.135   9.456
33942SOL    HW2 1851   6.470   3.978   9.476
33943SOL     OW 1852   7.305   4.309  11.141
33943SOL    HW1 1853   7.279   4.398  11.105
33943SOL    HW2 1854   7.303   4.241  11.068
33944SOL     OW 1855   6.948   4.868   9.855
33944SOL    HW1 1856   7.031   4.839   9.807
33944SOL    HW2 1857   6.899   4.935   9.799
33945SOL     OW 1858   6.136   3.920  10.195
33945SOL    HW1 1859   6.131   3.915  10.295
33945SOL    HW2 1860   6.138   4.016  10.166
33946SOL     OW 1861   6.594   5.180   9.787
33946SOL    HW1 1862   6.548   5.252   9.735
33946SOL    HW2 1863   6.590   5.200   9.885
33947SOL     OW 1864   5.937   5.525  10.163
33947SOL    HW1 1865   5.987   5.439  10.169
33947SOL    HW2 1866   6.002   5.602  10.160
33948SOL     OW 1867   7.381   4.790  10.183
33948SOL    HW1 1868   7.319   4.775  10.107
33948SOL    HW2 1869   7.329   4.801  10.268
33949SOL     OW 1870   6.813   5.274  10.816
33949SOL    HW1 1871   6.819   5.197  10.880
33949SOL    HW2 1872   6.761   5.248  10.736
33950SOL     OW 1873   5.907   4.667   9.552
33950SOL    HW1 1874   5.989   4.706   9.510
33950SOL    HW2 1875   5.880   4.585   9.503
33951SOL     OW 1876   7.044   4.459  10.038
33951SOL    HW1 1877   7.039   4.394  10.113
33951SOL    HW2 1878   7.124   4.518  10.051
33952SOL     OW 1879   6.047   4.990  11.037
33952SOL    HW1 1880   5.997   4.991  10.951
33952SOL    HW2 1881   5.984   4.972  11.113
33953SOL     OW 1882   6.697   5.500   9.547
33953SOL    HW1 1883   6.637   5.438   9.597
33953SOL    HW2 1884   6.728   5.456   9.462
33954SOL     OW 1885   5.788   4.009  10.808
33954SOL    HW1 1886   5.708   4.069  10.795
33954SOL    HW2 1887   5.778   3.960  10.894
33955SOL     OW 1888   7.218   5.101   9.391
33955SOL    HW1 1889   7.186   5.195   9.381
33955SOL    HW2 1890   7.142   5.038   9.379
33956SOL     OW 1891   6.050   5.467   9.633
33956SOL    HW1 1892   6.083   5.506   9.719
33956SOL    HW2 1893   6.126   5.460   9.568
33957SOL     OW 1894   6.986   3.831   9.736
33957SOL    HW1 1895   6.962   3.794   9.646
33957SOL    HW2 1896   7.085   3.847   9.740
33958SOL     OW 1897   5.835   5.509  10.551
33958SOL    HW1 1898   5.892   5.444  10.601
33958SOL    HW2 1899   5.819   5.476  10.458
33959SOL     OW 1900   6.526   5.422  10.214
33959SOL    HW1 1901   6.606   5.365  10.235
33959SOL    HW2 1902   6.477   5.382  10.137
33960SOL     OW 1903   5.968   4.424   9.790
33960SOL    HW1 1904   6.013   4.334   9.787
33960SOL    HW2 1905   5.874   4.413   9.823
33961SOL     OW 1906   7.133   3.946  11.039
33961SOL    HW1 1907   7.128   3.983  11.131
33961SOL    HW2 1908   7.061   3.877  11.027
33962SOL     OW 1909   6.200   3.846   9.427
33962SOL    HW1 1910   6.298   3.824   9.434
33962SOL    HW2 1911   6.169   3.829   9.334
33963SOL     OW 1912   6.367   3.988  11.059
33963SOL    HW1 1913   6.434   3.927  11.102
33963SOL    HW2 1914   6.294   4.007  11.124
33964SOL     OW 1915   6.474   5.238  10.505
33964SOL    HW1 1916   6.451   5.213  10.411
33964SOL    HW2 1917   6.535   5.169  10.544
33965SOL     OW 1918   6.937   4.314  10.743
33965SOL    HW1 1919   6.965   4.271  10.828
33965SOL    HW2 1920   6.962   4.410  10.744
33966SOL     OW 1921   6.389   5.126  10.234
33966SOL    HW1 1922   6.479   5.140  10.192
33966SOL    HW2 1923   6.318   5.128  10.163
33967SOL     OW 1924   6.508   4.227  10.209
33967SOL    HW1 1925   6.483   4.218  10.113
33967SOL    HW2 1926   6.556   4.145  10.240
33968SOL     OW 1927   6.125   3.788   9.822
33968SOL    HW1 1928   6.044   3.789   9.880
33968SOL    HW2 1929   6.128   3.871   9.767
33969SOL     OW 1930   7.020   4.912   9.351
33969SOL    HW1 1931   7.052   4.836   9.408
33969SOL    HW2 1932   6.928   4.939   9.381
33970SOL     OW 1933   6.521   3.960   9.790
33970SOL    HW1 1934   6.473   4.001   9.712
33970SOL    HW2 1935   6.620   3.958   9.771
33971SOL     OW 1936   6.662   4.407  10.774
33971SOL    HW1 1937   6.582   4.346  10.777
33971SOL    HW2 1938   6.743   4.354  10.750
33972SOL     OW 1939   6.813   5.294  10.103
33972SOL    HW1 1940   6.834   5.368  10.038
33972SOL    HW2 1941   6.881   5.294  10.176
33973SOL     OW 1942   6.045   4.876  10.051
33973SOL    HW1 1943   5.974   4.849  10.116
33973SOL    HW2 1944   6.019   4.848   9.958
33974SOL     OW 1945   6.857   5.521   9.901
33974SOL    HW1 1946   6.901   5.585   9.837
33974SOL    HW2 1947   6.807   5.573   9.971
33975SOL     OW 1948   6.618   4.273   9.326
33975SOL    HW1 1949   6.577   4.355   9.287
33975SOL    HW2 1950   6.682   4.299   9.399
33976SOL     OW 1951   5.664   4.280  10.696
33976SOL    HW1 1952   5.756   4.279  10.655
33976SOL    HW2 1953   5.658   4.354  10.763
33977SOL     OW 1954   6.147   3.946  10.457
33977SOL    HW1 1955   6.185   3.862  10.494
33977SOL    HW2 1956   6.059   3.965  10.501
33978SOL     OW 1957   6.452   4.178   9.952
33978SOL    HW1 1958   6.420   4.250   9.890
33978SOL    HW2 1959   6.476   4.097   9.899
33979SOL     OW 1960   6.603   3.763  10.063
33979SOL    HW1 1961   6.531   3.768   9.994
33979SOL    HW2 1962   6.579   3.694  10.132
33980SOL     OW 1963   7.015   4.897  10.177
33980SOL    HW1 1964   6.960   4.813  10.170
33980SOL    HW2 1965   7.041   4.926  10.085
33981SOL     OW 1966   7.052   4.314  10.302
33981SOL    HW1 1967   7.022   4.219  10.309
33981SOL    HW2 1968   7.125   4.330  10.368
33982SOL     OW 1969   7.443   4.557   9.687
33982SOL    HW1 1970   7.485   4.493   9.751
33982SOL    HW2 1971   7.405   4.506   9.609
33983SOL     OW 1972   6.074   5.109   9.484
33983SOL    HW1 1973   5.987   5.094   9.531
33983SOL    HW2 1974   6.057   5.135   9.389
33984SOL     OW 1975   7.250   5.004   9.967
33984SOL    HW1 1976   7.349   5.012   9.981
33984SOL    HW2 1977   7.205   5.088   9.998
33985SOL     OW 1978   6.976   4.299   9.388
33985SOL    HW1 1979   6.922   4.278   9.469
33985SOL    HW2 1980   7.067   4.258   9.397
33986SOL     OW 1981   6.113   3.980   9.638
33986SOL    HW1 1982   6.140   3.921   9.563
33986SOL    HW2 1983   6.113   4.075   9.607
33987SOL     OW 1984   7.340   4.947  10.898
33987SOL    HW1 1985   7.431   4.908  10.885
33987SOL    HW2 1986   7.348   5.043  10.922
33988SOL     OW 1987   6.650   5.071  10.650
33988SOL    HW1 1988   6.570   5.048  10.705
33988SOL    HW2 1989   6.733   5.045  10.699
33989SOL     OW 1990   7.178   5.353  10.935
33989SOL    HW1 1991   7.205   5.387  10.845
33989SOL    HW2 1992   7.257   5.315  10.981
33990SOL     OW 1993   6.697   4.919  10.410
33990SOL    HW1 1994   6.657   4.963  10.491
33990SOL    HW2 1995   6.656   4.956  10.327
33991SOL     OW 1996   7.224   4.823  10.389
33991SOL    HW1 1997   7.229   4.904  10.448
33991SOL    HW2 1998   7.138   4.825  10.338
33992SOL     OW 1999   6.501   3.813  10.712
33992SOL    HW1 2000   6.526   3.793  10.617
33992SOL    HW2 2001   6.573   3.869  10.754
33993SOL     OW 2002   6.566   4.840  11.029
33993SOL    HW1 2003   6.467   4.846  11.039
33993SOL    HW2 2004   6.589   4.760  10.973
33994SOL     OW 2005   6.291   4.774   9.678
33994SOL    HW1 2006   6.277   4.781   9.777
33994SOL    HW2 2007   6.375   4.723   9.660
33995SOL     OW 2008   5.996   4.537  10.561
33995SOL    HW1 2009   6.082   4.549  10.611
33995SOL    HW2 2010   5.954   4.450  10.588
33996SOL     OW 2011   6.860   4.110  10.572
33996SOL    HW1 2012   6.881   4.184  10.636
33996SOL    HW2 2013   6.771   4.127  10.529
33997SOL     OW 2014   5.650   5.288  10.641
33997SOL    HW1 2015   5.604   5.370  10.607
33997SOL    HW2 2016   5.748   5.307  10.650
33998SOL     OW 2017   5.953   4.824   9.811
33998SOL    HW1 2018   5.946   4.907   9.755
33998SOL    HW2 2019   5.957   4.744   9.751
33999SOL     OW 2020   6.152   4.261  10.175
33999SOL    HW1 2021   6.164   4.327  10.101
33999SOL    HW2 2022   6.198   4.295  10.258
34000SOL     OW 2023   6.838   5.072   9.698
34000SOL    HW1 2024   6.888   5.149   9.738
34000SOL    HW2 2025   6.743   5.074   9.730
34001SOL     OW 2026   6.858   5.169  10.452
34001SOL    HW1 2027   6.905   5.182  10.539
34001SOL    HW2 2028   6.792   5.095  10.461
34002SOL     OW 2029   7.168   4.363   9.782
34002SOL    HW1 2030   7.137   4.424   9.855
34002SOL    HW2 2031   7.218   4.415   9.713
34003SOL     OW 2032   5.940   5.234  10.639
34003SOL    HW1 2033   5.919   5.190  10.552
34003SOL    HW2 2034   6.037   5.260  10.642
34004SOL     OW 2035   5.988   4.475  10.908
34004SOL    HW1 2036   6.056   4.530  10.861
34004SOL    HW2 2037   6.028   4.387  10.935
34005SOL     OW 2038   7.173   4.503  10.980
34005SOL    HW1 2039   7.081   4.541  10.975
34005SOL    HW2 2040   7.233   4.550  10.915
34006SOL     OW 2041   6.599   3.829  11.080
34006SOL    HW1 2042   6.605   3.914  11.028
34006SOL    HW2 2043   6.631   3.753  11.023
34007SOL     OW 2044   6.090   3.774  11.050
34007SOL    HW1 2045   6.048   3.717  10.980
34007SOL    HW2 2046   6.024   3.843  11.082
34008SOL     OW 2047   6.159   4.594  10.339
34008SOL    HW1 2048   6.203   4.683  10.330
34008SOL    HW2 2049   6.096   4.594  10.416
34009SOL     OW 2050   6.946   4.586  10.355
34009SOL    HW1 2051   6.871   4.586  10.289
34009SOL    HW2 2052   6.983   4.494  10.364
34010SOL     OW 2053   6.795   4.249   9.585
34010SOL    HW1 2054   6.808   4.165   9.639
34010SOL    HW2 2055   6.766   4.323   9.645
34011SOL     OW 2056   5.893   3.937  10.541
34011SOL    HW1 2057   5.870   3.974  10.631
34011SOL    HW2 2058   5.863   3.842  10.535
34012SOL     OW 2059   5.623   5.034  10.592
34012SOL    HW1 2060   5.676   4.985  10.660
34012SOL    HW2 2061   5.645   5.132  10.597
34013SOL     OW 2062   6.318   4.358  10.374
34013SOL    HW1 2063   6.377   4.332  10.298
34013SOL    HW2 2064   6.290   4.454  10.363
34014SOL     OW 2065   7.314   4.659  11.164
34014SOL    HW1 2066   7.268   4.652  11.075
34014SOL    HW2 2067   7.252   4.703  11.230
34015SOL     OW 2068   5.893   3.787   9.928
34015SOL    HW1 2069   5.882   3.881   9.961
34015SOL    HW2 2070   5.888   3.724  10.005
34016SOL     OW 2071   7.208   4.091   9.684
34016SOL    HW1 2072   7.210   4.015   9.748
34016SOL    HW2 2073   7.160   4.168   9.724
34017SOL     OW 2074   6.609   4.490  10.276
34017SOL    HW1 2075   6.624   4.511  10.372
34017SOL    HW2 2076   6.579   4.395  10.267
34018SOL     OW 2077   6.566   5.297  11.010
34018SOL    HW1 2078   6.546   5.341  10.922
34018SOL    HW2 2079   6.605   5.206  10.994
34019SOL     OW 2080   7.445   5.242  10.915
34019SOL    HW1 2081   7.459   5.269  10.820
34019SOL    HW2 2082   7.528   5.264  10.968
34020SOL     OW 2083   5.936   4.622  11.114
34020SOL    HW1 2084   6.012   4.666  11.162
34020SOL    HW2 2085   5.971   4.575  11.032
34021SOL     OW 2086   7.126   3.998   9.435
34021SOL    HW1 2087   7.065   3.923   9.458
34021SOL    HW2 2088   7.148   4.050   9.518
34022SOL     OW 2089   6.889   4.562   9.352
34022SOL    HW1 2090   6.923   4.469   9.367
34022SOL    HW2 2091   6.907   4.589   9.257
34023SOL     OW 2092   6.654   5.057  10.159
34023SOL    HW1 2093   6.661   4.973  10.104
34023SOL    HW2 2094   6.716   5.126  10.123
34024SOL     OW 2095   5.905   4.534  10.259
34024SOL    HW1 2096   5.998   4.570  10.264
34024SOL    HW2 2097   5.899   4.449  10.311
34025SOL     OW 2098   5.925   4.233  10.316
34025SOL    HW1 2099   5.873   4.150  10.299
34025SOL    HW2 2100   6.002   4.238  10.252
34026SOL     OW 2101   6.724   4.104  10.988
34026SOL    HW1 2102   6.679   4.167  11.052
34026SOL    HW2 2103   6.817   4.135  10.971
34027SOL     OW 2104   6.746   3.931  10.787
34027SOL    HW1 2105   6.746   3.995  10.864
34027SOL    HW2 2106   6.774   3.979  10.704
34028SOL     OW 2107   5.594   5.050   9.510
34028SOL    HW1 2108   5.501   5.071   9.479
34028SOL    HW2 2109   5.604   4.951   9.523
34029SOL     OW 2110   5.674   5.525  10.237
34029SOL    HW1 2111   5.632   5.439  10.210
34029SOL    HW2 2112   5.768   5.528  10.203
34030SOL     OW 2113   6.090   5.292  10.220
34030SOL    HW1 2114   6.156   5.366  10.229
34030SOL    HW2 2115   6.134   5.213  10.178
34031SOL     OW 2116   6.588   4.520  10.548
34031SOL    HW1 2117   6.629   4.488  10.634
34031SOL    HW2 2118   6.492   4.493  10.545
34032SOL     OW 2119   5.626   4.268  10.424
34032SOL    HW1 2120   5.711   4.235  10.383
34032SOL    HW2 2121   5.639   4.283  10.522
34033SOL     OW 2122   5.775   4.244  11.032
34033SOL    HW1 2123   5.834   4.204  10.962
34033SOL    HW2 2124   5.717   4.315  10.991
34034SOL     OW 2125   6.955   4.674  10.970
34034SOL    HW1 2126   6.994   4.763  10.990
34034SOL    HW2 2127   6.965   4.654  10.873
34035SOL     OW 2128   6.401   4.296   9.635
34035SOL    HW1 2129   6.408   4.207   9.589
34035SOL    HW2 2130   6.307   4.330   9.627
34036SOL     OW 2131   7.243   4.328  10.516
34036SOL    HW1 2132   7.205   4.259  10.578
34036SOL    HW2 2133   7.325   4.292  10.472
34037SOL     OW 2134   5.838   5.288  11.054
34037SOL    HW1 2135   5.808   5.345  11.130
34037SOL    HW2 2136   5.831   5.191  11.080
34038SOL     OW 2137   6.257   4.188  10.579
34038SOL    HW1 2138   6.223   4.099  10.549
34038SOL    HW2 2139   6.283   4.242  10.499
34039SOL     OW 2140   6.516   5.402  10.775
34039SOL    HW1 2141   6.492   5.384  10.680
34039SOL    HW2 2142   6.546   5.496  10.785
34040SOL     OW 2143   6.059   4.224   9.501
34040SOL    HW1 2144   6.120   4.304   9.505
34040SOL    HW2 2145   5.964   4.255   9.508
34041SOL     OW 2146   5.745   4.861  10.776
34041SOL    HW1 2147   5.767   4.800  10.852
34041SOL    HW2 2148   5.755   4.812  10.690
34042SOL     OW 2149   6.933   4.783  10.544
34042SOL    HW1 2150   6.957   4.720  10.470
34042SOL    HW2 2151   6.843   4.823  10.526
34043SOL     OW 2152   6.888   4.579   9.619
34043SOL    HW1 2153   6.802   4.548   9.661
34043SOL    HW2 2154   6.884   4.565   9.520
34044SOL     OW 2155   7.345   5.471  10.464
34044SOL    HW1 2156   7.406   5.501  10.391
34044SOL    HW2 2157   7.307   5.382  10.442
34045SOL     OW 2158   6.838   5.455  10.438
34045SOL    HW1 2159   6.922   5.460  10.384
34045SOL    HW2 2160   6.815   5.359  10.456
34046SOL     OW 2161   5.669   4.982  10.332
34046SOL    HW1 2162   5.664   4.981  10.432
34046SOL    HW2 2163   5.586   4.941  10.294
34047SOL     OW 2164   6.274   5.386  11.026
34047SOL    HW1 2165   6.218   5.467  11.035
34047SOL    HW2 2166   6.326   5.390  10.940
34048SOL     OW 2167   7.312   3.859   9.833
34048SOL    HW1 2168   7.385   3.842   9.766
34048SOL    HW2 2169   7.281   3.772   9.871
34049SOL     OW 2170   6.974   5.297   9.787
34049SOL    HW1 2171   7.041   5.309   9.713
34049SOL    HW2 2172   6.934   5.386   9.810
34050SOL     OW 2173   5.716   5.518  11.161
34050SOL    HW1 2174   5.675   5.444  11.214
34050SOL    HW2 2175   5.780   5.569  11.219
34051SOL     OW 2176   6.866   4.651   9.982
34051SOL    HW1 2177   6.926   4.570   9.984
34051SOL    HW2 2178   6.906   4.720   9.922
34052SOL     OW 2179   6.416   4.997  10.732
34052SOL    HW1 2180   6.411   5.030  10.827
34052SOL    HW2 2181   6.330   5.016  10.686
34053SOL     OW 2182   6.258   5.340   9.464
34053SOL    HW1 2183   6.267   5.350   9.365
34053SOL    HW2 2184   6.218   5.251   9.485
34054SOL     OW 2185   7.236   5.444  10.704
34054SOL    HW1 2186   7.289   5.454  10.620
34054SOL    HW2 2187   7.209   5.534  10.738
34055SOL     OW 2188   7.427   3.899  10.273
34055SOL    HW1 2189   7.466   3.814  10.237
34055SOL    HW2 2190   7.329   3.901  10.254
34056SOL     OW 2191   5.849   4.050  10.030
34056SOL    HW1 2192   5.770   4.101   9.996
34056SOL    HW2 2193   5.840   4.035  10.128
34057SOL     OW 2194   6.780   5.336   9.341
34057SOL    HW1 2195   6.786   5.243   9.378
34057SOL    HW2 2196   6.721   5.336   9.261
34058SOL     OW 2197   6.408   4.726  10.682
34058SOL    HW1 2198   6.448   4.725  10.590
34058SOL    HW2 2199   6.418   4.818  10.722
34059SOL     OW 2200   6.502   4.634   9.601
34059SOL    HW1 2201   6.565   4.672   9.533
34059SOL    HW2 2202   6.542   4.551   9.640
34060SOL     OW 2203   7.090   5.331   9.354
34060SOL    HW1 2204   6.998   5.368   9.361
34060SOL    HW2 2205   7.128   5.351   9.264
34061SOL     OW 2206   5.958   5.012  10.800
34061SOL    HW1 2207   5.945   5.105  10.766
34061SOL    HW2 2208   5.874   4.960  10.787
34062SOL     OW 2209   7.200   5.016  10.599
34062SOL    HW1 2210   7.260   5.019  10.679
34062SOL    HW2 2211   7.125   5.080  10.612
34063SOL     OW 2212   6.625   4.822  10.006
34063SOL    HW1 2213   6.555   4.775  10.060
34063SOL    HW2 2214   6.684   4.754   9.963
34064SOL     OW 2215   6.600   3.960  10.281
34064SOL    HW1 2216   6.592   3.924  10.188
34064SOL    HW2 2217   6.598   3.884  10.346
34065SOL     OW 2218   6.176   5.211   9.801
34065SOL    HW1 2219   6.218   5.153   9.731
34065SOL    HW2 2220   6.132   5.290   9.757
34066SOL     OW 2221   7.295   4.109  10.691
34066SOL    HW1 2222   7.368   4.178  10.695
34066SOL    HW2 2223   7.323   4.034  10.632
34067SOL     OW 2224   5.841   5.072   9.600
34067SOL    HW1 2225   5.745   5.073   9.573
34067SOL    HW2 2226   5.853   5.125   9.684
34068SOL     OW 2227   5.691   4.737  11.036
34068SOL    HW1 2228   5.614   4.704  11.090
34068SOL    HW2 2229   5.776   4.707  11.078
34069SOL     OW 2230   6.258   3.927  10.799
34069SOL    HW1 2231   6.348   3.911  10.759
34069SOL    HW2 2232   6.266   3.932  10.898
34070SOL     OW 2233   5.661   4.069   9.343
34070SOL    HW1 2234   5.569   4.041   9.314
34070SOL    HW2 2235   5.692   4.146   9.287
34071SOL     OW 2236   7.026   4.580  10.708
34071SOL    HW1 2237   6.969   4.632  10.645
34071SOL    HW2 2238   7.122   4.592  10.684
34072SOL     OW 2239   5.658   3.890   9.628
34072SOL    HW1 2240   5.641   3.973   9.574
34072SOL    HW2 2241   5.748   3.853   9.606
34073SOL     OW 2242   6.769   5.059   9.429
34073SOL    HW1 2243   6.670   5.048   9.431
34073SOL    HW2 2244   6.803   5.074   9.522
34074SOL     OW 2245   6.199   4.566  10.741
34074SOL    HW1 2246   6.255   4.647  10.724
34074SOL    HW2 2247   6.258   4.486  10.744
34075SOL     OW 2248   7.079   5.491  10.269
34075SOL    HW1 2249   7.112   5.555  10.200
34075SOL    HW2 2250   7.145   5.485  10.344
34076SOL     OW 2251   6.302   4.289  11.018
34076SOL    HW1 2252   6.321   4.354  11.092
34076SOL    HW2 2253   6.362   4.209  11.027
34077SOL     OW 2254   7.036   4.944  10.943
34077SOL    HW1 2255   7.027   4.934  11.042
34077SOL    HW2 2256   7.132   4.937  10.917
34078SOL     OW 2257   5.976   5.465  10.870
34078SOL    HW1 2258   5.885   5.506  10.868
34078SOL    HW2 2259   5.969   5.371  10.902
34079SOL     OW 2260   7.260   4.607  10.564
34079SOL    HW1 2261   7.233   4.518  10.527
34079SOL    HW2 2262   7.261   4.675  10.491
34080SOL     OW 2263   6.811   4.049   9.759
34080SOL    HW1 2264   6.876   3.975   9.748
34080SOL    HW2 2265   6.831   4.099   9.843
34081SOL     OW 2266   6.180   4.469   9.962
34081SOL    HW1 2267   6.230   4.554   9.943
34081SOL    HW2 2268   6.092   4.471   9.914
34082SOL     OW 2269   7.363   4.066  10.952
34082SOL    HW1 2270   7.346   4.097  10.858
34082SOL    HW2 2271   7.279   4.029  10.990
34083SOL     OW 2272   7.316   4.658  10.827
34083SOL    HW1 2273   7.354   4.749  10.842
34083SOL    HW2 2274   7.308   4.641  10.728
34084SOL     OW 2275   6.445   5.098   9.326
34084SOL    HW1 2276   6.399   5.113   9.414
34084SOL    HW2 2277   6.489   5.183   9.296
34085SOL     OW 2278   6.247   5.514  10.263
34085SOL    HW1 2279   6.201   5.602  10.250
34085SOL    HW2 2280   6.346   5.526  10.256
34086SOL     OW 2281   6.445   4.680  10.171
34086SOL    HW1 2282   6.499   4.611  10.219
34086SOL    HW2 2283   6.413   4.749  10.237
34087SOL     OW 2284   6.669   4.708   9.397
34087SOL    HW1 2285   6.646   4.761   9.315
34087SOL    HW2 2286   6.750   4.652   9.378
34088SOL     OW 2287   7.447   5.293  10.161
34088SOL    HW1 2288   7.376   5.281  10.091
34088SOL    HW2 2289   7.448   5.214  10.221
34089SOL     OW 2290   5.807   5.038  11.154
34089SOL    HW1 2291   5.742   4.965  11.133
34089SOL    HW2 2292   5.811   5.052  11.252
34090SOL     OW 2293   5.665   4.964   9.963
34090SOL    HW1 2294   5.664   4.917  10.051
34090SOL    HW2 2295   5.747   4.936   9.912
34091SOL     OW 2296   6.258   5.115  10.934
34091SOL    HW1 2297   6.180   5.065  10.972
34091SOL    HW2 2298   6.255   5.210  10.965
34092SOL     OW 2299   7.410   3.916  10.537
34092SOL    HW1 2300   7.406   3.826  10.581
34092SOL    HW2 2301   7.413   3.905  10.438
34093SOL     OW 2302   6.014   4.148   9.830
34093SOL    HW1 2303   6.044   4.076   9.768
34093SOL    HW2 2304   5.975   4.108   9.913
34094SOL     OW 2305   7.291   5.211  10.414
34094SOL    HW1 2306   7.198   5.186  10.387
34094SOL    HW2 2307   7.317   5.161  10.496
34095SOL     OW 2308   5.903   4.271  10.590
34095SOL    HW1 2309   5.941   4.212  10.662
34095SOL    HW2 2310   5.943   4.245  10.502
34096SOL     OW 2311   6.398   5.310   9.997
34096SOL    HW1 2312   6.430   5.320   9.903
34096SOL    HW2 2313   6.319   5.248   9.999
34097SOL     OW 2314   7.010   3.938  10.422
34097SOL    HW1 2315   7.062   3.873  10.477
34097SOL    HW2 2316   6.961   4.001  10.483
34098SOL     OW 2317   6.587   3.758  10.464
34098SOL    HW1 2318   6.524   3.686  10.433
34098SOL    HW2 2319   6.680   3.722  10.464
34099SOL     OW 2320   6.356   5.054   9.611
34099SOL    HW1 2321   6.310   4.967   9.628
34099SOL    HW2 2322   6.447   5.051   9.652
34100SOL     OW 2323   6.204   5.291  10.594
34100SOL    HW1 2324   6.199   5.373  10.651
34100SOL    HW2 2325   6.293   5.288  10.549
34101SOL     OW 2326   6.938   3.776   9.478
34101SOL    HW1 2327   6.973   3.735   9.394
34101SOL    HW2 2328   6.848   3.738   9.498
34102SOL     OW 2329   6.886   4.177  10.001
34102SOL    HW1 2330   6.827   4.257  10.005
34102SOL    HW2 2331   6.901   4.142  10.094
34103SOL     OW 2332   7.179   3.945  10.192
34103SOL    HW1 2333   7.095   3.944  10.246
34103SOL    HW2 2334   7.181   4.028  10.136
34104SOL     OW 2335   5.625   4.801   9.610
34104SOL    HW1 2336   5.724   4.790   9.601
34104SOL    HW2 2337   5.585   4.715   9.642
34105SOL     OW 2338   6.461   5.370   9.647
34105SOL    HW1 2339   6.384   5.335   9.593
34105SOL    HW2 2340   6.429   5.441   9.709
34106SOL     OW 2341   5.816   4.352  11.285
34106SOL    HW1 2342   5.723   4.350  11.322
34106SOL    HW2 2343   5.817   4.313  11.193
34107SOL     OW 2344   5.811   3.999  12.168
34107SOL    HW1 2345   5.846   3.982  12.260
34107SOL    HW2 2346   5.723   3.954  12.156
34108SOL     OW 2347   5.605   4.092  11.819
34108SOL    HW1 2348   5.523   4.135  11.858
34108SOL    HW2 2349   5.577   4.019  11.756
34109SOL     OW 2350   6.155   4.999  12.337
34109SOL    HW1 2351   6.062   4.992  12.300
34109SOL    HW2 2352   6.166   5.088  12.381
34110SOL     OW 2353   7.141   5.235  11.875
34110SOL    HW1 2354   7.084   5.219  11.956
34110SOL    HW2 2355   7.082   5.245  11.795
34111SOL     OW 2356   6.721   4.427  11.889
34111SOL    HW1 2357   6.778   4.505  11.864
34111SOL    HW2 2358   6.661   4.453  11.965
34112SOL     OW 2359   7.341   4.331  11.403
34112SOL    HW1 2360   7.329   4.318  11.304
34112SOL    HW2 2361   7.311   4.250  11.452
34113SOL     OW 2362   6.354   4.868  12.195
34113SOL    HW1 2363   6.276   4.885  12.255
34113SOL    HW2 2364   6.388   4.955  12.159
34114SOL     OW 2365   6.271   4.736  11.837
34114SOL    HW1 2366   6.340   4.720  11.907
34114SOL    HW2 2367   6.198   4.793  11.875
34115SOL     OW 2368   5.921   5.159  12.233
34115SOL    HW1 2369   5.843   5.128  12.180
34115SOL    HW2 2370   5.979   5.217  12.176
34116SOL     OW 2371   7.046   5.229  12.511
34116SOL    HW1 2372   7.070   5.323  12.537
34116SOL    HW2 2373   7.030   5.175  12.593
34117SOL     OW 2374   6.024   4.116  12.671
34117SOL    HW1 2375   6.106   4.060  12.680
34117SOL    HW2 2376   5.943   4.058  12.675
34118SOL     OW 2377   7.189   4.171  11.909
34118SOL    HW1 2378   7.115   4.217  11.859
34118SOL    HW2 2379   7.240   4.239  11.962
34119SOL     OW 2380   5.817   5.437  11.655
34119SOL    HW1 2381   5.851   5.514  11.709
34119SOL    HW2 2382   5.861   5.437  11.565
34120SOL     OW 2383   5.816   5.158  11.710
34120SOL    HW1 2384   5.790   5.254  11.710
34120SOL    HW2 2385   5.745   5.104  11.755
34121SOL     OW 2386   5.826   4.815  12.058
34121SOL    HW1 2387   5.840   4.731  12.110
34121SOL    HW2 2388   5.771   4.879  12.113
34122SOL     OW 2389   6.206   5.510  12.611
34122SOL    HW1 2390   6.114   5.493  12.646
34122SOL    HW2 2391   6.234   5.602  12.637
34123SOL     OW 2392   6.192   4.688  11.295
34123SOL    HW1 2393   6.199   4.772  11.241
34123SOL    HW2 2394   6.238   4.701  11.383
34124SOL     OW 2395   7.180   3.838  12.652
34124SOL    HW1 2396   7.162   3.905  12.580
34124SOL    HW2 2397   7.177   3.884  12.741
34125SOL     OW 2398   5.708   4.367  11.735
34125SOL    HW1 2399   5.663   4.279  11.752
34125SOL    HW2 2400   5.707   4.421  11.819
34126SOL     OW 2401   7.428   5.491  11.531
34126SOL    HW1 2402   7.482   5.462  11.611
34126SOL    HW2 2403   7.458   5.581  11.502
34127SOL     OW 2404   5.613   5.320  11.289
34127SOL    HW1 2405   5.594   5.224  11.310
34127SOL    HW2 2406   5.580   5.378  11.364
34128SOL     OW 2407   7.275   4.646  11.784
34128SOL    HW1 2408   7.370   4.617  11.792
34128SOL    HW2 2409   7.267   4.711  11.709
34129SOL     OW 2410   7.227   4.832  11.604
34129SOL    HW1 2411   7.313   4.834  11.552
34129SOL    HW2 2412   7.241   4.879  11.692
34130SOL     OW 2413   5.699   4.461  12.769
34130SOL    HW1 2414   5.787   4.448  12.814
34130SOL    HW2 2415   5.686   4.558  12.747
34131SOL     OW 2416   6.199   5.089  11.898
34131SOL    HW1 2417   6.150   5.002  11.907
34131SOL    HW2 2418   6.176   5.132  11.811
34132SOL     OW 2419   6.879   4.952  12.595
34132SOL    HW1 2420   6.916   4.879  12.537
34132SOL    HW2 2421   6.931   4.957  12.680
34133SOL     OW 2422   6.395   3.728  11.674
34133SOL    HW1 2423   6.435   3.819  11.665
34133SOL    HW2 2424   6.295   3.736  11.680
34134SOL     OW 2425   5.783   4.700  12.436
34134SOL    HW1 2426   5.872   4.655  12.422
34134SOL    HW2 2427   5.710   4.635  12.417
34135SOL     OW 2428   7.111   4.723  11.362
34135SOL    HW1 2429   7.048   4.647  11.375
34135SOL    HW2 2430   7.159   4.741  11.448
34136SOL     OW 2431   7.052   5.141  12.125
34136SOL    HW1 2432   6.993   5.147  12.205
34136SOL    HW2 2433   7.037   5.053  12.079
34137SOL     OW 2434   7.253   5.438  11.744
34137SOL    HW1 2435   7.212   5.415  11.656
34137SOL    HW2 2436   7.235   5.364  11.809
34138SOL     OW 2437   6.184   4.453  11.442
34138SOL    HW1 2438   6.208   4.522  11.374
34138SOL    HW2 2439   6.106   4.486  11.496
34139SOL     OW 2440   6.867   4.069  12.116
34139SOL    HW1 2441   6.781   4.019  12.103
34139SOL    HW2 2442   6.929   4.015  12.172
34140SOL     OW 2443   7.162   5.386  11.479
34140SOL    HW1 2444   7.251   5.432  11.482
34140SOL    HW2 2445   7.141   5.362  11.384
34141SOL     OW 2446   6.393   4.329  12.637
34141SOL    HW1 2447   6.346   4.326  12.726
34141SOL    HW2 2448   6.342   4.274  12.571
34142SOL     OW 2449   6.559   4.614  12.744
34142SOL    HW1 2450   6.605   4.530  12.715
34142SOL    HW2 2451   6.503   4.648  12.669
34143SOL     OW 2452   6.577   4.134  12.414
34143SOL    HW1 2453   6.500   4.168  12.468
34143SOL    HW2 2454   6.543   4.083  12.335
34144SOL     OW 2455   6.627   4.425  11.601
34144SOL    HW1 2456   6.653   4.421  11.697
34144SOL    HW2 2457   6.542   4.374  11.587
34145SOL     OW 2458   5.662   4.535  11.961
34145SOL    HW1 2459   5.761   4.523  11.970
34145SOL    HW2 2460   5.638   4.630  11.982
34146SOL     OW 2461   5.716   5.545  12.743
34146SOL    HW1 2462   5.706   5.530  12.842
34146SOL    HW2 2463   5.630   5.581  12.707
34147SOL     OW 2464   6.451   4.072  11.367
34147SOL    HW1 2465   6.510   4.135  11.318
34147SOL    HW2 2466   6.470   3.978  11.338
34148SOL     OW 2467   6.948   4.868  11.717
34148SOL    HW1 2468   7.031   4.839  11.669
34148SOL    HW2 2469   6.899   4.935  11.661
34149SOL     OW 2470   6.136   3.920  12.057
34149SOL    HW1 2471   6.131   3.915  12.157
34149SOL    HW2 2472   6.138   4.016  12.028
34150SOL     OW 2473   6.594   5.180  11.649
34150SOL    HW1 2474   6.548   5.252  11.597
34150SOL    HW2 2475   6.590   5.200  11.747
34151SOL     OW 2476   5.937   5.525  12.025
34151SOL    HW1 2477   5.987   5.439  12.031
34151SOL    HW2 2478   6.002   5.602  12.022
34152SOL     OW 2479   7.381   4.790  12.045
34152SOL    HW1 2480   7.319   4.775  11.969
34152SOL    HW2 2481   7.329   4.801  12.130
34153SOL     OW 2482   6.813   5.274  12.678
34153SOL    HW1 2483   6.819   5.197  12.742
34153SOL    HW2 2484   6.761   5.248  12.598
34154SOL     OW 2485   5.907   4.667  11.414
34154SOL    HW1 2486   5.989   4.706  11.372
34154SOL    HW2 2487   5.880   4.585  11.365
34155SOL     OW 2488   7.044   4.459  11.900
34155SOL    HW1 2489   7.039   4.394  11.975
34155SOL    HW2 2490   7.124   4.518  11.913
34156SOL     OW 2491   6.697   5.500  11.409
34156SOL    HW1 2492   6.637   5.438  11.459
34156SOL    HW2 2493   6.728   5.456  11.324
34157SOL     OW 2494   5.788   4.009  12.670
34157SOL    HW1 2495   5.708   4.069  12.657
34157SOL    HW2 2496   5.778   3.960  12.756
34158SOL     OW 2497   7.218   5.101  11.253
34158SOL    HW1 2498   7.186   5.195  11.243
34158SOL    HW2 2499   7.142   5.038  11.241
34159SOL     OW 2500   6.050   5.467  11.495
34159SOL    HW1 2501   6.083   5.506  11.581
34159SOL    HW2 2502   6.126   5.460  11.430
34160SOL     OW 2503   6.986   3.831  11.598
34160SOL    HW1 2504   6.962   3.794  11.508
34160SOL    HW2 2505   7.085   3.847  11.602
34161SOL     OW 2506   5.835   5.509  12.413
34161SOL    HW1 2507   5.892   5.444  12.463
34161SOL    HW2 2508   5.819   5.476  12.320
34162SOL     OW 2509   6.526   5.422  12.076
34162SOL    HW1 2510   6.606   5.365  12.097
34162SOL    HW2 2511   6.477   5.382  11.999
34163SOL     OW 2512   5.968   4.424  11.652
34163SOL    HW1 2513   6.013   4.334  11.649
34163SOL    HW2 2514   5.874   4.413  11.685
34164SOL     OW 2515   6.200   3.846  11.289
34164SOL    HW1 2516   6.298   3.824  11.296
34164SOL    HW2 2517   6.169   3.829  11.196
34165SOL     OW 2518   6.474   5.238  12.367
34165SOL    HW1 2519   6.451   5.213  12.273
34165SOL    HW2 2520   6.535   5.169  12.406
34166SOL     OW 2521   6.937   4.314  12.605
34166SOL    HW1 2522   6.965   4.271  12.690
34166SOL    HW2 2523   6.962   4.410  12.606
34167SOL     OW 2524   6.389   5.126  12.096
34167SOL    HW1 2525   6.479   5.140  12.054
34167SOL    HW2 2526   6.318   5.128  12.025
34168SOL     OW 2527   6.508   4.227  12.071
34168SOL    HW1 2528   6.483   4.218  11.975
34168SOL    HW2 2529   6.556   4.145  12.102
34169SOL     OW 2530   7.020   4.912  11.213
34169SOL    HW1 2531   7.052   4.836  11.270
34169SOL    HW2 2532   6.928   4.939  11.243
34170SOL     OW 2533   5.883   3.759  11.343
34170SOL    HW1 2534   5.932   3.843  11.322
34170SOL    HW2 2535   5.945   3.694  11.388
34171SOL     OW 2536   6.521   3.960  11.652
34171SOL    HW1 2537   6.473   4.001  11.574
34171SOL    HW2 2538   6.620   3.958  11.633
34172SOL     OW 2539   6.662   4.407  12.636
34172SOL    HW1 2540   6.582   4.346  12.639
34172SOL    HW2 2541   6.743   4.354  12.612
34173SOL     OW 2542   6.813   5.294  11.965
34173SOL    HW1 2543   6.834   5.368  11.900
34173SOL    HW2 2544   6.881   5.294  12.038
34174SOL     OW 2545   6.045   4.876  11.913
34174SOL    HW1 2546   5.974   4.849  11.978
34174SOL    HW2 2547   6.019   4.848  11.820
34175SOL     OW 2548   6.857   5.521  11.763
34175SOL    HW1 2549   6.901   5.585  11.699
34175SOL    HW2 2550   6.807   5.573  11.833
34176SOL     OW 2551   6.618   4.273  11.188
34176SOL    HW1 2552   6.577   4.355  11.149
34176SOL    HW2 2553   6.682   4.299  11.261
34177SOL     OW 2554   5.664   4.280  12.558
34177SOL    HW1 2555   5.756   4.279  12.517
34177SOL    HW2 2556   5.658   4.354  12.625
34178SOL     OW 2557   6.147   3.946  12.319
34178SOL    HW1 2558   6.185   3.862  12.356
34178SOL    HW2 2559   6.059   3.965  12.363
34179SOL     OW 2560   6.452   4.178  11.814
34179SOL    HW1 2561   6.420   4.250  11.752
34179SOL    HW2 2562   6.476   4.097  11.761
34180SOL     OW 2563   6.603   3.763  11.925
34180SOL    HW1 2564   6.531   3.768  11.856
34180SOL    HW2 2565   6.579   3.694  11.994
34181SOL     OW 2566   7.015   4.897  12.039
34181SOL    HW1 2567   6.960   4.813  12.032
34181SOL    HW2 2568   7.041   4.926  11.947
34182SOL     OW 2569   7.052   4.314  12.164
34182SOL    HW1 2570   7.022   4.219  12.171
34182SOL    HW2 2571   7.125   4.330  12.230
34183SOL     OW 2572   7.443   4.557  11.549
34183SOL    HW1 2573   7.485   4.493  11.613
34183SOL    HW2 2574   7.405   4.506  11.471
34184SOL     OW 2575   6.074   5.109  11.346
34184SOL    HW1 2576   5.987   5.094  11.393
34184SOL    HW2 2577   6.057   5.135  11.251
34185SOL     OW 2578   7.250   5.004  11.829
34185SOL    HW1 2579   7.349   5.012  11.843
34185SOL    HW2 2580   7.205   5.088  11.860
34186SOL     OW 2581   6.976   4.299  11.250
34186SOL    HW1 2582   6.922   4.278  11.331
34186SOL    HW2 2583   7.067   4.258  11.259
34187SOL     OW 2584   6.113   3.980  11.500
34187SOL    HW1 2585   6.140   3.921  11.425
34187SOL    HW2 2586   6.113   4.075  11.469
34188SOL     OW 2587   7.340   4.947  12.760
34188SOL    HW1 2588   7.431   4.908  12.747
34188SOL    HW2 2589   7.348   5.043  12.784
34189SOL     OW 2590   6.650   5.071  12.512
34189SOL    HW1 2591   6.570   5.048  12.567
34189SOL    HW2 2592   6.733   5.045  12.561
34190SOL     OW 2593   6.697   4.919  12.272
34190SOL    HW1 2594   6.657   4.963  12.353
34190SOL    HW2 2595   6.656   4.956  12.189
34191SOL     OW 2596   7.224   4.823  12.251
34191SOL    HW1 2597   7.229   4.904  12.310
34191SOL    HW2 2598   7.138   4.825  12.200
34192SOL     OW 2599   6.501   3.813  12.574
34192SOL    HW1 2600   6.526   3.793  12.479
34192SOL    HW2 2601   6.573   3.869  12.616
34193SOL     OW 2602   6.291   4.774  11.540
34193SOL    HW1 2603   6.277   4.781  11.639
34193SOL    HW2 2604   6.375   4.723  11.522
34194SOL     OW 2605   5.996   4.537  12.423
34194SOL    HW1 2606   6.082   4.549  12.473
34194SOL    HW2 2607   5.954   4.450  12.450
34195SOL     OW 2608   6.860   4.110  12.434
34195SOL    HW1 2609   6.881   4.184  12.498
34195SOL    HW2 2610   6.771   4.127  12.391
34196SOL     OW 2611   5.650   5.288  12.503
34196SOL    HW1 2612   5.604   5.370  12.469
34196SOL    HW2 2613   5.748   5.307  12.512
34197SOL     OW 2614   5.953   4.824  11.673
34197SOL    HW1 2615   5.946   4.907  11.617
34197SOL    HW2 2616   5.957   4.744  11.613
34198SOL     OW 2617   6.152   4.261  12.037
34198SOL    HW1 2618   6.164   4.327  11.963
34198SOL    HW2 2619   6.198   4.295  12.120
34199SOL     OW 2620   6.838   5.072  11.560
34199SOL    HW1 2621   6.888   5.149  11.600
34199SOL    HW2 2622   6.743   5.074  11.592
34200SOL     OW 2623   6.858   5.169  12.314
34200SOL    HW1 2624   6.905   5.182  12.401
34200SOL    HW2 2625   6.792   5.095  12.323
34201SOL     OW 2626   7.168   4.363  11.644
34201SOL    HW1 2627   7.137   4.424  11.717
34201SOL    HW2 2628   7.218   4.415  11.575
34202SOL     OW 2629   5.940   5.234  12.501
34202SOL    HW1 2630   5.919   5.190  12.414
34202SOL    HW2 2631   6.037   5.260  12.504
34203SOL     OW 2632   5.988   4.475  12.770
34203SOL    HW1 2633   6.056   4.530  12.723
34203SOL    HW2 2634   6.028   4.387  12.797
34204SOL     OW 2635   7.173   4.503  12.842
34204SOL    HW1 2636   7.081   4.541  12.837
34204SOL    HW2 2637   7.233   4.550  12.777
34205SOL     OW 2638   6.159   4.594  12.201
34205SOL    HW1 2639   6.203   4.683  12.192
34205SOL    HW2 2640   6.096   4.594  12.278
34206SOL     OW 2641   6.946   4.586  12.217
34206SOL    HW1 2642   6.871   4.586  12.151
34206SOL    HW2 2643   6.983   4.494  12.226
34207SOL     OW 2644   6.795   4.249  11.447
34207SOL    HW1 2645   6.808   4.165  11.501
34207SOL    HW2 2646   6.766   4.323  11.507
34208SOL     OW 2647   5.893   3.937  12.403
34208SOL    HW1 2648   5.870   3.974  12.493
34208SOL    HW2 2649   5.863   3.842  12.397
34209SOL     OW 2650   5.623   5.034  12.454
34209SOL    HW1 2651   5.676   4.985  12.522
34209SOL    HW2 2652   5.645   5.132  12.459
34210SOL     OW 2653   6.318   4.358  12.236
34210SOL    HW1 2654   6.377   4.332  12.160
34210SOL    HW2 2655   6.290   4.454  12.225
34211SOL     OW 2656   5.893   3.787  11.790
34211SOL    HW1 2657   5.882   3.881  11.823
34211SOL    HW2 2658   5.888   3.724  11.867
34212SOL     OW 2659   7.208   4.091  11.546
34212SOL    HW1 2660   7.210   4.015  11.610
34212SOL    HW2 2661   7.160   4.168  11.586
34213SOL     OW 2662   6.609   4.490  12.138
34213SOL    HW1 2663   6.624   4.511  12.234
34213SOL    HW2 2664   6.579   4.395  12.129
34214SOL     OW 2665   7.126   3.998  11.297
34214SOL    HW1 2666   7.065   3.923  11.320
34214SOL    HW2 2667   7.148   4.050  11.380
34215SOL     OW 2668   6.889   4.562  11.214
34215SOL    HW1 2669   6.923   4.469  11.229
34215SOL    HW2 2670   6.907   4.589  11.119
34216SOL     OW 2671   6.654   5.057  12.021
34216SOL    HW1 2672   6.661   4.973  11.966
34216SOL    HW2 2673   6.716   5.126  11.985
34217SOL     OW 2674   5.905   4.534  12.121
34217SOL    HW1 2675   5.998   4.570  12.126
34217SOL    HW2 2676   5.899   4.449  12.173
34218SOL     OW 2677   5.925   4.233  12.178
34218SOL    HW1 2678   5.873   4.150  12.161
34218SOL    HW2 2679   6.002   4.238  12.114
34219SOL     OW 2680   6.746   3.931  12.649
34219SOL    HW1 2681   6.746   3.995  12.726
34219SOL    HW2 2682   6.774   3.979  12.566
34220SOL     OW 2683   5.594   5.050  11.372
34220SOL    HW1 2684   5.501   5.071  11.341
34220SOL    HW2 2685   5.604   4.951  11.385
34221SOL     OW 2686   5.674   5.525  12.099
34221SOL    HW1 2687   5.632   5.439  12.072
34221SOL    HW2 2688   5.768   5.528  12.065
34222SOL     OW 2689   6.090   5.292  12.082
34222SOL    HW1 2690   6.156   5.366  12.091
34222SOL    HW2 2691   6.134   5.213  12.040
34223SOL     OW 2692   6.588   4.520  12.410
34223SOL    HW1 2693   6.629   4.488  12.496
34223SOL    HW2 2694   6.492   4.493  12.407
34224SOL     OW 2695   5.626   4.268  12.286
34224SOL    HW1 2696   5.711   4.235  12.245
34224SOL    HW2 2697   5.639   4.283  12.384
34225SOL     OW 2698   6.401   4.296  11.497
34225SOL    HW1 2699   6.408   4.207  11.451
34225SOL    HW2 2700   6.307   4.330  11.489
34226SOL     OW 2701   7.243   4.328  12.378
34226SOL    HW1 2702   7.205   4.259  12.440
34226SOL    HW2 2703   7.325   4.292  12.334
34227SOL     OW 2704   5.838   5.288  12.916
34227SOL    HW1 2705   5.808   5.345  12.992
34227SOL    HW2 2706   5.831   5.191  12.942
34228SOL     OW 2707   6.257   4.188  12.441
34228SOL    HW1 2708   6.223   4.099  12.411
34228SOL    HW2 2709   6.283   4.242  12.361
34229SOL     OW 2710   6.516   5.402  12.637
34229SOL    HW1 2711   6.492   5.384  12.542
34229SOL    HW2 2712   6.546   5.496  12.647
34230SOL     OW 2713   6.059   4.224  11.363
34230SOL    HW1 2714   6.120   4.304  11.367
34230SOL    HW2 2715   5.964   4.255  11.370
34231SOL     OW 2716   5.745   4.861  12.638
34231SOL    HW1 2717   5.767   4.800  12.714
34231SOL    HW2 2718   5.755   4.812  12.552
34232SOL     OW 2719   6.933   4.783  12.406
34232SOL    HW1 2720   6.957   4.720  12.332
34232SOL    HW2 2721   6.843   4.823  12.388
34233SOL     OW 2722   6.888   4.579  11.481
34233SOL    HW1 2723   6.802   4.548  11.523
34233SOL    HW2 2724   6.884   4.565  11.382
34234SOL     OW 2725   7.345   5.471  12.326
34234SOL    HW1 2726   7.406   5.501  12.253
34234SOL    HW2 2727   7.307   5.382  12.304
34235SOL     OW 2728   6.838   5.455  12.300
34235SOL    HW1 2729   6.922   5.460  12.246
34235SOL    HW2 2730   6.815   5.359  12.318
34236SOL     OW 2731   5.669   4.982  12.194
34236SOL    HW1 2732   5.664   4.981  12.294
34236SOL    HW2 2733   5.586   4.941  12.156
34237SOL     OW 2734   7.312   3.859  11.695
34237SOL    HW1 2735   7.385   3.842  11.628
34237SOL    HW2 2736   7.281   3.772  11.733
34238SOL     OW 2737   6.974   5.297  11.649
34238SOL    HW1 2738   7.041   5.309  11.575
34238SOL    HW2 2739   6.934   5.386  11.672
34239SOL     OW 2740   6.866   4.651  11.844
34239SOL    HW1 2741   6.926   4.570  11.846
34239SOL    HW2 2742   6.906   4.720  11.784
34240SOL     OW 2743   6.416   4.997  12.594
34240SOL    HW1 2744   6.411   5.030  12.689
34240SOL    HW2 2745   6.330   5.016  12.548
34241SOL     OW 2746   6.258   5.340  11.326
34241SOL    HW1 2747   6.267   5.350  11.227
34241SOL    HW2 2748   6.218   5.251  11.347
34242SOL     OW 2749   7.236   5.444  12.566
34242SOL    HW1 2750   7.289   5.454  12.482
34242SOL    HW2 2751   7.209   5.534  12.600
34243SOL     OW 2752   7.427   3.899  12.135
34243SOL    HW1 2753   7.466   3.814  12.099
34243SOL    HW2 2754   7.329   3.901  12.116
34244SOL     OW 2755   5.849   4.050  11.892
34244SOL    HW1 2756   5.770   4.101  11.858
34244SOL    HW2 2757   5.840   4.035  11.990
34245SOL     OW 2758   6.780   5.336  11.203
34245SOL    HW1 2759   6.786   5.243  11.240
34245SOL    HW2 2760   6.721   5.336  11.123
34246SOL     OW 2761   6.408   4.726  12.544
34246SOL    HW1 2762   6.448   4.725  12.452
34246SOL    HW2 2763   6.418   4.818  12.584
34247SOL     OW 2764   6.502   4.634  11.463
34247SOL    HW1 2765   6.565   4.672  11.395
34247SOL    HW2 2766   6.542   4.551  11.502
34248SOL     OW 2767   7.090   5.331  11.216
34248SOL    HW1 2768   6.998   5.368  11.223
34248SOL    HW2 2769   7.128   5.351  11.126
34249SOL     OW 2770   5.958   5.012  12.662
34249SOL    HW1 2771   5.945   5.105  12.628
34249SOL    HW2 2772   5.874   4.960  12.649
34250SOL     OW 2773   7.200   5.016  12.461
34250SOL    HW1 2774   7.260   5.019  12.541
34250SOL    HW2 2775   7.125   5.080  12.474
34251SOL     OW 2776   6.625   4.822  11.868
34251SOL    HW1 2777   6.555   4.775  11.922
34251SOL    HW2 2778   6.684   4.754  11.825
34252SOL     OW 2779   6.600   3.960  12.143
34252SOL    HW1 2780   6.592   3.924  12.050
34252SOL    HW2 2781   6.598   3.884  12.208
34253SOL     OW 2782   6.176   5.211  11.663
34253SOL    HW1 2783   6.218   5.153  11.593
34253SOL    HW2 2784   6.132   5.290  11.619
34254SOL     OW 2785   7.295   4.109  12.553
34254SOL    HW1 2786   7.368   4.178  12.557
34254SOL    HW2 2787   7.323   4.034  12.494
34255SOL     OW 2788   5.841   5.072  11.462
34255SOL    HW1 2789   5.745   5.073  11.435
34255SOL    HW2 2790   5.853   5.125  11.546
34256SOL     OW 2791   5.691   4.737  12.898
34256SOL    HW1 2792   5.614   4.704  12.952
34256SOL    HW2 2793   5.776   4.707  12.940
34257SOL     OW 2794   6.258   3.927  12.661
34257SOL    HW1 2795   6.348   3.911  12.621
34257SOL    HW2 2796   6.266   3.932  12.760
34258SOL     OW 2797   5.661   4.069  11.205
34258SOL    HW1 2798   5.569   4.041  11.176
34258SOL    HW2 2799   5.692   4.146  11.149
34259SOL     OW 2800   7.026   4.580  12.570
34259SOL    HW1 2801   6.969   4.632  12.507
34259SOL    HW2 2802   7.122   4.592  12.546
34260SOL     OW 2803   5.658   3.890  11.490
34260SOL    HW1 2804   5.641   3.973  11.436
34260SOL    HW2 2805   5.748   3.853  11.468
34261SOL     OW 2806   6.769   5.059  11.291
34261SOL    HW1 2807   6.670   5.048  11.293
34261SOL    HW2 2808   6.803   5.074  11.384
34262SOL     OW 2809   6.199   4.566  12.603
34262SOL    HW1 2810   6.255   4.647  12.586
34262SOL    HW2 2811   6.258   4.486  12.606
34263SOL     OW 2812   7.079   5.491  12.131
34263SOL    HW1 2813   7.112   5.555  12.062
34263SOL    HW2 2814   7.145   5.485  12.206
34264SOL     OW 2815   6.302   4.289  12.880
34264SOL    HW1 2816   6.321   4.354  12.954
34264SOL    HW2 2817   6.362   4.209  12.889
34265SOL     OW 2818   5.976   5.465  12.732
34265SOL    HW1 2819   5.885   5.506  12.730
34265SOL    HW2 2820   5.969   5.371  12.764
34266SOL     OW 2821   7.260   4.607  12.426
34266SOL    HW1 2822   7.233   4.518  12.389
34266SOL    HW2 2823   7.261   4.675  12.353
34267SOL     OW 2824   6.811   4.049  11.621
34267SOL    HW1 2825   6.876   3.975  11.610
34267SOL    HW2 2826   6.831   4.099  11.705
34268SOL     OW 2827   6.180   4.469  11.824
34268SOL    HW1 2828   6.230   4.554  11.805
34268SOL    HW2 2829   6.092   4.471  11.776
34269SOL     OW 2830   7.363   4.066  12.814
34269SOL    HW1 2831   7.346   4.097  12.720
34269SOL    HW2 2832   7.279   4.029  12.852
34270SOL     OW 2833   7.316   4.658  12.689
34270SOL    HW1 2834   7.354   4.749  12.704
34270SOL    HW2 2835   7.308   4.641  12.590
34271SOL     OW 2836   6.445   5.098  11.188
34271SOL    HW1 2837   6.399   5.113  11.276
34271SOL    HW2 2838   6.489   5.183  11.158
34272SOL     OW 2839   6.247   5.514  12.125
34272SOL    HW1 2840   6.201   5.602  12.112
34272SOL    HW2 2841   6.346   5.526  12.118
34273SOL     OW 2842   6.445   4.680  12.033
34273SOL    HW1 2843   6.499   4.611  12.081
34273SOL    HW2 2844   6.413   4.749  12.099
34274SOL     OW 2845   6.669   4.708  11.259
34274SOL    HW1 2846   6.646   4.761  11.177
34274SOL    HW2 2847   6.750   4.652  11.240
34275SOL     OW 2848   7.447   5.293  12.023
34275SOL    HW1 2849   7.376   5.281  11.953
34275SOL    HW2 2850   7.448   5.214  12.083
34276SOL     OW 2851   5.665   4.964  11.825
34276SOL    HW1 2852   5.664   4.917  11.913
34276SOL    HW2 2853   5.747   4.936  11.774
34277SOL     OW 2854   6.258   5.115  12.796
34277SOL    HW1 2855   6.180   5.065  12.834
34277SOL    HW2 2856   6.255   5.210  12.827
34278SOL     OW 2857   7.410   3.916  12.399
34278SOL    HW1 2858   7.406   3.826  12.443
34278SOL    HW2 2859   7.413   3.905  12.300
34279SOL     OW 2860   6.014   4.148  11.692
34279SOL    HW1 2861   6.044   4.076  11.630
34279SOL    HW2 2862   5.975   4.108  11.775
34280SOL     OW 2863   7.291   5.211  12.276
34280SOL    HW1 2864   7.198   5.186  12.249
34280SOL    HW2 2865   7.317   5.161  12.358
34281SOL     OW 2866   5.903   4.271  12.452
34281SOL    HW1 2867   5.941   4.212  12.524
34281SOL    HW2 2868   5.943   4.245  12.364
34282SOL     OW 2869   6.398   5.310  11.859
34282SOL    HW1 2870   6.430   5.320  11.765
34282SOL    HW2 2871   6.319   5.248  11.861
34283SOL     OW 2872   7.010   3.938  12.284
34283SOL    HW1 2873   7.062   3.873  12.339
34283SOL    HW2 2874   6.961   4.001  12.345
34284SOL     OW 2875   6.587   3.758  12.326
34284SOL    HW1 2876   6.524   3.686  12.295
34284SOL    HW2 2877   6.680   3.722  12.326
34285SOL     OW 2878   6.356   5.054  11.473
34285SOL    HW1 2879   6.310   4.967  11.490
34285SOL    HW2 2880   6.447   5.051  11.514
34286SOL     OW 2881   6.204   5.291  12.456
34286SOL    HW1 2882   6.199   5.373  12.513
34286SOL    HW2 2883   6.293   5.288  12.411
34287SOL     OW 2884   6.938   3.776  11.340
34287SOL    HW1 2885   6.973   3.735  11.256
34287SOL    HW2 2886   6.848   3.738  11.360
34288SOL     OW 2887   6.886   4.177  11.863
34288SOL    HW1 2888   6.827   4.257  11.867
34288SOL    HW2 2889   6.901   4.142  11.956
34289SOL     OW 2890   7.179   3.945  12.054
34289SOL    HW1 2891   7.095   3.944  12.108
34289SOL    HW2 2892   7.181   4.028  11.998
34290SOL     OW 2893   5.625   4.801  11.472
34290SOL    HW1 2894   5.724   4.790  11.463
34290SOL    HW2 2895   5.585   4.715  11.504
34291SOL     OW 2896   6.461   5.370  11.509
34291SOL    HW1 2897   6.384   5.335  11.455
34291SOL    HW2 2898   6.429   5.441  11.571
34292SOL     OW 2899   5.816   6.214   0.113
34292SOL    HW1 2900   5.723   6.212   0.150
34292SOL    HW2 2901   5.817   6.175   0.021
34293SOL     OW 2902   5.811   5.861   0.996
34293SOL    HW1 2903   5.846   5.844   1.088
34293SOL    HW2 2904   5.723   5.816   0.984
34294SOL     OW 2905   5.605   5.954   0.647
34294SOL    HW1 2906   5.523   5.997   0.686
34294SOL    HW2 2907   5.577   5.881   0.584
34295SOL     OW 2908   6.155   6.861   1.165
34295SOL    HW1 2909   6.062   6.854   1.128
34295SOL    HW2 2910   6.166   6.950   1.209
34296SOL     OW 2911   7.141   7.097   0.703
34296SOL    HW1 2912   7.084   7.081   0.784
34296SOL    HW2 2913   7.082   7.107   0.623
34297SOL     OW 2914   6.721   6.289   0.717
34297SOL    HW1 2915   6.778   6.367   0.692
34297SOL    HW2 2916   6.661   6.315   0.793
34298SOL     OW 2917   7.341   6.193   0.231
34298SOL    HW1 2918   7.329   6.180   0.132
34298SOL    HW2 2919   7.311   6.112   0.280
34299SOL     OW 2920   6.354   6.730   1.023
34299SOL    HW1 2921   6.276   6.747   1.083
34299SOL    HW2 2922   6.388   6.817   0.987
34300SOL     OW 2923   6.436   6.384   1.823
34300SOL    HW1 2924   6.432   6.460   1.888
34300SOL    HW2 2925   6.458   6.420   1.732
34301SOL     OW 2926   6.271   6.598   0.665
34301SOL    HW1 2927   6.340   6.582   0.735
34301SOL    HW2 2928   6.198   6.655   0.703
34302SOL     OW 2929   6.272   6.747   1.803
34302SOL    HW1 2930   6.332   6.826   1.817
34302SOL    HW2 2931   6.186   6.778   1.762
34303SOL     OW 2932   5.921   7.021   1.061
34303SOL    HW1 2933   5.843   6.990   1.008
34303SOL    HW2 2934   5.979   7.079   1.004
34304SOL     OW 2935   7.046   7.091   1.339
34304SOL    HW1 2936   7.070   7.185   1.365
34304SOL    HW2 2937   7.030   7.037   1.421
34305SOL     OW 2938   6.024   5.978   1.499
34305SOL    HW1 2939   6.106   5.922   1.508
34305SOL    HW2 2940   5.943   5.920   1.503
34306SOL     OW 2941   7.189   6.033   0.737
34306SOL    HW1 2942   7.115   6.079   0.687
34306SOL    HW2 2943   7.240   6.101   0.790
34307SOL     OW 2944   5.817   7.299   0.483
34307SOL    HW1 2945   5.851   7.376   0.537
34307SOL    HW2 2946   5.861   7.299   0.393
34308SOL     OW 2947   6.713   6.927   1.690
34308SOL    HW1 2948   6.760   6.927   1.778
34308SOL    HW2 2949   6.665   6.840   1.679
34309SOL     OW 2950   5.816   7.020   0.538
34309SOL    HW1 2951   5.790   7.116   0.538
34309SOL    HW2 2952   5.745   6.966   0.583
34310SOL     OW 2953   5.826   6.677   0.886
34310SOL    HW1 2954   5.840   6.593   0.938
34310SOL    HW2 2955   5.771   6.741   0.941
34311SOL     OW 2956   6.206   7.372   1.439
34311SOL    HW1 2957   6.114   7.355   1.474
34311SOL    HW2 2958   6.234   7.464   1.465
34312SOL     OW 2959   6.192   6.550   0.123
34312SOL    HW1 2960   6.199   6.634   0.069
34312SOL    HW2 2961   6.238   6.563   0.211
34313SOL     OW 2962   7.180   5.700   1.480
34313SOL    HW1 2963   7.162   5.767   1.408
34313SOL    HW2 2964   7.177   5.746   1.569
34314SOL     OW 2965   5.708   6.229   0.563
34314SOL    HW1 2966   5.663   6.141   0.580
34314SOL    HW2 2967   5.707   6.283   0.647
34315SOL     OW 2968   7.428   7.353   0.359
34315SOL    HW1 2969   7.482   7.324   0.439
34315SOL    HW2 2970   7.458   7.443   0.330
34316SOL     OW 2971   5.613   7.182   0.117
34316SOL    HW1 2972   5.594   7.086   0.138
34316SOL    HW2 2973   5.580   7.240   0.192
34317SOL     OW 2974   7.275   6.508   0.612
34317SOL    HW1 2975   7.370   6.479   0.620
34317SOL    HW2 2976   7.267   6.573   0.537
34318SOL     OW 2977   7.227   6.694   0.432
34318SOL    HW1 2978   7.313   6.696   0.380
34318SOL    HW2 2979   7.241   6.741   0.520
34319SOL     OW 2980   5.699   6.323   1.597
34319SOL    HW1 2981   5.787   6.310   1.642
34319SOL    HW2 2982   5.686   6.420   1.575
34320SOL     OW 2983   6.199   6.951   0.726
34320SOL    HW1 2984   6.150   6.864   0.735
34320SOL    HW2 2985   6.176   6.994   0.639
34321SOL     OW 2986   6.879   6.814   1.423
34321SOL    HW1 2987   6.916   6.741   1.365
34321SOL    HW2 2988   6.931   6.819   1.508
34322SOL     OW 2989   6.395   5.590   0.502
34322SOL    HW1 2990   6.435   5.681   0.493
34322SOL    HW2 2991   6.295   5.598   0.508
34323SOL     OW 2992   5.783   6.562   1.264
34323SOL    HW1 2993   5.872   6.517   1.250
34323SOL    HW2 2994   5.710   6.497   1.245
34324SOL     OW 2995   7.111   6.585   0.190
34324SOL    HW1 2996   7.048   6.509   0.203
34324SOL    HW2 2997   7.159   6.603   0.276
34325SOL     OW 2998   6.773   7.378   1.616
34325SOL    HW1 2999   6.797   7.438   1.540
34325SOL    HW2 3000   6.780   7.283   1.586
34326SOL     OW 3001   5.903   5.837   1.801
34326SOL    HW1 3002   5.974   5.908   1.807
34326SOL    HW2 3003   5.815   5.876   1.829
34327SOL     OW 3004   7.052   7.003   0.953
34327SOL    HW1 3005   6.993   7.009   1.033
34327SOL    HW2 3006   7.037   6.915   0.907
34328SOL     OW 3007   7.253   7.300   0.572
34328SOL    HW1 3008   7.212   7.277   0.484
34328SOL    HW2 3009   7.235   7.226   0.637
34329SOL     OW 3010   6.184   6.315   0.270
34329SOL    HW1 3011   6.208   6.384   0.202
34329SOL    HW2 3012   6.106   6.348   0.324
34330SOL     OW 3013   6.867   5.931   0.944
34330SOL    HW1 3014   6.781   5.881   0.931
34330SOL    HW2 3015   6.929   5.877   1.000
34331SOL     OW 3016   6.393   6.191   1.465
34331SOL    HW1 3017   6.346   6.188   1.554
34331SOL    HW2 3018   6.342   6.136   1.399
34332SOL     OW 3019   6.980   6.055   1.674
34332SOL    HW1 3020   6.960   6.098   1.762
34332SOL    HW2 3021   7.058   5.993   1.683
34333SOL     OW 3022   6.559   6.476   1.572
34333SOL    HW1 3023   6.605   6.392   1.543
34333SOL    HW2 3024   6.503   6.510   1.497
34334SOL     OW 3025   6.577   5.996   1.242
34334SOL    HW1 3026   6.500   6.030   1.296
34334SOL    HW2 3027   6.543   5.945   1.163
34335SOL     OW 3028   6.627   6.287   0.429
34335SOL    HW1 3029   6.653   6.283   0.525
34335SOL    HW2 3030   6.542   6.236   0.415
34336SOL     OW 3031   5.662   6.397   0.789
34336SOL    HW1 3032   5.761   6.385   0.798
34336SOL    HW2 3033   5.638   6.492   0.810
34337SOL     OW 3034   5.716   7.407   1.571
34337SOL    HW1 3035   5.706   7.392   1.670
34337SOL    HW2 3036   5.630   7.443   1.535
34338SOL     OW 3037   6.451   5.934   0.195
34338SOL    HW1 3038   6.510   5.997   0.146
34338SOL    HW2 3039   6.470   5.840   0.166
34339SOL     OW 3040   7.305   6.171   1.831
34339SOL    HW1 3041   7.279   6.260   1.795
34339SOL    HW2 3042   7.303   6.103   1.758
34340SOL     OW 3043   6.948   6.730   0.545
34340SOL    HW1 3044   7.031   6.701   0.497
34340SOL    HW2 3045   6.899   6.797   0.489
34341SOL     OW 3046   6.136   5.782   0.885
34341SOL    HW1 3047   6.131   5.777   0.985
34341SOL    HW2 3048   6.138   5.878   0.856
34342SOL     OW 3049   6.594   7.042   0.477
34342SOL    HW1 3050   6.548   7.114   0.425
34342SOL    HW2 3051   6.590   7.062   0.575
34343SOL     OW 3052   5.937   7.387   0.853
34343SOL    HW1 3053   5.987   7.301   0.859
34343SOL    HW2 3054   6.002   7.464   0.850
34344SOL     OW 3055   7.381   6.652   0.873
34344SOL    HW1 3056   7.319   6.637   0.797
34344SOL    HW2 3057   7.329   6.663   0.958
34345SOL     OW 3058   6.813   7.136   1.506
34345SOL    HW1 3059   6.819   7.059   1.570
34345SOL    HW2 3060   6.761   7.110   1.426
34346SOL     OW 3061   5.907   6.529   0.242
34346SOL    HW1 3062   5.989   6.568   0.200
34346SOL    HW2 3063   5.880   6.447   0.193
34347SOL     OW 3064   7.044   6.321   0.728
34347SOL    HW1 3065   7.039   6.256   0.803
34347SOL    HW2 3066   7.124   6.380   0.741
34348SOL     OW 3067   6.047   6.852   1.727
34348SOL    HW1 3068   5.997   6.853   1.641
34348SOL    HW2 3069   5.984   6.834   1.803
34349SOL     OW 3070   6.697   7.362   0.237
34349SOL    HW1 3071   6.637   7.300   0.287
34349SOL    HW2 3072   6.728   7.318   0.152
34350SOL     OW 3073   5.788   5.871   1.498
34350SOL    HW1 3074   5.708   5.931   1.485
34350SOL    HW2 3075   5.778   5.822   1.584
34351SOL     OW 3076   7.218   6.963   0.081
34351SOL    HW1 3077   7.186   7.057   0.071
34351SOL    HW2 3078   7.142   6.900   0.069
34352SOL     OW 3079   6.050   7.329   0.323
34352SOL    HW1 3080   6.083   7.368   0.409
34352SOL    HW2 3081   6.126   7.322   0.258
34353SOL     OW 3082   6.986   5.693   0.426
34353SOL    HW1 3083   6.962   5.656   0.336
34353SOL    HW2 3084   7.085   5.709   0.430
34354SOL     OW 3085   5.835   7.371   1.241
34354SOL    HW1 3086   5.892   7.306   1.291
34354SOL    HW2 3087   5.819   7.338   1.148
34355SOL     OW 3088   6.526   7.284   0.904
34355SOL    HW1 3089   6.606   7.227   0.925
34355SOL    HW2 3090   6.477   7.244   0.827
34356SOL     OW 3091   5.968   6.286   0.480
34356SOL    HW1 3092   6.013   6.196   0.477
34356SOL    HW2 3093   5.874   6.275   0.513
34357SOL     OW 3094   7.133   5.808   1.729
34357SOL    HW1 3095   7.128   5.845   1.821
34357SOL    HW2 3096   7.061   5.739   1.717
34358SOL     OW 3097   6.200   5.708   0.117
34358SOL    HW1 3098   6.298   5.686   0.124
34358SOL    HW2 3099   6.169   5.691   0.024
34359SOL     OW 3100   6.367   5.850   1.749
34359SOL    HW1 3101   6.434   5.789   1.792
34359SOL    HW2 3102   6.294   5.869   1.814
34360SOL     OW 3103   6.474   7.100   1.195
34360SOL    HW1 3104   6.451   7.075   1.101
34360SOL    HW2 3105   6.535   7.031   1.234
34361SOL     OW 3106   6.937   6.176   1.433
34361SOL    HW1 3107   6.965   6.133   1.518
34361SOL    HW2 3108   6.962   6.272   1.434
34362SOL     OW 3109   6.389   6.988   0.924
34362SOL    HW1 3110   6.479   7.002   0.882
34362SOL    HW2 3111   6.318   6.990   0.853
34363SOL     OW 3112   6.508   6.089   0.899
34363SOL    HW1 3113   6.483   6.080   0.803
34363SOL    HW2 3114   6.556   6.007   0.930
34364SOL     OW 3115   6.125   5.650   0.512
34364SOL    HW1 3116   6.044   5.651   0.570
34364SOL    HW2 3117   6.128   5.733   0.457
34365SOL     OW 3118   7.020   6.774   0.041
34365SOL    HW1 3119   7.052   6.698   0.098
34365SOL    HW2 3120   6.928   6.801   0.071
34366SOL     OW 3121   5.883   5.621   0.171
34366SOL    HW1 3122   5.932   5.705   0.150
34366SOL    HW2 3123   5.945   5.556   0.216
34367SOL     OW 3124   6.521   5.822   0.480
34367SOL    HW1 3125   6.473   5.863   0.402
34367SOL    HW2 3126   6.620   5.820   0.461
34368SOL     OW 3127   6.662   6.269   1.464
34368SOL    HW1 3128   6.582   6.208   1.467
34368SOL    HW2 3129   6.743   6.216   1.440
34369SOL     OW 3130   6.813   7.156   0.793
34369SOL    HW1 3131   6.834   7.230   0.728
34369SOL    HW2 3132   6.881   7.156   0.866
34370SOL     OW 3133   6.045   6.738   0.741
34370SOL    HW1 3134   5.974   6.711   0.806
34370SOL    HW2 3135   6.019   6.710   0.648
34371SOL     OW 3136   6.857   7.383   0.591
34371SOL    HW1 3137   6.901   7.447   0.527
34371SOL    HW2 3138   6.807   7.435   0.661
34372SOL     OW 3139   6.618   6.135   0.016
34372SOL    HW1 3140   6.577   6.217  -0.023
34372SOL    HW2 3141   6.682   6.161   0.089
34373SOL     OW 3142   5.664   6.142   1.386
34373SOL    HW1 3143   5.756   6.141   1.345
34373SOL    HW2 3144   5.658   6.216   1.453
34374SOL     OW 3145   6.452   6.040   0.642
34374SOL    HW1 3146   6.420   6.112   0.580
34374SOL    HW2 3147   6.476   5.959   0.589
34375SOL     OW 3148   6.603   5.625   0.753
34375SOL    HW1 3149   6.531   5.630   0.684
34375SOL    HW2 3150   6.579   5.556   0.822
34376SOL     OW 3151   7.015   6.759   0.867
34376SOL    HW1 3152   6.960   6.675   0.860
34376SOL    HW2 3153   7.041   6.788   0.775
34377SOL     OW 3154   7.052   6.176   0.992
34377SOL    HW1 3155   7.022   6.081   0.999
34377SOL    HW2 3156   7.125   6.192   1.058
34378SOL     OW 3157   7.443   6.419   0.377
34378SOL    HW1 3158   7.485   6.355   0.441
34378SOL    HW2 3159   7.405   6.368   0.299
34379SOL     OW 3160   6.074   6.971   0.174
34379SOL    HW1 3161   5.987   6.956   0.221
34379SOL    HW2 3162   6.057   6.997   0.079
34380SOL     OW 3163   7.250   6.866   0.657
34380SOL    HW1 3164   7.349   6.874   0.671
34380SOL    HW2 3165   7.205   6.950   0.688
34381SOL     OW 3166   6.976   6.161   0.078
34381SOL    HW1 3167   6.922   6.140   0.159
34381SOL    HW2 3168   7.067   6.120   0.087
34382SOL     OW 3169   6.113   5.842   0.328
34382SOL    HW1 3170   6.140   5.783   0.253
34382SOL    HW2 3171   6.113   5.937   0.297
34383SOL     OW 3172   7.340   6.809   1.588
34383SOL    HW1 3173   7.431   6.770   1.575
34383SOL    HW2 3174   7.348   6.905   1.612
34384SOL     OW 3175   6.650   6.933   1.340
34384SOL    HW1 3176   6.570   6.910   1.395
34384SOL    HW2 3177   6.733   6.907   1.389
34385SOL     OW 3178   7.178   7.215   1.625
34385SOL    HW1 3179   7.205   7.249   1.535
34385SOL    HW2 3180   7.257   7.177   1.671
34386SOL     OW 3181   6.697   6.781   1.100
34386SOL    HW1 3182   6.657   6.825   1.181
34386SOL    HW2 3183   6.656   6.818   1.017
34387SOL     OW 3184   7.224   6.685   1.079
34387SOL    HW1 3185   7.229   6.766   1.138
34387SOL    HW2 3186   7.138   6.687   1.028
34388SOL     OW 3187   6.501   5.675   1.402
34388SOL    HW1 3188   6.526   5.655   1.307
34388SOL    HW2 3189   6.573   5.731   1.444
34389SOL     OW 3190   6.566   6.702   1.719
34389SOL    HW1 3191   6.467   6.708   1.729
34389SOL    HW2 3192   6.589   6.622   1.663
34390SOL     OW 3193   6.291   6.636   0.368
34390SOL    HW1 3194   6.277   6.643   0.467
34390SOL    HW2 3195   6.375   6.585   0.350
34391SOL     OW 3196   5.996   6.399   1.251
34391SOL    HW1 3197   6.082   6.411   1.301
34391SOL    HW2 3198   5.954   6.312   1.278
34392SOL     OW 3199   6.860   5.972   1.262
34392SOL    HW1 3200   6.881   6.046   1.326
34392SOL    HW2 3201   6.771   5.989   1.219
34393SOL     OW 3202   5.650   7.150   1.331
34393SOL    HW1 3203   5.604   7.232   1.297
34393SOL    HW2 3204   5.748   7.169   1.340
34394SOL     OW 3205   5.953   6.686   0.501
34394SOL    HW1 3206   5.946   6.769   0.445
34394SOL    HW2 3207   5.957   6.606   0.441
34395SOL     OW 3208   6.152   6.123   0.865
34395SOL    HW1 3209   6.164   6.189   0.791
34395SOL    HW2 3210   6.198   6.157   0.948
34396SOL     OW 3211   6.838   6.934   0.388
34396SOL    HW1 3212   6.888   7.011   0.428
34396SOL    HW2 3213   6.743   6.936   0.420
34397SOL     OW 3214   6.858   7.031   1.142
34397SOL    HW1 3215   6.905   7.044   1.229
34397SOL    HW2 3216   6.792   6.957   1.151
34398SOL     OW 3217   7.168   6.225   0.472
34398SOL    HW1 3218   7.137   6.286   0.545
34398SOL    HW2 3219   7.218   6.277   0.403
34399SOL     OW 3220   5.940   7.096   1.329
34399SOL    HW1 3221   5.919   7.052   1.242
34399SOL    HW2 3222   6.037   7.122   1.332
34400SOL     OW 3223   5.988   6.337   1.598
34400SOL    HW1 3224   6.056   6.392   1.551
34400SOL    HW2 3225   6.028   6.249   1.625
34401SOL     OW 3226   7.173   6.365   1.670
34401SOL    HW1 3227   7.081   6.403   1.665
34401SOL    HW2 3228   7.233   6.412   1.605
34402SOL     OW 3229   6.599   5.691   1.770
34402SOL    HW1 3230   6.605   5.776   1.718
34402SOL    HW2 3231   6.631   5.615   1.713
34403SOL     OW 3232   6.090   5.636   1.740
34403SOL    HW1 3233   6.048   5.579   1.670
34403SOL    HW2 3234   6.024   5.705   1.772
34404SOL     OW 3235   6.159   6.456   1.029
34404SOL    HW1 3236   6.203   6.545   1.020
34404SOL    HW2 3237   6.096   6.456   1.106
34405SOL     OW 3238   6.946   6.448   1.045
34405SOL    HW1 3239   6.871   6.448   0.979
34405SOL    HW2 3240   6.983   6.356   1.054
34406SOL     OW 3241   6.795   6.111   0.275
34406SOL    HW1 3242   6.808   6.027   0.329
34406SOL    HW2 3243   6.766   6.185   0.335
34407SOL     OW 3244   5.893   5.799   1.231
34407SOL    HW1 3245   5.870   5.836   1.321
34407SOL    HW2 3246   5.863   5.704   1.225
34408SOL     OW 3247   5.623   6.896   1.282
34408SOL    HW1 3248   5.676   6.847   1.350
34408SOL    HW2 3249   5.645   6.994   1.287
34409SOL     OW 3250   6.318   6.220   1.064
34409SOL    HW1 3251   6.377   6.194   0.988
34409SOL    HW2 3252   6.290   6.316   1.053
34410SOL     OW 3253   7.314   6.521   1.854
34410SOL    HW1 3254   7.268   6.514   1.765
34410SOL    HW2 3255   7.252   6.565   1.920
34411SOL     OW 3256   5.893   5.649   0.618
34411SOL    HW1 3257   5.882   5.743   0.651
34411SOL    HW2 3258   5.888   5.586   0.695
34412SOL     OW 3259   7.208   5.953   0.374
34412SOL    HW1 3260   7.210   5.877   0.438
34412SOL    HW2 3261   7.160   6.030   0.414
34413SOL     OW 3262   6.609   6.352   0.966
34413SOL    HW1 3263   6.624   6.373   1.062
34413SOL    HW2 3264   6.579   6.257   0.957
34414SOL     OW 3265   6.566   7.159   1.700
34414SOL    HW1 3266   6.546   7.203   1.612
34414SOL    HW2 3267   6.605   7.068   1.684
34415SOL     OW 3268   7.445   7.104   1.605
34415SOL    HW1 3269   7.459   7.131   1.510
34415SOL    HW2 3270   7.528   7.126   1.658
34416SOL     OW 3271   5.936   6.484   1.804
34416SOL    HW1 3272   6.012   6.528   1.852
34416SOL    HW2 3273   5.971   6.437   1.722
34417SOL     OW 3274   7.126   5.860   0.125
34417SOL    HW1 3275   7.065   5.785   0.148
34417SOL    HW2 3276   7.148   5.912   0.208
34418SOL     OW 3277   6.889   6.424   0.042
34418SOL    HW1 3278   6.923   6.331   0.057
34418SOL    HW2 3279   6.907   6.451  -0.053
34419SOL     OW 3280   6.654   6.919   0.849
34419SOL    HW1 3281   6.661   6.835   0.794
34419SOL    HW2 3282   6.716   6.988   0.813
34420SOL     OW 3283   5.905   6.396   0.949
34420SOL    HW1 3284   5.998   6.432   0.954
34420SOL    HW2 3285   5.899   6.311   1.001
34421SOL     OW 3286   5.925   6.095   1.006
34421SOL    HW1 3287   5.873   6.012   0.989
34421SOL    HW2 3288   6.002   6.100   0.942
34422SOL     OW 3289   6.724   5.966   1.678
34422SOL    HW1 3290   6.679   6.029   1.742
34422SOL    HW2 3291   6.817   5.997   1.661
34423SOL     OW 3292   6.746   5.793   1.477
34423SOL    HW1 3293   6.746   5.857   1.554
34423SOL    HW2 3294   6.774   5.841   1.394
34424SOL     OW 3295   5.594   6.912   0.200
34424SOL    HW1 3296   5.501   6.933   0.169
34424SOL    HW2 3297   5.604   6.813   0.213
34425SOL     OW 3298   5.674   7.387   0.927
34425SOL    HW1 3299   5.632   7.301   0.900
34425SOL    HW2 3300   5.768   7.390   0.893
34426SOL     OW 3301   6.090   7.154   0.910
34426SOL    HW1 3302   6.156   7.228   0.919
34426SOL    HW2 3303   6.134   7.075   0.868
34427SOL     OW 3304   6.588   6.382   1.238
34427SOL    HW1 3305   6.629   6.350   1.324
34427SOL    HW2 3306   6.492   6.355   1.235
34428SOL     OW 3307   5.626   6.130   1.114
34428SOL    HW1 3308   5.711   6.097   1.073
34428SOL    HW2 3309   5.639   6.145   1.212
34429SOL     OW 3310   5.775   6.106   1.722
34429SOL    HW1 3311   5.834   6.066   1.652
34429SOL    HW2 3312   5.717   6.177   1.681
34430SOL     OW 3313   6.955   6.536   1.660
34430SOL    HW1 3314   6.994   6.625   1.680
34430SOL    HW2 3315   6.965   6.516   1.563
34431SOL     OW 3316   6.401   6.158   0.325
34431SOL    HW1 3317   6.408   6.069   0.279
34431SOL    HW2 3318   6.307   6.192   0.317
34432SOL     OW 3319   7.243   6.190   1.206
34432SOL    HW1 3320   7.205   6.121   1.268
34432SOL    HW2 3321   7.325   6.154   1.162
34433SOL     OW 3322   5.838   7.150   1.744
34433SOL    HW1 3323   5.808   7.207   1.820
34433SOL    HW2 3324   5.831   7.053   1.770
34434SOL     OW 3325   6.257   6.050   1.269
34434SOL    HW1 3326   6.223   5.961   1.239
34434SOL    HW2 3327   6.283   6.104   1.189
34435SOL     OW 3328   6.516   7.264   1.465
34435SOL    HW1 3329   6.492   7.246   1.370
34435SOL    HW2 3330   6.546   7.358   1.475
34436SOL     OW 3331   6.059   6.086   0.191
34436SOL    HW1 3332   6.120   6.166   0.195
34436SOL    HW2 3333   5.964   6.117   0.198
34437SOL     OW 3334   5.745   6.723   1.466
34437SOL    HW1 3335   5.767   6.662   1.542
34437SOL    HW2 3336   5.755   6.674   1.380
34438SOL     OW 3337   6.933   6.645   1.234
34438SOL    HW1 3338   6.957   6.582   1.160
34438SOL    HW2 3339   6.843   6.685   1.216
34439SOL     OW 3340   6.888   6.441   0.309
34439SOL    HW1 3341   6.802   6.410   0.351
34439SOL    HW2 3342   6.884   6.427   0.210
34440SOL     OW 3343   7.345   7.333   1.154
34440SOL    HW1 3344   7.406   7.363   1.081
34440SOL    HW2 3345   7.307   7.244   1.132
34441SOL     OW 3346   6.838   7.317   1.128
34441SOL    HW1 3347   6.922   7.322   1.074
34441SOL    HW2 3348   6.815   7.221   1.146
34442SOL     OW 3349   5.669   6.844   1.022
34442SOL    HW1 3350   5.664   6.843   1.122
34442SOL    HW2 3351   5.586   6.803   0.984
34443SOL     OW 3352   6.274   7.248   1.716
34443SOL    HW1 3353   6.218   7.329   1.725
34443SOL    HW2 3354   6.326   7.252   1.630
34444SOL     OW 3355   6.489   5.672   0.133
34444SOL    HW1 3356   6.540   5.673   0.047
34444SOL    HW2 3357   6.545   5.630   0.204
34445SOL     OW 3358   7.312   5.721   0.523
34445SOL    HW1 3359   7.385   5.704   0.456
34445SOL    HW2 3360   7.281   5.634   0.561
34446SOL     OW 3361   6.974   7.159   0.477
34446SOL    HW1 3362   7.041   7.171   0.403
34446SOL    HW2 3363   6.934   7.248   0.500
34447SOL     OW 3364   5.716   7.380   1.851
34447SOL    HW1 3365   5.675   7.306   1.904
34447SOL    HW2 3366   5.780   7.431   1.909
34448SOL     OW 3367   6.866   6.513   0.672
34448SOL    HW1 3368   6.926   6.432   0.674
34448SOL    HW2 3369   6.906   6.582   0.612
34449SOL     OW 3370   6.416   6.859   1.422
34449SOL    HW1 3371   6.411   6.892   1.517
34449SOL    HW2 3372   6.330   6.878   1.376
34450SOL     OW 3373   6.258   7.202   0.154
34450SOL    HW1 3374   6.267   7.212   0.055
34450SOL    HW2 3375   6.218   7.113   0.175
34451SOL     OW 3376   7.236   7.306   1.394
34451SOL    HW1 3377   7.289   7.316   1.310
34451SOL    HW2 3378   7.209   7.396   1.428
34452SOL     OW 3379   7.427   5.761   0.963
34452SOL    HW1 3380   7.466   5.676   0.927
34452SOL    HW2 3381   7.329   5.763   0.944
34453SOL     OW 3382   5.849   5.912   0.720
34453SOL    HW1 3383   5.770   5.963   0.686
34453SOL    HW2 3384   5.840   5.897   0.818
34454SOL     OW 3385   6.780   7.198   0.031
34454SOL    HW1 3386   6.786   7.105   0.068
34454SOL    HW2 3387   6.721   7.198  -0.049
34455SOL     OW 3388   6.408   6.588   1.372
34455SOL    HW1 3389   6.448   6.587   1.280
34455SOL    HW2 3390   6.418   6.680   1.412
34456SOL     OW 3391   6.502   6.496   0.291
34456SOL    HW1 3392   6.565   6.534   0.223
34456SOL    HW2 3393   6.542   6.413   0.330
34457SOL     OW 3394   7.090   7.193   0.044
34457SOL    HW1 3395   6.998   7.230   0.051
34457SOL    HW2 3396   7.128   7.213  -0.046
34458SOL     OW 3397   5.958   6.874   1.490
34458SOL    HW1 3398   5.945   6.967   1.456
34458SOL    HW2 3399   5.874   6.822   1.477
34459SOL     OW 3400   7.200   6.878   1.289
34459SOL    HW1 3401   7.260   6.881   1.369
34459SOL    HW2 3402   7.125   6.942   1.302
34460SOL     OW 3403   6.625   6.684   0.696
34460SOL    HW1 3404   6.555   6.637   0.750
34460SOL    HW2 3405   6.684   6.616   0.653
34461SOL     OW 3406   6.600   5.822   0.971
34461SOL    HW1 3407   6.592   5.786   0.878
34461SOL    HW2 3408   6.598   5.746   1.036
34462SOL     OW 3409   6.176   7.073   0.491
34462SOL    HW1 3410   6.218   7.015   0.421
34462SOL    HW2 3411   6.132   7.152   0.447
34463SOL     OW 3412   7.295   5.971   1.381
34463SOL    HW1 3413   7.368   6.040   1.385
34463SOL    HW2 3414   7.323   5.896   1.322
34464SOL     OW 3415   5.841   6.934   0.290
34464SOL    HW1 3416   5.745   6.935   0.263
34464SOL    HW2 3417   5.853   6.987   0.374
34465SOL     OW 3418   5.691   6.599   1.726
34465SOL    HW1 3419   5.614   6.566   1.780
34465SOL    HW2 3420   5.776   6.569   1.768
34466SOL     OW 3421   6.258   5.789   1.489
34466SOL    HW1 3422   6.348   5.773   1.449
34466SOL    HW2 3423   6.266   5.794   1.588
34467SOL     OW 3424   7.026   6.442   1.398
34467SOL    HW1 3425   6.969   6.494   1.335
34467SOL    HW2 3426   7.122   6.454   1.374
34468SOL     OW 3427   5.658   5.752   0.318
34468SOL    HW1 3428   5.641   5.835   0.264
34468SOL    HW2 3429   5.748   5.715   0.296
34469SOL     OW 3430   6.769   6.921   0.119
34469SOL    HW1 3431   6.670   6.910   0.121
34469SOL    HW2 3432   6.803   6.936   0.212
34470SOL     OW 3433   6.199   6.428   1.431
34470SOL    HW1 3434   6.255   6.509   1.414
34470SOL    HW2 3435   6.258   6.348   1.434
34471SOL     OW 3436   7.079   7.353   0.959
34471SOL    HW1 3437   7.112   7.417   0.890
34471SOL    HW2 3438   7.145   7.347   1.034
34472SOL     OW 3439   6.302   6.151   1.708
34472SOL    HW1 3440   6.321   6.216   1.782
34472SOL    HW2 3441   6.362   6.071   1.717
34473SOL     OW 3442   7.036   6.806   1.633
34473SOL    HW1 3443   7.027   6.796   1.732
34473SOL    HW2 3444   7.132   6.799   1.607
34474SOL     OW 3445   5.976   7.327   1.560
34474SOL    HW1 3446   5.885   7.368   1.558
34474SOL    HW2 3447   5.969   7.233   1.592
34475SOL     OW 3448   7.260   6.469   1.254
34475SOL    HW1 3449   7.233   6.380   1.217
34475SOL    HW2 3450   7.261   6.537   1.181
34476SOL     OW 3451   6.811   5.911   0.449
34476SOL    HW1 3452   6.876   5.837   0.438
34476SOL    HW2 3453   6.831   5.961   0.533
34477SOL     OW 3454   6.180   6.331   0.652
34477SOL    HW1 3455   6.230   6.416   0.633
34477SOL    HW2 3456   6.092   6.333   0.604
34478SOL     OW 3457   7.363   5.928   1.642
34478SOL    HW1 3458   7.346   5.959   1.548
34478SOL    HW2 3459   7.279   5.891   1.680
34479SOL     OW 3460   7.316   6.520   1.517
34479SOL    HW1 3461   7.354   6.611   1.532
34479SOL    HW2 3462   7.308   6.503   1.418
34480SOL     OW 3463   6.445   6.960   0.016
34480SOL    HW1 3464   6.399   6.975   0.104
34480SOL    HW2 3465   6.489   7.045  -0.014
34481SOL     OW 3466   6.247   7.376   0.953
34481SOL    HW1 3467   6.201   7.464   0.940
34481SOL    HW2 3468   6.346   7.388   0.946
34482SOL     OW 3469   6.445   6.542   0.861
34482SOL    HW1 3470   6.499   6.473   0.909
34482SOL    HW2 3471   6.413   6.611   0.927
34483SOL     OW 3472   6.669   6.570   0.087
34483SOL    HW1 3473   6.646   6.623   0.005
34483SOL    HW2 3474   6.750   6.514   0.068
34484SOL     OW 3475   7.447   7.155   0.851
34484SOL    HW1 3476   7.376   7.143   0.781
34484SOL    HW2 3477   7.448   7.076   0.911
34485SOL     OW 3478   5.807   6.900   1.844
34485SOL    HW1 3479   5.742   6.827   1.823
34485SOL    HW2 3480   5.811   6.914   1.942
34486SOL     OW 3481   5.665   6.826   0.653
34486SOL    HW1 3482   5.664   6.779   0.741
34486SOL    HW2 3483   5.747   6.798   0.602
34487SOL     OW 3484   6.258   6.977   1.624
34487SOL    HW1 3485   6.180   6.927   1.662
34487SOL    HW2 3486   6.255   7.072   1.655
34488SOL     OW 3487   7.410   5.778   1.227
34488SOL    HW1 3488   7.406   5.688   1.271
34488SOL    HW2 3489   7.413   5.767   1.128
34489SOL     OW 3490   6.014   6.010   0.520
34489SOL    HW1 3491   6.044   5.938   0.458
34489SOL    HW2 3492   5.975   5.970   0.603
34490SOL     OW 3493   7.291   7.073   1.104
34490SOL    HW1 3494   7.198   7.048   1.077
34490SOL    HW2 3495   7.317   7.023   1.186
34491SOL     OW 3496   5.903   6.133   1.280
34491SOL    HW1 3497   5.941   6.074   1.352
34491SOL    HW2 3498   5.943   6.107   1.192
34492SOL     OW 3499   6.398   7.172   0.687
34492SOL    HW1 3500   6.430   7.182   0.593
34492SOL    HW2 3501   6.319   7.110   0.689
34493SOL     OW 3502   7.010   5.800   1.112
34493SOL    HW1 3503   7.062   5.735   1.167
34493SOL    HW2 3504   6.961   5.863   1.173
34494SOL     OW 3505   6.587   5.620   1.154
34494SOL    HW1 3506   6.524   5.548   1.123
34494SOL    HW2 3507   6.680   5.584   1.154
34495SOL     OW 3508   6.356   6.916   0.301
34495SOL    HW1 3509   6.310   6.829   0.318
34495SOL    HW2 3510   6.447   6.913   0.342
34496SOL     OW 3511   6.204   7.153   1.284
34496SOL    HW1 3512   6.199   7.235   1.341
34496SOL    HW2 3513   6.293   7.150   1.239
34497SOL     OW 3514   6.938   5.638   0.168
34497SOL    HW1 3515   6.973   5.597   0.084
34497SOL    HW2 3516   6.848   5.600   0.188
34498SOL     OW 3517   6.886   6.039   0.691
34498SOL    HW1 3518   6.827   6.119   0.695
34498SOL    HW2 3519   6.901   6.004   0.784
34499SOL     OW 3520   7.179   5.807   0.882
34499SOL    HW1 3521   7.095   5.806   0.936
34499SOL    HW2 3522   7.181   5.890   0.826
34500SOL     OW 3523   5.625   6.663   0.300
34500SOL    HW1 3524   5.724   6.652   0.291
34500SOL    HW2 3525   5.585   6.577   0.332
34501SOL     OW 3526   6.461   7.232   0.337
34501SOL    HW1 3527   6.384   7.197   0.283
34501SOL    HW2 3528   6.429   7.303   0.399
34502SOL     OW 3529   5.816   6.214   1.975
34502SOL    HW1 3530   5.723   6.212   2.012
34502SOL    HW2 3531   5.817   6.175   1.883
34503SOL     OW 3532   5.811   5.861   2.858
34503SOL    HW1 3533   5.846   5.844   2.950
34503SOL    HW2 3534   5.723   5.816   2.846
34504SOL     OW 3535   5.605   5.954   2.509
34504SOL    HW1 3536   5.523   5.997   2.548
34504SOL    HW2 3537   5.577   5.881   2.446
34505SOL     OW 3538   6.155   6.861   3.027
34505SOL    HW1 3539   6.062   6.854   2.990
34505SOL    HW2 3540   6.166   6.950   3.071
34506SOL     OW 3541   7.141   7.097   2.565
34506SOL    HW1 3542   7.084   7.081   2.646
34506SOL    HW2 3543   7.082   7.107   2.485
34507SOL     OW 3544   6.721   6.289   2.579
34507SOL    HW1 3545   6.778   6.367   2.554
34507SOL    HW2 3546   6.661   6.315   2.655
34508SOL     OW 3547   7.341   6.193   2.093
34508SOL    HW1 3548   7.329   6.180   1.994
34508SOL    HW2 3549   7.311   6.112   2.142
34509SOL     OW 3550   6.354   6.730   2.885
34509SOL    HW1 3551   6.276   6.747   2.945
34509SOL    HW2 3552   6.388   6.817   2.849
34510SOL     OW 3553   6.436   6.384   3.685
34510SOL    HW1 3554   6.432   6.460   3.750
34510SOL    HW2 3555   6.458   6.420   3.594
34511SOL     OW 3556   6.271   6.598   2.527
34511SOL    HW1 3557   6.340   6.582   2.597
34511SOL    HW2 3558   6.198   6.655   2.565
34512SOL     OW 3559   6.272   6.747   3.665
34512SOL    HW1 3560   6.332   6.826   3.679
34512SOL    HW2 3561   6.186   6.778   3.624
34513SOL     OW 3562   5.921   7.021   2.923
34513SOL    HW1 3563   5.843   6.990   2.870
34513SOL    HW2 3564   5.979   7.079   2.866
34514SOL     OW 3565   7.046   7.091   3.201
34514SOL    HW1 3566   7.070   7.185   3.227
34514SOL    HW2 3567   7.030   7.037   3.283
34515SOL     OW 3568   6.024   5.978   3.361
34515SOL    HW1 3569   6.106   5.922   3.370
34515SOL    HW2 3570   5.943   5.920   3.365
34516SOL     OW 3571   7.189   6.033   2.599
34516SOL    HW1 3572   7.115   6.079   2.549
34516SOL    HW2 3573   7.240   6.101   2.652
34517SOL     OW 3574   5.817   7.299   2.345
34517SOL    HW1 3575   5.851   7.376   2.399
34517SOL    HW2 3576   5.861   7.299   2.255
34518SOL     OW 3577   6.713   6.927   3.552
34518SOL    HW1 3578   6.760   6.927   3.640
34518SOL    HW2 3579   6.665   6.840   3.541
34519SOL     OW 3580   5.816   7.020   2.400
34519SOL    HW1 3581   5.790   7.116   2.400
34519SOL    HW2 3582   5.745   6.966   2.445
34520SOL     OW 3583   5.826   6.677   2.748
34520SOL    HW1 3584   5.840   6.593   2.800
34520SOL    HW2 3585   5.771   6.741   2.803
34521SOL     OW 3586   6.206   7.372   3.301
34521SOL    HW1 3587   6.114   7.355   3.336
34521SOL    HW2 3588   6.234   7.464   3.327
34522SOL     OW 3589   6.192   6.550   1.985
34522SOL    HW1 3590   6.199   6.634   1.931
34522SOL    HW2 3591   6.238   6.563   2.073
34523SOL     OW 3592   7.180   5.700   3.342
34523SOL    HW1 3593   7.162   5.767   3.270
34523SOL    HW2 3594   7.177   5.746   3.431
34524SOL     OW 3595   5.708   6.229   2.425
34524SOL    HW1 3596   5.663   6.141   2.442
34524SOL    HW2 3597   5.707   6.283   2.509
34525SOL     OW 3598   7.428   7.353   2.221
34525SOL    HW1 3599   7.482   7.324   2.301
34525SOL    HW2 3600   7.458   7.443   2.192
34526SOL     OW 3601   5.613   7.182   1.979
34526SOL    HW1 3602   5.594   7.086   2.000
34526SOL    HW2 3603   5.580   7.240   2.054
34527SOL     OW 3604   7.275   6.508   2.474
34527SOL    HW1 3605   7.370   6.479   2.482
34527SOL    HW2 3606   7.267   6.573   2.399
34528SOL     OW 3607   7.227   6.694   2.294
34528SOL    HW1 3608   7.313   6.696   2.242
34528SOL    HW2 3609   7.241   6.741   2.382
34529SOL     OW 3610   5.699   6.323   3.459
34529SOL    HW1 3611   5.787   6.310   3.504
34529SOL    HW2 3612   5.686   6.420   3.437
34530SOL     OW 3613   6.199   6.951   2.588
34530SOL    HW1 3614   6.150   6.864   2.597
34530SOL    HW2 3615   6.176   6.994   2.501
34531SOL     OW 3616   6.879   6.814   3.285
34531SOL    HW1 3617   6.916   6.741   3.227
34531SOL    HW2 3618   6.931   6.819   3.370
34532SOL     OW 3619   6.395   5.590   2.364
34532SOL    HW1 3620   6.435   5.681   2.355
34532SOL    HW2 3621   6.295   5.598   2.370
34533SOL     OW 3622   5.783   6.562   3.126
34533SOL    HW1 3623   5.872   6.517   3.112
34533SOL    HW2 3624   5.710   6.497   3.107
34534SOL     OW 3625   7.111   6.585   2.052
34534SOL    HW1 3626   7.048   6.509   2.065
34534SOL    HW2 3627   7.159   6.603   2.138
34535SOL     OW 3628   6.773   7.378   3.478
34535SOL    HW1 3629   6.797   7.438   3.402
34535SOL    HW2 3630   6.780   7.283   3.448
34536SOL     OW 3631   5.903   5.837   3.663
34536SOL    HW1 3632   5.974   5.908   3.669
34536SOL    HW2 3633   5.815   5.876   3.691
34537SOL     OW 3634   7.052   7.003   2.815
34537SOL    HW1 3635   6.993   7.009   2.895
34537SOL    HW2 3636   7.037   6.915   2.769
34538SOL     OW 3637   7.253   7.300   2.434
34538SOL    HW1 3638   7.212   7.277   2.346
34538SOL    HW2 3639   7.235   7.226   2.499
34539SOL     OW 3640   6.184   6.315   2.132
34539SOL    HW1 3641   6.208   6.384   2.064
34539SOL    HW2 3642   6.106   6.348   2.186
34540SOL     OW 3643   6.867   5.931   2.806
34540SOL    HW1 3644   6.781   5.881   2.793
34540SOL    HW2 3645   6.929   5.877   2.862
34541SOL     OW 3646   7.162   7.248   2.169
34541SOL    HW1 3647   7.251   7.294   2.172
34541SOL    HW2 3648   7.141   7.224   2.074
34542SOL     OW 3649   6.393   6.191   3.327
34542SOL    HW1 3650   6.346   6.188   3.416
34542SOL    HW2 3651   6.342   6.136   3.261
34543SOL     OW 3652   6.980   6.055   3.536
34543SOL    HW1 3653   6.960   6.098   3.624
34543SOL    HW2 3654   7.058   5.993   3.545
34544SOL     OW 3655   6.559   6.476   3.434
34544SOL    HW1 3656   6.605   6.392   3.405
34544SOL    HW2 3657   6.503   6.510   3.359
34545SOL     OW 3658   6.577   5.996   3.104
34545SOL    HW1 3659   6.500   6.030   3.158
34545SOL    HW2 3660   6.543   5.945   3.025
34546SOL     OW 3661   6.627   6.287   2.291
34546SOL    HW1 3662   6.653   6.283   2.387
34546SOL    HW2 3663   6.542   6.236   2.277
34547SOL     OW 3664   5.662   6.397   2.651
34547SOL    HW1 3665   5.761   6.385   2.660
34547SOL    HW2 3666   5.638   6.492   2.672
34548SOL     OW 3667   5.716   7.407   3.433
34548SOL    HW1 3668   5.706   7.392   3.532
34548SOL    HW2 3669   5.630   7.443   3.397
34549SOL     OW 3670   6.451   5.934   2.057
34549SOL    HW1 3671   6.510   5.997   2.008
34549SOL    HW2 3672   6.470   5.840   2.028
34550SOL     OW 3673   7.305   6.171   3.693
34550SOL    HW1 3674   7.279   6.260   3.657
34550SOL    HW2 3675   7.303   6.103   3.620
34551SOL     OW 3676   6.948   6.730   2.407
34551SOL    HW1 3677   7.031   6.701   2.359
34551SOL    HW2 3678   6.899   6.797   2.351
34552SOL     OW 3679   6.136   5.782   2.747
34552SOL    HW1 3680   6.131   5.777   2.847
34552SOL    HW2 3681   6.138   5.878   2.718
34553SOL     OW 3682   6.594   7.042   2.339
34553SOL    HW1 3683   6.548   7.114   2.287
34553SOL    HW2 3684   6.590   7.062   2.437
34554SOL     OW 3685   5.937   7.387   2.715
34554SOL    HW1 3686   5.987   7.301   2.721
34554SOL    HW2 3687   6.002   7.464   2.712
34555SOL     OW 3688   7.381   6.652   2.735
34555SOL    HW1 3689   7.319   6.637   2.659
34555SOL    HW2 3690   7.329   6.663   2.820
34556SOL     OW 3691   6.813   7.136   3.368
34556SOL    HW1 3692   6.819   7.059   3.432
34556SOL    HW2 3693   6.761   7.110   3.288
34557SOL     OW 3694   5.907   6.529   2.104
34557SOL    HW1 3695   5.989   6.568   2.062
34557SOL    HW2 3696   5.880   6.447   2.055
34558SOL     OW 3697   7.044   6.321   2.590
34558SOL    HW1 3698   7.039   6.256   2.665
34558SOL    HW2 3699   7.124   6.380   2.603
34559SOL     OW 3700   6.047   6.852   3.589
34559SOL    HW1 3701   5.997   6.853   3.503
34559SOL    HW2 3702   5.984   6.834   3.665
34560SOL     OW 3703   6.697   7.362   2.099
34560SOL    HW1 3704   6.637   7.300   2.149
34560SOL    HW2 3705   6.728   7.318   2.014
34561SOL     OW 3706   5.788   5.871   3.360
34561SOL    HW1 3707   5.708   5.931   3.347
34561SOL    HW2 3708   5.778   5.822   3.446
34562SOL     OW 3709   7.218   6.963   1.943
34562SOL    HW1 3710   7.186   7.057   1.933
34562SOL    HW2 3711   7.142   6.900   1.931
34563SOL     OW 3712   6.050   7.329   2.185
34563SOL    HW1 3713   6.083   7.368   2.271
34563SOL    HW2 3714   6.126   7.322   2.120
34564SOL     OW 3715   6.986   5.693   2.288
34564SOL    HW1 3716   6.962   5.656   2.198
34564SOL    HW2 3717   7.085   5.709   2.292
34565SOL     OW 3718   5.835   7.371   3.103
34565SOL    HW1 3719   5.892   7.306   3.153
34565SOL    HW2 3720   5.819   7.338   3.010
34566SOL     OW 3721   6.526   7.284   2.766
34566SOL    HW1 3722   6.606   7.227   2.787
34566SOL    HW2 3723   6.477   7.244   2.689
34567SOL     OW 3724   5.968   6.286   2.342
34567SOL    HW1 3725   6.013   6.196   2.339
34567SOL    HW2 3726   5.874   6.275   2.375
34568SOL     OW 3727   7.133   5.808   3.591
34568SOL    HW1 3728   7.128   5.845   3.683
34568SOL    HW2 3729   7.061   5.739   3.579
34569SOL     OW 3730   6.200   5.708   1.979
34569SOL    HW1 3731   6.298   5.686   1.986
34569SOL    HW2 3732   6.169   5.691   1.886
34570SOL     OW 3733   6.367   5.850   3.611
34570SOL    HW1 3734   6.434   5.789   3.654
34570SOL    HW2 3735   6.294   5.869   3.676
34571SOL     OW 3736   6.474   7.100   3.057
34571SOL    HW1 3737   6.451   7.075   2.963
34571SOL    HW2 3738   6.535   7.031   3.096
34572SOL     OW 3739   6.937   6.176   3.295
34572SOL    HW1 3740   6.965   6.133   3.380
34572SOL    HW2 3741   6.962   6.272   3.296
34573SOL     OW 3742   6.389   6.988   2.786
34573SOL    HW1 3743   6.479   7.002   2.744
34573SOL    HW2 3744   6.318   6.990   2.715
34574SOL     OW 3745   6.508   6.089   2.761
34574SOL    HW1 3746   6.483   6.080   2.665
34574SOL    HW2 3747   6.556   6.007   2.792
34575SOL     OW 3748   6.125   5.650   2.374
34575SOL    HW1 3749   6.044   5.651   2.432
34575SOL    HW2 3750   6.128   5.733   2.319
34576SOL     OW 3751   7.020   6.774   1.903
34576SOL    HW1 3752   7.052   6.698   1.960
34576SOL    HW2 3753   6.928   6.801   1.933
34577SOL     OW 3754   5.883   5.621   2.033
34577SOL    HW1 3755   5.932   5.705   2.012
34577SOL    HW2 3756   5.945   5.556   2.078
34578SOL     OW 3757   6.521   5.822   2.342
34578SOL    HW1 3758   6.473   5.863   2.264
34578SOL    HW2 3759   6.620   5.820   2.323
34579SOL     OW 3760   6.662   6.269   3.326
34579SOL    HW1 3761   6.582   6.208   3.329
34579SOL    HW2 3762   6.743   6.216   3.302
34580SOL     OW 3763   6.813   7.156   2.655
34580SOL    HW1 3764   6.834   7.230   2.590
34580SOL    HW2 3765   6.881   7.156   2.728
34581SOL     OW 3766   6.045   6.738   2.603
34581SOL    HW1 3767   5.974   6.711   2.668
34581SOL    HW2 3768   6.019   6.710   2.510
34582SOL     OW 3769   6.857   7.383   2.453
34582SOL    HW1 3770   6.901   7.447   2.389
34582SOL    HW2 3771   6.807   7.435   2.523
34583SOL     OW 3772   6.618   6.135   1.878
34583SOL    HW1 3773   6.577   6.217   1.839
34583SOL    HW2 3774   6.682   6.161   1.951
34584SOL     OW 3775   5.664   6.142   3.248
34584SOL    HW1 3776   5.756   6.141   3.207
34584SOL    HW2 3777   5.658   6.216   3.315
34585SOL     OW 3778   6.147   5.808   3.009
34585SOL    HW1 3779   6.185   5.724   3.046
34585SOL    HW2 3780   6.059   5.827   3.053
34586SOL     OW 3781   6.452   6.040   2.504
34586SOL    HW1 3782   6.420   6.112   2.442
34586SOL    HW2 3783   6.476   5.959   2.451
34587SOL     OW 3784   6.603   5.625   2.615
34587SOL    HW1 3785   6.531   5.630   2.546
34587SOL    HW2 3786   6.579   5.556   2.684
34588SOL     OW 3787   7.015   6.759   2.729
34588SOL    HW1 3788   6.960   6.675   2.722
34588SOL    HW2 3789   7.041   6.788   2.637
34589SOL     OW 3790   7.052   6.176   2.854
34589SOL    HW1 3791   7.022   6.081   2.861
34589SOL    HW2 3792   7.125   6.192   2.920
34590SOL     OW 3793   7.443   6.419   2.239
34590SOL    HW1 3794   7.485   6.355   2.303
34590SOL    HW2 3795   7.405   6.368   2.161
34591SOL     OW 3796   6.074   6.971   2.036
34591SOL    HW1 3797   5.987   6.956   2.083
34591SOL    HW2 3798   6.057   6.997   1.941
34592SOL     OW 3799   7.250   6.866   2.519
34592SOL    HW1 3800   7.349   6.874   2.533
34592SOL    HW2 3801   7.205   6.950   2.550
34593SOL     OW 3802   6.976   6.161   1.940
34593SOL    HW1 3803   6.922   6.140   2.021
34593SOL    HW2 3804   7.067   6.120   1.949
34594SOL     OW 3805   6.113   5.842   2.190
34594SOL    HW1 3806   6.140   5.783   2.115
34594SOL    HW2 3807   6.113   5.937   2.159
34595SOL     OW 3808   7.340   6.809   3.450
34595SOL    HW1 3809   7.431   6.770   3.437
34595SOL    HW2 3810   7.348   6.905   3.474
34596SOL     OW 3811   6.650   6.933   3.202
34596SOL    HW1 3812   6.570   6.910   3.257
34596SOL    HW2 3813   6.733   6.907   3.251
34597SOL     OW 3814   7.178   7.215   3.487
34597SOL    HW1 3815   7.205   7.249   3.397
34597SOL    HW2 3816   7.257   7.177   3.533
34598SOL     OW 3817   6.697   6.781   2.962
34598SOL    HW1 3818   6.657   6.825   3.043
34598SOL    HW2 3819   6.656   6.818   2.879
34599SOL     OW 3820   7.224   6.685   2.941
34599SOL    HW1 3821   7.229   6.766   3.000
34599SOL    HW2 3822   7.138   6.687   2.890
34600SOL     OW 3823   6.501   5.675   3.264
34600SOL    HW1 3824   6.526   5.655   3.169
34600SOL    HW2 3825   6.573   5.731   3.306
34601SOL     OW 3826   6.566   6.702   3.581
34601SOL    HW1 3827   6.467   6.708   3.591
34601SOL    HW2 3828   6.589   6.622   3.525
34602SOL     OW 3829   6.291   6.636   2.230
34602SOL    HW1 3830   6.277   6.643   2.329
34602SOL    HW2 3831   6.375   6.585   2.212
34603SOL     OW 3832   5.996   6.399   3.113
34603SOL    HW1 3833   6.082   6.411   3.163
34603SOL    HW2 3834   5.954   6.312   3.140
34604SOL     OW 3835   6.860   5.972   3.124
34604SOL    HW1 3836   6.881   6.046   3.188
34604SOL    HW2 3837   6.771   5.989   3.081
34605SOL     OW 3838   5.650   7.150   3.193
34605SOL    HW1 3839   5.604   7.232   3.159
34605SOL    HW2 3840   5.748   7.169   3.202
34606SOL     OW 3841   5.953   6.686   2.363
34606SOL    HW1 3842   5.946   6.769   2.307
34606SOL    HW2 3843   5.957   6.606   2.303
34607SOL     OW 3844   6.152   6.123   2.727
34607SOL    HW1 3845   6.164   6.189   2.653
34607SOL    HW2 3846   6.198   6.157   2.810
34608SOL     OW 3847   6.838   6.934   2.250
34608SOL    HW1 3848   6.888   7.011   2.290
34608SOL    HW2 3849   6.743   6.936   2.282
34609SOL     OW 3850   6.858   7.031   3.004
34609SOL    HW1 3851   6.905   7.044   3.091
34609SOL    HW2 3852   6.792   6.957   3.013
34610SOL     OW 3853   7.168   6.225   2.334
34610SOL    HW1 3854   7.137   6.286   2.407
34610SOL    HW2 3855   7.218   6.277   2.265
34611SOL     OW 3856   5.940   7.096   3.191
34611SOL    HW1 3857   5.919   7.052   3.104
34611SOL    HW2 3858   6.037   7.122   3.194
34612SOL     OW 3859   5.988   6.337   3.460
34612SOL    HW1 3860   6.056   6.392   3.413
34612SOL    HW2 3861   6.028   6.249   3.487
34613SOL     OW 3862   7.173   6.365   3.532
34613SOL    HW1 3863   7.081   6.403   3.527
34613SOL    HW2 3864   7.233   6.412   3.467
34614SOL     OW 3865   6.599   5.691   3.632
34614SOL    HW1 3866   6.605   5.776   3.580
34614SOL    HW2 3867   6.631   5.615   3.575
34615SOL     OW 3868   6.090   5.636   3.602
34615SOL    HW1 3869   6.048   5.579   3.532
34615SOL    HW2 3870   6.024   5.705   3.634
34616SOL     OW 3871   6.159   6.456   2.891
34616SOL    HW1 3872   6.203   6.545   2.882
34616SOL    HW2 3873   6.096   6.456   2.968
34617SOL     OW 3874   6.946   6.448   2.907
34617SOL    HW1 3875   6.871   6.448   2.841
34617SOL    HW2 3876   6.983   6.356   2.916
34618SOL     OW 3877   6.795   6.111   2.137
34618SOL    HW1 3878   6.808   6.027   2.191
34618SOL    HW2 3879   6.766   6.185   2.197
34619SOL     OW 3880   5.893   5.799   3.093
34619SOL    HW1 3881   5.870   5.836   3.183
34619SOL    HW2 3882   5.863   5.704   3.087
34620SOL     OW 3883   5.623   6.896   3.144
34620SOL    HW1 3884   5.676   6.847   3.212
34620SOL    HW2 3885   5.645   6.994   3.149
34621SOL     OW 3886   6.318   6.220   2.926
34621SOL    HW1 3887   6.377   6.194   2.850
34621SOL    HW2 3888   6.290   6.316   2.915
34622SOL     OW 3889   7.314   6.521   3.716
34622SOL    HW1 3890   7.268   6.514   3.627
34622SOL    HW2 3891   7.252   6.565   3.782
34623SOL     OW 3892   5.893   5.649   2.480
34623SOL    HW1 3893   5.882   5.743   2.513
34623SOL    HW2 3894   5.888   5.586   2.557
34624SOL     OW 3895   7.208   5.953   2.236
34624SOL    HW1 3896   7.210   5.877   2.300
34624SOL    HW2 3897   7.160   6.030   2.276
34625SOL     OW 3898   6.609   6.352   2.828
34625SOL    HW1 3899   6.624   6.373   2.924
34625SOL    HW2 3900   6.579   6.257   2.819
34626SOL     OW 3901   6.566   7.159   3.562
34626SOL    HW1 3902   6.546   7.203   3.474
34626SOL    HW2 3903   6.605   7.068   3.546
34627SOL     OW 3904   7.445   7.104   3.467
34627SOL    HW1 3905   7.459   7.131   3.372
34627SOL    HW2 3906   7.528   7.126   3.520
34628SOL     OW 3907   5.936   6.484   3.666
34628SOL    HW1 3908   6.012   6.528   3.714
34628SOL    HW2 3909   5.971   6.437   3.584
34629SOL     OW 3910   7.126   5.860   1.987
34629SOL    HW1 3911   7.065   5.785   2.010
34629SOL    HW2 3912   7.148   5.912   2.070
34630SOL     OW 3913   6.889   6.424   1.904
34630SOL    HW1 3914   6.923   6.331   1.919
34630SOL    HW2 3915   6.907   6.451   1.809
34631SOL     OW 3916   6.654   6.919   2.711
34631SOL    HW1 3917   6.661   6.835   2.656
34631SOL    HW2 3918   6.716   6.988   2.675
34632SOL     OW 3919   5.905   6.396   2.811
34632SOL    HW1 3920   5.998   6.432   2.816
34632SOL    HW2 3921   5.899   6.311   2.863
34633SOL     OW 3922   5.925   6.095   2.868
34633SOL    HW1 3923   5.873   6.012   2.851
34633SOL    HW2 3924   6.002   6.100   2.804
34634SOL     OW 3925   6.724   5.966   3.540
34634SOL    HW1 3926   6.679   6.029   3.604
34634SOL    HW2 3927   6.817   5.997   3.523
34635SOL     OW 3928   6.746   5.793   3.339
34635SOL    HW1 3929   6.746   5.857   3.416
34635SOL    HW2 3930   6.774   5.841   3.256
34636SOL     OW 3931   5.594   6.912   2.062
34636SOL    HW1 3932   5.501   6.933   2.031
34636SOL    HW2 3933   5.604   6.813   2.075
34637SOL     OW 3934   5.674   7.387   2.789
34637SOL    HW1 3935   5.632   7.301   2.762
34637SOL    HW2 3936   5.768   7.390   2.755
34638SOL     OW 3937   6.090   7.154   2.772
34638SOL    HW1 3938   6.156   7.228   2.781
34638SOL    HW2 3939   6.134   7.075   2.730
34639SOL     OW 3940   6.588   6.382   3.100
34639SOL    HW1 3941   6.629   6.350   3.186
34639SOL    HW2 3942   6.492   6.355   3.097
34640SOL     OW 3943   5.626   6.130   2.976
34640SOL    HW1 3944   5.711   6.097   2.935
34640SOL    HW2 3945   5.639   6.145   3.074
34641SOL     OW 3946   5.775   6.106   3.584
34641SOL    HW1 3947   5.834   6.066   3.514
34641SOL    HW2 3948   5.717   6.177   3.543
34642SOL     OW 3949   6.401   6.158   2.187
34642SOL    HW1 3950   6.408   6.069   2.141
34642SOL    HW2 3951   6.307   6.192   2.179
34643SOL     OW 3952   7.243   6.190   3.068
34643SOL    HW1 3953   7.205   6.121   3.130
34643SOL    HW2 3954   7.325   6.154   3.024
34644SOL     OW 3955   5.838   7.150   3.606
34644SOL    HW1 3956   5.808   7.207   3.682
34644SOL    HW2 3957   5.831   7.053   3.632
34645SOL     OW 3958   6.257   6.050   3.131
34645SOL    HW1 3959   6.223   5.961   3.101
34645SOL    HW2 3960   6.283   6.104   3.051
34646SOL     OW 3961   6.516   7.264   3.327
34646SOL    HW1 3962   6.492   7.246   3.232
34646SOL    HW2 3963   6.546   7.358   3.337
34647SOL     OW 3964   6.059   6.086   2.053
34647SOL    HW1 3965   6.120   6.166   2.057
34647SOL    HW2 3966   5.964   6.117   2.060
34648SOL     OW 3967   5.745   6.723   3.328
34648SOL    HW1 3968   5.767   6.662   3.404
34648SOL    HW2 3969   5.755   6.674   3.242
34649SOL     OW 3970   6.933   6.645   3.096
34649SOL    HW1 3971   6.957   6.582   3.022
34649SOL    HW2 3972   6.843   6.685   3.078
34650SOL     OW 3973   6.888   6.441   2.171
34650SOL    HW1 3974   6.802   6.410   2.213
34650SOL    HW2 3975   6.884   6.427   2.072
34651SOL     OW 3976   7.345   7.333   3.016
34651SOL    HW1 3977   7.406   7.363   2.943
34651SOL    HW2 3978   7.307   7.244   2.994
34652SOL     OW 3979   6.838   7.317   2.990
34652SOL    HW1 3980   6.922   7.322   2.936
34652SOL    HW2 3981   6.815   7.221   3.008
34653SOL     OW 3982   5.669   6.844   2.884
34653SOL    HW1 3983   5.664   6.843   2.984
34653SOL    HW2 3984   5.586   6.803   2.846
34654SOL     OW 3985   6.274   7.248   3.578
34654SOL    HW1 3986   6.218   7.329   3.587
34654SOL    HW2 3987   6.326   7.252   3.492
34655SOL     OW 3988   7.312   5.721   2.385
34655SOL    HW1 3989   7.385   5.704   2.318
34655SOL    HW2 3990   7.281   5.634   2.423
34656SOL     OW 3991   6.974   7.159   2.339
34656SOL    HW1 3992   7.041   7.171   2.265
34656SOL    HW2 3993   6.934   7.248   2.362
34657SOL     OW 3994   5.716   7.380   3.713
34657SOL    HW1 3995   5.675   7.306   3.766
34657SOL    HW2 3996   5.780   7.431   3.771
34658SOL     OW 3997   6.866   6.513   2.534
34658SOL    HW1 3998   6.926   6.432   2.536
34658SOL    HW2 3999   6.906   6.582   2.474
34659SOL     OW 4000   6.416   6.859   3.284
34659SOL    HW1 4001   6.411   6.892   3.379
34659SOL    HW2 4002   6.330   6.878   3.238
34660SOL     OW 4003   6.258   7.202   2.016
34660SOL    HW1 4004   6.267   7.212   1.917
34660SOL    HW2 4005   6.218   7.113   2.037
34661SOL     OW 4006   7.236   7.306   3.256
34661SOL    HW1 4007   7.289   7.316   3.172
34661SOL    HW2 4008   7.209   7.396   3.290
34662SOL     OW 4009   7.427   5.761   2.825
34662SOL    HW1 4010   7.466   5.676   2.789
34662SOL    HW2 4011   7.329   5.763   2.806
34663SOL     OW 4012   5.849   5.912   2.582
34663SOL    HW1 4013   5.770   5.963   2.548
34663SOL    HW2 4014   5.840   5.897   2.680
34664SOL     OW 4015   6.780   7.198   1.893
34664SOL    HW1 4016   6.786   7.105   1.930
34664SOL    HW2 4017   6.721   7.198   1.813
34665SOL     OW 4018   6.408   6.588   3.234
34665SOL    HW1 4019   6.448   6.587   3.142
34665SOL    HW2 4020   6.418   6.680   3.274
34666SOL     OW 4021   6.502   6.496   2.153
34666SOL    HW1 4022   6.565   6.534   2.085
34666SOL    HW2 4023   6.542   6.413   2.192
34667SOL     OW 4024   7.090   7.193   1.906
34667SOL    HW1 4025   6.998   7.230   1.913
34667SOL    HW2 4026   7.128   7.213   1.816
34668SOL     OW 4027   5.958   6.874   3.352
34668SOL    HW1 4028   5.945   6.967   3.318
34668SOL    HW2 4029   5.874   6.822   3.339
34669SOL     OW 4030   7.200   6.878   3.151
34669SOL    HW1 4031   7.260   6.881   3.231
34669SOL    HW2 4032   7.125   6.942   3.164
34670SOL     OW 4033   6.625   6.684   2.558
34670SOL    HW1 4034   6.555   6.637   2.612
34670SOL    HW2 4035   6.684   6.616   2.515
34671SOL     OW 4036   6.600   5.822   2.833
34671SOL    HW1 4037   6.592   5.786   2.740
34671SOL    HW2 4038   6.598   5.746   2.898
34672SOL     OW 4039   6.176   7.073   2.353
34672SOL    HW1 4040   6.218   7.015   2.283
34672SOL    HW2 4041   6.132   7.152   2.309
34673SOL     OW 4042   7.295   5.971   3.243
34673SOL    HW1 4043   7.368   6.040   3.247
34673SOL    HW2 4044   7.323   5.896   3.184
34674SOL     OW 4045   5.841   6.934   2.152
34674SOL    HW1 4046   5.745   6.935   2.125
34674SOL    HW2 4047   5.853   6.987   2.236
34675SOL     OW 4048   5.691   6.599   3.588
34675SOL    HW1 4049   5.614   6.566   3.642
34675SOL    HW2 4050   5.776   6.569   3.630
34676SOL     OW 4051   6.258   5.789   3.351
34676SOL    HW1 4052   6.348   5.773   3.311
34676SOL    HW2 4053   6.266   5.794   3.450
34677SOL     OW 4054   5.661   5.931   1.895
34677SOL    HW1 4055   5.569   5.903   1.866
34677SOL    HW2 4056   5.692   6.008   1.839
34678SOL     OW 4057   7.026   6.442   3.260
34678SOL    HW1 4058   6.969   6.494   3.197
34678SOL    HW2 4059   7.122   6.454   3.236
34679SOL     OW 4060   5.658   5.752   2.180
34679SOL    HW1 4061   5.641   5.835   2.126
34679SOL    HW2 4062   5.748   5.715   2.158
34680SOL     OW 4063   6.769   6.921   1.981
34680SOL    HW1 4064   6.670   6.910   1.983
34680SOL    HW2 4065   6.803   6.936   2.074
34681SOL     OW 4066   6.199   6.428   3.293
34681SOL    HW1 4067   6.255   6.509   3.276
34681SOL    HW2 4068   6.258   6.348   3.296
34682SOL     OW 4069   7.079   7.353   2.821
34682SOL    HW1 4070   7.112   7.417   2.752
34682SOL    HW2 4071   7.145   7.347   2.896
34683SOL     OW 4072   6.302   6.151   3.570
34683SOL    HW1 4073   6.321   6.216   3.644
34683SOL    HW2 4074   6.362   6.071   3.579
34684SOL     OW 4075   7.036   6.806   3.495
34684SOL    HW1 4076   7.027   6.796   3.594
34684SOL    HW2 4077   7.132   6.799   3.469
34685SOL     OW 4078   5.976   7.327   3.422
34685SOL    HW1 4079   5.885   7.368   3.420
34685SOL    HW2 4080   5.969   7.233   3.454
34686SOL     OW 4081   7.260   6.469   3.116
34686SOL    HW1 4082   7.233   6.380   3.079
34686SOL    HW2 4083   7.261   6.537   3.043
34687SOL     OW 4084   6.811   5.911   2.311
34687SOL    HW1 4085   6.876   5.837   2.300
34687SOL    HW2 4086   6.831   5.961   2.395
34688SOL     OW 4087   6.180   6.331   2.514
34688SOL    HW1 4088   6.230   6.416   2.495
34688SOL    HW2 4089   6.092   6.333   2.466
34689SOL     OW 4090   7.363   5.928   3.504
34689SOL    HW1 4091   7.346   5.959   3.410
34689SOL    HW2 4092   7.279   5.891   3.542
34690SOL     OW 4093   7.316   6.520   3.379
34690SOL    HW1 4094   7.354   6.611   3.394
34690SOL    HW2 4095   7.308   6.503   3.280
34691SOL     OW 4096   6.445   6.960   1.878
34691SOL    HW1 4097   6.399   6.975   1.966
34691SOL    HW2 4098   6.489   7.045   1.848
34692SOL     OW 4099   6.247   7.376   2.815
34692SOL    HW1 4100   6.201   7.464   2.802
34692SOL    HW2 4101   6.346   7.388   2.808
34693SOL     OW 4102   6.445   6.542   2.723
34693SOL    HW1 4103   6.499   6.473   2.771
34693SOL    HW2 4104   6.413   6.611   2.789
34694SOL     OW 4105   6.669   6.570   1.949
34694SOL    HW1 4106   6.646   6.623   1.867
34694SOL    HW2 4107   6.750   6.514   1.930
34695SOL     OW 4108   7.447   7.155   2.713
34695SOL    HW1 4109   7.376   7.143   2.643
34695SOL    HW2 4110   7.448   7.076   2.773
34696SOL     OW 4111   5.807   6.900   3.706
34696SOL    HW1 4112   5.742   6.827   3.685
34696SOL    HW2 4113   5.811   6.914   3.804
34697SOL     OW 4114   5.665   6.826   2.515
34697SOL    HW1 4115   5.664   6.779   2.603
34697SOL    HW2 4116   5.747   6.798   2.464
34698SOL     OW 4117   6.258   6.977   3.486
34698SOL    HW1 4118   6.180   6.927   3.524
34698SOL    HW2 4119   6.255   7.072   3.517
34699SOL     OW 4120   7.410   5.778   3.089
34699SOL    HW1 4121   7.406   5.688   3.133
34699SOL    HW2 4122   7.413   5.767   2.990
34700SOL     OW 4123   6.014   6.010   2.382
34700SOL    HW1 4124   6.044   5.938   2.320
34700SOL    HW2 4125   5.975   5.970   2.465
34701SOL     OW 4126   7.291   7.073   2.966
34701SOL    HW1 4127   7.198   7.048   2.939
34701SOL    HW2 4128   7.317   7.023   3.048
34702SOL     OW 4129   5.903   6.133   3.142
34702SOL    HW1 4130   5.941   6.074   3.214
34702SOL    HW2 4131   5.943   6.107   3.054
34703SOL     OW 4132   6.398   7.172   2.549
34703SOL    HW1 4133   6.430   7.182   2.455
34703SOL    HW2 4134   6.319   7.110   2.551
34704SOL     OW 4135   7.010   5.800   2.974
34704SOL    HW1 4136   7.062   5.735   3.029
34704SOL    HW2 4137   6.961   5.863   3.035
34705SOL     OW 4138   6.587   5.620   3.016
34705SOL    HW1 4139   6.524   5.548   2.985
34705SOL    HW2 4140   6.680   5.584   3.016
34706SOL     OW 4141   6.356   6.916   2.163
34706SOL    HW1 4142   6.310   6.829   2.180
34706SOL    HW2 4143   6.447   6.913   2.204
34707SOL     OW 4144   6.204   7.153   3.146
34707SOL    HW1 4145   6.199   7.235   3.203
34707SOL    HW2 4146   6.293   7.150   3.101
34708SOL     OW 4147   6.938   5.638   2.030
34708SOL    HW1 4148   6.973   5.597   1.946
34708SOL    HW2 4149   6.848   5.600   2.050
34709SOL     OW 4150   6.886   6.039   2.553
34709SOL    HW1 4151   6.827   6.119   2.557
34709SOL    HW2 4152   6.901   6.004   2.646
34710SOL     OW 4153   7.179   5.807   2.744
34710SOL    HW1 4154   7.095   5.806   2.798
34710SOL    HW2 4155   7.181   5.890   2.688
34711SOL     OW 4156   5.625   6.663   2.162
34711SOL    HW1 4157   5.724   6.652   2.153
34711SOL    HW2 4158   5.585   6.577   2.194
34712SOL     OW 4159   6.461   7.232   2.199
34712SOL    HW1 4160   6.384   7.197   2.145
34712SOL    HW2 4161   6.429   7.303   2.261
34713SOL     OW 4162   5.816   6.214   3.837
34713SOL    HW1 4163   5.723   6.212   3.874
34713SOL    HW2 4164   5.817   6.175   3.745
34714SOL     OW 4165   5.811   5.861   4.720
34714SOL    HW1 4166   5.846   5.844   4.812
34714SOL    HW2 4167   5.723   5.816   4.708
34715SOL     OW 4168   5.605   5.954   4.371
34715SOL    HW1 4169   5.523   5.997   4.410
34715SOL    HW2 4170   5.577   5.881   4.308
34716SOL     OW 4171   6.155   6.861   4.889
34716SOL    HW1 4172   6.062   6.854   4.852
34716SOL    HW2 4173   6.166   6.950   4.933
34717SOL     OW 4174   7.141   7.097   4.427
34717SOL    HW1 4175   7.084   7.081   4.508
34717SOL    HW2 4176   7.082   7.107   4.347
34718SOL     OW 4177   6.721   6.289   4.441
34718SOL    HW1 4178   6.778   6.367   4.416
34718SOL    HW2 4179   6.661   6.315   4.517
34719SOL     OW 4180   7.341   6.193   3.955
34719SOL    HW1 4181   7.329   6.180   3.856
34719SOL    HW2 4182   7.311   6.112   4.004
34720SOL     OW 4183   6.354   6.730   4.747
34720SOL    HW1 4184   6.276   6.747   4.807
34720SOL    HW2 4185   6.388   6.817   4.711
34721SOL     OW 4186   6.436   6.384   5.547
34721SOL    HW1 4187   6.432   6.460   5.612
34721SOL    HW2 4188   6.458   6.420   5.456
34722SOL     OW 4189   6.271   6.598   4.389
34722SOL    HW1 4190   6.340   6.582   4.459
34722SOL    HW2 4191   6.198   6.655   4.427
34723SOL     OW 4192   6.272   6.747   5.527
34723SOL    HW1 4193   6.332   6.826   5.541
34723SOL    HW2 4194   6.186   6.778   5.486
34724SOL     OW 4195   5.921   7.021   4.785
34724SOL    HW1 4196   5.843   6.990   4.732
34724SOL    HW2 4197   5.979   7.079   4.728
34725SOL     OW 4198   7.046   7.091   5.063
34725SOL    HW1 4199   7.070   7.185   5.089
34725SOL    HW2 4200   7.030   7.037   5.145
34726SOL     OW 4201   6.024   5.978   5.223
34726SOL    HW1 4202   6.106   5.922   5.232
34726SOL    HW2 4203   5.943   5.920   5.227
34727SOL     OW 4204   7.189   6.033   4.461
34727SOL    HW1 4205   7.115   6.079   4.411
34727SOL    HW2 4206   7.240   6.101   4.514
34728SOL     OW 4207   5.817   7.299   4.207
34728SOL    HW1 4208   5.851   7.376   4.261
34728SOL    HW2 4209   5.861   7.299   4.117
34729SOL     OW 4210   6.713   6.927   5.414
34729SOL    HW1 4211   6.760   6.927   5.502
34729SOL    HW2 4212   6.665   6.840   5.403
34730SOL     OW 4213   5.816   7.020   4.262
34730SOL    HW1 4214   5.790   7.116   4.262
34730SOL    HW2 4215   5.745   6.966   4.307
34731SOL     OW 4216   5.826   6.677   4.610
34731SOL    HW1 4217   5.840   6.593   4.662
34731SOL    HW2 4218   5.771   6.741   4.665
34732SOL     OW 4219   6.206   7.372   5.163
34732SOL    HW1 4220   6.114   7.355   5.198
34732SOL    HW2 4221   6.234   7.464   5.189
34733SOL     OW 4222   6.192   6.550   3.847
34733SOL    HW1 4223   6.199   6.634   3.793
34733SOL    HW2 4224   6.238   6.563   3.935
34734SOL     OW 4225   7.180   5.700   5.204
34734SOL    HW1 4226   7.162   5.767   5.132
34734SOL    HW2 4227   7.177   5.746   5.293
34735SOL     OW 4228   5.708   6.229   4.287
34735SOL    HW1 4229   5.663   6.141   4.304
34735SOL    HW2 4230   5.707   6.283   4.371
34736SOL     OW 4231   7.428   7.353   4.083
34736SOL    HW1 4232   7.482   7.324   4.163
34736SOL    HW2 4233   7.458   7.443   4.054
34737SOL     OW 4234   5.613   7.182   3.841
34737SOL    HW1 4235   5.594   7.086   3.862
34737SOL    HW2 4236   5.580   7.240   3.916
34738SOL     OW 4237   7.275   6.508   4.336
34738SOL    HW1 4238   7.370   6.479   4.344
34738SOL    HW2 4239   7.267   6.573   4.261
34739SOL     OW 4240   7.227   6.694   4.156
34739SOL    HW1 4241   7.313   6.696   4.104
34739SOL    HW2 4242   7.241   6.741   4.244
34740SOL     OW 4243   5.699   6.323   5.321
34740SOL    HW1 4244   5.787   6.310   5.366
34740SOL    HW2 4245   5.686   6.420   5.299
34741SOL     OW 4246   6.199   6.951   4.450
34741SOL    HW1 4247   6.150   6.864   4.459
34741SOL    HW2 4248   6.176   6.994   4.363
34742SOL     OW 4249   6.879   6.814   5.147
34742SOL    HW1 4250   6.916   6.741   5.089
34742SOL    HW2 4251   6.931   6.819   5.232
34743SOL     OW 4252   6.395   5.590   4.226
34743SOL    HW1 4253   6.435   5.681   4.217
34743SOL    HW2 4254   6.295   5.598   4.232
34744SOL     OW 4255   5.783   6.562   4.988
34744SOL    HW1 4256   5.872   6.517   4.974
34744SOL    HW2 4257   5.710   6.497   4.969
34745SOL     OW 4258   7.111   6.585   3.914
34745SOL    HW1 4259   7.048   6.509   3.927
34745SOL    HW2 4260   7.159   6.603   4.000
34746SOL     OW 4261   6.773   7.378   5.340
34746SOL    HW1 4262   6.797   7.438   5.264
34746SOL    HW2 4263   6.780   7.283   5.310
34747SOL     OW 4264   5.903   5.837   5.525
34747SOL    HW1 4265   5.974   5.908   5.531
34747SOL    HW2 4266   5.815   5.876   5.553
34748SOL     OW 4267   7.052   7.003   4.677
34748SOL    HW1 4268   6.993   7.009   4.757
34748SOL    HW2 4269   7.037   6.915   4.631
34749SOL     OW 4270   7.253   7.300   4.296
34749SOL    HW1 4271   7.212   7.277   4.208
34749SOL    HW2 4272   7.235   7.226   4.361
34750SOL     OW 4273   6.184   6.315   3.994
34750SOL    HW1 4274   6.208   6.384   3.926
34750SOL    HW2 4275   6.106   6.348   4.048
34751SOL     OW 4276   6.867   5.931   4.668
34751SOL    HW1 4277   6.781   5.881   4.655
34751SOL    HW2 4278   6.929   5.877   4.724
34752SOL     OW 4279   7.162   7.248   4.031
34752SOL    HW1 4280   7.251   7.294   4.034
34752SOL    HW2 4281   7.141   7.224   3.936
34753SOL     OW 4282   6.393   6.191   5.189
34753SOL    HW1 4283   6.346   6.188   5.278
34753SOL    HW2 4284   6.342   6.136   5.123
34754SOL     OW 4285   6.980   6.055   5.398
34754SOL    HW1 4286   6.960   6.098   5.486
34754SOL    HW2 4287   7.058   5.993   5.407
34755SOL     OW 4288   6.559   6.476   5.296
34755SOL    HW1 4289   6.605   6.392   5.267
34755SOL    HW2 4290   6.503   6.510   5.221
34756SOL     OW 4291   6.577   5.996   4.966
34756SOL    HW1 4292   6.500   6.030   5.020
34756SOL    HW2 4293   6.543   5.945   4.887
34757SOL     OW 4294   6.627   6.287   4.153
34757SOL    HW1 4295   6.653   6.283   4.249
34757SOL    HW2 4296   6.542   6.236   4.139
34758SOL     OW 4297   5.662   6.397   4.513
34758SOL    HW1 4298   5.761   6.385   4.522
34758SOL    HW2 4299   5.638   6.492   4.534
34759SOL     OW 4300   5.716   7.407   5.295
34759SOL    HW1 4301   5.706   7.392   5.394
34759SOL    HW2 4302   5.630   7.443   5.259
34760SOL     OW 4303   6.451   5.934   3.919
34760SOL    HW1 4304   6.510   5.997   3.870
34760SOL    HW2 4305   6.470   5.840   3.890
34761SOL     OW 4306   7.305   6.171   5.555
34761SOL    HW1 4307   7.279   6.260   5.519
34761SOL    HW2 4308   7.303   6.103   5.482
34762SOL     OW 4309   6.948   6.730   4.269
34762SOL    HW1 4310   7.031   6.701   4.221
34762SOL    HW2 4311   6.899   6.797   4.213
34763SOL     OW 4312   6.136   5.782   4.609
34763SOL    HW1 4313   6.131   5.777   4.709
34763SOL    HW2 4314   6.138   5.878   4.580
34764SOL     OW 4315   6.594   7.042   4.201
34764SOL    HW1 4316   6.548   7.114   4.149
34764SOL    HW2 4317   6.590   7.062   4.299
34765SOL     OW 4318   5.937   7.387   4.577
34765SOL    HW1 4319   5.987   7.301   4.583
34765SOL    HW2 4320   6.002   7.464   4.574
34766SOL     OW 4321   7.381   6.652   4.597
34766SOL    HW1 4322   7.319   6.637   4.521
34766SOL    HW2 4323   7.329   6.663   4.682
34767SOL     OW 4324   6.813   7.136   5.230
34767SOL    HW1 4325   6.819   7.059   5.294
34767SOL    HW2 4326   6.761   7.110   5.150
34768SOL     OW 4327   5.907   6.529   3.966
34768SOL    HW1 4328   5.989   6.568   3.924
34768SOL    HW2 4329   5.880   6.447   3.917
34769SOL     OW 4330   7.044   6.321   4.452
34769SOL    HW1 4331   7.039   6.256   4.527
34769SOL    HW2 4332   7.124   6.380   4.465
34770SOL     OW 4333   6.047   6.852   5.451
34770SOL    HW1 4334   5.997   6.853   5.365
34770SOL    HW2 4335   5.984   6.834   5.527
34771SOL     OW 4336   6.697   7.362   3.961
34771SOL    HW1 4337   6.637   7.300   4.011
34771SOL    HW2 4338   6.728   7.318   3.876
34772SOL     OW 4339   5.788   5.871   5.222
34772SOL    HW1 4340   5.708   5.931   5.209
34772SOL    HW2 4341   5.778   5.822   5.308
34773SOL     OW 4342   7.218   6.963   3.805
34773SOL    HW1 4343   7.186   7.057   3.795
34773SOL    HW2 4344   7.142   6.900   3.793
34774SOL     OW 4345   6.050   7.329   4.047
34774SOL    HW1 4346   6.083   7.368   4.133
34774SOL    HW2 4347   6.126   7.322   3.982
34775SOL     OW 4348   6.986   5.693   4.150
34775SOL    HW1 4349   6.962   5.656   4.060
34775SOL    HW2 4350   7.085   5.709   4.154
34776SOL     OW 4351   5.835   7.371   4.965
34776SOL    HW1 4352   5.892   7.306   5.015
34776SOL    HW2 4353   5.819   7.338   4.872
34777SOL     OW 4354   6.526   7.284   4.628
34777SOL    HW1 4355   6.606   7.227   4.649
34777SOL    HW2 4356   6.477   7.244   4.551
34778SOL     OW 4357   5.968   6.286   4.204
34778SOL    HW1 4358   6.013   6.196   4.201
34778SOL    HW2 4359   5.874   6.275   4.237
34779SOL     OW 4360   7.133   5.808   5.453
34779SOL    HW1 4361   7.128   5.845   5.545
34779SOL    HW2 4362   7.061   5.739   5.441
34780SOL     OW 4363   6.200   5.708   3.841
34780SOL    HW1 4364   6.298   5.686   3.848
34780SOL    HW2 4365   6.169   5.691   3.748
34781SOL     OW 4366   6.367   5.850   5.473
34781SOL    HW1 4367   6.434   5.789   5.516
34781SOL    HW2 4368   6.294   5.869   5.538
34782SOL     OW 4369   6.474   7.100   4.919
34782SOL    HW1 4370   6.451   7.075   4.825
34782SOL    HW2 4371   6.535   7.031   4.958
34783SOL     OW 4372   6.937   6.176   5.157
34783SOL    HW1 4373   6.965   6.133   5.242
34783SOL    HW2 4374   6.962   6.272   5.158
34784SOL     OW 4375   6.389   6.988   4.648
34784SOL    HW1 4376   6.479   7.002   4.606
34784SOL    HW2 4377   6.318   6.990   4.577
34785SOL     OW 4378   6.508   6.089   4.623
34785SOL    HW1 4379   6.483   6.080   4.527
34785SOL    HW2 4380   6.556   6.007   4.654
34786SOL     OW 4381   6.125   5.650   4.236
34786SOL    HW1 4382   6.044   5.651   4.294
34786SOL    HW2 4383   6.128   5.733   4.181
34787SOL     OW 4384   7.020   6.774   3.765
34787SOL    HW1 4385   7.052   6.698   3.822
34787SOL    HW2 4386   6.928   6.801   3.795
34788SOL     OW 4387   5.883   5.621   3.895
34788SOL    HW1 4388   5.932   5.705   3.874
34788SOL    HW2 4389   5.945   5.556   3.940
34789SOL     OW 4390   6.521   5.822   4.204
34789SOL    HW1 4391   6.473   5.863   4.126
34789SOL    HW2 4392   6.620   5.820   4.185
34790SOL     OW 4393   6.662   6.269   5.188
34790SOL    HW1 4394   6.582   6.208   5.191
34790SOL    HW2 4395   6.743   6.216   5.164
34791SOL     OW 4396   6.813   7.156   4.517
34791SOL    HW1 4397   6.834   7.230   4.452
34791SOL    HW2 4398   6.881   7.156   4.590
34792SOL     OW 4399   6.045   6.738   4.465
34792SOL    HW1 4400   5.974   6.711   4.530
34792SOL    HW2 4401   6.019   6.710   4.372
34793SOL     OW 4402   6.857   7.383   4.315
34793SOL    HW1 4403   6.901   7.447   4.251
34793SOL    HW2 4404   6.807   7.435   4.385
34794SOL     OW 4405   6.618   6.135   3.740
34794SOL    HW1 4406   6.577   6.217   3.701
34794SOL    HW2 4407   6.682   6.161   3.813
34795SOL     OW 4408   5.664   6.142   5.110
34795SOL    HW1 4409   5.756   6.141   5.069
34795SOL    HW2 4410   5.658   6.216   5.177
34796SOL     OW 4411   6.147   5.808   4.871
34796SOL    HW1 4412   6.185   5.724   4.908
34796SOL    HW2 4413   6.059   5.827   4.915
34797SOL     OW 4414   6.452   6.040   4.366
34797SOL    HW1 4415   6.420   6.112   4.304
34797SOL    HW2 4416   6.476   5.959   4.313
34798SOL     OW 4417   6.603   5.625   4.477
34798SOL    HW1 4418   6.531   5.630   4.408
34798SOL    HW2 4419   6.579   5.556   4.546
34799SOL     OW 4420   7.015   6.759   4.591
34799SOL    HW1 4421   6.960   6.675   4.584
34799SOL    HW2 4422   7.041   6.788   4.499
34800SOL     OW 4423   7.052   6.176   4.716
34800SOL    HW1 4424   7.022   6.081   4.723
34800SOL    HW2 4425   7.125   6.192   4.782
34801SOL     OW 4426   7.443   6.419   4.101
34801SOL    HW1 4427   7.485   6.355   4.165
34801SOL    HW2 4428   7.405   6.368   4.023
34802SOL     OW 4429   6.074   6.971   3.898
34802SOL    HW1 4430   5.987   6.956   3.945
34802SOL    HW2 4431   6.057   6.997   3.803
34803SOL     OW 4432   7.250   6.866   4.381
34803SOL    HW1 4433   7.349   6.874   4.395
34803SOL    HW2 4434   7.205   6.950   4.412
34804SOL     OW 4435   6.976   6.161   3.802
34804SOL    HW1 4436   6.922   6.140   3.883
34804SOL    HW2 4437   7.067   6.120   3.811
34805SOL     OW 4438   6.113   5.842   4.052
34805SOL    HW1 4439   6.140   5.783   3.977
34805SOL    HW2 4440   6.113   5.937   4.021
34806SOL     OW 4441   7.340   6.809   5.312
34806SOL    HW1 4442   7.431   6.770   5.299
34806SOL    HW2 4443   7.348   6.905   5.336
34807SOL     OW 4444   6.650   6.933   5.064
34807SOL    HW1 4445   6.570   6.910   5.119
34807SOL    HW2 4446   6.733   6.907   5.113
34808SOL     OW 4447   7.178   7.215   5.349
34808SOL    HW1 4448   7.205   7.249   5.259
34808SOL    HW2 4449   7.257   7.177   5.395
34809SOL     OW 4450   6.697   6.781   4.824
34809SOL    HW1 4451   6.657   6.825   4.905
34809SOL    HW2 4452   6.656   6.818   4.741
34810SOL     OW 4453   7.224   6.685   4.803
34810SOL    HW1 4454   7.229   6.766   4.862
34810SOL    HW2 4455   7.138   6.687   4.752
34811SOL     OW 4456   6.501   5.675   5.126
34811SOL    HW1 4457   6.526   5.655   5.031
34811SOL    HW2 4458   6.573   5.731   5.168
34812SOL     OW 4459   6.566   6.702   5.443
34812SOL    HW1 4460   6.467   6.708   5.453
34812SOL    HW2 4461   6.589   6.622   5.387
34813SOL     OW 4462   6.291   6.636   4.092
34813SOL    HW1 4463   6.277   6.643   4.191
34813SOL    HW2 4464   6.375   6.585   4.074
34814SOL     OW 4465   5.996   6.399   4.975
34814SOL    HW1 4466   6.082   6.411   5.025
34814SOL    HW2 4467   5.954   6.312   5.002
34815SOL     OW 4468   6.860   5.972   4.986
34815SOL    HW1 4469   6.881   6.046   5.050
34815SOL    HW2 4470   6.771   5.989   4.943
34816SOL     OW 4471   5.650   7.150   5.055
34816SOL    HW1 4472   5.604   7.232   5.021
34816SOL    HW2 4473   5.748   7.169   5.064
34817SOL     OW 4474   5.953   6.686   4.225
34817SOL    HW1 4475   5.946   6.769   4.169
34817SOL    HW2 4476   5.957   6.606   4.165
34818SOL     OW 4477   6.152   6.123   4.589
34818SOL    HW1 4478   6.164   6.189   4.515
34818SOL    HW2 4479   6.198   6.157   4.672
34819SOL     OW 4480   6.838   6.934   4.112
34819SOL    HW1 4481   6.888   7.011   4.152
34819SOL    HW2 4482   6.743   6.936   4.144
34820SOL     OW 4483   6.858   7.031   4.866
34820SOL    HW1 4484   6.905   7.044   4.953
34820SOL    HW2 4485   6.792   6.957   4.875
34821SOL     OW 4486   7.168   6.225   4.196
34821SOL    HW1 4487   7.137   6.286   4.269
34821SOL    HW2 4488   7.218   6.277   4.127
34822SOL     OW 4489   5.940   7.096   5.053
34822SOL    HW1 4490   5.919   7.052   4.966
34822SOL    HW2 4491   6.037   7.122   5.056
34823SOL     OW 4492   5.988   6.337   5.322
34823SOL    HW1 4493   6.056   6.392   5.275
34823SOL    HW2 4494   6.028   6.249   5.349
34824SOL     OW 4495   7.173   6.365   5.394
34824SOL    HW1 4496   7.081   6.403   5.389
34824SOL    HW2 4497   7.233   6.412   5.329
34825SOL     OW 4498   6.599   5.691   5.494
34825SOL    HW1 4499   6.605   5.776   5.442
34825SOL    HW2 4500   6.631   5.615   5.437
34826SOL     OW 4501   6.090   5.636   5.464
34826SOL    HW1 4502   6.048   5.579   5.394
34826SOL    HW2 4503   6.024   5.705   5.496
34827SOL     OW 4504   6.159   6.456   4.753
34827SOL    HW1 4505   6.203   6.545   4.744
34827SOL    HW2 4506   6.096   6.456   4.830
34828SOL     OW 4507   6.946   6.448   4.769
34828SOL    HW1 4508   6.871   6.448   4.703
34828SOL    HW2 4509   6.983   6.356   4.778
34829SOL     OW 4510   6.795   6.111   3.999
34829SOL    HW1 4511   6.808   6.027   4.053
34829SOL    HW2 4512   6.766   6.185   4.059
34830SOL     OW 4513   5.893   5.799   4.955
34830SOL    HW1 4514   5.870   5.836   5.045
34830SOL    HW2 4515   5.863   5.704   4.949
34831SOL     OW 4516   5.623   6.896   5.006
34831SOL    HW1 4517   5.676   6.847   5.074
34831SOL    HW2 4518   5.645   6.994   5.011
34832SOL     OW 4519   6.318   6.220   4.788
34832SOL    HW1 4520   6.377   6.194   4.712
34832SOL    HW2 4521   6.290   6.316   4.777
34833SOL     OW 4522   7.314   6.521   5.578
34833SOL    HW1 4523   7.268   6.514   5.489
34833SOL    HW2 4524   7.252   6.565   5.644
34834SOL     OW 4525   5.893   5.649   4.342
34834SOL    HW1 4526   5.882   5.743   4.375
34834SOL    HW2 4527   5.888   5.586   4.419
34835SOL     OW 4528   7.208   5.953   4.098
34835SOL    HW1 4529   7.210   5.877   4.162
34835SOL    HW2 4530   7.160   6.030   4.138
34836SOL     OW 4531   6.609   6.352   4.690
34836SOL    HW1 4532   6.624   6.373   4.786
34836SOL    HW2 4533   6.579   6.257   4.681
34837SOL     OW 4534   6.566   7.159   5.424
34837SOL    HW1 4535   6.546   7.203   5.336
34837SOL    HW2 4536   6.605   7.068   5.408
34838SOL     OW 4537   7.445   7.104   5.329
34838SOL    HW1 4538   7.459   7.131   5.234
34838SOL    HW2 4539   7.528   7.126   5.382
34839SOL     OW 4540   5.936   6.484   5.528
34839SOL    HW1 4541   6.012   6.528   5.576
34839SOL    HW2 4542   5.971   6.437   5.446
34840SOL     OW 4543   7.126   5.860   3.849
34840SOL    HW1 4544   7.065   5.785   3.872
34840SOL    HW2 4545   7.148   5.912   3.932
34841SOL     OW 4546   6.889   6.424   3.766
34841SOL    HW1 4547   6.923   6.331   3.781
34841SOL    HW2 4548   6.907   6.451   3.671
34842SOL     OW 4549   6.654   6.919   4.573
34842SOL    HW1 4550   6.661   6.835   4.518
34842SOL    HW2 4551   6.716   6.988   4.537
34843SOL     OW 4552   5.905   6.396   4.673
34843SOL    HW1 4553   5.998   6.432   4.678
34843SOL    HW2 4554   5.899   6.311   4.725
34844SOL     OW 4555   5.925   6.095   4.730
34844SOL    HW1 4556   5.873   6.012   4.713
34844SOL    HW2 4557   6.002   6.100   4.666
34845SOL     OW 4558   6.724   5.966   5.402
34845SOL    HW1 4559   6.679   6.029   5.466
34845SOL    HW2 4560   6.817   5.997   5.385
34846SOL     OW 4561   6.746   5.793   5.201
34846SOL    HW1 4562   6.746   5.857   5.278
34846SOL    HW2 4563   6.774   5.841   5.118
34847SOL     OW 4564   5.594   6.912   3.924
34847SOL    HW1 4565   5.501   6.933   3.893
34847SOL    HW2 4566   5.604   6.813   3.937
34848SOL     OW 4567   5.674   7.387   4.651
34848SOL    HW1 4568   5.632   7.301   4.624
34848SOL    HW2 4569   5.768   7.390   4.617
34849SOL     OW 4570   6.090   7.154   4.634
34849SOL    HW1 4571   6.156   7.228   4.643
34849SOL    HW2 4572   6.134   7.075   4.592
34850SOL     OW 4573   6.588   6.382   4.962
34850SOL    HW1 4574   6.629   6.350   5.048
34850SOL    HW2 4575   6.492   6.355   4.959
34851SOL     OW 4576   5.626   6.130   4.838
34851SOL    HW1 4577   5.711   6.097   4.797
34851SOL    HW2 4578   5.639   6.145   4.936
34852SOL     OW 4579   5.775   6.106   5.446
34852SOL    HW1 4580   5.834   6.066   5.376
34852SOL    HW2 4581   5.717   6.177   5.405
34853SOL     OW 4582   6.955   6.536   5.384
34853SOL    HW1 4583   6.994   6.625   5.404
34853SOL    HW2 4584   6.965   6.516   5.287
34854SOL     OW 4585   7.243   6.190   4.930
34854SOL    HW1 4586   7.205   6.121   4.992
34854SOL    HW2 4587   7.325   6.154   4.886
34855SOL     OW 4588   5.838   7.150   5.468
34855SOL    HW1 4589   5.808   7.207   5.544
34855SOL    HW2 4590   5.831   7.053   5.494
34856SOL     OW 4591   6.257   6.050   4.993
34856SOL    HW1 4592   6.223   5.961   4.963
34856SOL    HW2 4593   6.283   6.104   4.913
34857SOL     OW 4594   6.516   7.264   5.189
34857SOL    HW1 4595   6.492   7.246   5.094
34857SOL    HW2 4596   6.546   7.358   5.199
34858SOL     OW 4597   6.059   6.086   3.915
34858SOL    HW1 4598   6.120   6.166   3.919
34858SOL    HW2 4599   5.964   6.117   3.922
34859SOL     OW 4600   5.745   6.723   5.190
34859SOL    HW1 4601   5.767   6.662   5.266
34859SOL    HW2 4602   5.755   6.674   5.104
34860SOL     OW 4603   6.933   6.645   4.958
34860SOL    HW1 4604   6.957   6.582   4.884
34860SOL    HW2 4605   6.843   6.685   4.940
34861SOL     OW 4606   6.888   6.441   4.033
34861SOL    HW1 4607   6.802   6.410   4.075
34861SOL    HW2 4608   6.884   6.427   3.934
34862SOL     OW 4609   7.345   7.333   4.878
34862SOL    HW1 4610   7.406   7.363   4.805
34862SOL    HW2 4611   7.307   7.244   4.856
34863SOL     OW 4612   6.838   7.317   4.852
34863SOL    HW1 4613   6.922   7.322   4.798
34863SOL    HW2 4614   6.815   7.221   4.870
34864SOL     OW 4615   5.669   6.844   4.746
34864SOL    HW1 4616   5.664   6.843   4.846
34864SOL    HW2 4617   5.586   6.803   4.708
34865SOL     OW 4618   6.274   7.248   5.440
34865SOL    HW1 4619   6.218   7.329   5.449
34865SOL    HW2 4620   6.326   7.252   5.354
34866SOL     OW 4621   7.312   5.721   4.247
34866SOL    HW1 4622   7.385   5.704   4.180
34866SOL    HW2 4623   7.281   5.634   4.285
34867SOL     OW 4624   6.974   7.159   4.201
34867SOL    HW1 4625   7.041   7.171   4.127
34867SOL    HW2 4626   6.934   7.248   4.224
34868SOL     OW 4627   5.716   7.380   5.575
34868SOL    HW1 4628   5.675   7.306   5.628
34868SOL    HW2 4629   5.780   7.431   5.633
34869SOL     OW 4630   6.866   6.513   4.396
34869SOL    HW1 4631   6.926   6.432   4.398
34869SOL    HW2 4632   6.906   6.582   4.336
34870SOL     OW 4633   6.416   6.859   5.146
34870SOL    HW1 4634   6.411   6.892   5.241
34870SOL    HW2 4635   6.330   6.878   5.100
34871SOL     OW 4636   6.258   7.202   3.878
34871SOL    HW1 4637   6.267   7.212   3.779
34871SOL    HW2 4638   6.218   7.113   3.899
34872SOL     OW 4639   7.427   5.761   4.687
34872SOL    HW1 4640   7.466   5.676   4.651
34872SOL    HW2 4641   7.329   5.763   4.668
34873SOL     OW 4642   5.849   5.912   4.444
34873SOL    HW1 4643   5.770   5.963   4.410
34873SOL    HW2 4644   5.840   5.897   4.542
34874SOL     OW 4645   6.780   7.198   3.755
34874SOL    HW1 4646   6.786   7.105   3.792
34874SOL    HW2 4647   6.721   7.198   3.675
34875SOL     OW 4648   6.408   6.588   5.096
34875SOL    HW1 4649   6.448   6.587   5.004
34875SOL    HW2 4650   6.418   6.680   5.136
34876SOL     OW 4651   6.502   6.496   4.015
34876SOL    HW1 4652   6.565   6.534   3.947
34876SOL    HW2 4653   6.542   6.413   4.054
34877SOL     OW 4654   7.090   7.193   3.768
34877SOL    HW1 4655   6.998   7.230   3.775
34877SOL    HW2 4656   7.128   7.213   3.678
34878SOL     OW 4657   5.958   6.874   5.214
34878SOL    HW1 4658   5.945   6.967   5.180
34878SOL    HW2 4659   5.874   6.822   5.201
34879SOL     OW 4660   7.200   6.878   5.013
34879SOL    HW1 4661   7.260   6.881   5.093
34879SOL    HW2 4662   7.125   6.942   5.026
34880SOL     OW 4663   6.625   6.684   4.420
34880SOL    HW1 4664   6.555   6.637   4.474
34880SOL    HW2 4665   6.684   6.616   4.377
34881SOL     OW 4666   6.600   5.822   4.695
34881SOL    HW1 4667   6.592   5.786   4.602
34881SOL    HW2 4668   6.598   5.746   4.760
34882SOL     OW 4669   6.176   7.073   4.215
34882SOL    HW1 4670   6.218   7.015   4.145
34882SOL    HW2 4671   6.132   7.152   4.171
34883SOL     OW 4672   7.295   5.971   5.105
34883SOL    HW1 4673   7.368   6.040   5.109
34883SOL    HW2 4674   7.323   5.896   5.046
34884SOL     OW 4675   5.841   6.934   4.014
34884SOL    HW1 4676   5.745   6.935   3.987
34884SOL    HW2 4677   5.853   6.987   4.098
34885SOL     OW 4678   5.691   6.599   5.450
34885SOL    HW1 4679   5.614   6.566   5.504
34885SOL    HW2 4680   5.776   6.569   5.492
34886SOL     OW 4681   6.258   5.789   5.213
34886SOL    HW1 4682   6.348   5.773   5.173
34886SOL    HW2 4683   6.266   5.794   5.312
34887SOL     OW 4684   5.661   5.931   3.757
34887SOL    HW1 4685   5.569   5.903   3.728
34887SOL    HW2 4686   5.692   6.008   3.701
34888SOL     OW 4687   7.026   6.442   5.122
34888SOL    HW1 4688   6.969   6.494   5.059
34888SOL    HW2 4689   7.122   6.454   5.098
34889SOL     OW 4690   5.658   5.752   4.042
34889SOL    HW1 4691   5.641   5.835   3.988
34889SOL    HW2 4692   5.748   5.715   4.020
34890SOL     OW 4693   6.769   6.921   3.843
34890SOL    HW1 4694   6.670   6.910   3.845
34890SOL    HW2 4695   6.803   6.936   3.936
34891SOL     OW 4696   6.199   6.428   5.155
34891SOL    HW1 4697   6.255   6.509   5.138
34891SOL    HW2 4698   6.258   6.348   5.158
34892SOL     OW 4699   7.079   7.353   4.683
34892SOL    HW1 4700   7.112   7.417   4.614
34892SOL    HW2 4701   7.145   7.347   4.758
34893SOL     OW 4702   6.302   6.151   5.432
34893SOL    HW1 4703   6.321   6.216   5.506
34893SOL    HW2 4704   6.362   6.071   5.441
34894SOL     OW 4705   7.036   6.806   5.357
34894SOL    HW1 4706   7.027   6.796   5.456
34894SOL    HW2 4707   7.132   6.799   5.331
34895SOL     OW 4708   5.976   7.327   5.284
34895SOL    HW1 4709   5.885   7.368   5.282
34895SOL    HW2 4710   5.969   7.233   5.316
34896SOL     OW 4711   7.260   6.469   4.978
34896SOL    HW1 4712   7.233   6.380   4.941
34896SOL    HW2 4713   7.261   6.537   4.905
34897SOL     OW 4714   6.811   5.911   4.173
34897SOL    HW1 4715   6.876   5.837   4.162
34897SOL    HW2 4716   6.831   5.961   4.257
34898SOL     OW 4717   6.180   6.331   4.376
34898SOL    HW1 4718   6.230   6.416   4.357
34898SOL    HW2 4719   6.092   6.333   4.328
34899SOL     OW 4720   7.363   5.928   5.366
34899SOL    HW1 4721   7.346   5.959   5.272
34899SOL    HW2 4722   7.279   5.891   5.404
34900SOL     OW 4723   7.316   6.520   5.241
34900SOL    HW1 4724   7.354   6.611   5.256
34900SOL    HW2 4725   7.308   6.503   5.142
34901SOL     OW 4726   6.445   6.960   3.740
34901SOL    HW1 4727   6.399   6.975   3.828
34901SOL    HW2 4728   6.489   7.045   3.710
34902SOL     OW 4729   6.247   7.376   4.677
34902SOL    HW1 4730   6.201   7.464   4.664
34902SOL    HW2 4731   6.346   7.388   4.670
34903SOL     OW 4732   6.445   6.542   4.585
34903SOL    HW1 4733   6.499   6.473   4.633
34903SOL    HW2 4734   6.413   6.611   4.651
34904SOL     OW 4735   6.669   6.570   3.811
34904SOL    HW1 4736   6.646   6.623   3.729
34904SOL    HW2 4737   6.750   6.514   3.792
34905SOL     OW 4738   7.447   7.155   4.575
34905SOL    HW1 4739   7.376   7.143   4.505
34905SOL    HW2 4740   7.448   7.076   4.635
34906SOL     OW 4741   5.807   6.900   5.568
34906SOL    HW1 4742   5.742   6.827   5.547
34906SOL    HW2 4743   5.811   6.914   5.666
34907SOL     OW 4744   5.665   6.826   4.377
34907SOL    HW1 4745   5.664   6.779   4.465
34907SOL    HW2 4746   5.747   6.798   4.326
34908SOL     OW 4747   6.258   6.977   5.348
34908SOL    HW1 4748   6.180   6.927   5.386
34908SOL    HW2 4749   6.255   7.072   5.379
34909SOL     OW 4750   7.410   5.778   4.951
34909SOL    HW1 4751   7.406   5.688   4.995
34909SOL    HW2 4752   7.413   5.767   4.852
34910SOL     OW 4753   6.014   6.010   4.244
34910SOL    HW1 4754   6.044   5.938   4.182
34910SOL    HW2 4755   5.975   5.970   4.327
34911SOL     OW 4756   7.291   7.073   4.828
34911SOL    HW1 4757   7.198   7.048   4.801
34911SOL    HW2 4758   7.317   7.023   4.910
34912SOL     OW 4759   5.903   6.133   5.004
34912SOL    HW1 4760   5.941   6.074   5.076
34912SOL    HW2 4761   5.943   6.107   4.916
34913SOL     OW 4762   6.398   7.172   4.411
34913SOL    HW1 4763   6.430   7.182   4.317
34913SOL    HW2 4764   6.319   7.110   4.413
34914SOL     OW 4765   7.010   5.800   4.836
34914SOL    HW1 4766   7.062   5.735   4.891
34914SOL    HW2 4767   6.961   5.863   4.897
34915SOL     OW 4768   6.587   5.620   4.878
34915SOL    HW1 4769   6.524   5.548   4.847
34915SOL    HW2 4770   6.680   5.584   4.878
34916SOL     OW 4771   6.356   6.916   4.025
34916SOL    HW1 4772   6.310   6.829   4.042
34916SOL    HW2 4773   6.447   6.913   4.066
34917SOL     OW 4774   6.204   7.153   5.008
34917SOL    HW1 4775   6.199   7.235   5.065
34917SOL    HW2 4776   6.293   7.150   4.963
34918SOL     OW 4777   6.938   5.638   3.892
34918SOL    HW1 4778   6.973   5.597   3.808
34918SOL    HW2 4779   6.848   5.600   3.912
34919SOL     OW 4780   6.886   6.039   4.415
34919SOL    HW1 4781   6.827   6.119   4.419
34919SOL    HW2 4782   6.901   6.004   4.508
34920SOL     OW 4783   7.179   5.807   4.606
34920SOL    HW1 4784   7.095   5.806   4.660
34920SOL    HW2 4785   7.181   5.890   4.550
34921SOL     OW 4786   5.625   6.663   4.024
34921SOL    HW1 4787   5.724   6.652   4.015
34921SOL    HW2 4788   5.585   6.577   4.056
34922SOL     OW 4789   6.461   7.232   4.061
34922SOL    HW1 4790   6.384   7.197   4.007
34922SOL    HW2 4791   6.429   7.303   4.123
34923SOL     OW 4792   5.816   6.214   5.699
34923SOL    HW1 4793   5.723   6.212   5.736
34923SOL    HW2 4794   5.817   6.175   5.607
34924SOL     OW 4795   5.811   5.861   6.582
34924SOL    HW1 4796   5.846   5.844   6.674
34924SOL    HW2 4797   5.723   5.816   6.570
34925SOL     OW 4798   5.605   5.954   6.233
34925SOL    HW1 4799   5.523   5.997   6.272
34925SOL    HW2 4800   5.577   5.881   6.170
34926SOL     OW 4801   6.155   6.861   6.751
34926SOL    HW1 4802   6.062   6.854   6.714
34926SOL    HW2 4803   6.166   6.950   6.795
34927SOL     OW 4804   7.141   7.097   6.289
34927SOL    HW1 4805   7.084   7.081   6.370
34927SOL    HW2 4806   7.082   7.107   6.209
34928SOL     OW 4807   7.341   6.193   5.817
34928SOL    HW1 4808   7.329   6.180   5.718
34928SOL    HW2 4809   7.311   6.112   5.866
34929SOL     OW 4810   6.436   6.384   7.409
34929SOL    HW1 4811   6.432   6.460   7.474
34929SOL    HW2 4812   6.458   6.420   7.318
34930SOL     OW 4813   6.272   6.747   7.389
34930SOL    HW1 4814   6.332   6.826   7.403
34930SOL    HW2 4815   6.186   6.778   7.348
34931SOL     OW 4816   5.921   7.021   6.647
34931SOL    HW1 4817   5.843   6.990   6.594
34931SOL    HW2 4818   5.979   7.079   6.590
34932SOL     OW 4819   7.046   7.091   6.925
34932SOL    HW1 4820   7.070   7.185   6.951
34932SOL    HW2 4821   7.030   7.037   7.007
34933SOL     OW 4822   6.024   5.978   7.085
34933SOL    HW1 4823   6.106   5.922   7.094
34933SOL    HW2 4824   5.943   5.920   7.089
34934SOL     OW 4825   7.189   6.033   6.323
34934SOL    HW1 4826   7.115   6.079   6.273
34934SOL    HW2 4827   7.240   6.101   6.376
34935SOL     OW 4828   5.817   7.299   6.069
34935SOL    HW1 4829   5.851   7.376   6.123
34935SOL    HW2 4830   5.861   7.299   5.979
34936SOL     OW 4831   6.713   6.927   7.276
34936SOL    HW1 4832   6.760   6.927   7.364
34936SOL    HW2 4833   6.665   6.840   7.265
34937SOL     OW 4834   5.816   7.020   6.124
34937SOL    HW1 4835   5.790   7.116   6.124
34937SOL    HW2 4836   5.745   6.966   6.169
34938SOL     OW 4837   5.826   6.677   6.472
34938SOL    HW1 4838   5.840   6.593   6.524
34938SOL    HW2 4839   5.771   6.741   6.527
34939SOL     OW 4840   6.206   7.372   7.025
34939SOL    HW1 4841   6.114   7.355   7.060
34939SOL    HW2 4842   6.234   7.464   7.051
34940SOL     OW 4843   6.192   6.550   5.709
34940SOL    HW1 4844   6.199   6.634   5.655
34940SOL    HW2 4845   6.238   6.563   5.797
34941SOL     OW 4846   7.180   5.700   7.066
34941SOL    HW1 4847   7.162   5.767   6.994
34941SOL    HW2 4848   7.177   5.746   7.155
34942SOL     OW 4849   5.708   6.229   6.149
34942SOL    HW1 4850   5.663   6.141   6.166
34942SOL    HW2 4851   5.707   6.283   6.233
34943SOL     OW 4852   7.428   7.353   5.945
34943SOL    HW1 4853   7.482   7.324   6.025
34943SOL    HW2 4854   7.458   7.443   5.916
34944SOL     OW 4855   5.613   7.182   5.703
34944SOL    HW1 4856   5.594   7.086   5.724
34944SOL    HW2 4857   5.580   7.240   5.778
34945SOL     OW 4858   7.275   6.508   6.198
34945SOL    HW1 4859   7.370   6.479   6.206
34945SOL    HW2 4860   7.267   6.573   6.123
34946SOL     OW 4861   7.227   6.694   6.018
34946SOL    HW1 4862   7.313   6.696   5.966
34946SOL    HW2 4863   7.241   6.741   6.106
34947SOL     OW 4864   5.699   6.323   7.183
34947SOL    HW1 4865   5.787   6.310   7.228
34947SOL    HW2 4866   5.686   6.420   7.161
34948SOL     OW 4867   6.199   6.951   6.312
34948SOL    HW1 4868   6.150   6.864   6.321
34948SOL    HW2 4869   6.176   6.994   6.225
34949SOL     OW 4870   6.879   6.814   7.009
34949SOL    HW1 4871   6.916   6.741   6.951
34949SOL    HW2 4872   6.931   6.819   7.094
34950SOL     OW 4873   6.395   5.590   6.088
34950SOL    HW1 4874   6.435   5.681   6.079
34950SOL    HW2 4875   6.295   5.598   6.094
34951SOL     OW 4876   5.783   6.562   6.850
34951SOL    HW1 4877   5.872   6.517   6.836
34951SOL    HW2 4878   5.710   6.497   6.831
34952SOL     OW 4879   7.111   6.585   5.776
34952SOL    HW1 4880   7.048   6.509   5.789
34952SOL    HW2 4881   7.159   6.603   5.862
34953SOL     OW 4882   6.773   7.378   7.202
34953SOL    HW1 4883   6.797   7.438   7.126
34953SOL    HW2 4884   6.780   7.283   7.172
34954SOL     OW 4885   5.903   5.837   7.387
34954SOL    HW1 4886   5.974   5.908   7.393
34954SOL    HW2 4887   5.815   5.876   7.415
34955SOL     OW 4888   7.052   7.003   6.539
34955SOL    HW1 4889   6.993   7.009   6.619
34955SOL    HW2 4890   7.037   6.915   6.493
34956SOL     OW 4891   7.253   7.300   6.158
34956SOL    HW1 4892   7.212   7.277   6.070
34956SOL    HW2 4893   7.235   7.226   6.223
34957SOL     OW 4894   6.184   6.315   5.856
34957SOL    HW1 4895   6.208   6.384   5.788
34957SOL    HW2 4896   6.106   6.348   5.910
34958SOL     OW 4897   6.867   5.931   6.530
34958SOL    HW1 4898   6.781   5.881   6.517
34958SOL    HW2 4899   6.929   5.877   6.586
34959SOL     OW 4900   7.162   7.248   5.893
34959SOL    HW1 4901   7.251   7.294   5.896
34959SOL    HW2 4902   7.141   7.224   5.798
34960SOL     OW 4903   6.393   6.191   7.051
34960SOL    HW1 4904   6.346   6.188   7.140
34960SOL    HW2 4905   6.342   6.136   6.985
34961SOL     OW 4906   6.980   6.055   7.260
34961SOL    HW1 4907   6.960   6.098   7.348
34961SOL    HW2 4908   7.058   5.993   7.269
34962SOL     OW 4909   6.559   6.476   7.158
34962SOL    HW1 4910   6.605   6.392   7.129
34962SOL    HW2 4911   6.503   6.510   7.083
34963SOL     OW 4912   6.577   5.996   6.828
34963SOL    HW1 4913   6.500   6.030   6.882
34963SOL    HW2 4914   6.543   5.945   6.749
34964SOL     OW 4915   5.662   6.397   6.375
34964SOL    HW1 4916   5.761   6.385   6.384
34964SOL    HW2 4917   5.638   6.492   6.396
34965SOL     OW 4918   5.716   7.407   7.157
34965SOL    HW1 4919   5.706   7.392   7.256
34965SOL    HW2 4920   5.630   7.443   7.121
34966SOL     OW 4921   6.451   5.934   5.781
34966SOL    HW1 4922   6.510   5.997   5.732
34966SOL    HW2 4923   6.470   5.840   5.752
34967SOL     OW 4924   7.305   6.171   7.417
34967SOL    HW1 4925   7.279   6.260   7.381
34967SOL    HW2 4926   7.303   6.103   7.344
34968SOL     OW 4927   6.948   6.730   6.131
34968SOL    HW1 4928   7.031   6.701   6.083
34968SOL    HW2 4929   6.899   6.797   6.075
34969SOL     OW 4930   6.136   5.782   6.471
34969SOL    HW1 4931   6.131   5.777   6.571
34969SOL    HW2 4932   6.138   5.878   6.442
34970SOL     OW 4933   6.594   7.042   6.063
34970SOL    HW1 4934   6.548   7.114   6.011
34970SOL    HW2 4935   6.590   7.062   6.161
34971SOL     OW 4936   5.937   7.387   6.439
34971SOL    HW1 4937   5.987   7.301   6.445
34971SOL    HW2 4938   6.002   7.464   6.436
34972SOL     OW 4939   7.381   6.652   6.459
34972SOL    HW1 4940   7.319   6.637   6.383
34972SOL    HW2 4941   7.329   6.663   6.544
34973SOL     OW 4942   6.813   7.136   7.092
34973SOL    HW1 4943   6.819   7.059   7.156
34973SOL    HW2 4944   6.761   7.110   7.012
34974SOL     OW 4945   5.907   6.529   5.828
34974SOL    HW1 4946   5.989   6.568   5.786
34974SOL    HW2 4947   5.880   6.447   5.779
34975SOL     OW 4948   7.044   6.321   6.314
34975SOL    HW1 4949   7.039   6.256   6.389
34975SOL    HW2 4950   7.124   6.380   6.327
34976SOL     OW 4951   6.047   6.852   7.313
34976SOL    HW1 4952   5.997   6.853   7.227
34976SOL    HW2 4953   5.984   6.834   7.389
34977SOL     OW 4954   6.697   7.362   5.823
34977SOL    HW1 4955   6.637   7.300   5.873
34977SOL    HW2 4956   6.728   7.318   5.738
34978SOL     OW 4957   5.788   5.871   7.084
34978SOL    HW1 4958   5.708   5.931   7.071
34978SOL    HW2 4959   5.778   5.822   7.170
34979SOL     OW 4960   7.218   6.963   5.667
34979SOL    HW1 4961   7.186   7.057   5.657
34979SOL    HW2 4962   7.142   6.900   5.655
34980SOL     OW 4963   6.050   7.329   5.909
34980SOL    HW1 4964   6.083   7.368   5.995
34980SOL    HW2 4965   6.126   7.322   5.844
34981SOL     OW 4966   6.986   5.693   6.012
34981SOL    HW1 4967   6.962   5.656   5.922
34981SOL    HW2 4968   7.085   5.709   6.016
34982SOL     OW 4969   5.835   7.371   6.827
34982SOL    HW1 4970   5.892   7.306   6.877
34982SOL    HW2 4971   5.819   7.338   6.734
34983SOL     OW 4972   6.526   7.284   6.490
34983SOL    HW1 4973   6.606   7.227   6.511
34983SOL    HW2 4974   6.477   7.244   6.413
34984SOL     OW 4975   5.968   6.286   6.066
34984SOL    HW1 4976   6.013   6.196   6.063
34984SOL    HW2 4977   5.874   6.275   6.099
34985SOL     OW 4978   7.133   5.808   7.315
34985SOL    HW1 4979   7.128   5.845   7.407
34985SOL    HW2 4980   7.061   5.739   7.303
34986SOL     OW 4981   6.200   5.708   5.703
34986SOL    HW1 4982   6.298   5.686   5.710
34986SOL    HW2 4983   6.169   5.691   5.610
34987SOL     OW 4984   6.367   5.850   7.335
34987SOL    HW1 4985   6.434   5.789   7.378
34987SOL    HW2 4986   6.294   5.869   7.400
34988SOL     OW 4987   6.474   7.100   6.781
34988SOL    HW1 4988   6.451   7.075   6.687
34988SOL    HW2 4989   6.535   7.031   6.820
34989SOL     OW 4990   6.937   6.176   7.019
34989SOL    HW1 4991   6.965   6.133   7.104
34989SOL    HW2 4992   6.962   6.272   7.020
34990SOL     OW 4993   6.389   6.988   6.510
34990SOL    HW1 4994   6.479   7.002   6.468
34990SOL    HW2 4995   6.318   6.990   6.439
34991SOL     OW 4996   6.508   6.089   6.485
34991SOL    HW1 4997   6.483   6.080   6.389
34991SOL    HW2 4998   6.556   6.007   6.516
34992SOL     OW 4999   6.125   5.650   6.098
34992SOL    HW1 5000   6.044   5.651   6.156
34992SOL    HW2 5001   6.128   5.733   6.043
34993SOL     OW 5002   7.020   6.774   5.627
34993SOL    HW1 5003   7.052   6.698   5.684
34993SOL    HW2 5004   6.928   6.801   5.657
34994SOL     OW 5005   5.883   5.621   5.757
34994SOL    HW1 5006   5.932   5.705   5.736
34994SOL    HW2 5007   5.945   5.556   5.802
34995SOL     OW 5008   6.521   5.822   6.066
34995SOL    HW1 5009   6.473   5.863   5.988
34995SOL    HW2 5010   6.620   5.820   6.047
34996SOL     OW 5011   6.662   6.269   7.050
34996SOL    HW1 5012   6.582   6.208   7.053
34996SOL    HW2 5013   6.743   6.216   7.026
34997SOL     OW 5014   6.813   7.156   6.379
34997SOL    HW1 5015   6.834   7.230   6.314
34997SOL    HW2 5016   6.881   7.156   6.452
34998SOL     OW 5017   6.045   6.738   6.327
34998SOL    HW1 5018   5.974   6.711   6.392
34998SOL    HW2 5019   6.019   6.710   6.234
34999SOL     OW 5020   6.857   7.383   6.177
34999SOL    HW1 5021   6.901   7.447   6.113
34999SOL    HW2 5022   6.807   7.435   6.247
35000SOL     OW 5023   6.618   6.135   5.602
35000SOL    HW1 5024   6.577   6.217   5.563
35000SOL    HW2 5025   6.682   6.161   5.675
35001SOL     OW 5026   5.664   6.142   6.972
35001SOL    HW1 5027   5.756   6.141   6.931
35001SOL    HW2 5028   5.658   6.216   7.039
35002SOL     OW 5029   6.147   5.808   6.733
35002SOL    HW1 5030   6.185   5.724   6.770
35002SOL    HW2 5031   6.059   5.827   6.777
35003SOL     OW 5032   6.603   5.625   6.339
35003SOL    HW1 5033   6.531   5.630   6.270
35003SOL    HW2 5034   6.579   5.556   6.408
35004SOL     OW 5035   7.015   6.759   6.453
35004SOL    HW1 5036   6.960   6.675   6.446
35004SOL    HW2 5037   7.041   6.788   6.361
35005SOL     OW 5038   7.052   6.176   6.578
35005SOL    HW1 5039   7.022   6.081   6.585
35005SOL    HW2 5040   7.125   6.192   6.644
35006SOL     OW 5041   7.443   6.419   5.963
35006SOL    HW1 5042   7.485   6.355   6.027
35006SOL    HW2 5043   7.405   6.368   5.885
35007SOL     OW 5044   6.074   6.971   5.760
35007SOL    HW1 5045   5.987   6.956   5.807
35007SOL    HW2 5046   6.057   6.997   5.665
35008SOL     OW 5047   7.250   6.866   6.243
35008SOL    HW1 5048   7.349   6.874   6.257
35008SOL    HW2 5049   7.205   6.950   6.274
35009SOL     OW 5050   6.976   6.161   5.664
35009SOL    HW1 5051   6.922   6.140   5.745
35009SOL    HW2 5052   7.067   6.120   5.673
35010SOL     OW 5053   6.113   5.842   5.914
35010SOL    HW1 5054   6.140   5.783   5.839
35010SOL    HW2 5055   6.113   5.937   5.883
35011SOL     OW 5056   7.340   6.809   7.174
35011SOL    HW1 5057   7.431   6.770   7.161
35011SOL    HW2 5058   7.348   6.905   7.198
35012SOL     OW 5059   6.650   6.933   6.926
35012SOL    HW1 5060   6.570   6.910   6.981
35012SOL    HW2 5061   6.733   6.907   6.975
35013SOL     OW 5062   7.178   7.215   7.211
35013SOL    HW1 5063   7.205   7.249   7.121
35013SOL    HW2 5064   7.257   7.177   7.257
35014SOL     OW 5065   6.697   6.781   6.686
35014SOL    HW1 5066   6.657   6.825   6.767
35014SOL    HW2 5067   6.656   6.818   6.603
35015SOL     OW 5068   7.224   6.685   6.665
35015SOL    HW1 5069   7.229   6.766   6.724
35015SOL    HW2 5070   7.138   6.687   6.614
35016SOL     OW 5071   6.501   5.675   6.988
35016SOL    HW1 5072   6.526   5.655   6.893
35016SOL    HW2 5073   6.573   5.731   7.030
35017SOL     OW 5074   6.566   6.702   7.305
35017SOL    HW1 5075   6.467   6.708   7.315
35017SOL    HW2 5076   6.589   6.622   7.249
35018SOL     OW 5077   6.291   6.636   5.954
35018SOL    HW1 5078   6.277   6.643   6.053
35018SOL    HW2 5079   6.375   6.585   5.936
35019SOL     OW 5080   5.996   6.399   6.837
35019SOL    HW1 5081   6.082   6.411   6.887
35019SOL    HW2 5082   5.954   6.312   6.864
35020SOL     OW 5083   6.860   5.972   6.848
35020SOL    HW1 5084   6.881   6.046   6.912
35020SOL    HW2 5085   6.771   5.989   6.805
35021SOL     OW 5086   5.650   7.150   6.917
35021SOL    HW1 5087   5.604   7.232   6.883
35021SOL    HW2 5088   5.748   7.169   6.926
35022SOL     OW 5089   5.953   6.686   6.087
35022SOL    HW1 5090   5.946   6.769   6.031
35022SOL    HW2 5091   5.957   6.606   6.027
35023SOL     OW 5092   6.152   6.123   6.451
35023SOL    HW1 5093   6.164   6.189   6.377
35023SOL    HW2 5094   6.198   6.157   6.534
35024SOL     OW 5095   6.838   6.934   5.974
35024SOL    HW1 5096   6.888   7.011   6.014
35024SOL    HW2 5097   6.743   6.936   6.006
35025SOL     OW 5098   6.858   7.031   6.728
35025SOL    HW1 5099   6.905   7.044   6.815
35025SOL    HW2 5100   6.792   6.957   6.737
35026SOL     OW 5101   7.168   6.225   6.058
35026SOL    HW1 5102   7.137   6.286   6.131
35026SOL    HW2 5103   7.218   6.277   5.989
35027SOL     OW 5104   5.940   7.096   6.915
35027SOL    HW1 5105   5.919   7.052   6.828
35027SOL    HW2 5106   6.037   7.122   6.918
35028SOL     OW 5107   5.988   6.337   7.184
35028SOL    HW1 5108   6.056   6.392   7.137
35028SOL    HW2 5109   6.028   6.249   7.211
35029SOL     OW 5110   7.173   6.365   7.256
35029SOL    HW1 5111   7.081   6.403   7.251
35029SOL    HW2 5112   7.233   6.412   7.191
35030SOL     OW 5113   6.599   5.691   7.356
35030SOL    HW1 5114   6.605   5.776   7.304
35030SOL    HW2 5115   6.631   5.615   7.299
35031SOL     OW 5116   6.090   5.636   7.326
35031SOL    HW1 5117   6.048   5.579   7.256
35031SOL    HW2 5118   6.024   5.705   7.358
35032SOL     OW 5119   6.946   6.448   6.631
35032SOL    HW1 5120   6.871   6.448   6.565
35032SOL    HW2 5121   6.983   6.356   6.640
35033SOL     OW 5122   6.795   6.111   5.861
35033SOL    HW1 5123   6.808   6.027   5.915
35033SOL    HW2 5124   6.766   6.185   5.921
35034SOL     OW 5125   5.893   5.799   6.817
35034SOL    HW1 5126   5.870   5.836   6.907
35034SOL    HW2 5127   5.863   5.704   6.811
35035SOL     OW 5128   5.623   6.896   6.868
35035SOL    HW1 5129   5.676   6.847   6.936
35035SOL    HW2 5130   5.645   6.994   6.873
35036SOL     OW 5131   7.314   6.521   7.440
35036SOL    HW1 5132   7.268   6.514   7.351
35036SOL    HW2 5133   7.252   6.565   7.506
35037SOL     OW 5134   5.893   5.649   6.204
35037SOL    HW1 5135   5.882   5.743   6.237
35037SOL    HW2 5136   5.888   5.586   6.281
35038SOL     OW 5137   7.208   5.953   5.960
35038SOL    HW1 5138   7.210   5.877   6.024
35038SOL    HW2 5139   7.160   6.030   6.000
35039SOL     OW 5140   6.566   7.159   7.286
35039SOL    HW1 5141   6.546   7.203   7.198
35039SOL    HW2 5142   6.605   7.068   7.270
35040SOL     OW 5143   7.445   7.104   7.191
35040SOL    HW1 5144   7.459   7.131   7.096
35040SOL    HW2 5145   7.528   7.126   7.244
35041SOL     OW 5146   5.936   6.484   7.390
35041SOL    HW1 5147   6.012   6.528   7.438
35041SOL    HW2 5148   5.971   6.437   7.308
35042SOL     OW 5149   7.126   5.860   5.711
35042SOL    HW1 5150   7.065   5.785   5.734
35042SOL    HW2 5151   7.148   5.912   5.794
35043SOL     OW 5152   6.889   6.424   5.628
35043SOL    HW1 5153   6.923   6.331   5.643
35043SOL    HW2 5154   6.907   6.451   5.533
35044SOL     OW 5155   6.654   6.919   6.435
35044SOL    HW1 5156   6.661   6.835   6.380
35044SOL    HW2 5157   6.716   6.988   6.399
35045SOL     OW 5158   5.905   6.396   6.535
35045SOL    HW1 5159   5.998   6.432   6.540
35045SOL    HW2 5160   5.899   6.311   6.587
35046SOL     OW 5161   5.925   6.095   6.592
35046SOL    HW1 5162   5.873   6.012   6.575
35046SOL    HW2 5163   6.002   6.100   6.528
35047SOL     OW 5164   6.724   5.966   7.264
35047SOL    HW1 5165   6.679   6.029   7.328
35047SOL    HW2 5166   6.817   5.997   7.247
35048SOL     OW 5167   6.746   5.793   7.063
35048SOL    HW1 5168   6.746   5.857   7.140
35048SOL    HW2 5169   6.774   5.841   6.980
35049SOL     OW 5170   5.594   6.912   5.786
35049SOL    HW1 5171   5.501   6.933   5.755
35049SOL    HW2 5172   5.604   6.813   5.799
35050SOL     OW 5173   5.674   7.387   6.513
35050SOL    HW1 5174   5.632   7.301   6.486
35050SOL    HW2 5175   5.768   7.390   6.479
35051SOL     OW 5176   6.090   7.154   6.496
35051SOL    HW1 5177   6.156   7.228   6.505
35051SOL    HW2 5178   6.134   7.075   6.454
35052SOL     OW 5179   6.588   6.382   6.824
35052SOL    HW1 5180   6.629   6.350   6.910
35052SOL    HW2 5181   6.492   6.355   6.821
35053SOL     OW 5182   5.626   6.130   6.700
35053SOL    HW1 5183   5.711   6.097   6.659
35053SOL    HW2 5184   5.639   6.145   6.798
35054SOL     OW 5185   5.775   6.106   7.308
35054SOL    HW1 5186   5.834   6.066   7.238
35054SOL    HW2 5187   5.717   6.177   7.267
35055SOL     OW 5188   6.955   6.536   7.246
35055SOL    HW1 5189   6.994   6.625   7.266
35055SOL    HW2 5190   6.965   6.516   7.149
35056SOL     OW 5191   6.401   6.158   5.911
35056SOL    HW1 5192   6.408   6.069   5.865
35056SOL    HW2 5193   6.307   6.192   5.903
35057SOL     OW 5194   7.243   6.190   6.792
35057SOL    HW1 5195   7.205   6.121   6.854
35057SOL    HW2 5196   7.325   6.154   6.748
35058SOL     OW 5197   5.838   7.150   7.330
35058SOL    HW1 5198   5.808   7.207   7.406
35058SOL    HW2 5199   5.831   7.053   7.356
35059SOL     OW 5200   6.257   6.050   6.855
35059SOL    HW1 5201   6.223   5.961   6.825
35059SOL    HW2 5202   6.283   6.104   6.775
35060SOL     OW 5203   6.516   7.264   7.051
35060SOL    HW1 5204   6.492   7.246   6.956
35060SOL    HW2 5205   6.546   7.358   7.061
35061SOL     OW 5206   6.059   6.086   5.777
35061SOL    HW1 5207   6.120   6.166   5.781
35061SOL    HW2 5208   5.964   6.117   5.784
35062SOL     OW 5209   5.745   6.723   7.052
35062SOL    HW1 5210   5.767   6.662   7.128
35062SOL    HW2 5211   5.755   6.674   6.966
35063SOL     OW 5212   6.933   6.645   6.820
35063SOL    HW1 5213   6.957   6.582   6.746
35063SOL    HW2 5214   6.843   6.685   6.802
35064SOL     OW 5215   6.888   6.441   5.895
35064SOL    HW1 5216   6.802   6.410   5.937
35064SOL    HW2 5217   6.884   6.427   5.796
35065SOL     OW 5218   7.345   7.333   6.740
35065SOL    HW1 5219   7.406   7.363   6.667
35065SOL    HW2 5220   7.307   7.244   6.718
35066SOL     OW 5221   6.838   7.317   6.714
35066SOL    HW1 5222   6.922   7.322   6.660
35066SOL    HW2 5223   6.815   7.221   6.732
35067SOL     OW 5224   5.669   6.844   6.608
35067SOL    HW1 5225   5.664   6.843   6.708
35067SOL    HW2 5226   5.586   6.803   6.570
35068SOL     OW 5227   6.274   7.248   7.302
35068SOL    HW1 5228   6.218   7.329   7.311
35068SOL    HW2 5229   6.326   7.252   7.216
35069SOL     OW 5230   7.312   5.721   6.109
35069SOL    HW1 5231   7.385   5.704   6.042
35069SOL    HW2 5232   7.281   5.634   6.147
35070SOL     OW 5233   6.974   7.159   6.063
35070SOL    HW1 5234   7.041   7.171   5.989
35070SOL    HW2 5235   6.934   7.248   6.086
35071SOL     OW 5236   5.716   7.380   7.437
35071SOL    HW1 5237   5.675   7.306   7.490
35071SOL    HW2 5238   5.780   7.431   7.495
35072SOL     OW 5239   6.866   6.513   6.258
35072SOL    HW1 5240   6.926   6.432   6.260
35072SOL    HW2 5241   6.906   6.582   6.198
35073SOL     OW 5242   6.416   6.859   7.008
35073SOL    HW1 5243   6.411   6.892   7.103
35073SOL    HW2 5244   6.330   6.878   6.962
35074SOL     OW 5245   6.258   7.202   5.740
35074SOL    HW1 5246   6.267   7.212   5.641
35074SOL    HW2 5247   6.218   7.113   5.761
35075SOL     OW 5248   7.236   7.306   6.980
35075SOL    HW1 5249   7.289   7.316   6.896
35075SOL    HW2 5250   7.209   7.396   7.014
35076SOL     OW 5251   7.427   5.761   6.549
35076SOL    HW1 5252   7.466   5.676   6.513
35076SOL    HW2 5253   7.329   5.763   6.530
35077SOL     OW 5254   5.849   5.912   6.306
35077SOL    HW1 5255   5.770   5.963   6.272
35077SOL    HW2 5256   5.840   5.897   6.404
35078SOL     OW 5257   6.780   7.198   5.617
35078SOL    HW1 5258   6.786   7.105   5.654
35078SOL    HW2 5259   6.721   7.198   5.537
35079SOL     OW 5260   6.502   6.496   5.877
35079SOL    HW1 5261   6.565   6.534   5.809
35079SOL    HW2 5262   6.542   6.413   5.916
35080SOL     OW 5263   7.090   7.193   5.630
35080SOL    HW1 5264   6.998   7.230   5.637
35080SOL    HW2 5265   7.128   7.213   5.540
35081SOL     OW 5266   5.958   6.874   7.076
35081SOL    HW1 5267   5.945   6.967   7.042
35081SOL    HW2 5268   5.874   6.822   7.063
35082SOL     OW 5269   7.200   6.878   6.875
35082SOL    HW1 5270   7.260   6.881   6.955
35082SOL    HW2 5271   7.125   6.942   6.888
35083SOL     OW 5272   6.600   5.822   6.557
35083SOL    HW1 5273   6.592   5.786   6.464
35083SOL    HW2 5274   6.598   5.746   6.622
35084SOL     OW 5275   6.176   7.073   6.077
35084SOL    HW1 5276   6.218   7.015   6.007
35084SOL    HW2 5277   6.132   7.152   6.033
35085SOL     OW 5278   7.295   5.971   6.967
35085SOL    HW1 5279   7.368   6.040   6.971
35085SOL    HW2 5280   7.323   5.896   6.908
35086SOL     OW 5281   5.841   6.934   5.876
35086SOL    HW1 5282   5.745   6.935   5.849
35086SOL    HW2 5283   5.853   6.987   5.960
35087SOL     OW 5284   5.691   6.599   7.312
35087SOL    HW1 5285   5.614   6.566   7.366
35087SOL    HW2 5286   5.776   6.569   7.354
35088SOL     OW 5287   6.258   5.789   7.075
35088SOL    HW1 5288   6.348   5.773   7.035
35088SOL    HW2 5289   6.266   5.794   7.174
35089SOL     OW 5290   5.661   5.931   5.619
35089SOL    HW1 5291   5.569   5.903   5.590
35089SOL    HW2 5292   5.692   6.008   5.563
35090SOL     OW 5293   7.026   6.442   6.984
35090SOL    HW1 5294   6.969   6.494   6.921
35090SOL    HW2 5295   7.122   6.454   6.960
35091SOL     OW 5296   5.658   5.752   5.904
35091SOL    HW1 5297   5.641   5.835   5.850
35091SOL    HW2 5298   5.748   5.715   5.882
35092SOL     OW 5299   6.769   6.921   5.705
35092SOL    HW1 5300   6.670   6.910   5.707
35092SOL    HW2 5301   6.803   6.936   5.798
35093SOL     OW 5302   6.199   6.428   7.017
35093SOL    HW1 5303   6.255   6.509   7.000
35093SOL    HW2 5304   6.258   6.348   7.020
35094SOL     OW 5305   7.079   7.353   6.545
35094SOL    HW1 5306   7.112   7.417   6.476
35094SOL    HW2 5307   7.145   7.347   6.620
35095SOL     OW 5308   6.302   6.151   7.294
35095SOL    HW1 5309   6.321   6.216   7.368
35095SOL    HW2 5310   6.362   6.071   7.303
35096SOL     OW 5311   7.036   6.806   7.219
35096SOL    HW1 5312   7.027   6.796   7.318
35096SOL    HW2 5313   7.132   6.799   7.193
35097SOL     OW 5314   5.976   7.327   7.146
35097SOL    HW1 5315   5.885   7.368   7.144
35097SOL    HW2 5316   5.969   7.233   7.178
35098SOL     OW 5317   7.260   6.469   6.840
35098SOL    HW1 5318   7.233   6.380   6.803
35098SOL    HW2 5319   7.261   6.537   6.767
35099SOL     OW 5320   6.811   5.911   6.035
35099SOL    HW1 5321   6.876   5.837   6.024
35099SOL    HW2 5322   6.831   5.961   6.119
35100SOL     OW 5323   6.180   6.331   6.238
35100SOL    HW1 5324   6.230   6.416   6.219
35100SOL    HW2 5325   6.092   6.333   6.190
35101SOL     OW 5326   7.363   5.928   7.228
35101SOL    HW1 5327   7.346   5.959   7.134
35101SOL    HW2 5328   7.279   5.891   7.266
35102SOL     OW 5329   7.316   6.520   7.103
35102SOL    HW1 5330   7.354   6.611   7.118
35102SOL    HW2 5331   7.308   6.503   7.004
35103SOL     OW 5332   6.445   6.960   5.602
35103SOL    HW1 5333   6.399   6.975   5.690
35103SOL    HW2 5334   6.489   7.045   5.572
35104SOL     OW 5335   6.247   7.376   6.539
35104SOL    HW1 5336   6.201   7.464   6.526
35104SOL    HW2 5337   6.346   7.388   6.532
35105SOL     OW 5338   6.669   6.570   5.673
35105SOL    HW1 5339   6.646   6.623   5.591
35105SOL    HW2 5340   6.750   6.514   5.654
35106SOL     OW 5341   7.447   7.155   6.437
35106SOL    HW1 5342   7.376   7.143   6.367
35106SOL    HW2 5343   7.448   7.076   6.497
35107SOL     OW 5344   5.807   6.900   7.430
35107SOL    HW1 5345   5.742   6.827   7.409
35107SOL    HW2 5346   5.811   6.914   7.528
35108SOL     OW 5347   5.665   6.826   6.239
35108SOL    HW1 5348   5.664   6.779   6.327
35108SOL    HW2 5349   5.747   6.798   6.188
35109SOL     OW 5350   6.258   6.977   7.210
35109SOL    HW1 5351   6.180   6.927   7.248
35109SOL    HW2 5352   6.255   7.072   7.241
35110SOL     OW 5353   7.410   5.778   6.813
35110SOL    HW1 5354   7.406   5.688   6.857
35110SOL    HW2 5355   7.413   5.767   6.714
35111SOL     OW 5356   6.014   6.010   6.106
35111SOL    HW1 5357   6.044   5.938   6.044
35111SOL    HW2 5358   5.975   5.970   6.189
35112SOL     OW 5359   7.291   7.073   6.690
35112SOL    HW1 5360   7.198   7.048   6.663
35112SOL    HW2 5361   7.317   7.023   6.772
35113SOL     OW 5362   5.903   6.133   6.866
35113SOL    HW1 5363   5.941   6.074   6.938
35113SOL    HW2 5364   5.943   6.107   6.778
35114SOL     OW 5365   6.398   7.172   6.273
35114SOL    HW1 5366   6.430   7.182   6.179
35114SOL    HW2 5367   6.319   7.110   6.275
35115SOL     OW 5368   7.010   5.800   6.698
35115SOL    HW1 5369   7.062   5.735   6.753
35115SOL    HW2 5370   6.961   5.863   6.759
35116SOL     OW 5371   6.587   5.620   6.740
35116SOL    HW1 5372   6.524   5.548   6.709
35116SOL    HW2 5373   6.680   5.584   6.740
35117SOL     OW 5374   6.356   6.916   5.887
35117SOL    HW1 5375   6.310   6.829   5.904
35117SOL    HW2 5376   6.447   6.913   5.928
35118SOL     OW 5377   6.204   7.153   6.870
35118SOL    HW1 5378   6.199   7.235   6.927
35118SOL    HW2 5379   6.293   7.150   6.825
35119SOL     OW 5380   6.938   5.638   5.754
35119SOL    HW1 5381   6.973   5.597   5.670
35119SOL    HW2 5382   6.848   5.600   5.774
35120SOL     OW 5383   6.886   6.039   6.277
35120SOL    HW1 5384   6.827   6.119   6.281
35120SOL    HW2 5385   6.901   6.004   6.370
35121SOL     OW 5386   7.179   5.807   6.468
35121SOL    HW1 5387   7.095   5.806   6.522
35121SOL    HW2 5388   7.181   5.890   6.412
35122SOL     OW 5389   5.625   6.663   5.886
35122SOL    HW1 5390   5.724   6.652   5.877
35122SOL    HW2 5391   5.585   6.577   5.918
35123SOL     OW 5392   6.461   7.232   5.923
35123SOL    HW1 5393   6.384   7.197   5.869
35123SOL    HW2 5394   6.429   7.303   5.985
35124SOL     OW 5395   5.816   6.214   7.561
35124SOL    HW1 5396   5.723   6.212   7.598
35124SOL    HW2 5397   5.817   6.175   7.469
35125SOL     OW 5398   5.811   5.861   8.444
35125SOL    HW1 5399   5.846   5.844   8.536
35125SOL    HW2 5400   5.723   5.816   8.432
35126SOL     OW 5401   5.605   5.954   8.095
35126SOL    HW1 5402   5.523   5.997   8.134
35126SOL    HW2 5403   5.577   5.881   8.032
35127SOL     OW 5404   6.155   6.861   8.613
35127SOL    HW1 5405   6.062   6.854   8.576
35127SOL    HW2 5406   6.166   6.950   8.657
35128SOL     OW 5407   7.141   7.097   8.151
35128SOL    HW1 5408   7.084   7.081   8.232
35128SOL    HW2 5409   7.082   7.107   8.071
35129SOL     OW 5410   6.721   6.289   8.165
35129SOL    HW1 5411   6.778   6.367   8.140
35129SOL    HW2 5412   6.661   6.315   8.241
35130SOL     OW 5413   7.341   6.193   7.679
35130SOL    HW1 5414   7.329   6.180   7.580
35130SOL    HW2 5415   7.311   6.112   7.728
35131SOL     OW 5416   6.354   6.730   8.471
35131SOL    HW1 5417   6.276   6.747   8.531
35131SOL    HW2 5418   6.388   6.817   8.435
35132SOL     OW 5419   6.436   6.384   9.271
35132SOL    HW1 5420   6.432   6.460   9.336
35132SOL    HW2 5421   6.458   6.420   9.180
35133SOL     OW 5422   6.271   6.598   8.113
35133SOL    HW1 5423   6.340   6.582   8.183
35133SOL    HW2 5424   6.198   6.655   8.151
35134SOL     OW 5425   6.272   6.747   9.251
35134SOL    HW1 5426   6.332   6.826   9.265
35134SOL    HW2 5427   6.186   6.778   9.210
35135SOL     OW 5428   5.921   7.021   8.509
35135SOL    HW1 5429   5.843   6.990   8.456
35135SOL    HW2 5430   5.979   7.079   8.452
35136SOL     OW 5431   7.046   7.091   8.787
35136SOL    HW1 5432   7.070   7.185   8.813
35136SOL    HW2 5433   7.030   7.037   8.869
35137SOL     OW 5434   6.024   5.978   8.947
35137SOL    HW1 5435   6.106   5.922   8.956
35137SOL    HW2 5436   5.943   5.920   8.951
35138SOL     OW 5437   7.189   6.033   8.185
35138SOL    HW1 5438   7.115   6.079   8.135
35138SOL    HW2 5439   7.240   6.101   8.238
35139SOL     OW 5440   5.817   7.299   7.931
35139SOL    HW1 5441   5.851   7.376   7.985
35139SOL    HW2 5442   5.861   7.299   7.841
35140SOL     OW 5443   6.713   6.927   9.138
35140SOL    HW1 5444   6.760   6.927   9.226
35140SOL    HW2 5445   6.665   6.840   9.127
35141SOL     OW 5446   5.816   7.020   7.986
35141SOL    HW1 5447   5.790   7.116   7.986
35141SOL    HW2 5448   5.745   6.966   8.031
35142SOL     OW 5449   5.826   6.677   8.334
35142SOL    HW1 5450   5.840   6.593   8.386
35142SOL    HW2 5451   5.771   6.741   8.389
35143SOL     OW 5452   6.206   7.372   8.887
35143SOL    HW1 5453   6.114   7.355   8.922
35143SOL    HW2 5454   6.234   7.464   8.913
35144SOL     OW 5455   6.192   6.550   7.571
35144SOL    HW1 5456   6.199   6.634   7.517
35144SOL    HW2 5457   6.238   6.563   7.659
35145SOL     OW 5458   7.180   5.700   8.928
35145SOL    HW1 5459   7.162   5.767   8.856
35145SOL    HW2 5460   7.177   5.746   9.017
35146SOL     OW 5461   5.708   6.229   8.011
35146SOL    HW1 5462   5.663   6.141   8.028
35146SOL    HW2 5463   5.707   6.283   8.095
35147SOL     OW 5464   7.428   7.353   7.807
35147SOL    HW1 5465   7.482   7.324   7.887
35147SOL    HW2 5466   7.458   7.443   7.778
35148SOL     OW 5467   5.613   7.182   7.565
35148SOL    HW1 5468   5.594   7.086   7.586
35148SOL    HW2 5469   5.580   7.240   7.640
35149SOL     OW 5470   7.275   6.508   8.060
35149SOL    HW1 5471   7.370   6.479   8.068
35149SOL    HW2 5472   7.267   6.573   7.985
35150SOL     OW 5473   7.227   6.694   7.880
35150SOL    HW1 5474   7.313   6.696   7.828
35150SOL    HW2 5475   7.241   6.741   7.968
35151SOL     OW 5476   5.699   6.323   9.045
35151SOL    HW1 5477   5.787   6.310   9.090
35151SOL    HW2 5478   5.686   6.420   9.023
35152SOL     OW 5479   6.199   6.951   8.174
35152SOL    HW1 5480   6.150   6.864   8.183
35152SOL    HW2 5481   6.176   6.994   8.087
35153SOL     OW 5482   6.879   6.814   8.871
35153SOL    HW1 5483   6.916   6.741   8.813
35153SOL    HW2 5484   6.931   6.819   8.956
35154SOL     OW 5485   6.395   5.590   7.950
35154SOL    HW1 5486   6.435   5.681   7.941
35154SOL    HW2 5487   6.295   5.598   7.956
35155SOL     OW 5488   5.783   6.562   8.712
35155SOL    HW1 5489   5.872   6.517   8.698
35155SOL    HW2 5490   5.710   6.497   8.693
35156SOL     OW 5491   7.111   6.585   7.638
35156SOL    HW1 5492   7.048   6.509   7.651
35156SOL    HW2 5493   7.159   6.603   7.724
35157SOL     OW 5494   6.773   7.378   9.064
35157SOL    HW1 5495   6.797   7.438   8.988
35157SOL    HW2 5496   6.780   7.283   9.034
35158SOL     OW 5497   5.903   5.837   9.249
35158SOL    HW1 5498   5.974   5.908   9.255
35158SOL    HW2 5499   5.815   5.876   9.277
35159SOL     OW 5500   7.052   7.003   8.401
35159SOL    HW1 5501   6.993   7.009   8.481
35159SOL    HW2 5502   7.037   6.915   8.355
35160SOL     OW 5503   7.253   7.300   8.020
35160SOL    HW1 5504   7.212   7.277   7.932
35160SOL    HW2 5505   7.235   7.226   8.085
35161SOL     OW 5506   6.184   6.315   7.718
35161SOL    HW1 5507   6.208   6.384   7.650
35161SOL    HW2 5508   6.106   6.348   7.772
35162SOL     OW 5509   6.867   5.931   8.392
35162SOL    HW1 5510   6.781   5.881   8.379
35162SOL    HW2 5511   6.929   5.877   8.448
35163SOL     OW 5512   7.162   7.248   7.755
35163SOL    HW1 5513   7.251   7.294   7.758
35163SOL    HW2 5514   7.141   7.224   7.660
35164SOL     OW 5515   6.393   6.191   8.913
35164SOL    HW1 5516   6.346   6.188   9.002
35164SOL    HW2 5517   6.342   6.136   8.847
35165SOL     OW 5518   6.980   6.055   9.122
35165SOL    HW1 5519   6.960   6.098   9.210
35165SOL    HW2 5520   7.058   5.993   9.131
35166SOL     OW 5521   6.559   6.476   9.020
35166SOL    HW1 5522   6.605   6.392   8.991
35166SOL    HW2 5523   6.503   6.510   8.945
35167SOL     OW 5524   6.577   5.996   8.690
35167SOL    HW1 5525   6.500   6.030   8.744
35167SOL    HW2 5526   6.543   5.945   8.611
35168SOL     OW 5527   6.627   6.287   7.877
35168SOL    HW1 5528   6.653   6.283   7.973
35168SOL    HW2 5529   6.542   6.236   7.863
35169SOL     OW 5530   5.662   6.397   8.237
35169SOL    HW1 5531   5.761   6.385   8.246
35169SOL    HW2 5532   5.638   6.492   8.258
35170SOL     OW 5533   5.716   7.407   9.019
35170SOL    HW1 5534   5.706   7.392   9.118
35170SOL    HW2 5535   5.630   7.443   8.983
35171SOL     OW 5536   6.451   5.934   7.643
35171SOL    HW1 5537   6.510   5.997   7.594
35171SOL    HW2 5538   6.470   5.840   7.614
35172SOL     OW 5539   7.305   6.171   9.279
35172SOL    HW1 5540   7.279   6.260   9.243
35172SOL    HW2 5541   7.303   6.103   9.206
35173SOL     OW 5542   6.948   6.730   7.993
35173SOL    HW1 5543   7.031   6.701   7.945
35173SOL    HW2 5544   6.899   6.797   7.937
35174SOL     OW 5545   6.136   5.782   8.333
35174SOL    HW1 5546   6.131   5.777   8.433
35174SOL    HW2 5547   6.138   5.878   8.304
35175SOL     OW 5548   6.594   7.042   7.925
35175SOL    HW1 5549   6.548   7.114   7.873
35175SOL    HW2 5550   6.590   7.062   8.023
35176SOL     OW 5551   5.937   7.387   8.301
35176SOL    HW1 5552   5.987   7.301   8.307
35176SOL    HW2 5553   6.002   7.464   8.298
35177SOL     OW 5554   7.381   6.652   8.321
35177SOL    HW1 5555   7.319   6.637   8.245
35177SOL    HW2 5556   7.329   6.663   8.406
35178SOL     OW 5557   6.813   7.136   8.954
35178SOL    HW1 5558   6.819   7.059   9.018
35178SOL    HW2 5559   6.761   7.110   8.874
35179SOL     OW 5560   5.907   6.529   7.690
35179SOL    HW1 5561   5.989   6.568   7.648
35179SOL    HW2 5562   5.880   6.447   7.641
35180SOL     OW 5563   7.044   6.321   8.176
35180SOL    HW1 5564   7.039   6.256   8.251
35180SOL    HW2 5565   7.124   6.380   8.189
35181SOL     OW 5566   6.047   6.852   9.175
35181SOL    HW1 5567   5.997   6.853   9.089
35181SOL    HW2 5568   5.984   6.834   9.251
35182SOL     OW 5569   6.697   7.362   7.685
35182SOL    HW1 5570   6.637   7.300   7.735
35182SOL    HW2 5571   6.728   7.318   7.600
35183SOL     OW 5572   5.788   5.871   8.946
35183SOL    HW1 5573   5.708   5.931   8.933
35183SOL    HW2 5574   5.778   5.822   9.032
35184SOL     OW 5575   7.218   6.963   7.529
35184SOL    HW1 5576   7.186   7.057   7.519
35184SOL    HW2 5577   7.142   6.900   7.517
35185SOL     OW 5578   6.050   7.329   7.771
35185SOL    HW1 5579   6.083   7.368   7.857
35185SOL    HW2 5580   6.126   7.322   7.706
35186SOL     OW 5581   6.986   5.693   7.874
35186SOL    HW1 5582   6.962   5.656   7.784
35186SOL    HW2 5583   7.085   5.709   7.878
35187SOL     OW 5584   5.835   7.371   8.689
35187SOL    HW1 5585   5.892   7.306   8.739
35187SOL    HW2 5586   5.819   7.338   8.596
35188SOL     OW 5587   6.526   7.284   8.352
35188SOL    HW1 5588   6.606   7.227   8.373
35188SOL    HW2 5589   6.477   7.244   8.275
35189SOL     OW 5590   5.968   6.286   7.928
35189SOL    HW1 5591   6.013   6.196   7.925
35189SOL    HW2 5592   5.874   6.275   7.961
35190SOL     OW 5593   7.133   5.808   9.177
35190SOL    HW1 5594   7.128   5.845   9.269
35190SOL    HW2 5595   7.061   5.739   9.165
35191SOL     OW 5596   6.200   5.708   7.565
35191SOL    HW1 5597   6.298   5.686   7.572
35191SOL    HW2 5598   6.169   5.691   7.472
35192SOL     OW 5599   6.367   5.850   9.197
35192SOL    HW1 5600   6.434   5.789   9.240
35192SOL    HW2 5601   6.294   5.869   9.262
35193SOL     OW 5602   6.474   7.100   8.643
35193SOL    HW1 5603   6.451   7.075   8.549
35193SOL    HW2 5604   6.535   7.031   8.682
35194SOL     OW 5605   6.937   6.176   8.881
35194SOL    HW1 5606   6.965   6.133   8.966
35194SOL    HW2 5607   6.962   6.272   8.882
35195SOL     OW 5608   6.389   6.988   8.372
35195SOL    HW1 5609   6.479   7.002   8.330
35195SOL    HW2 5610   6.318   6.990   8.301
35196SOL     OW 5611   6.508   6.089   8.347
35196SOL    HW1 5612   6.483   6.080   8.251
35196SOL    HW2 5613   6.556   6.007   8.378
35197SOL     OW 5614   6.125   5.650   7.960
35197SOL    HW1 5615   6.044   5.651   8.018
35197SOL    HW2 5616   6.128   5.733   7.905
35198SOL     OW 5617   7.020   6.774   7.489
35198SOL    HW1 5618   7.052   6.698   7.546
35198SOL    HW2 5619   6.928   6.801   7.519
35199SOL     OW 5620   5.883   5.621   7.619
35199SOL    HW1 5621   5.932   5.705   7.598
35199SOL    HW2 5622   5.945   5.556   7.664
35200SOL     OW 5623   6.521   5.822   7.928
35200SOL    HW1 5624   6.473   5.863   7.850
35200SOL    HW2 5625   6.620   5.820   7.909
35201SOL     OW 5626   6.662   6.269   8.912
35201SOL    HW1 5627   6.582   6.208   8.915
35201SOL    HW2 5628   6.743   6.216   8.888
35202SOL     OW 5629   6.813   7.156   8.241
35202SOL    HW1 5630   6.834   7.230   8.176
35202SOL    HW2 5631   6.881   7.156   8.314
35203SOL     OW 5632   6.045   6.738   8.189
35203SOL    HW1 5633   5.974   6.711   8.254
35203SOL    HW2 5634   6.019   6.710   8.096
35204SOL     OW 5635   6.857   7.383   8.039
35204SOL    HW1 5636   6.901   7.447   7.975
35204SOL    HW2 5637   6.807   7.435   8.109
35205SOL     OW 5638   6.618   6.135   7.464
35205SOL    HW1 5639   6.577   6.217   7.425
35205SOL    HW2 5640   6.682   6.161   7.537
35206SOL     OW 5641   5.664   6.142   8.834
35206SOL    HW1 5642   5.756   6.141   8.793
35206SOL    HW2 5643   5.658   6.216   8.901
35207SOL     OW 5644   6.147   5.808   8.595
35207SOL    HW1 5645   6.185   5.724   8.632
35207SOL    HW2 5646   6.059   5.827   8.639
35208SOL     OW 5647   6.452   6.040   8.090
35208SOL    HW1 5648   6.420   6.112   8.028
35208SOL    HW2 5649   6.476   5.959   8.037
35209SOL     OW 5650   6.603   5.625   8.201
35209SOL    HW1 5651   6.531   5.630   8.132
35209SOL    HW2 5652   6.579   5.556   8.270
35210SOL     OW 5653   7.015   6.759   8.315
35210SOL    HW1 5654   6.960   6.675   8.308
35210SOL    HW2 5655   7.041   6.788   8.223
35211SOL     OW 5656   7.052   6.176   8.440
35211SOL    HW1 5657   7.022   6.081   8.447
35211SOL    HW2 5658   7.125   6.192   8.506
35212SOL     OW 5659   7.443   6.419   7.825
35212SOL    HW1 5660   7.485   6.355   7.889
35212SOL    HW2 5661   7.405   6.368   7.747
35213SOL     OW 5662   6.074   6.971   7.622
35213SOL    HW1 5663   5.987   6.956   7.669
35213SOL    HW2 5664   6.057   6.997   7.527
35214SOL     OW 5665   7.250   6.866   8.105
35214SOL    HW1 5666   7.349   6.874   8.119
35214SOL    HW2 5667   7.205   6.950   8.136
35215SOL     OW 5668   6.976   6.161   7.526
35215SOL    HW1 5669   6.922   6.140   7.607
35215SOL    HW2 5670   7.067   6.120   7.535
35216SOL     OW 5671   6.113   5.842   7.776
35216SOL    HW1 5672   6.140   5.783   7.701
35216SOL    HW2 5673   6.113   5.937   7.745
35217SOL     OW 5674   7.340   6.809   9.036
35217SOL    HW1 5675   7.431   6.770   9.023
35217SOL    HW2 5676   7.348   6.905   9.060
35218SOL     OW 5677   6.650   6.933   8.788
35218SOL    HW1 5678   6.570   6.910   8.843
35218SOL    HW2 5679   6.733   6.907   8.837
35219SOL     OW 5680   7.178   7.215   9.073
35219SOL    HW1 5681   7.205   7.249   8.983
35219SOL    HW2 5682   7.257   7.177   9.119
35220SOL     OW 5683   6.697   6.781   8.548
35220SOL    HW1 5684   6.657   6.825   8.629
35220SOL    HW2 5685   6.656   6.818   8.465
35221SOL     OW 5686   7.224   6.685   8.527
35221SOL    HW1 5687   7.229   6.766   8.586
35221SOL    HW2 5688   7.138   6.687   8.476
35222SOL     OW 5689   6.501   5.675   8.850
35222SOL    HW1 5690   6.526   5.655   8.755
35222SOL    HW2 5691   6.573   5.731   8.892
35223SOL     OW 5692   6.566   6.702   9.167
35223SOL    HW1 5693   6.467   6.708   9.177
35223SOL    HW2 5694   6.589   6.622   9.111
35224SOL     OW 5695   6.291   6.636   7.816
35224SOL    HW1 5696   6.277   6.643   7.915
35224SOL    HW2 5697   6.375   6.585   7.798
35225SOL     OW 5698   5.996   6.399   8.699
35225SOL    HW1 5699   6.082   6.411   8.749
35225SOL    HW2 5700   5.954   6.312   8.726
35226SOL     OW 5701   6.860   5.972   8.710
35226SOL    HW1 5702   6.881   6.046   8.774
35226SOL    HW2 5703   6.771   5.989   8.667
35227SOL     OW 5704   5.650   7.150   8.779
35227SOL    HW1 5705   5.604   7.232   8.745
35227SOL    HW2 5706   5.748   7.169   8.788
35228SOL     OW 5707   5.953   6.686   7.949
35228SOL    HW1 5708   5.946   6.769   7.893
35228SOL    HW2 5709   5.957   6.606   7.889
35229SOL     OW 5710   6.152   6.123   8.313
35229SOL    HW1 5711   6.164   6.189   8.239
35229SOL    HW2 5712   6.198   6.157   8.396
35230SOL     OW 5713   6.838   6.934   7.836
35230SOL    HW1 5714   6.888   7.011   7.876
35230SOL    HW2 5715   6.743   6.936   7.868
35231SOL     OW 5716   6.858   7.031   8.590
35231SOL    HW1 5717   6.905   7.044   8.677
35231SOL    HW2 5718   6.792   6.957   8.599
35232SOL     OW 5719   7.168   6.225   7.920
35232SOL    HW1 5720   7.137   6.286   7.993
35232SOL    HW2 5721   7.218   6.277   7.851
35233SOL     OW 5722   5.940   7.096   8.777
35233SOL    HW1 5723   5.919   7.052   8.690
35233SOL    HW2 5724   6.037   7.122   8.780
35234SOL     OW 5725   5.988   6.337   9.046
35234SOL    HW1 5726   6.056   6.392   8.999
35234SOL    HW2 5727   6.028   6.249   9.073
35235SOL     OW 5728   7.173   6.365   9.118
35235SOL    HW1 5729   7.081   6.403   9.113
35235SOL    HW2 5730   7.233   6.412   9.053
35236SOL     OW 5731   6.599   5.691   9.218
35236SOL    HW1 5732   6.605   5.776   9.166
35236SOL    HW2 5733   6.631   5.615   9.161
35237SOL     OW 5734   6.090   5.636   9.188
35237SOL    HW1 5735   6.048   5.579   9.118
35237SOL    HW2 5736   6.024   5.705   9.220
35238SOL     OW 5737   6.159   6.456   8.477
35238SOL    HW1 5738   6.203   6.545   8.468
35238SOL    HW2 5739   6.096   6.456   8.554
35239SOL     OW 5740   6.946   6.448   8.493
35239SOL    HW1 5741   6.871   6.448   8.427
35239SOL    HW2 5742   6.983   6.356   8.502
35240SOL     OW 5743   6.795   6.111   7.723
35240SOL    HW1 5744   6.808   6.027   7.777
35240SOL    HW2 5745   6.766   6.185   7.783
35241SOL     OW 5746   5.893   5.799   8.679
35241SOL    HW1 5747   5.870   5.836   8.769
35241SOL    HW2 5748   5.863   5.704   8.673
35242SOL     OW 5749   5.623   6.896   8.730
35242SOL    HW1 5750   5.676   6.847   8.798
35242SOL    HW2 5751   5.645   6.994   8.735
35243SOL     OW 5752   6.318   6.220   8.512
35243SOL    HW1 5753   6.377   6.194   8.436
35243SOL    HW2 5754   6.290   6.316   8.501
35244SOL     OW 5755   7.314   6.521   9.302
35244SOL    HW1 5756   7.268   6.514   9.213
35244SOL    HW2 5757   7.252   6.565   9.368
35245SOL     OW 5758   5.893   5.649   8.066
35245SOL    HW1 5759   5.882   5.743   8.099
35245SOL    HW2 5760   5.888   5.586   8.143
35246SOL     OW 5761   7.208   5.953   7.822
35246SOL    HW1 5762   7.210   5.877   7.886
35246SOL    HW2 5763   7.160   6.030   7.862
35247SOL     OW 5764   6.609   6.352   8.414
35247SOL    HW1 5765   6.624   6.373   8.510
35247SOL    HW2 5766   6.579   6.257   8.405
35248SOL     OW 5767   6.566   7.159   9.148
35248SOL    HW1 5768   6.546   7.203   9.060
35248SOL    HW2 5769   6.605   7.068   9.132
35249SOL     OW 5770   7.445   7.104   9.053
35249SOL    HW1 5771   7.459   7.131   8.958
35249SOL    HW2 5772   7.528   7.126   9.106
35250SOL     OW 5773   5.936   6.484   9.252
35250SOL    HW1 5774   6.012   6.528   9.300
35250SOL    HW2 5775   5.971   6.437   9.170
35251SOL     OW 5776   7.126   5.860   7.573
35251SOL    HW1 5777   7.065   5.785   7.596
35251SOL    HW2 5778   7.148   5.912   7.656
35252SOL     OW 5779   6.889   6.424   7.490
35252SOL    HW1 5780   6.923   6.331   7.505
35252SOL    HW2 5781   6.907   6.451   7.395
35253SOL     OW 5782   6.654   6.919   8.297
35253SOL    HW1 5783   6.661   6.835   8.242
35253SOL    HW2 5784   6.716   6.988   8.261
35254SOL     OW 5785   5.905   6.396   8.397
35254SOL    HW1 5786   5.998   6.432   8.402
35254SOL    HW2 5787   5.899   6.311   8.449
35255SOL     OW 5788   5.925   6.095   8.454
35255SOL    HW1 5789   5.873   6.012   8.437
35255SOL    HW2 5790   6.002   6.100   8.390
35256SOL     OW 5791   6.724   5.966   9.126
35256SOL    HW1 5792   6.679   6.029   9.190
35256SOL    HW2 5793   6.817   5.997   9.109
35257SOL     OW 5794   6.746   5.793   8.925
35257SOL    HW1 5795   6.746   5.857   9.002
35257SOL    HW2 5796   6.774   5.841   8.842
35258SOL     OW 5797   5.594   6.912   7.648
35258SOL    HW1 5798   5.501   6.933   7.617
35258SOL    HW2 5799   5.604   6.813   7.661
35259SOL     OW 5800   5.674   7.387   8.375
35259SOL    HW1 5801   5.632   7.301   8.348
35259SOL    HW2 5802   5.768   7.390   8.341
35260SOL     OW 5803   6.090   7.154   8.358
35260SOL    HW1 5804   6.156   7.228   8.367
35260SOL    HW2 5805   6.134   7.075   8.316
35261SOL     OW 5806   6.588   6.382   8.686
35261SOL    HW1 5807   6.629   6.350   8.772
35261SOL    HW2 5808   6.492   6.355   8.683
35262SOL     OW 5809   5.626   6.130   8.562
35262SOL    HW1 5810   5.711   6.097   8.521
35262SOL    HW2 5811   5.639   6.145   8.660
35263SOL     OW 5812   5.775   6.106   9.170
35263SOL    HW1 5813   5.834   6.066   9.100
35263SOL    HW2 5814   5.717   6.177   9.129
35264SOL     OW 5815   6.955   6.536   9.108
35264SOL    HW1 5816   6.994   6.625   9.128
35264SOL    HW2 5817   6.965   6.516   9.011
35265SOL     OW 5818   6.401   6.158   7.773
35265SOL    HW1 5819   6.408   6.069   7.727
35265SOL    HW2 5820   6.307   6.192   7.765
35266SOL     OW 5821   7.243   6.190   8.654
35266SOL    HW1 5822   7.205   6.121   8.716
35266SOL    HW2 5823   7.325   6.154   8.610
35267SOL     OW 5824   5.838   7.150   9.192
35267SOL    HW1 5825   5.808   7.207   9.268
35267SOL    HW2 5826   5.831   7.053   9.218
35268SOL     OW 5827   6.257   6.050   8.717
35268SOL    HW1 5828   6.223   5.961   8.687
35268SOL    HW2 5829   6.283   6.104   8.637
35269SOL     OW 5830   6.516   7.264   8.913
35269SOL    HW1 5831   6.492   7.246   8.818
35269SOL    HW2 5832   6.546   7.358   8.923
35270SOL     OW 5833   6.059   6.086   7.639
35270SOL    HW1 5834   6.120   6.166   7.643
35270SOL    HW2 5835   5.964   6.117   7.646
35271SOL     OW 5836   5.745   6.723   8.914
35271SOL    HW1 5837   5.767   6.662   8.990
35271SOL    HW2 5838   5.755   6.674   8.828
35272SOL     OW 5839   6.933   6.645   8.682
35272SOL    HW1 5840   6.957   6.582   8.608
35272SOL    HW2 5841   6.843   6.685   8.664
35273SOL     OW 5842   6.888   6.441   7.757
35273SOL    HW1 5843   6.802   6.410   7.799
35273SOL    HW2 5844   6.884   6.427   7.658
35274SOL     OW 5845   7.345   7.333   8.602
35274SOL    HW1 5846   7.406   7.363   8.529
35274SOL    HW2 5847   7.307   7.244   8.580
35275SOL     OW 5848   6.838   7.317   8.576
35275SOL    HW1 5849   6.922   7.322   8.522
35275SOL    HW2 5850   6.815   7.221   8.594
35276SOL     OW 5851   5.669   6.844   8.470
35276SOL    HW1 5852   5.664   6.843   8.570
35276SOL    HW2 5853   5.586   6.803   8.432
35277SOL     OW 5854   6.274   7.248   9.164
35277SOL    HW1 5855   6.218   7.329   9.173
35277SOL    HW2 5856   6.326   7.252   9.078
35278SOL     OW 5857   7.312   5.721   7.971
35278SOL    HW1 5858   7.385   5.704   7.904
35278SOL    HW2 5859   7.281   5.634   8.009
35279SOL     OW 5860   6.974   7.159   7.925
35279SOL    HW1 5861   7.041   7.171   7.851
35279SOL    HW2 5862   6.934   7.248   7.948
35280SOL     OW 5863   5.716   7.380   9.299
35280SOL    HW1 5864   5.675   7.306   9.352
35280SOL    HW2 5865   5.780   7.431   9.357
35281SOL     OW 5866   6.866   6.513   8.120
35281SOL    HW1 5867   6.926   6.432   8.122
35281SOL    HW2 5868   6.906   6.582   8.060
35282SOL     OW 5869   6.416   6.859   8.870
35282SOL    HW1 5870   6.411   6.892   8.965
35282SOL    HW2 5871   6.330   6.878   8.824
35283SOL     OW 5872   6.258   7.202   7.602
35283SOL    HW1 5873   6.267   7.212   7.503
35283SOL    HW2 5874   6.218   7.113   7.623
35284SOL     OW 5875   7.236   7.306   8.842
35284SOL    HW1 5876   7.289   7.316   8.758
35284SOL    HW2 5877   7.209   7.396   8.876
35285SOL     OW 5878   7.427   5.761   8.411
35285SOL    HW1 5879   7.466   5.676   8.375
35285SOL    HW2 5880   7.329   5.763   8.392
35286SOL     OW 5881   5.849   5.912   8.168
35286SOL    HW1 5882   5.770   5.963   8.134
35286SOL    HW2 5883   5.840   5.897   8.266
35287SOL     OW 5884   6.780   7.198   7.479
35287SOL    HW1 5885   6.786   7.105   7.516
35287SOL    HW2 5886   6.721   7.198   7.399
35288SOL     OW 5887   6.408   6.588   8.820
35288SOL    HW1 5888   6.448   6.587   8.728
35288SOL    HW2 5889   6.418   6.680   8.860
35289SOL     OW 5890   6.502   6.496   7.739
35289SOL    HW1 5891   6.565   6.534   7.671
35289SOL    HW2 5892   6.542   6.413   7.778
35290SOL     OW 5893   7.090   7.193   7.492
35290SOL    HW1 5894   6.998   7.230   7.499
35290SOL    HW2 5895   7.128   7.213   7.402
35291SOL     OW 5896   5.958   6.874   8.938
35291SOL    HW1 5897   5.945   6.967   8.904
35291SOL    HW2 5898   5.874   6.822   8.925
35292SOL     OW 5899   7.200   6.878   8.737
35292SOL    HW1 5900   7.260   6.881   8.817
35292SOL    HW2 5901   7.125   6.942   8.750
35293SOL     OW 5902   6.625   6.684   8.144
35293SOL    HW1 5903   6.555   6.637   8.198
35293SOL    HW2 5904   6.684   6.616   8.101
35294SOL     OW 5905   6.600   5.822   8.419
35294SOL    HW1 5906   6.592   5.786   8.326
35294SOL    HW2 5907   6.598   5.746   8.484
35295SOL     OW 5908   6.176   7.073   7.939
35295SOL    HW1 5909   6.218   7.015   7.869
35295SOL    HW2 5910   6.132   7.152   7.895
35296SOL     OW 5911   7.295   5.971   8.829
35296SOL    HW1 5912   7.368   6.040   8.833
35296SOL    HW2 5913   7.323   5.896   8.770
35297SOL     OW 5914   5.841   6.934   7.738
35297SOL    HW1 5915   5.745   6.935   7.711
35297SOL    HW2 5916   5.853   6.987   7.822
35298SOL     OW 5917   5.691   6.599   9.174
35298SOL    HW1 5918   5.614   6.566   9.228
35298SOL    HW2 5919   5.776   6.569   9.216
35299SOL     OW 5920   6.258   5.789   8.937
35299SOL    HW1 5921   6.348   5.773   8.897
35299SOL    HW2 5922   6.266   5.794   9.036
35300SOL     OW 5923   5.661   5.931   7.481
35300SOL    HW1 5924   5.569   5.903   7.452
35300SOL    HW2 5925   5.692   6.008   7.425
35301SOL     OW 5926   7.026   6.442   8.846
35301SOL    HW1 5927   6.969   6.494   8.783
35301SOL    HW2 5928   7.122   6.454   8.822
35302SOL     OW 5929   5.658   5.752   7.766
35302SOL    HW1 5930   5.641   5.835   7.712
35302SOL    HW2 5931   5.748   5.715   7.744
35303SOL     OW 5932   6.769   6.921   7.567
35303SOL    HW1 5933   6.670   6.910   7.569
35303SOL    HW2 5934   6.803   6.936   7.660
35304SOL     OW 5935   6.199   6.428   8.879
35304SOL    HW1 5936   6.255   6.509   8.862
35304SOL    HW2 5937   6.258   6.348   8.882
35305SOL     OW 5938   7.079   7.353   8.407
35305SOL    HW1 5939   7.112   7.417   8.338
35305SOL    HW2 5940   7.145   7.347   8.482
35306SOL     OW 5941   6.302   6.151   9.156
35306SOL    HW1 5942   6.321   6.216   9.230
35306SOL    HW2 5943   6.362   6.071   9.165
35307SOL     OW 5944   7.036   6.806   9.081
35307SOL    HW1 5945   7.027   6.796   9.180
35307SOL    HW2 5946   7.132   6.799   9.055
35308SOL     OW 5947   5.976   7.327   9.008
35308SOL    HW1 5948   5.885   7.368   9.006
35308SOL    HW2 5949   5.969   7.233   9.040
35309SOL     OW 5950   7.260   6.469   8.702
35309SOL    HW1 5951   7.233   6.380   8.665
35309SOL    HW2 5952   7.261   6.537   8.629
35310SOL     OW 5953   6.811   5.911   7.897
35310SOL    HW1 5954   6.876   5.837   7.886
35310SOL    HW2 5955   6.831   5.961   7.981
35311SOL     OW 5956   6.180   6.331   8.100
35311SOL    HW1 5957   6.230   6.416   8.081
35311SOL    HW2 5958   6.092   6.333   8.052
35312SOL     OW 5959   7.363   5.928   9.090
35312SOL    HW1 5960   7.346   5.959   8.996
35312SOL    HW2 5961   7.279   5.891   9.128
35313SOL     OW 5962   7.316   6.520   8.965
35313SOL    HW1 5963   7.354   6.611   8.980
35313SOL    HW2 5964   7.308   6.503   8.866
35314SOL     OW 5965   6.445   6.960   7.464
35314SOL    HW1 5966   6.399   6.975   7.552
35314SOL    HW2 5967   6.489   7.045   7.434
35315SOL     OW 5968   6.247   7.376   8.401
35315SOL    HW1 5969   6.201   7.464   8.388
35315SOL    HW2 5970   6.346   7.388   8.394
35316SOL     OW 5971   6.445   6.542   8.309
35316SOL    HW1 5972   6.499   6.473   8.357
35316SOL    HW2 5973   6.413   6.611   8.375
35317SOL     OW 5974   6.669   6.570   7.535
35317SOL    HW1 5975   6.646   6.623   7.453
35317SOL    HW2 5976   6.750   6.514   7.516
35318SOL     OW 5977   7.447   7.155   8.299
35318SOL    HW1 5978   7.376   7.143   8.229
35318SOL    HW2 5979   7.448   7.076   8.359
35319SOL     OW 5980   5.807   6.900   9.292
35319SOL    HW1 5981   5.742   6.827   9.271
35319SOL    HW2 5982   5.811   6.914   9.390
35320SOL     OW 5983   5.665   6.826   8.101
35320SOL    HW1 5984   5.664   6.779   8.189
35320SOL    HW2 5985   5.747   6.798   8.050
35321SOL     OW 5986   6.258   6.977   9.072
35321SOL    HW1 5987   6.180   6.927   9.110
35321SOL    HW2 5988   6.255   7.072   9.103
35322SOL     OW 5989   7.410   5.778   8.675
35322SOL    HW1 5990   7.406   5.688   8.719
35322SOL    HW2 5991   7.413   5.767   8.576
35323SOL     OW 5992   6.014   6.010   7.968
35323SOL    HW1 5993   6.044   5.938   7.906
35323SOL    HW2 5994   5.975   5.970   8.051
35324SOL     OW 5995   7.291   7.073   8.552
35324SOL    HW1 5996   7.198   7.048   8.525
35324SOL    HW2 5997   7.317   7.023   8.634
35325SOL     OW 5998   5.903   6.133   8.728
35325SOL    HW1 5999   5.941   6.074   8.800
35325SOL    HW2 6000   5.943   6.107   8.640
35326SOL     OW 6001   6.398   7.172   8.135
35326SOL    HW1 6002   6.430   7.182   8.041
35326SOL    HW2 6003   6.319   7.110   8.137
35327SOL     OW 6004   7.010   5.800   8.560
35327SOL    HW1 6005   7.062   5.735   8.615
35327SOL    HW2 6006   6.961   5.863   8.621
35328SOL     OW 6007   6.587   5.620   8.602
35328SOL    HW1 6008   6.524   5.548   8.571
35328SOL    HW2 6009   6.680   5.584   8.602
35329SOL     OW 6010   6.356   6.916   7.749
35329SOL    HW1 6011   6.310   6.829   7.766
35329SOL    HW2 6012   6.447   6.913   7.790
35330SOL     OW 6013   6.204   7.153   8.732
35330SOL    HW1 6014   6.199   7.235   8.789
35330SOL    HW2 6015   6.293   7.150   8.687
35331SOL     OW 6016   6.938   5.638   7.616
35331SOL    HW1 6017   6.973   5.597   7.532
35331SOL    HW2 6018   6.848   5.600   7.636
35332SOL     OW 6019   6.886   6.039   8.139
35332SOL    HW1 6020   6.827   6.119   8.143
35332SOL    HW2 6021   6.901   6.004   8.232
35333SOL     OW 6022   7.179   5.807   8.330
35333SOL    HW1 6023   7.095   5.806   8.384
35333SOL    HW2 6024   7.181   5.890   8.274
35334SOL     OW 6025   5.625   6.663   7.748
35334SOL    HW1 6026   5.724   6.652   7.739
35334SOL    HW2 6027   5.585   6.577   7.780
35335SOL     OW 6028   6.461   7.232   7.785
35335SOL    HW1 6029   6.384   7.197   7.731
35335SOL    HW2 6030   6.429   7.303   7.847
35336SOL     OW 6031   5.816   6.214   9.423
35336SOL    HW1 6032   5.723   6.212   9.460
35336SOL    HW2 6033   5.817   6.175   9.331
35337SOL     OW 6034   5.811   5.861  10.306
35337SOL    HW1 6035   5.846   5.844  10.398
35337SOL    HW2 6036   5.723   5.816  10.294
35338SOL     OW 6037   5.605   5.954   9.957
35338SOL    HW1 6038   5.523   5.997   9.996
35338SOL    HW2 6039   5.577   5.881   9.894
35339SOL     OW 6040   6.155   6.861  10.475
35339SOL    HW1 6041   6.062   6.854  10.438
35339SOL    HW2 6042   6.166   6.950  10.519
35340SOL     OW 6043   7.141   7.097  10.013
35340SOL    HW1 6044   7.084   7.081  10.094
35340SOL    HW2 6045   7.082   7.107   9.933
35341SOL     OW 6046   6.721   6.289  10.027
35341SOL    HW1 6047   6.778   6.367  10.002
35341SOL    HW2 6048   6.661   6.315  10.103
35342SOL     OW 6049   7.341   6.193   9.541
35342SOL    HW1 6050   7.329   6.180   9.442
35342SOL    HW2 6051   7.311   6.112   9.590
35343SOL     OW 6052   6.354   6.730  10.333
35343SOL    HW1 6053   6.276   6.747  10.393
35343SOL    HW2 6054   6.388   6.817  10.297
35344SOL     OW 6055   6.436   6.384  11.133
35344SOL    HW1 6056   6.432   6.460  11.198
35344SOL    HW2 6057   6.458   6.420  11.042
35345SOL     OW 6058   6.271   6.598   9.975
35345SOL    HW1 6059   6.340   6.582  10.045
35345SOL    HW2 6060   6.198   6.655  10.013
35346SOL     OW 6061   6.272   6.747  11.113
35346SOL    HW1 6062   6.332   6.826  11.127
35346SOL    HW2 6063   6.186   6.778  11.072
35347SOL     OW 6064   5.921   7.021  10.371
35347SOL    HW1 6065   5.843   6.990  10.318
35347SOL    HW2 6066   5.979   7.079  10.314
35348SOL     OW 6067   7.046   7.091  10.649
35348SOL    HW1 6068   7.070   7.185  10.675
35348SOL    HW2 6069   7.030   7.037  10.731
35349SOL     OW 6070   6.024   5.978  10.809
35349SOL    HW1 6071   6.106   5.922  10.818
35349SOL    HW2 6072   5.943   5.920  10.813
35350SOL     OW 6073   7.189   6.033  10.047
35350SOL    HW1 6074   7.115   6.079   9.997
35350SOL    HW2 6075   7.240   6.101  10.100
35351SOL     OW 6076   5.817   7.299   9.793
35351SOL    HW1 6077   5.851   7.376   9.847
35351SOL    HW2 6078   5.861   7.299   9.703
35352SOL     OW 6079   6.713   6.927  11.000
35352SOL    HW1 6080   6.760   6.927  11.088
35352SOL    HW2 6081   6.665   6.840  10.989
35353SOL     OW 6082   5.816   7.020   9.848
35353SOL    HW1 6083   5.790   7.116   9.848
35353SOL    HW2 6084   5.745   6.966   9.893
35354SOL     OW 6085   5.826   6.677  10.196
35354SOL    HW1 6086   5.840   6.593  10.248
35354SOL    HW2 6087   5.771   6.741  10.251
35355SOL     OW 6088   6.206   7.372  10.749
35355SOL    HW1 6089   6.114   7.355  10.784
35355SOL    HW2 6090   6.234   7.464  10.775
35356SOL     OW 6091   6.192   6.550   9.433
35356SOL    HW1 6092   6.199   6.634   9.379
35356SOL    HW2 6093   6.238   6.563   9.521
35357SOL     OW 6094   7.180   5.700  10.790
35357SOL    HW1 6095   7.162   5.767  10.718
35357SOL    HW2 6096   7.177   5.746  10.879
35358SOL     OW 6097   5.708   6.229   9.873
35358SOL    HW1 6098   5.663   6.141   9.890
35358SOL    HW2 6099   5.707   6.283   9.957
35359SOL     OW 6100   7.428   7.353   9.669
35359SOL    HW1 6101   7.482   7.324   9.749
35359SOL    HW2 6102   7.458   7.443   9.640
35360SOL     OW 6103   5.613   7.182   9.427
35360SOL    HW1 6104   5.594   7.086   9.448
35360SOL    HW2 6105   5.580   7.240   9.502
35361SOL     OW 6106   7.227   6.694   9.742
35361SOL    HW1 6107   7.313   6.696   9.690
35361SOL    HW2 6108   7.241   6.741   9.830
35362SOL     OW 6109   5.699   6.323  10.907
35362SOL    HW1 6110   5.787   6.310  10.952
35362SOL    HW2 6111   5.686   6.420  10.885
35363SOL     OW 6112   6.199   6.951  10.036
35363SOL    HW1 6113   6.150   6.864  10.045
35363SOL    HW2 6114   6.176   6.994   9.949
35364SOL     OW 6115   6.879   6.814  10.733
35364SOL    HW1 6116   6.916   6.741  10.675
35364SOL    HW2 6117   6.931   6.819  10.818
35365SOL     OW 6118   6.395   5.590   9.812
35365SOL    HW1 6119   6.435   5.681   9.803
35365SOL    HW2 6120   6.295   5.598   9.818
35366SOL     OW 6121   5.783   6.562  10.574
35366SOL    HW1 6122   5.872   6.517  10.560
35366SOL    HW2 6123   5.710   6.497  10.555
35367SOL     OW 6124   7.111   6.585   9.500
35367SOL    HW1 6125   7.048   6.509   9.513
35367SOL    HW2 6126   7.159   6.603   9.586
35368SOL     OW 6127   6.773   7.378  10.926
35368SOL    HW1 6128   6.797   7.438  10.850
35368SOL    HW2 6129   6.780   7.283  10.896
35369SOL     OW 6130   5.903   5.837  11.111
35369SOL    HW1 6131   5.974   5.908  11.117
35369SOL    HW2 6132   5.815   5.876  11.139
35370SOL     OW 6133   7.052   7.003  10.263
35370SOL    HW1 6134   6.993   7.009  10.343
35370SOL    HW2 6135   7.037   6.915  10.217
35371SOL     OW 6136   7.253   7.300   9.882
35371SOL    HW1 6137   7.212   7.277   9.794
35371SOL    HW2 6138   7.235   7.226   9.947
35372SOL     OW 6139   6.184   6.315   9.580
35372SOL    HW1 6140   6.208   6.384   9.512
35372SOL    HW2 6141   6.106   6.348   9.634
35373SOL     OW 6142   6.867   5.931  10.254
35373SOL    HW1 6143   6.781   5.881  10.241
35373SOL    HW2 6144   6.929   5.877  10.310
35374SOL     OW 6145   7.162   7.248   9.617
35374SOL    HW1 6146   7.251   7.294   9.620
35374SOL    HW2 6147   7.141   7.224   9.522
35375SOL     OW 6148   6.393   6.191  10.775
35375SOL    HW1 6149   6.346   6.188  10.864
35375SOL    HW2 6150   6.342   6.136  10.709
35376SOL     OW 6151   6.980   6.055  10.984
35376SOL    HW1 6152   6.960   6.098  11.072
35376SOL    HW2 6153   7.058   5.993  10.993
35377SOL     OW 6154   6.559   6.476  10.882
35377SOL    HW1 6155   6.605   6.392  10.853
35377SOL    HW2 6156   6.503   6.510  10.807
35378SOL     OW 6157   6.577   5.996  10.552
35378SOL    HW1 6158   6.500   6.030  10.606
35378SOL    HW2 6159   6.543   5.945  10.473
35379SOL     OW 6160   6.627   6.287   9.739
35379SOL    HW1 6161   6.653   6.283   9.835
35379SOL    HW2 6162   6.542   6.236   9.725
35380SOL     OW 6163   5.662   6.397  10.099
35380SOL    HW1 6164   5.761   6.385  10.108
35380SOL    HW2 6165   5.638   6.492  10.120
35381SOL     OW 6166   5.716   7.407  10.881
35381SOL    HW1 6167   5.706   7.392  10.980
35381SOL    HW2 6168   5.630   7.443  10.845
35382SOL     OW 6169   6.451   5.934   9.505
35382SOL    HW1 6170   6.510   5.997   9.456
35382SOL    HW2 6171   6.470   5.840   9.476
35383SOL     OW 6172   7.305   6.171  11.141
35383SOL    HW1 6173   7.279   6.260  11.105
35383SOL    HW2 6174   7.303   6.103  11.068
35384SOL     OW 6175   6.948   6.730   9.855
35384SOL    HW1 6176   7.031   6.701   9.807
35384SOL    HW2 6177   6.899   6.797   9.799
35385SOL     OW 6178   6.136   5.782  10.195
35385SOL    HW1 6179   6.131   5.777  10.295
35385SOL    HW2 6180   6.138   5.878  10.166
35386SOL     OW 6181   6.594   7.042   9.787
35386SOL    HW1 6182   6.548   7.114   9.735
35386SOL    HW2 6183   6.590   7.062   9.885
35387SOL     OW 6184   5.937   7.387  10.163
35387SOL    HW1 6185   5.987   7.301  10.169
35387SOL    HW2 6186   6.002   7.464  10.160
35388SOL     OW 6187   7.381   6.652  10.183
35388SOL    HW1 6188   7.319   6.637  10.107
35388SOL    HW2 6189   7.329   6.663  10.268
35389SOL     OW 6190   6.813   7.136  10.816
35389SOL    HW1 6191   6.819   7.059  10.880
35389SOL    HW2 6192   6.761   7.110  10.736
35390SOL     OW 6193   5.907   6.529   9.552
35390SOL    HW1 6194   5.989   6.568   9.510
35390SOL    HW2 6195   5.880   6.447   9.503
35391SOL     OW 6196   7.044   6.321  10.038
35391SOL    HW1 6197   7.039   6.256  10.113
35391SOL    HW2 6198   7.124   6.380  10.051
35392SOL     OW 6199   6.047   6.852  11.037
35392SOL    HW1 6200   5.997   6.853  10.951
35392SOL    HW2 6201   5.984   6.834  11.113
35393SOL     OW 6202   6.697   7.362   9.547
35393SOL    HW1 6203   6.637   7.300   9.597
35393SOL    HW2 6204   6.728   7.318   9.462
35394SOL     OW 6205   5.788   5.871  10.808
35394SOL    HW1 6206   5.708   5.931  10.795
35394SOL    HW2 6207   5.778   5.822  10.894
35395SOL     OW 6208   7.218   6.963   9.391
35395SOL    HW1 6209   7.186   7.057   9.381
35395SOL    HW2 6210   7.142   6.900   9.379
35396SOL     OW 6211   6.050   7.329   9.633
35396SOL    HW1 6212   6.083   7.368   9.719
35396SOL    HW2 6213   6.126   7.322   9.568
35397SOL     OW 6214   6.986   5.693   9.736
35397SOL    HW1 6215   6.962   5.656   9.646
35397SOL    HW2 6216   7.085   5.709   9.740
35398SOL     OW 6217   5.835   7.371  10.551
35398SOL    HW1 6218   5.892   7.306  10.601
35398SOL    HW2 6219   5.819   7.338  10.458
35399SOL     OW 6220   6.526   7.284  10.214
35399SOL    HW1 6221   6.606   7.227  10.235
35399SOL    HW2 6222   6.477   7.244  10.137
35400SOL     OW 6223   5.968   6.286   9.790
35400SOL    HW1 6224   6.013   6.196   9.787
35400SOL    HW2 6225   5.874   6.275   9.823
35401SOL     OW 6226   7.133   5.808  11.039
35401SOL    HW1 6227   7.128   5.845  11.131
35401SOL    HW2 6228   7.061   5.739  11.027
35402SOL     OW 6229   6.200   5.708   9.427
35402SOL    HW1 6230   6.298   5.686   9.434
35402SOL    HW2 6231   6.169   5.691   9.334
35403SOL     OW 6232   6.367   5.850  11.059
35403SOL    HW1 6233   6.434   5.789  11.102
35403SOL    HW2 6234   6.294   5.869  11.124
35404SOL     OW 6235   6.474   7.100  10.505
35404SOL    HW1 6236   6.451   7.075  10.411
35404SOL    HW2 6237   6.535   7.031  10.544
35405SOL     OW 6238   6.937   6.176  10.743
35405SOL    HW1 6239   6.965   6.133  10.828
35405SOL    HW2 6240   6.962   6.272  10.744
35406SOL     OW 6241   6.508   6.089  10.209
35406SOL    HW1 6242   6.483   6.080  10.113
35406SOL    HW2 6243   6.556   6.007  10.240
35407SOL     OW 6244   6.125   5.650   9.822
35407SOL    HW1 6245   6.044   5.651   9.880
35407SOL    HW2 6246   6.128   5.733   9.767
35408SOL     OW 6247   7.020   6.774   9.351
35408SOL    HW1 6248   7.052   6.698   9.408
35408SOL    HW2 6249   6.928   6.801   9.381
35409SOL     OW 6250   5.883   5.621   9.481
35409SOL    HW1 6251   5.932   5.705   9.460
35409SOL    HW2 6252   5.945   5.556   9.526
35410SOL     OW 6253   6.521   5.822   9.790
35410SOL    HW1 6254   6.473   5.863   9.712
35410SOL    HW2 6255   6.620   5.820   9.771
35411SOL     OW 6256   6.662   6.269  10.774
35411SOL    HW1 6257   6.582   6.208  10.777
35411SOL    HW2 6258   6.743   6.216  10.750
35412SOL     OW 6259   6.813   7.156  10.103
35412SOL    HW1 6260   6.834   7.230  10.038
35412SOL    HW2 6261   6.881   7.156  10.176
35413SOL     OW 6262   6.045   6.738  10.051
35413SOL    HW1 6263   5.974   6.711  10.116
35413SOL    HW2 6264   6.019   6.710   9.958
35414SOL     OW 6265   6.857   7.383   9.901
35414SOL    HW1 6266   6.901   7.447   9.837
35414SOL    HW2 6267   6.807   7.435   9.971
35415SOL     OW 6268   6.618   6.135   9.326
35415SOL    HW1 6269   6.577   6.217   9.287
35415SOL    HW2 6270   6.682   6.161   9.399
35416SOL     OW 6271   5.664   6.142  10.696
35416SOL    HW1 6272   5.756   6.141  10.655
35416SOL    HW2 6273   5.658   6.216  10.763
35417SOL     OW 6274   6.147   5.808  10.457
35417SOL    HW1 6275   6.185   5.724  10.494
35417SOL    HW2 6276   6.059   5.827  10.501
35418SOL     OW 6277   6.452   6.040   9.952
35418SOL    HW1 6278   6.420   6.112   9.890
35418SOL    HW2 6279   6.476   5.959   9.899
35419SOL     OW 6280   6.603   5.625  10.063
35419SOL    HW1 6281   6.531   5.630   9.994
35419SOL    HW2 6282   6.579   5.556  10.132
35420SOL     OW 6283   7.015   6.759  10.177
35420SOL    HW1 6284   6.960   6.675  10.170
35420SOL    HW2 6285   7.041   6.788  10.085
35421SOL     OW 6286   7.052   6.176  10.302
35421SOL    HW1 6287   7.022   6.081  10.309
35421SOL    HW2 6288   7.125   6.192  10.368
35422SOL     OW 6289   7.443   6.419   9.687
35422SOL    HW1 6290   7.485   6.355   9.751
35422SOL    HW2 6291   7.405   6.368   9.609
35423SOL     OW 6292   6.074   6.971   9.484
35423SOL    HW1 6293   5.987   6.956   9.531
35423SOL    HW2 6294   6.057   6.997   9.389
35424SOL     OW 6295   7.250   6.866   9.967
35424SOL    HW1 6296   7.349   6.874   9.981
35424SOL    HW2 6297   7.205   6.950   9.998
35425SOL     OW 6298   6.976   6.161   9.388
35425SOL    HW1 6299   6.922   6.140   9.469
35425SOL    HW2 6300   7.067   6.120   9.397
35426SOL     OW 6301   6.113   5.842   9.638
35426SOL    HW1 6302   6.140   5.783   9.563
35426SOL    HW2 6303   6.113   5.937   9.607
35427SOL     OW 6304   7.340   6.809  10.898
35427SOL    HW1 6305   7.431   6.770  10.885
35427SOL    HW2 6306   7.348   6.905  10.922
35428SOL     OW 6307   6.650   6.933  10.650
35428SOL    HW1 6308   6.570   6.910  10.705
35428SOL    HW2 6309   6.733   6.907  10.699
35429SOL     OW 6310   7.178   7.215  10.935
35429SOL    HW1 6311   7.205   7.249  10.845
35429SOL    HW2 6312   7.257   7.177  10.981
35430SOL     OW 6313   6.697   6.781  10.410
35430SOL    HW1 6314   6.657   6.825  10.491
35430SOL    HW2 6315   6.656   6.818  10.327
35431SOL     OW 6316   7.224   6.685  10.389
35431SOL    HW1 6317   7.229   6.766  10.448
35431SOL    HW2 6318   7.138   6.687  10.338
35432SOL     OW 6319   6.501   5.675  10.712
35432SOL    HW1 6320   6.526   5.655  10.617
35432SOL    HW2 6321   6.573   5.731  10.754
35433SOL     OW 6322   6.566   6.702  11.029
35433SOL    HW1 6323   6.467   6.708  11.039
35433SOL    HW2 6324   6.589   6.622  10.973
35434SOL     OW 6325   6.291   6.636   9.678
35434SOL    HW1 6326   6.277   6.643   9.777
35434SOL    HW2 6327   6.375   6.585   9.660
35435SOL     OW 6328   5.996   6.399  10.561
35435SOL    HW1 6329   6.082   6.411  10.611
35435SOL    HW2 6330   5.954   6.312  10.588
35436SOL     OW 6331   6.860   5.972  10.572
35436SOL    HW1 6332   6.881   6.046  10.636
35436SOL    HW2 6333   6.771   5.989  10.529
35437SOL     OW 6334   5.650   7.150  10.641
35437SOL    HW1 6335   5.604   7.232  10.607
35437SOL    HW2 6336   5.748   7.169  10.650
35438SOL     OW 6337   5.953   6.686   9.811
35438SOL    HW1 6338   5.946   6.769   9.755
35438SOL    HW2 6339   5.957   6.606   9.751
35439SOL     OW 6340   6.152   6.123  10.175
35439SOL    HW1 6341   6.164   6.189  10.101
35439SOL    HW2 6342   6.198   6.157  10.258
35440SOL     OW 6343   6.838   6.934   9.698
35440SOL    HW1 6344   6.888   7.011   9.738
35440SOL    HW2 6345   6.743   6.936   9.730
35441SOL     OW 6346   6.858   7.031  10.452
35441SOL    HW1 6347   6.905   7.044  10.539
35441SOL    HW2 6348   6.792   6.957  10.461
35442SOL     OW 6349   7.168   6.225   9.782
35442SOL    HW1 6350   7.137   6.286   9.855
35442SOL    HW2 6351   7.218   6.277   9.713
35443SOL     OW 6352   5.940   7.096  10.639
35443SOL    HW1 6353   5.919   7.052  10.552
35443SOL    HW2 6354   6.037   7.122  10.642
35444SOL     OW 6355   5.988   6.337  10.908
35444SOL    HW1 6356   6.056   6.392  10.861
35444SOL    HW2 6357   6.028   6.249  10.935
35445SOL     OW 6358   7.173   6.365  10.980
35445SOL    HW1 6359   7.081   6.403  10.975
35445SOL    HW2 6360   7.233   6.412  10.915
35446SOL     OW 6361   6.599   5.691  11.080
35446SOL    HW1 6362   6.605   5.776  11.028
35446SOL    HW2 6363   6.631   5.615  11.023
35447SOL     OW 6364   6.090   5.636  11.050
35447SOL    HW1 6365   6.048   5.579  10.980
35447SOL    HW2 6366   6.024   5.705  11.082
35448SOL     OW 6367   6.159   6.456  10.339
35448SOL    HW1 6368   6.203   6.545  10.330
35448SOL    HW2 6369   6.096   6.456  10.416
35449SOL     OW 6370   6.946   6.448  10.355
35449SOL    HW1 6371   6.871   6.448  10.289
35449SOL    HW2 6372   6.983   6.356  10.364
35450SOL     OW 6373   6.795   6.111   9.585
35450SOL    HW1 6374   6.808   6.027   9.639
35450SOL    HW2 6375   6.766   6.185   9.645
35451SOL     OW 6376   5.893   5.799  10.541
35451SOL    HW1 6377   5.870   5.836  10.631
35451SOL    HW2 6378   5.863   5.704  10.535
35452SOL     OW 6379   7.314   6.521  11.164
35452SOL    HW1 6380   7.268   6.514  11.075
35452SOL    HW2 6381   7.252   6.565  11.230
35453SOL     OW 6382   5.893   5.649   9.928
35453SOL    HW1 6383   5.882   5.743   9.961
35453SOL    HW2 6384   5.888   5.586  10.005
35454SOL     OW 6385   7.208   5.953   9.684
35454SOL    HW1 6386   7.210   5.877   9.748
35454SOL    HW2 6387   7.160   6.030   9.724
35455SOL     OW 6388   6.609   6.352  10.276
35455SOL    HW1 6389   6.624   6.373  10.372
35455SOL    HW2 6390   6.579   6.257  10.267
35456SOL     OW 6391   6.566   7.159  11.010
35456SOL    HW1 6392   6.546   7.203  10.922
35456SOL    HW2 6393   6.605   7.068  10.994
35457SOL     OW 6394   7.445   7.104  10.915
35457SOL    HW1 6395   7.459   7.131  10.820
35457SOL    HW2 6396   7.528   7.126  10.968
35458SOL     OW 6397   5.936   6.484  11.114
35458SOL    HW1 6398   6.012   6.528  11.162
35458SOL    HW2 6399   5.971   6.437  11.032
35459SOL     OW 6400   7.126   5.860   9.435
35459SOL    HW1 6401   7.065   5.785   9.458
35459SOL    HW2 6402   7.148   5.912   9.518
35460SOL     OW 6403   6.889   6.424   9.352
35460SOL    HW1 6404   6.923   6.331   9.367
35460SOL    HW2 6405   6.907   6.451   9.257
35461SOL     OW 6406   6.654   6.919  10.159
35461SOL    HW1 6407   6.661   6.835  10.104
35461SOL    HW2 6408   6.716   6.988  10.123
35462SOL     OW 6409   5.905   6.396  10.259
35462SOL    HW1 6410   5.998   6.432  10.264
35462SOL    HW2 6411   5.899   6.311  10.311
35463SOL     OW 6412   5.925   6.095  10.316
35463SOL    HW1 6413   5.873   6.012  10.299
35463SOL    HW2 6414   6.002   6.100  10.252
35464SOL     OW 6415   6.724   5.966  10.988
35464SOL    HW1 6416   6.679   6.029  11.052
35464SOL    HW2 6417   6.817   5.997  10.971
35465SOL     OW 6418   6.746   5.793  10.787
35465SOL    HW1 6419   6.746   5.857  10.864
35465SOL    HW2 6420   6.774   5.841  10.704
35466SOL     OW 6421   5.594   6.912   9.510
35466SOL    HW1 6422   5.501   6.933   9.479
35466SOL    HW2 6423   5.604   6.813   9.523
35467SOL     OW 6424   5.674   7.387  10.237
35467SOL    HW1 6425   5.632   7.301  10.210
35467SOL    HW2 6426   5.768   7.390  10.203
35468SOL     OW 6427   6.090   7.154  10.220
35468SOL    HW1 6428   6.156   7.228  10.229
35468SOL    HW2 6429   6.134   7.075  10.178
35469SOL     OW 6430   6.588   6.382  10.548
35469SOL    HW1 6431   6.629   6.350  10.634
35469SOL    HW2 6432   6.492   6.355  10.545
35470SOL     OW 6433   5.626   6.130  10.424
35470SOL    HW1 6434   5.711   6.097  10.383
35470SOL    HW2 6435   5.639   6.145  10.522
35471SOL     OW 6436   5.775   6.106  11.032
35471SOL    HW1 6437   5.834   6.066  10.962
35471SOL    HW2 6438   5.717   6.177  10.991
35472SOL     OW 6439   6.955   6.536  10.970
35472SOL    HW1 6440   6.994   6.625  10.990
35472SOL    HW2 6441   6.965   6.516  10.873
35473SOL     OW 6442   6.401   6.158   9.635
35473SOL    HW1 6443   6.408   6.069   9.589
35473SOL    HW2 6444   6.307   6.192   9.627
35474SOL     OW 6445   7.243   6.190  10.516
35474SOL    HW1 6446   7.205   6.121  10.578
35474SOL    HW2 6447   7.325   6.154  10.472
35475SOL     OW 6448   5.838   7.150  11.054
35475SOL    HW1 6449   5.808   7.207  11.130
35475SOL    HW2 6450   5.831   7.053  11.080
35476SOL     OW 6451   6.257   6.050  10.579
35476SOL    HW1 6452   6.223   5.961  10.549
35476SOL    HW2 6453   6.283   6.104  10.499
35477SOL     OW 6454   6.516   7.264  10.775
35477SOL    HW1 6455   6.492   7.246  10.680
35477SOL    HW2 6456   6.546   7.358  10.785
35478SOL     OW 6457   6.059   6.086   9.501
35478SOL    HW1 6458   6.120   6.166   9.505
35478SOL    HW2 6459   5.964   6.117   9.508
35479SOL     OW 6460   5.745   6.723  10.776
35479SOL    HW1 6461   5.767   6.662  10.852
35479SOL    HW2 6462   5.755   6.674  10.690
35480SOL     OW 6463   6.933   6.645  10.544
35480SOL    HW1 6464   6.957   6.582  10.470
35480SOL    HW2 6465   6.843   6.685  10.526
35481SOL     OW 6466   6.888   6.441   9.619
35481SOL    HW1 6467   6.802   6.410   9.661
35481SOL    HW2 6468   6.884   6.427   9.520
35482SOL     OW 6469   7.345   7.333  10.464
35482SOL    HW1 6470   7.406   7.363  10.391
35482SOL    HW2 6471   7.307   7.244  10.442
35483SOL     OW 6472   6.838   7.317  10.438
35483SOL    HW1 6473   6.922   7.322  10.384
35483SOL    HW2 6474   6.815   7.221  10.456
35484SOL     OW 6475   5.669   6.844  10.332
35484SOL    HW1 6476   5.664   6.843  10.432
35484SOL    HW2 6477   5.586   6.803  10.294
35485SOL     OW 6478   6.274   7.248  11.026
35485SOL    HW1 6479   6.218   7.329  11.035
35485SOL    HW2 6480   6.326   7.252  10.940
35486SOL     OW 6481   7.312   5.721   9.833
35486SOL    HW1 6482   7.385   5.704   9.766
35486SOL    HW2 6483   7.281   5.634   9.871
35487SOL     OW 6484   6.974   7.159   9.787
35487SOL    HW1 6485   7.041   7.171   9.713
35487SOL    HW2 6486   6.934   7.248   9.810
35488SOL     OW 6487   5.716   7.380  11.161
35488SOL    HW1 6488   5.675   7.306  11.214
35488SOL    HW2 6489   5.780   7.431  11.219
35489SOL     OW 6490   6.866   6.513   9.982
35489SOL    HW1 6491   6.926   6.432   9.984
35489SOL    HW2 6492   6.906   6.582   9.922
35490SOL     OW 6493   6.416   6.859  10.732
35490SOL    HW1 6494   6.411   6.892  10.827
35490SOL    HW2 6495   6.330   6.878  10.686
35491SOL     OW 6496   6.258   7.202   9.464
35491SOL    HW1 6497   6.267   7.212   9.365
35491SOL    HW2 6498   6.218   7.113   9.485
35492SOL     OW 6499   7.236   7.306  10.704
35492SOL    HW1 6500   7.289   7.316  10.620
35492SOL    HW2 6501   7.209   7.396  10.738
35493SOL     OW 6502   7.427   5.761  10.273
35493SOL    HW1 6503   7.466   5.676  10.237
35493SOL    HW2 6504   7.329   5.763  10.254
35494SOL     OW 6505   5.849   5.912  10.030
35494SOL    HW1 6506   5.770   5.963   9.996
35494SOL    HW2 6507   5.840   5.897  10.128
35495SOL     OW 6508   6.780   7.198   9.341
35495SOL    HW1 6509   6.786   7.105   9.378
35495SOL    HW2 6510   6.721   7.198   9.261
35496SOL     OW 6511   6.408   6.588  10.682
35496SOL    HW1 6512   6.448   6.587  10.590
35496SOL    HW2 6513   6.418   6.680  10.722
35497SOL     OW 6514   6.502   6.496   9.601
35497SOL    HW1 6515   6.565   6.534   9.533
35497SOL    HW2 6516   6.542   6.413   9.640
35498SOL     OW 6517   7.090   7.193   9.354
35498SOL    HW1 6518   6.998   7.230   9.361
35498SOL    HW2 6519   7.128   7.213   9.264
35499SOL     OW 6520   5.958   6.874  10.800
35499SOL    HW1 6521   5.945   6.967  10.766
35499SOL    HW2 6522   5.874   6.822  10.787
35500SOL     OW 6523   7.200   6.878  10.599
35500SOL    HW1 6524   7.260   6.881  10.679
35500SOL    HW2 6525   7.125   6.942  10.612
35501SOL     OW 6526   6.625   6.684  10.006
35501SOL    HW1 6527   6.555   6.637  10.060
35501SOL    HW2 6528   6.684   6.616   9.963
35502SOL     OW 6529   6.600   5.822  10.281
35502SOL    HW1 6530   6.592   5.786  10.188
35502SOL    HW2 6531   6.598   5.746  10.346
35503SOL     OW 6532   6.176   7.073   9.801
35503SOL    HW1 6533   6.218   7.015   9.731
35503SOL    HW2 6534   6.132   7.152   9.757
35504SOL     OW 6535   7.295   5.971  10.691
35504SOL    HW1 6536   7.368   6.040  10.695
35504SOL    HW2 6537   7.323   5.896  10.632
35505SOL     OW 6538   5.841   6.934   9.600
35505SOL    HW1 6539   5.745   6.935   9.573
35505SOL    HW2 6540   5.853   6.987   9.684
35506SOL     OW 6541   5.691   6.599  11.036
35506SOL    HW1 6542   5.614   6.566  11.090
35506SOL    HW2 6543   5.776   6.569  11.078
35507SOL     OW 6544   6.258   5.789  10.799
35507SOL    HW1 6545   6.348   5.773  10.759
35507SOL    HW2 6546   6.266   5.794  10.898
35508SOL     OW 6547   5.661   5.931   9.343
35508SOL    HW1 6548   5.569   5.903   9.314
35508SOL    HW2 6549   5.692   6.008   9.287
35509SOL     OW 6550   7.026   6.442  10.708
35509SOL    HW1 6551   6.969   6.494  10.645
35509SOL    HW2 6552   7.122   6.454  10.684
35510SOL     OW 6553   5.658   5.752   9.628
35510SOL    HW1 6554   5.641   5.835   9.574
35510SOL    HW2 6555   5.748   5.715   9.606
35511SOL     OW 6556   6.769   6.921   9.429
35511SOL    HW1 6557   6.670   6.910   9.431
35511SOL    HW2 6558   6.803   6.936   9.522
35512SOL     OW 6559   6.199   6.428  10.741
35512SOL    HW1 6560   6.255   6.509  10.724
35512SOL    HW2 6561   6.258   6.348  10.744
35513SOL     OW 6562   7.079   7.353  10.269
35513SOL    HW1 6563   7.112   7.417  10.200
35513SOL    HW2 6564   7.145   7.347  10.344
35514SOL     OW 6565   6.302   6.151  11.018
35514SOL    HW1 6566   6.321   6.216  11.092
35514SOL    HW2 6567   6.362   6.071  11.027
35515SOL     OW 6568   7.036   6.806  10.943
35515SOL    HW1 6569   7.027   6.796  11.042
35515SOL    HW2 6570   7.132   6.799  10.917
35516SOL     OW 6571   5.976   7.327  10.870
35516SOL    HW1 6572   5.885   7.368  10.868
35516SOL    HW2 6573   5.969   7.233  10.902
35517SOL     OW 6574   7.260   6.469  10.564
35517SOL    HW1 6575   7.233   6.380  10.527
35517SOL    HW2 6576   7.261   6.537  10.491
35518SOL     OW 6577   6.811   5.911   9.759
35518SOL    HW1 6578   6.876   5.837   9.748
35518SOL    HW2 6579   6.831   5.961   9.843
35519SOL     OW 6580   6.180   6.331   9.962
35519SOL    HW1 6581   6.230   6.416   9.943
35519SOL    HW2 6582   6.092   6.333   9.914
35520SOL     OW 6583   7.363   5.928  10.952
35520SOL    HW1 6584   7.346   5.959  10.858
35520SOL    HW2 6585   7.279   5.891  10.990
35521SOL     OW 6586   7.316   6.520  10.827
35521SOL    HW1 6587   7.354   6.611  10.842
35521SOL    HW2 6588   7.308   6.503  10.728
35522SOL     OW 6589   6.445   6.960   9.326
35522SOL    HW1 6590   6.399   6.975   9.414
35522SOL    HW2 6591   6.489   7.045   9.296
35523SOL     OW 6592   6.247   7.376  10.263
35523SOL    HW1 6593   6.201   7.464  10.250
35523SOL    HW2 6594   6.346   7.388  10.256
35524SOL     OW 6595   6.445   6.542  10.171
35524SOL    HW1 6596   6.499   6.473  10.219
35524SOL    HW2 6597   6.413   6.611  10.237
35525SOL     OW 6598   6.669   6.570   9.397
35525SOL    HW1 6599   6.646   6.623   9.315
35525SOL    HW2 6600   6.750   6.514   9.378
35526SOL     OW 6601   7.447   7.155  10.161
35526SOL    HW1 6602   7.376   7.143  10.091
35526SOL    HW2 6603   7.448   7.076  10.221
35527SOL     OW 6604   5.807   6.900  11.154
35527SOL    HW1 6605   5.742   6.827  11.133
35527SOL    HW2 6606   5.811   6.914  11.252
35528SOL     OW 6607   5.665   6.826   9.963
35528SOL    HW1 6608   5.664   6.779  10.051
35528SOL    HW2 6609   5.747   6.798   9.912
35529SOL     OW 6610   6.258   6.977  10.934
35529SOL    HW1 6611   6.180   6.927  10.972
35529SOL    HW2 6612   6.255   7.072  10.965
35530SOL     OW 6613   7.410   5.778  10.537
35530SOL    HW1 6614   7.406   5.688  10.581
35530SOL    HW2 6615   7.413   5.767  10.438
35531SOL     OW 6616   6.014   6.010   9.830
35531SOL    HW1 6617   6.044   5.938   9.768
35531SOL    HW2 6618   5.975   5.970   9.913
35532SOL     OW 6619   7.291   7.073  10.414
35532SOL    HW1 6620   7.198   7.048  10.387
35532SOL    HW2 6621   7.317   7.023  10.496
35533SOL     OW 6622   5.903   6.133  10.590
35533SOL    HW1 6623   5.941   6.074  10.662
35533SOL    HW2 6624   5.943   6.107  10.502
35534SOL     OW 6625   6.398   7.172   9.997
35534SOL    HW1 6626   6.430   7.182   9.903
35534SOL    HW2 6627   6.319   7.110   9.999
35535SOL     OW 6628   7.010   5.800  10.422
35535SOL    HW1 6629   7.062   5.735  10.477
35535SOL    HW2 6630   6.961   5.863  10.483
35536SOL     OW 6631   6.587   5.620  10.464
35536SOL    HW1 6632   6.524   5.548  10.433
35536SOL    HW2 6633   6.680   5.584  10.464
35537SOL     OW 6634   6.356   6.916   9.611
35537SOL    HW1 6635   6.310   6.829   9.628
35537SOL    HW2 6636   6.447   6.913   9.652
35538SOL     OW 6637   6.204   7.153  10.594
35538SOL    HW1 6638   6.199   7.235  10.651
35538SOL    HW2 6639   6.293   7.150  10.549
35539SOL     OW 6640   6.938   5.638   9.478
35539SOL    HW1 6641   6.973   5.597   9.394
35539SOL    HW2 6642   6.848   5.600   9.498
35540SOL     OW 6643   6.886   6.039  10.001
35540SOL    HW1 6644   6.827   6.119  10.005
35540SOL    HW2 6645   6.901   6.004  10.094
35541SOL     OW 6646   7.179   5.807  10.192
35541SOL    HW1 6647   7.095   5.806  10.246
35541SOL    HW2 6648   7.181   5.890  10.136
35542SOL     OW 6649   5.625   6.663   9.610
35542SOL    HW1 6650   5.724   6.652   9.601
35542SOL    HW2 6651   5.585   6.577   9.642
35543SOL     OW 6652   6.461   7.232   9.647
35543SOL    HW1 6653   6.384   7.197   9.593
35543SOL    HW2 6654   6.429   7.303   9.709
35544SOL     OW 6655   5.816   6.214  11.285
35544SOL    HW1 6656   5.723   6.212  11.322
35544SOL    HW2 6657   5.817   6.175  11.193
35545SOL     OW 6658   5.811   5.861  12.168
35545SOL    HW1 6659   5.846   5.844  12.260
35545SOL    HW2 6660   5.723   5.816  12.156
35546SOL     OW 6661   5.605   5.954  11.819
35546SOL    HW1 6662   5.523   5.997  11.858
35546SOL    HW2 6663   5.577   5.881  11.756
35547SOL     OW 6664   6.155   6.861  12.337
35547SOL    HW1 6665   6.062   6.854  12.300
35547SOL    HW2 6666   6.166   6.950  12.381
35548SOL     OW 6667   7.141   7.097  11.875
35548SOL    HW1 6668   7.084   7.081  11.956
35548SOL    HW2 6669   7.082   7.107  11.795
35549SOL     OW 6670   6.721   6.289  11.889
35549SOL    HW1 6671   6.778   6.367  11.864
35549SOL    HW2 6672   6.661   6.315  11.965
35550SOL     OW 6673   7.341   6.193  11.403
35550SOL    HW1 6674   7.329   6.180  11.304
35550SOL    HW2 6675   7.311   6.112  11.452
35551SOL     OW 6676   6.354   6.730  12.195
35551SOL    HW1 6677   6.276   6.747  12.255
35551SOL    HW2 6678   6.388   6.817  12.159
35552SOL     OW 6679   6.271   6.598  11.837
35552SOL    HW1 6680   6.340   6.582  11.907
35552SOL    HW2 6681   6.198   6.655  11.875
35553SOL     OW 6682   5.921   7.021  12.233
35553SOL    HW1 6683   5.843   6.990  12.180
35553SOL    HW2 6684   5.979   7.079  12.176
35554SOL     OW 6685   7.046   7.091  12.511
35554SOL    HW1 6686   7.070   7.185  12.537
35554SOL    HW2 6687   7.030   7.037  12.593
35555SOL     OW 6688   6.024   5.978  12.671
35555SOL    HW1 6689   6.106   5.922  12.680
35555SOL    HW2 6690   5.943   5.920  12.675
35556SOL     OW 6691   7.189   6.033  11.909
35556SOL    HW1 6692   7.115   6.079  11.859
35556SOL    HW2 6693   7.240   6.101  11.962
35557SOL     OW 6694   5.817   7.299  11.655
35557SOL    HW1 6695   5.851   7.376  11.709
35557SOL    HW2 6696   5.861   7.299  11.565
35558SOL     OW 6697   5.816   7.020  11.710
35558SOL    HW1 6698   5.790   7.116  11.710
35558SOL    HW2 6699   5.745   6.966  11.755
35559SOL     OW 6700   5.826   6.677  12.058
35559SOL    HW1 6701   5.840   6.593  12.110
35559SOL    HW2 6702   5.771   6.741  12.113
35560SOL     OW 6703   6.206   7.372  12.611
35560SOL    HW1 6704   6.114   7.355  12.646
35560SOL    HW2 6705   6.234   7.464  12.637
35561SOL     OW 6706   6.192   6.550  11.295
35561SOL    HW1 6707   6.199   6.634  11.241
35561SOL    HW2 6708   6.238   6.563  11.383
35562SOL     OW 6709   7.180   5.700  12.652
35562SOL    HW1 6710   7.162   5.767  12.580
35562SOL    HW2 6711   7.177   5.746  12.741
35563SOL     OW 6712   5.708   6.229  11.735
35563SOL    HW1 6713   5.663   6.141  11.752
35563SOL    HW2 6714   5.707   6.283  11.819
35564SOL     OW 6715   7.428   7.353  11.531
35564SOL    HW1 6716   7.482   7.324  11.611
35564SOL    HW2 6717   7.458   7.443  11.502
35565SOL     OW 6718   5.613   7.182  11.289
35565SOL    HW1 6719   5.594   7.086  11.310
35565SOL    HW2 6720   5.580   7.240  11.364
35566SOL     OW 6721   7.275   6.508  11.784
35566SOL    HW1 6722   7.370   6.479  11.792
35566SOL    HW2 6723   7.267   6.573  11.709
35567SOL     OW 6724   7.227   6.694  11.604
35567SOL    HW1 6725   7.313   6.696  11.552
35567SOL    HW2 6726   7.241   6.741  11.692
35568SOL     OW 6727   5.699   6.323  12.769
35568SOL    HW1 6728   5.787   6.310  12.814
35568SOL    HW2 6729   5.686   6.420  12.747
35569SOL     OW 6730   6.199   6.951  11.898
35569SOL    HW1 6731   6.150   6.864  11.907
35569SOL    HW2 6732   6.176   6.994  11.811
35570SOL     OW 6733   6.879   6.814  12.595
35570SOL    HW1 6734   6.916   6.741  12.537
35570SOL    HW2 6735   6.931   6.819  12.680
35571SOL     OW 6736   6.395   5.590  11.674
35571SOL    HW1 6737   6.435   5.681  11.665
35571SOL    HW2 6738   6.295   5.598  11.680
35572SOL     OW 6739   5.783   6.562  12.436
35572SOL    HW1 6740   5.872   6.517  12.422
35572SOL    HW2 6741   5.710   6.497  12.417
35573SOL     OW 6742   7.111   6.585  11.362
35573SOL    HW1 6743   7.048   6.509  11.375
35573SOL    HW2 6744   7.159   6.603  11.448
35574SOL     OW 6745   7.052   7.003  12.125
35574SOL    HW1 6746   6.993   7.009  12.205
35574SOL    HW2 6747   7.037   6.915  12.079
35575SOL     OW 6748   7.253   7.300  11.744
35575SOL    HW1 6749   7.212   7.277  11.656
35575SOL    HW2 6750   7.235   7.226  11.809
35576SOL     OW 6751   6.184   6.315  11.442
35576SOL    HW1 6752   6.208   6.384  11.374
35576SOL    HW2 6753   6.106   6.348  11.496
35577SOL     OW 6754   6.867   5.931  12.116
35577SOL    HW1 6755   6.781   5.881  12.103
35577SOL    HW2 6756   6.929   5.877  12.172
35578SOL     OW 6757   7.162   7.248  11.479
35578SOL    HW1 6758   7.251   7.294  11.482
35578SOL    HW2 6759   7.141   7.224  11.384
35579SOL     OW 6760   6.393   6.191  12.637
35579SOL    HW1 6761   6.346   6.188  12.726
35579SOL    HW2 6762   6.342   6.136  12.571
35580SOL     OW 6763   6.559   6.476  12.744
35580SOL    HW1 6764   6.605   6.392  12.715
35580SOL    HW2 6765   6.503   6.510  12.669
35581SOL     OW 6766   6.577   5.996  12.414
35581SOL    HW1 6767   6.500   6.030  12.468
35581SOL    HW2 6768   6.543   5.945  12.335
35582SOL     OW 6769   6.627   6.287  11.601
35582SOL    HW1 6770   6.653   6.283  11.697
35582SOL    HW2 6771   6.542   6.236  11.587
35583SOL     OW 6772   5.662   6.397  11.961
35583SOL    HW1 6773   5.761   6.385  11.970
35583SOL    HW2 6774   5.638   6.492  11.982
35584SOL     OW 6775   5.716   7.407  12.743
35584SOL    HW1 6776   5.706   7.392  12.842
35584SOL    HW2 6777   5.630   7.443  12.707
35585SOL     OW 6778   6.451   5.934  11.367
35585SOL    HW1 6779   6.510   5.997  11.318
35585SOL    HW2 6780   6.470   5.840  11.338
35586SOL     OW 6781   6.948   6.730  11.717
35586SOL    HW1 6782   7.031   6.701  11.669
35586SOL    HW2 6783   6.899   6.797  11.661
35587SOL     OW 6784   6.136   5.782  12.057
35587SOL    HW1 6785   6.131   5.777  12.157
35587SOL    HW2 6786   6.138   5.878  12.028
35588SOL     OW 6787   6.594   7.042  11.649
35588SOL    HW1 6788   6.548   7.114  11.597
35588SOL    HW2 6789   6.590   7.062  11.747
35589SOL     OW 6790   5.937   7.387  12.025
35589SOL    HW1 6791   5.987   7.301  12.031
35589SOL    HW2 6792   6.002   7.464  12.022
35590SOL     OW 6793   7.381   6.652  12.045
35590SOL    HW1 6794   7.319   6.637  11.969
35590SOL    HW2 6795   7.329   6.663  12.130
35591SOL     OW 6796   6.813   7.136  12.678
35591SOL    HW1 6797   6.819   7.059  12.742
35591SOL    HW2 6798   6.761   7.110  12.598
35592SOL     OW 6799   5.907   6.529  11.414
35592SOL    HW1 6800   5.989   6.568  11.372
35592SOL    HW2 6801   5.880   6.447  11.365
35593SOL     OW 6802   7.044   6.321  11.900
35593SOL    HW1 6803   7.039   6.256  11.975
35593SOL    HW2 6804   7.124   6.380  11.913
35594SOL     OW 6805   6.697   7.362  11.409
35594SOL    HW1 6806   6.637   7.300  11.459
35594SOL    HW2 6807   6.728   7.318  11.324
35595SOL     OW 6808   5.788   5.871  12.670
35595SOL    HW1 6809   5.708   5.931  12.657
35595SOL    HW2 6810   5.778   5.822  12.756
35596SOL     OW 6811   7.218   6.963  11.253
35596SOL    HW1 6812   7.186   7.057  11.243
35596SOL    HW2 6813   7.142   6.900  11.241
35597SOL     OW 6814   6.050   7.329  11.495
35597SOL    HW1 6815   6.083   7.368  11.581
35597SOL    HW2 6816   6.126   7.322  11.430
35598SOL     OW 6817   6.986   5.693  11.598
35598SOL    HW1 6818   6.962   5.656  11.508
35598SOL    HW2 6819   7.085   5.709  11.602
35599SOL     OW 6820   5.835   7.371  12.413
35599SOL    HW1 6821   5.892   7.306  12.463
35599SOL    HW2 6822   5.819   7.338  12.320
35600SOL     OW 6823   6.526   7.284  12.076
35600SOL    HW1 6824   6.606   7.227  12.097
35600SOL    HW2 6825   6.477   7.244  11.999
35601SOL     OW 6826   5.968   6.286  11.652
35601SOL    HW1 6827   6.013   6.196  11.649
35601SOL    HW2 6828   5.874   6.275  11.685
35602SOL     OW 6829   6.200   5.708  11.289
35602SOL    HW1 6830   6.298   5.686  11.296
35602SOL    HW2 6831   6.169   5.691  11.196
35603SOL     OW 6832   6.474   7.100  12.367
35603SOL    HW1 6833   6.451   7.075  12.273
35603SOL    HW2 6834   6.535   7.031  12.406
35604SOL     OW 6835   6.937   6.176  12.605
35604SOL    HW1 6836   6.965   6.133  12.690
35604SOL    HW2 6837   6.962   6.272  12.606
35605SOL     OW 6838   6.389   6.988  12.096
35605SOL    HW1 6839   6.479   7.002  12.054
35605SOL    HW2 6840   6.318   6.990  12.025
35606SOL     OW 6841   6.508   6.089  12.071
35606SOL    HW1 6842   6.483   6.080  11.975
35606SOL    HW2 6843   6.556   6.007  12.102
35607SOL     OW 6844   6.125   5.650  11.684
35607SOL    HW1 6845   6.044   5.651  11.742
35607SOL    HW2 6846   6.128   5.733  11.629
35608SOL     OW 6847   7.020   6.774  11.213
35608SOL    HW1 6848   7.052   6.698  11.270
35608SOL    HW2 6849   6.928   6.801  11.243
35609SOL     OW 6850   5.883   5.621  11.343
35609SOL    HW1 6851   5.932   5.705  11.322
35609SOL    HW2 6852   5.945   5.556  11.388
35610SOL     OW 6853   6.521   5.822  11.652
35610SOL    HW1 6854   6.473   5.863  11.574
35610SOL    HW2 6855   6.620   5.820  11.633
35611SOL     OW 6856   6.662   6.269  12.636
35611SOL    HW1 6857   6.582   6.208  12.639
35611SOL    HW2 6858   6.743   6.216  12.612
35612SOL     OW 6859   6.813   7.156  11.965
35612SOL    HW1 6860   6.834   7.230  11.900
35612SOL    HW2 6861   6.881   7.156  12.038
35613SOL     OW 6862   6.045   6.738  11.913
35613SOL    HW1 6863   5.974   6.711  11.978
35613SOL    HW2 6864   6.019   6.710  11.820
35614SOL     OW 6865   6.857   7.383  11.763
35614SOL    HW1 6866   6.901   7.447  11.699
35614SOL    HW2 6867   6.807   7.435  11.833
35615SOL     OW 6868   6.618   6.135  11.188
35615SOL    HW1 6869   6.577   6.217  11.149
35615SOL    HW2 6870   6.682   6.161  11.261
35616SOL     OW 6871   5.664   6.142  12.558
35616SOL    HW1 6872   5.756   6.141  12.517
35616SOL    HW2 6873   5.658   6.216  12.625
35617SOL     OW 6874   6.147   5.808  12.319
35617SOL    HW1 6875   6.185   5.724  12.356
35617SOL    HW2 6876   6.059   5.827  12.363
35618SOL     OW 6877   6.452   6.040  11.814
35618SOL    HW1 6878   6.420   6.112  11.752
35618SOL    HW2 6879   6.476   5.959  11.761
35619SOL     OW 6880   6.603   5.625  11.925
35619SOL    HW1 6881   6.531   5.630  11.856
35619SOL    HW2 6882   6.579   5.556  11.994
35620SOL     OW 6883   7.015   6.759  12.039
35620SOL    HW1 6884   6.960   6.675  12.032
35620SOL    HW2 6885   7.041   6.788  11.947
35621SOL     OW 6886   7.052   6.176  12.164
35621SOL    HW1 6887   7.022   6.081  12.171
35621SOL    HW2 6888   7.125   6.192  12.230
35622SOL     OW 6889   7.443   6.419  11.549
35622SOL    HW1 6890   7.485   6.355  11.613
35622SOL    HW2 6891   7.405   6.368  11.471
35623SOL     OW 6892   6.074   6.971  11.346
35623SOL    HW1 6893   5.987   6.956  11.393
35623SOL    HW2 6894   6.057   6.997  11.251
35624SOL     OW 6895   7.250   6.866  11.829
35624SOL    HW1 6896   7.349   6.874  11.843
35624SOL    HW2 6897   7.205   6.950  11.860
35625SOL     OW 6898   6.976   6.161  11.250
35625SOL    HW1 6899   6.922   6.140  11.331
35625SOL    HW2 6900   7.067   6.120  11.259
35626SOL     OW 6901   6.113   5.842  11.500
35626SOL    HW1 6902   6.140   5.783  11.425
35626SOL    HW2 6903   6.113   5.937  11.469
35627SOL     OW 6904   7.340   6.809  12.760
35627SOL    HW1 6905   7.431   6.770  12.747
35627SOL    HW2 6906   7.348   6.905  12.784
35628SOL     OW 6907   6.650   6.933  12.512
35628SOL    HW1 6908   6.570   6.910  12.567
35628SOL    HW2 6909   6.733   6.907  12.561
35629SOL     OW 6910   6.697   6.781  12.272
35629SOL    HW1 6911   6.657   6.825  12.353
35629SOL    HW2 6912   6.656   6.818  12.189
35630SOL     OW 6913   7.224   6.685  12.251
35630SOL    HW1 6914   7.229   6.766  12.310
35630SOL    HW2 6915   7.138   6.687  12.200
35631SOL     OW 6916   6.501   5.675  12.574
35631SOL    HW1 6917   6.526   5.655  12.479
35631SOL    HW2 6918   6.573   5.731  12.616
35632SOL     OW 6919   6.291   6.636  11.540
35632SOL    HW1 6920   6.277   6.643  11.639
35632SOL    HW2 6921   6.375   6.585  11.522
35633SOL     OW 6922   5.996   6.399  12.423
35633SOL    HW1 6923   6.082   6.411  12.473
35633SOL    HW2 6924   5.954   6.312  12.450
35634SOL     OW 6925   6.860   5.972  12.434
35634SOL    HW1 6926   6.881   6.046  12.498
35634SOL    HW2 6927   6.771   5.989  12.391
35635SOL     OW 6928   5.650   7.150  12.503
35635SOL    HW1 6929   5.604   7.232  12.469
35635SOL    HW2 6930   5.748   7.169  12.512
35636SOL     OW 6931   5.953   6.686  11.673
35636SOL    HW1 6932   5.946   6.769  11.617
35636SOL    HW2 6933   5.957   6.606  11.613
35637SOL     OW 6934   6.152   6.123  12.037
35637SOL    HW1 6935   6.164   6.189  11.963
35637SOL    HW2 6936   6.198   6.157  12.120
35638SOL     OW 6937   6.838   6.934  11.560
35638SOL    HW1 6938   6.888   7.011  11.600
35638SOL    HW2 6939   6.743   6.936  11.592
35639SOL     OW 6940   6.858   7.031  12.314
35639SOL    HW1 6941   6.905   7.044  12.401
35639SOL    HW2 6942   6.792   6.957  12.323
35640SOL     OW 6943   7.168   6.225  11.644
35640SOL    HW1 6944   7.137   6.286  11.717
35640SOL    HW2 6945   7.218   6.277  11.575
35641SOL     OW 6946   5.940   7.096  12.501
35641SOL    HW1 6947   5.919   7.052  12.414
35641SOL    HW2 6948   6.037   7.122  12.504
35642SOL     OW 6949   5.988   6.337  12.770
35642SOL    HW1 6950   6.056   6.392  12.723
35642SOL    HW2 6951   6.028   6.249  12.797
35643SOL     OW 6952   7.173   6.365  12.842
35643SOL    HW1 6953   7.081   6.403  12.837
35643SOL    HW2 6954   7.233   6.412  12.777
35644SOL     OW 6955   6.159   6.456  12.201
35644SOL    HW1 6956   6.203   6.545  12.192
35644SOL    HW2 6957   6.096   6.456  12.278
35645SOL     OW 6958   6.946   6.448  12.217
35645SOL    HW1 6959   6.871   6.448  12.151
35645SOL    HW2 6960   6.983   6.356  12.226
35646SOL     OW 6961   6.795   6.111  11.447
35646SOL    HW1 6962   6.808   6.027  11.501
35646SOL    HW2 6963   6.766   6.185  11.507
35647SOL     OW 6964   5.893   5.799  12.403
35647SOL    HW1 6965   5.870   5.836  12.493
35647SOL    HW2 6966   5.863   5.704  12.397
35648SOL     OW 6967   5.623   6.896  12.454
35648SOL    HW1 6968   5.676   6.847  12.522
35648SOL    HW2 6969   5.645   6.994  12.459
35649SOL     OW 6970   6.318   6.220  12.236
35649SOL    HW1 6971   6.377   6.194  12.160
35649SOL    HW2 6972   6.290   6.316  12.225
35650SOL     OW 6973   5.893   5.649  11.790
35650SOL    HW1 6974   5.882   5.743  11.823
35650SOL    HW2 6975   5.888   5.586  11.867
35651SOL     OW 6976   7.208   5.953  11.546
35651SOL    HW1 6977   7.210   5.877  11.610
35651SOL    HW2 6978   7.160   6.030  11.586
35652SOL     OW 6979   6.609   6.352  12.138
35652SOL    HW1 6980   6.624   6.373  12.234
35652SOL    HW2 6981   6.579   6.257  12.129
35653SOL     OW 6982   7.126   5.860  11.297
35653SOL    HW1 6983   7.065   5.785  11.320
35653SOL    HW2 6984   7.148   5.912  11.380
35654SOL     OW 6985   6.889   6.424  11.214
35654SOL    HW1 6986   6.923   6.331  11.229
35654SOL    HW2 6987   6.907   6.451  11.119
35655SOL     OW 6988   6.654   6.919  12.021
35655SOL    HW1 6989   6.661   6.835  11.966
35655SOL    HW2 6990   6.716   6.988  11.985
35656SOL     OW 6991   5.905   6.396  12.121
35656SOL    HW1 6992   5.998   6.432  12.126
35656SOL    HW2 6993   5.899   6.311  12.173
35657SOL     OW 6994   5.925   6.095  12.178
35657SOL    HW1 6995   5.873   6.012  12.161
35657SOL    HW2 6996   6.002   6.100  12.114
35658SOL     OW 6997   6.746   5.793  12.649
35658SOL    HW1 6998   6.746   5.857  12.726
35658SOL    HW2 6999   6.774   5.841  12.566
35659SOL     OW 7000   5.594   6.912  11.372
35659SOL    HW1 7001   5.501   6.933  11.341
35659SOL    HW2 7002   5.604   6.813  11.385
35660SOL     OW 7003   5.674   7.387  12.099
35660SOL    HW1 7004   5.632   7.301  12.072
35660SOL    HW2 7005   5.768   7.390  12.065
35661SOL     OW 7006   6.090   7.154  12.082
35661SOL    HW1 7007   6.156   7.228  12.091
35661SOL    HW2 7008   6.134   7.075  12.040
35662SOL     OW 7009   6.588   6.382  12.410
35662SOL    HW1 7010   6.629   6.350  12.496
35662SOL    HW2 7011   6.492   6.355  12.407
35663SOL     OW 7012   5.626   6.130  12.286
35663SOL    HW1 7013   5.711   6.097  12.245
35663SOL    HW2 7014   5.639   6.145  12.384
35664SOL     OW 7015   6.401   6.158  11.497
35664SOL    HW1 7016   6.408   6.069  11.451
35664SOL    HW2 7017   6.307   6.192  11.489
35665SOL     OW 7018   7.243   6.190  12.378
35665SOL    HW1 7019   7.205   6.121  12.440
35665SOL    HW2 7020   7.325   6.154  12.334
35666SOL     OW 7021   5.838   7.150  12.916
35666SOL    HW1 7022   5.808   7.207  12.992
35666SOL    HW2 7023   5.831   7.053  12.942
35667SOL     OW 7024   6.257   6.050  12.441
35667SOL    HW1 7025   6.223   5.961  12.411
35667SOL    HW2 7026   6.283   6.104  12.361
35668SOL     OW 7027   6.516   7.264  12.637
35668SOL    HW1 7028   6.492   7.246  12.542
35668SOL    HW2 7029   6.546   7.358  12.647
35669SOL     OW 7030   6.059   6.086  11.363
35669SOL    HW1 7031   6.120   6.166  11.367
35669SOL    HW2 7032   5.964   6.117  11.370
35670SOL     OW 7033   5.745   6.723  12.638
35670SOL    HW1 7034   5.767   6.662  12.714
35670SOL    HW2 7035   5.755   6.674  12.552
35671SOL     OW 7036   6.933   6.645  12.406
35671SOL    HW1 7037   6.957   6.582  12.332
35671SOL    HW2 7038   6.843   6.685  12.388
35672SOL     OW 7039   6.888   6.441  11.481
35672SOL    HW1 7040   6.802   6.410  11.523
35672SOL    HW2 7041   6.884   6.427  11.382
35673SOL     OW 7042   7.345   7.333  12.326
35673SOL    HW1 7043   7.406   7.363  12.253
35673SOL    HW2 7044   7.307   7.244  12.304
35674SOL     OW 7045   6.838   7.317  12.300
35674SOL    HW1 7046   6.922   7.322  12.246
35674SOL    HW2 7047   6.815   7.221  12.318
35675SOL     OW 7048   5.669   6.844  12.194
35675SOL    HW1 7049   5.664   6.843  12.294
35675SOL    HW2 7050   5.586   6.803  12.156
35676SOL     OW 7051   7.312   5.721  11.695
35676SOL    HW1 7052   7.385   5.704  11.628
35676SOL    HW2 7053   7.281   5.634  11.733
35677SOL     OW 7054   6.974   7.159  11.649
35677SOL    HW1 7055   7.041   7.171  11.575
35677SOL    HW2 7056   6.934   7.248  11.672
35678SOL     OW 7057   6.866   6.513  11.844
35678SOL    HW1 7058   6.926   6.432  11.846
35678SOL    HW2 7059   6.906   6.582  11.784
35679SOL     OW 7060   6.416   6.859  12.594
35679SOL    HW1 7061   6.411   6.892  12.689
35679SOL    HW2 7062   6.330   6.878  12.548
35680SOL     OW 7063   6.258   7.202  11.326
35680SOL    HW1 7064   6.267   7.212  11.227
35680SOL    HW2 7065   6.218   7.113  11.347
35681SOL     OW 7066   7.236   7.306  12.566
35681SOL    HW1 7067   7.289   7.316  12.482
35681SOL    HW2 7068   7.209   7.396  12.600
35682SOL     OW 7069   7.427   5.761  12.135
35682SOL    HW1 7070   7.466   5.676  12.099
35682SOL    HW2 7071   7.329   5.763  12.116
35683SOL     OW 7072   5.849   5.912  11.892
35683SOL    HW1 7073   5.770   5.963  11.858
35683SOL    HW2 7074   5.840   5.897  11.990
35684SOL     OW 7075   6.780   7.198  11.203
35684SOL    HW1 7076   6.786   7.105  11.240
35684SOL    HW2 7077   6.721   7.198  11.123
35685SOL     OW 7078   6.408   6.588  12.544
35685SOL    HW1 7079   6.448   6.587  12.452
35685SOL    HW2 7080   6.418   6.680  12.584
35686SOL     OW 7081   6.502   6.496  11.463
35686SOL    HW1 7082   6.565   6.534  11.395
35686SOL    HW2 7083   6.542   6.413  11.502
35687SOL     OW 7084   7.090   7.193  11.216
35687SOL    HW1 7085   6.998   7.230  11.223
35687SOL    HW2 7086   7.128   7.213  11.126
35688SOL     OW 7087   5.958   6.874  12.662
35688SOL    HW1 7088   5.945   6.967  12.628
35688SOL    HW2 7089   5.874   6.822  12.649
35689SOL     OW 7090   7.200   6.878  12.461
35689SOL    HW1 7091   7.260   6.881  12.541
35689SOL    HW2 7092   7.125   6.942  12.474
35690SOL     OW 7093   6.625   6.684  11.868
35690SOL    HW1 7094   6.555   6.637  11.922
35690SOL    HW2 7095   6.684   6.616  11.825
35691SOL     OW 7096   6.600   5.822  12.143
35691SOL    HW1 7097   6.592   5.786  12.050
35691SOL    HW2 7098   6.598   5.746  12.208
35692SOL     OW 7099   6.176   7.073  11.663
35692SOL    HW1 7100   6.218   7.015  11.593
35692SOL    HW2 7101   6.132   7.152  11.619
35693SOL     OW 7102   7.295   5.971  12.553
35693SOL    HW1 7103   7.368   6.040  12.557
35693SOL    HW2 7104   7.323   5.896  12.494
35694SOL     OW 7105   5.841   6.934  11.462
35694SOL    HW1 7106   5.745   6.935  11.435
35694SOL    HW2 7107   5.853   6.987  11.546
35695SOL     OW 7108   5.691   6.599  12.898
35695SOL    HW1 7109   5.614   6.566  12.952
35695SOL    HW2 7110   5.776   6.569  12.940
35696SOL     OW 7111   6.258   5.789  12.661
35696SOL    HW1 7112   6.348   5.773  12.621
35696SOL    HW2 7113   6.266   5.794  12.760
35697SOL     OW 7114   5.661   5.931  11.205
35697SOL    HW1 7115   5.569   5.903  11.176
35697SOL    HW2 7116   5.692   6.008  11.149
35698SOL     OW 7117   7.026   6.442  12.570
35698SOL    HW1 7118   6.969   6.494  12.507
35698SOL    HW2 7119   7.122   6.454  12.546
35699SOL     OW 7120   5.658   5.752  11.490
35699SOL    HW1 7121   5.641   5.835  11.436
35699SOL    HW2 7122   5.748   5.715  11.468
35700SOL     OW 7123   6.769   6.921  11.291
35700SOL    HW1 7124   6.670   6.910  11.293
35700SOL    HW2 7125   6.803   6.936  11.384
35701SOL     OW 7126   6.199   6.428  12.603
35701SOL    HW1 7127   6.255   6.509  12.586
35701SOL    HW2 7128   6.258   6.348  12.606
35702SOL     OW 7129   7.079   7.353  12.131
35702SOL    HW1 7130   7.112   7.417  12.062
35702SOL    HW2 7131   7.145   7.347  12.206
35703SOL     OW 7132   6.302   6.151  12.880
35703SOL    HW1 7133   6.321   6.216  12.954
35703SOL    HW2 7134   6.362   6.071  12.889
35704SOL     OW 7135   5.976   7.327  12.732
35704SOL    HW1 7136   5.885   7.368  12.730
35704SOL    HW2 7137   5.969   7.233  12.764
35705SOL     OW 7138   7.260   6.469  12.426
35705SOL    HW1 7139   7.233   6.380  12.389
35705SOL    HW2 7140   7.261   6.537  12.353
35706SOL     OW 7141   6.811   5.911  11.621
35706SOL    HW1 7142   6.876   5.837  11.610
35706SOL    HW2 7143   6.831   5.961  11.705
35707SOL     OW 7144   6.180   6.331  11.824
35707SOL    HW1 7145   6.230   6.416  11.805
35707SOL    HW2 7146   6.092   6.333  11.776
35708SOL     OW 7147   7.363   5.928  12.814
35708SOL    HW1 7148   7.346   5.959  12.720
35708SOL    HW2 7149   7.279   5.891  12.852
35709SOL     OW 7150   7.316   6.520  12.689
35709SOL    HW1 7151   7.354   6.611  12.704
35709SOL    HW2 7152   7.308   6.503  12.590
35710SOL     OW 7153   6.445   6.960  11.188
35710SOL    HW1 7154   6.399   6.975  11.276
35710SOL    HW2 7155   6.489   7.045  11.158
35711SOL     OW 7156   6.247   7.376  12.125
35711SOL    HW1 7157   6.201   7.464  12.112
35711SOL    HW2 7158   6.346   7.388  12.118
35712SOL     OW 7159   6.445   6.542  12.033
35712SOL    HW1 7160   6.499   6.473  12.081
35712SOL    HW2 7161   6.413   6.611  12.099
35713SOL     OW 7162   6.669   6.570  11.259
35713SOL    HW1 7163   6.646   6.623  11.177
35713SOL    HW2 7164   6.750   6.514  11.240
35714SOL     OW 7165   7.447   7.155  12.023
35714SOL    HW1 7166   7.376   7.143  11.953
35714SOL    HW2 7167   7.448   7.076  12.083
35715SOL     OW 7168   5.665   6.826  11.825
35715SOL    HW1 7169   5.664   6.779  11.913
35715SOL    HW2 7170   5.747   6.798  11.774
35716SOL     OW 7171   6.258   6.977  12.796
35716SOL    HW1 7172   6.180   6.927  12.834
35716SOL    HW2 7173   6.255   7.072  12.827
35717SOL     OW 7174   7.410   5.778  12.399
35717SOL    HW1 7175   7.406   5.688  12.443
35717SOL    HW2 7176   7.413   5.767  12.300
35718SOL     OW 7177   6.014   6.010  11.692
35718SOL    HW1 7178   6.044   5.938  11.630
35718SOL    HW2 7179   5.975   5.970  11.775
35719SOL     OW 7180   7.291   7.073  12.276
35719SOL    HW1 7181   7.198   7.048  12.249
35719SOL    HW2 7182   7.317   7.023  12.358
35720SOL     OW 7183   5.903   6.133  12.452
35720SOL    HW1 7184   5.941   6.074  12.524
35720SOL    HW2 7185   5.943   6.107  12.364
35721SOL     OW 7186   6.398   7.172  11.859
35721SOL    HW1 7187   6.430   7.182  11.765
35721SOL    HW2 7188   6.319   7.110  11.861
35722SOL     OW 7189   7.010   5.800  12.284
35722SOL    HW1 7190   7.062   5.735  12.339
35722SOL    HW2 7191   6.961   5.863  12.345
35723SOL     OW 7192   6.587   5.620  12.326
35723SOL    HW1 7193   6.524   5.548  12.295
35723SOL    HW2 7194   6.680   5.584  12.326
35724SOL     OW 7195   6.356   6.916  11.473
35724SOL    HW1 7196   6.310   6.829  11.490
35724SOL    HW2 7197   6.447   6.913  11.514
35725SOL     OW 7198   6.204   7.153  12.456
35725SOL    HW1 7199   6.199   7.235  12.513
35725SOL    HW2 7200   6.293   7.150  12.411
35726SOL     OW 7201   6.938   5.638  11.340
35726SOL    HW1 7202   6.973   5.597  11.256
35726SOL    HW2 7203   6.848   5.600  11.360
35727SOL     OW 7204   6.886   6.039  11.863
35727SOL    HW1 7205   6.827   6.119  11.867
35727SOL    HW2 7206   6.901   6.004  11.956
35728SOL     OW 7207   7.179   5.807  12.054
35728SOL    HW1 7208   7.095   5.806  12.108
35728SOL    HW2 7209   7.181   5.890  11.998
35729SOL     OW 7210   5.625   6.663  11.472
35729SOL    HW1 7211   5.724   6.652  11.463
35729SOL    HW2 7212   5.585   6.577  11.504
35730SOL     OW 7213   6.461   7.232  11.509
35730SOL    HW1 7214   6.384   7.197  11.455
35730SOL    HW2 7215   6.429   7.303  11.571
35731SOL     OW 7216   5.816   8.076   0.113
35731SOL    HW1 7217   5.723   8.074   0.150
35731SOL    HW2 7218   5.817   8.037   0.021
35732SOL     OW 7219   5.811   7.723   0.996
35732SOL    HW1 7220   5.846   7.706   1.088
35732SOL    HW2 7221   5.723   7.678   0.984
35733SOL     OW 7222   5.605   7.816   0.647
35733SOL    HW1 7223   5.523   7.859   0.686
35733SOL    HW2 7224   5.577   7.743   0.584
35734SOL     OW 7225   6.155   8.723   1.165
35734SOL    HW1 7226   6.062   8.716   1.128
35734SOL    HW2 7227   6.166   8.812   1.209
35735SOL     OW 7228   7.141   8.959   0.703
35735SOL    HW1 7229   7.084   8.943   0.784
35735SOL    HW2 7230   7.082   8.969   0.623
35736SOL     OW 7231   6.721   8.151   0.717
35736SOL    HW1 7232   6.778   8.229   0.692
35736SOL    HW2 7233   6.661   8.177   0.793
35737SOL     OW 7234   7.341   8.055   0.231
35737SOL    HW1 7235   7.329   8.042   0.132
35737SOL    HW2 7236   7.311   7.974   0.280
35738SOL     OW 7237   6.354   8.592   1.023
35738SOL    HW1 7238   6.276   8.609   1.083
35738SOL    HW2 7239   6.388   8.679   0.987
35739SOL     OW 7240   6.436   8.246   1.823
35739SOL    HW1 7241   6.432   8.322   1.888
35739SOL    HW2 7242   6.458   8.282   1.732
35740SOL     OW 7243   6.271   8.460   0.665
35740SOL    HW1 7244   6.340   8.444   0.735
35740SOL    HW2 7245   6.198   8.517   0.703
35741SOL     OW 7246   6.272   8.609   1.803
35741SOL    HW1 7247   6.332   8.688   1.817
35741SOL    HW2 7248   6.186   8.640   1.762
35742SOL     OW 7249   5.921   8.883   1.061
35742SOL    HW1 7250   5.843   8.852   1.008
35742SOL    HW2 7251   5.979   8.941   1.004
35743SOL     OW 7252   7.046   8.953   1.339
35743SOL    HW1 7253   7.070   9.047   1.365
35743SOL    HW2 7254   7.030   8.899   1.421
35744SOL     OW 7255   6.024   7.840   1.499
35744SOL    HW1 7256   6.106   7.784   1.508
35744SOL    HW2 7257   5.943   7.782   1.503
35745SOL     OW 7258   7.189   7.895   0.737
35745SOL    HW1 7259   7.115   7.941   0.687
35745SOL    HW2 7260   7.240   7.963   0.790
35746SOL     OW 7261   5.817   9.161   0.483
35746SOL    HW1 7262   5.851   9.238   0.537
35746SOL    HW2 7263   5.861   9.161   0.393
35747SOL     OW 7264   5.816   8.882   0.538
35747SOL    HW1 7265   5.790   8.978   0.538
35747SOL    HW2 7266   5.745   8.828   0.583
35748SOL     OW 7267   5.826   8.539   0.886
35748SOL    HW1 7268   5.840   8.455   0.938
35748SOL    HW2 7269   5.771   8.603   0.941
35749SOL     OW 7270   6.206   9.234   1.439
35749SOL    HW1 7271   6.114   9.217   1.474
35749SOL    HW2 7272   6.234   9.326   1.465
35750SOL     OW 7273   6.192   8.412   0.123
35750SOL    HW1 7274   6.199   8.496   0.069
35750SOL    HW2 7275   6.238   8.425   0.211
35751SOL     OW 7276   7.180   7.562   1.480
35751SOL    HW1 7277   7.162   7.629   1.408
35751SOL    HW2 7278   7.177   7.608   1.569
35752SOL     OW 7279   5.708   8.091   0.563
35752SOL    HW1 7280   5.663   8.003   0.580
35752SOL    HW2 7281   5.707   8.145   0.647
35753SOL     OW 7282   7.428   9.215   0.359
35753SOL    HW1 7283   7.482   9.186   0.439
35753SOL    HW2 7284   7.458   9.305   0.330
35754SOL     OW 7285   5.613   9.044   0.117
35754SOL    HW1 7286   5.594   8.948   0.138
35754SOL    HW2 7287   5.580   9.102   0.192
35755SOL     OW 7288   7.275   8.370   0.612
35755SOL    HW1 7289   7.370   8.341   0.620
35755SOL    HW2 7290   7.267   8.435   0.537
35756SOL     OW 7291   7.227   8.556   0.432
35756SOL    HW1 7292   7.313   8.558   0.380
35756SOL    HW2 7293   7.241   8.603   0.520
35757SOL     OW 7294   5.699   8.185   1.597
35757SOL    HW1 7295   5.787   8.172   1.642
35757SOL    HW2 7296   5.686   8.282   1.575
35758SOL     OW 7297   6.199   8.813   0.726
35758SOL    HW1 7298   6.150   8.726   0.735
35758SOL    HW2 7299   6.176   8.856   0.639
35759SOL     OW 7300   6.879   8.676   1.423
35759SOL    HW1 7301   6.916   8.603   1.365
35759SOL    HW2 7302   6.931   8.681   1.508
35760SOL     OW 7303   6.395   7.452   0.502
35760SOL    HW1 7304   6.435   7.543   0.493
35760SOL    HW2 7305   6.295   7.460   0.508
35761SOL     OW 7306   5.783   8.424   1.264
35761SOL    HW1 7307   5.872   8.379   1.250
35761SOL    HW2 7308   5.710   8.359   1.245
35762SOL     OW 7309   7.111   8.447   0.190
35762SOL    HW1 7310   7.048   8.371   0.203
35762SOL    HW2 7311   7.159   8.465   0.276
35763SOL     OW 7312   6.773   9.240   1.616
35763SOL    HW1 7313   6.797   9.300   1.540
35763SOL    HW2 7314   6.780   9.145   1.586
35764SOL     OW 7315   5.903   7.699   1.801
35764SOL    HW1 7316   5.974   7.770   1.807
35764SOL    HW2 7317   5.815   7.738   1.829
35765SOL     OW 7318   7.052   8.865   0.953
35765SOL    HW1 7319   6.993   8.871   1.033
35765SOL    HW2 7320   7.037   8.777   0.907
35766SOL     OW 7321   7.253   9.162   0.572
35766SOL    HW1 7322   7.212   9.139   0.484
35766SOL    HW2 7323   7.235   9.088   0.637
35767SOL     OW 7324   6.184   8.177   0.270
35767SOL    HW1 7325   6.208   8.246   0.202
35767SOL    HW2 7326   6.106   8.210   0.324
35768SOL     OW 7327   6.867   7.793   0.944
35768SOL    HW1 7328   6.781   7.743   0.931
35768SOL    HW2 7329   6.929   7.739   1.000
35769SOL     OW 7330   7.162   9.110   0.307
35769SOL    HW1 7331   7.251   9.156   0.310
35769SOL    HW2 7332   7.141   9.086   0.212
35770SOL     OW 7333   6.393   8.053   1.465
35770SOL    HW1 7334   6.346   8.050   1.554
35770SOL    HW2 7335   6.342   7.998   1.399
35771SOL     OW 7336   6.980   7.917   1.674
35771SOL    HW1 7337   6.960   7.960   1.762
35771SOL    HW2 7338   7.058   7.855   1.683
35772SOL     OW 7339   6.559   8.338   1.572
35772SOL    HW1 7340   6.605   8.254   1.543
35772SOL    HW2 7341   6.503   8.372   1.497
35773SOL     OW 7342   6.577   7.858   1.242
35773SOL    HW1 7343   6.500   7.892   1.296
35773SOL    HW2 7344   6.543   7.807   1.163
35774SOL     OW 7345   6.627   8.149   0.429
35774SOL    HW1 7346   6.653   8.145   0.525
35774SOL    HW2 7347   6.542   8.098   0.415
35775SOL     OW 7348   5.662   8.259   0.789
35775SOL    HW1 7349   5.761   8.247   0.798
35775SOL    HW2 7350   5.638   8.354   0.810
35776SOL     OW 7351   5.716   9.269   1.571
35776SOL    HW1 7352   5.706   9.254   1.670
35776SOL    HW2 7353   5.630   9.305   1.535
35777SOL     OW 7354   6.451   7.796   0.195
35777SOL    HW1 7355   6.510   7.859   0.146
35777SOL    HW2 7356   6.470   7.702   0.166
35778SOL     OW 7357   7.305   8.033   1.831
35778SOL    HW1 7358   7.279   8.122   1.795
35778SOL    HW2 7359   7.303   7.965   1.758
35779SOL     OW 7360   6.948   8.592   0.545
35779SOL    HW1 7361   7.031   8.563   0.497
35779SOL    HW2 7362   6.899   8.659   0.489
35780SOL     OW 7363   6.136   7.644   0.885
35780SOL    HW1 7364   6.131   7.639   0.985
35780SOL    HW2 7365   6.138   7.740   0.856
35781SOL     OW 7366   6.594   8.904   0.477
35781SOL    HW1 7367   6.548   8.976   0.425
35781SOL    HW2 7368   6.590   8.924   0.575
35782SOL     OW 7369   5.937   9.249   0.853
35782SOL    HW1 7370   5.987   9.163   0.859
35782SOL    HW2 7371   6.002   9.326   0.850
35783SOL     OW 7372   7.381   8.514   0.873
35783SOL    HW1 7373   7.319   8.499   0.797
35783SOL    HW2 7374   7.329   8.525   0.958
35784SOL     OW 7375   6.813   8.998   1.506
35784SOL    HW1 7376   6.819   8.921   1.570
35784SOL    HW2 7377   6.761   8.972   1.426
35785SOL     OW 7378   5.907   8.391   0.242
35785SOL    HW1 7379   5.989   8.430   0.200
35785SOL    HW2 7380   5.880   8.309   0.193
35786SOL     OW 7381   7.044   8.183   0.728
35786SOL    HW1 7382   7.039   8.118   0.803
35786SOL    HW2 7383   7.124   8.242   0.741
35787SOL     OW 7384   6.047   8.714   1.727
35787SOL    HW1 7385   5.997   8.715   1.641
35787SOL    HW2 7386   5.984   8.696   1.803
35788SOL     OW 7387   6.697   9.224   0.237
35788SOL    HW1 7388   6.637   9.162   0.287
35788SOL    HW2 7389   6.728   9.180   0.152
35789SOL     OW 7390   5.788   7.733   1.498
35789SOL    HW1 7391   5.708   7.793   1.485
35789SOL    HW2 7392   5.778   7.684   1.584
35790SOL     OW 7393   7.218   8.825   0.081
35790SOL    HW1 7394   7.186   8.919   0.071
35790SOL    HW2 7395   7.142   8.762   0.069
35791SOL     OW 7396   6.050   9.191   0.323
35791SOL    HW1 7397   6.083   9.230   0.409
35791SOL    HW2 7398   6.126   9.184   0.258
35792SOL     OW 7399   6.986   7.555   0.426
35792SOL    HW1 7400   6.962   7.518   0.336
35792SOL    HW2 7401   7.085   7.571   0.430
35793SOL     OW 7402   5.835   9.233   1.241
35793SOL    HW1 7403   5.892   9.168   1.291
35793SOL    HW2 7404   5.819   9.200   1.148
35794SOL     OW 7405   6.526   9.146   0.904
35794SOL    HW1 7406   6.606   9.089   0.925
35794SOL    HW2 7407   6.477   9.106   0.827
35795SOL     OW 7408   5.968   8.148   0.480
35795SOL    HW1 7409   6.013   8.058   0.477
35795SOL    HW2 7410   5.874   8.137   0.513
35796SOL     OW 7411   7.133   7.670   1.729
35796SOL    HW1 7412   7.128   7.707   1.821
35796SOL    HW2 7413   7.061   7.601   1.717
35797SOL     OW 7414   6.200   7.570   0.117
35797SOL    HW1 7415   6.298   7.548   0.124
35797SOL    HW2 7416   6.169   7.553   0.024
35798SOL     OW 7417   6.367   7.712   1.749
35798SOL    HW1 7418   6.434   7.651   1.792
35798SOL    HW2 7419   6.294   7.731   1.814
35799SOL     OW 7420   6.474   8.962   1.195
35799SOL    HW1 7421   6.451   8.937   1.101
35799SOL    HW2 7422   6.535   8.893   1.234
35800SOL     OW 7423   6.937   8.038   1.433
35800SOL    HW1 7424   6.965   7.995   1.518
35800SOL    HW2 7425   6.962   8.134   1.434
35801SOL     OW 7426   6.389   8.850   0.924
35801SOL    HW1 7427   6.479   8.864   0.882
35801SOL    HW2 7428   6.318   8.852   0.853
35802SOL     OW 7429   6.508   7.951   0.899
35802SOL    HW1 7430   6.483   7.942   0.803
35802SOL    HW2 7431   6.556   7.869   0.930
35803SOL     OW 7432   6.125   7.512   0.512
35803SOL    HW1 7433   6.044   7.513   0.570
35803SOL    HW2 7434   6.128   7.595   0.457
35804SOL     OW 7435   7.020   8.636   0.041
35804SOL    HW1 7436   7.052   8.560   0.098
35804SOL    HW2 7437   6.928   8.663   0.071
35805SOL     OW 7438   5.883   7.483   0.171
35805SOL    HW1 7439   5.932   7.567   0.150
35805SOL    HW2 7440   5.945   7.418   0.216
35806SOL     OW 7441   6.521   7.684   0.480
35806SOL    HW1 7442   6.473   7.725   0.402
35806SOL    HW2 7443   6.620   7.682   0.461
35807SOL     OW 7444   6.662   8.131   1.464
35807SOL    HW1 7445   6.582   8.070   1.467
35807SOL    HW2 7446   6.743   8.078   1.440
35808SOL     OW 7447   6.813   9.018   0.793
35808SOL    HW1 7448   6.834   9.092   0.728
35808SOL    HW2 7449   6.881   9.018   0.866
35809SOL     OW 7450   6.045   8.600   0.741
35809SOL    HW1 7451   5.974   8.573   0.806
35809SOL    HW2 7452   6.019   8.572   0.648
35810SOL     OW 7453   6.857   9.245   0.591
35810SOL    HW1 7454   6.901   9.309   0.527
35810SOL    HW2 7455   6.807   9.297   0.661
35811SOL     OW 7456   6.618   7.997   0.016
35811SOL    HW1 7457   6.577   8.079  -0.023
35811SOL    HW2 7458   6.682   8.023   0.089
35812SOL     OW 7459   5.664   8.004   1.386
35812SOL    HW1 7460   5.756   8.003   1.345
35812SOL    HW2 7461   5.658   8.078   1.453
35813SOL     OW 7462   6.147   7.670   1.147
35813SOL    HW1 7463   6.185   7.586   1.184
35813SOL    HW2 7464   6.059   7.689   1.191
35814SOL     OW 7465   6.452   7.902   0.642
35814SOL    HW1 7466   6.420   7.974   0.580
35814SOL    HW2 7467   6.476   7.821   0.589
35815SOL     OW 7468   6.603   7.487   0.753
35815SOL    HW1 7469   6.531   7.492   0.684
35815SOL    HW2 7470   6.579   7.418   0.822
35816SOL     OW 7471   7.015   8.621   0.867
35816SOL    HW1 7472   6.960   8.537   0.860
35816SOL    HW2 7473   7.041   8.650   0.775
35817SOL     OW 7474   7.052   8.038   0.992
35817SOL    HW1 7475   7.022   7.943   0.999
35817SOL    HW2 7476   7.125   8.054   1.058
35818SOL     OW 7477   7.443   8.281   0.377
35818SOL    HW1 7478   7.485   8.217   0.441
35818SOL    HW2 7479   7.405   8.230   0.299
35819SOL     OW 7480   6.074   8.833   0.174
35819SOL    HW1 7481   5.987   8.818   0.221
35819SOL    HW2 7482   6.057   8.859   0.079
35820SOL     OW 7483   7.250   8.728   0.657
35820SOL    HW1 7484   7.349   8.736   0.671
35820SOL    HW2 7485   7.205   8.812   0.688
35821SOL     OW 7486   6.976   8.023   0.078
35821SOL    HW1 7487   6.922   8.002   0.159
35821SOL    HW2 7488   7.067   7.982   0.087
35822SOL     OW 7489   6.113   7.704   0.328
35822SOL    HW1 7490   6.140   7.645   0.253
35822SOL    HW2 7491   6.113   7.799   0.297
35823SOL     OW 7492   7.340   8.671   1.588
35823SOL    HW1 7493   7.431   8.632   1.575
35823SOL    HW2 7494   7.348   8.767   1.612
35824SOL     OW 7495   6.650   8.795   1.340
35824SOL    HW1 7496   6.570   8.772   1.395
35824SOL    HW2 7497   6.733   8.769   1.389
35825SOL     OW 7498   7.178   9.077   1.625
35825SOL    HW1 7499   7.205   9.111   1.535
35825SOL    HW2 7500   7.257   9.039   1.671
35826SOL     OW 7501   6.697   8.643   1.100
35826SOL    HW1 7502   6.657   8.687   1.181
35826SOL    HW2 7503   6.656   8.680   1.017
35827SOL     OW 7504   7.224   8.547   1.079
35827SOL    HW1 7505   7.229   8.628   1.138
35827SOL    HW2 7506   7.138   8.549   1.028
35828SOL     OW 7507   6.501   7.537   1.402
35828SOL    HW1 7508   6.526   7.517   1.307
35828SOL    HW2 7509   6.573   7.593   1.444
35829SOL     OW 7510   6.566   8.564   1.719
35829SOL    HW1 7511   6.467   8.570   1.729
35829SOL    HW2 7512   6.589   8.484   1.663
35830SOL     OW 7513   6.291   8.498   0.368
35830SOL    HW1 7514   6.277   8.505   0.467
35830SOL    HW2 7515   6.375   8.447   0.350
35831SOL     OW 7516   5.996   8.261   1.251
35831SOL    HW1 7517   6.082   8.273   1.301
35831SOL    HW2 7518   5.954   8.174   1.278
35832SOL     OW 7519   6.860   7.834   1.262
35832SOL    HW1 7520   6.881   7.908   1.326
35832SOL    HW2 7521   6.771   7.851   1.219
35833SOL     OW 7522   5.650   9.012   1.331
35833SOL    HW1 7523   5.604   9.094   1.297
35833SOL    HW2 7524   5.748   9.031   1.340
35834SOL     OW 7525   5.953   8.548   0.501
35834SOL    HW1 7526   5.946   8.631   0.445
35834SOL    HW2 7527   5.957   8.468   0.441
35835SOL     OW 7528   6.152   7.985   0.865
35835SOL    HW1 7529   6.164   8.051   0.791
35835SOL    HW2 7530   6.198   8.019   0.948
35836SOL     OW 7531   6.838   8.796   0.388
35836SOL    HW1 7532   6.888   8.873   0.428
35836SOL    HW2 7533   6.743   8.798   0.420
35837SOL     OW 7534   6.858   8.893   1.142
35837SOL    HW1 7535   6.905   8.906   1.229
35837SOL    HW2 7536   6.792   8.819   1.151
35838SOL     OW 7537   7.168   8.087   0.472
35838SOL    HW1 7538   7.137   8.148   0.545
35838SOL    HW2 7539   7.218   8.139   0.403
35839SOL     OW 7540   5.940   8.958   1.329
35839SOL    HW1 7541   5.919   8.914   1.242
35839SOL    HW2 7542   6.037   8.984   1.332
35840SOL     OW 7543   5.988   8.199   1.598
35840SOL    HW1 7544   6.056   8.254   1.551
35840SOL    HW2 7545   6.028   8.111   1.625
35841SOL     OW 7546   7.173   8.227   1.670
35841SOL    HW1 7547   7.081   8.265   1.665
35841SOL    HW2 7548   7.233   8.274   1.605
35842SOL     OW 7549   6.599   7.553   1.770
35842SOL    HW1 7550   6.605   7.638   1.718
35842SOL    HW2 7551   6.631   7.477   1.713
35843SOL     OW 7552   6.090   7.498   1.740
35843SOL    HW1 7553   6.048   7.441   1.670
35843SOL    HW2 7554   6.024   7.567   1.772
35844SOL     OW 7555   6.159   8.318   1.029
35844SOL    HW1 7556   6.203   8.407   1.020
35844SOL    HW2 7557   6.096   8.318   1.106
35845SOL     OW 7558   6.946   8.310   1.045
35845SOL    HW1 7559   6.871   8.310   0.979
35845SOL    HW2 7560   6.983   8.218   1.054
35846SOL     OW 7561   6.795   7.973   0.275
35846SOL    HW1 7562   6.808   7.889   0.329
35846SOL    HW2 7563   6.766   8.047   0.335
35847SOL     OW 7564   5.893   7.661   1.231
35847SOL    HW1 7565   5.870   7.698   1.321
35847SOL    HW2 7566   5.863   7.566   1.225
35848SOL     OW 7567   5.623   8.758   1.282
35848SOL    HW1 7568   5.676   8.709   1.350
35848SOL    HW2 7569   5.645   8.856   1.287
35849SOL     OW 7570   6.318   8.082   1.064
35849SOL    HW1 7571   6.377   8.056   0.988
35849SOL    HW2 7572   6.290   8.178   1.053
35850SOL     OW 7573   7.314   8.383   1.854
35850SOL    HW1 7574   7.268   8.376   1.765
35850SOL    HW2 7575   7.252   8.427   1.920
35851SOL     OW 7576   5.893   7.511   0.618
35851SOL    HW1 7577   5.882   7.605   0.651
35851SOL    HW2 7578   5.888   7.448   0.695
35852SOL     OW 7579   7.208   7.815   0.374
35852SOL    HW1 7580   7.210   7.739   0.438
35852SOL    HW2 7581   7.160   7.892   0.414
35853SOL     OW 7582   6.609   8.214   0.966
35853SOL    HW1 7583   6.624   8.235   1.062
35853SOL    HW2 7584   6.579   8.119   0.957
35854SOL     OW 7585   6.566   9.021   1.700
35854SOL    HW1 7586   6.546   9.065   1.612
35854SOL    HW2 7587   6.605   8.930   1.684
35855SOL     OW 7588   7.445   8.966   1.605
35855SOL    HW1 7589   7.459   8.993   1.510
35855SOL    HW2 7590   7.528   8.988   1.658
35856SOL     OW 7591   5.936   8.346   1.804
35856SOL    HW1 7592   6.012   8.390   1.852
35856SOL    HW2 7593   5.971   8.299   1.722
35857SOL     OW 7594   7.126   7.722   0.125
35857SOL    HW1 7595   7.065   7.647   0.148
35857SOL    HW2 7596   7.148   7.774   0.208
35858SOL     OW 7597   6.889   8.286   0.042
35858SOL    HW1 7598   6.923   8.193   0.057
35858SOL    HW2 7599   6.907   8.313  -0.053
35859SOL     OW 7600   6.654   8.781   0.849
35859SOL    HW1 7601   6.661   8.697   0.794
35859SOL    HW2 7602   6.716   8.850   0.813
35860SOL     OW 7603   5.905   8.258   0.949
35860SOL    HW1 7604   5.998   8.294   0.954
35860SOL    HW2 7605   5.899   8.173   1.001
35861SOL     OW 7606   5.925   7.957   1.006
35861SOL    HW1 7607   5.873   7.874   0.989
35861SOL    HW2 7608   6.002   7.962   0.942
35862SOL     OW 7609   6.724   7.828   1.678
35862SOL    HW1 7610   6.679   7.891   1.742
35862SOL    HW2 7611   6.817   7.859   1.661
35863SOL     OW 7612   6.746   7.655   1.477
35863SOL    HW1 7613   6.746   7.719   1.554
35863SOL    HW2 7614   6.774   7.703   1.394
35864SOL     OW 7615   5.594   8.774   0.200
35864SOL    HW1 7616   5.501   8.795   0.169
35864SOL    HW2 7617   5.604   8.675   0.213
35865SOL     OW 7618   5.674   9.249   0.927
35865SOL    HW1 7619   5.632   9.163   0.900
35865SOL    HW2 7620   5.768   9.252   0.893
35866SOL     OW 7621   6.090   9.016   0.910
35866SOL    HW1 7622   6.156   9.090   0.919
35866SOL    HW2 7623   6.134   8.937   0.868
35867SOL     OW 7624   6.588   8.244   1.238
35867SOL    HW1 7625   6.629   8.212   1.324
35867SOL    HW2 7626   6.492   8.217   1.235
35868SOL     OW 7627   5.626   7.992   1.114
35868SOL    HW1 7628   5.711   7.959   1.073
35868SOL    HW2 7629   5.639   8.007   1.212
35869SOL     OW 7630   5.775   7.968   1.722
35869SOL    HW1 7631   5.834   7.928   1.652
35869SOL    HW2 7632   5.717   8.039   1.681
35870SOL     OW 7633   6.955   8.398   1.660
35870SOL    HW1 7634   6.994   8.487   1.680
35870SOL    HW2 7635   6.965   8.378   1.563
35871SOL     OW 7636   6.401   8.020   0.325
35871SOL    HW1 7637   6.408   7.931   0.279
35871SOL    HW2 7638   6.307   8.054   0.317
35872SOL     OW 7639   7.243   8.052   1.206
35872SOL    HW1 7640   7.205   7.983   1.268
35872SOL    HW2 7641   7.325   8.016   1.162
35873SOL     OW 7642   5.838   9.012   1.744
35873SOL    HW1 7643   5.808   9.069   1.820
35873SOL    HW2 7644   5.831   8.915   1.770
35874SOL     OW 7645   6.257   7.912   1.269
35874SOL    HW1 7646   6.223   7.823   1.239
35874SOL    HW2 7647   6.283   7.966   1.189
35875SOL     OW 7648   6.516   9.126   1.465
35875SOL    HW1 7649   6.492   9.108   1.370
35875SOL    HW2 7650   6.546   9.220   1.475
35876SOL     OW 7651   6.059   7.948   0.191
35876SOL    HW1 7652   6.120   8.028   0.195
35876SOL    HW2 7653   5.964   7.979   0.198
35877SOL     OW 7654   5.745   8.585   1.466
35877SOL    HW1 7655   5.767   8.524   1.542
35877SOL    HW2 7656   5.755   8.536   1.380
35878SOL     OW 7657   6.933   8.507   1.234
35878SOL    HW1 7658   6.957   8.444   1.160
35878SOL    HW2 7659   6.843   8.547   1.216
35879SOL     OW 7660   6.888   8.303   0.309
35879SOL    HW1 7661   6.802   8.272   0.351
35879SOL    HW2 7662   6.884   8.289   0.210
35880SOL     OW 7663   7.345   9.195   1.154
35880SOL    HW1 7664   7.406   9.225   1.081
35880SOL    HW2 7665   7.307   9.106   1.132
35881SOL     OW 7666   6.838   9.179   1.128
35881SOL    HW1 7667   6.922   9.184   1.074
35881SOL    HW2 7668   6.815   9.083   1.146
35882SOL     OW 7669   5.669   8.706   1.022
35882SOL    HW1 7670   5.664   8.705   1.122
35882SOL    HW2 7671   5.586   8.665   0.984
35883SOL     OW 7672   6.274   9.110   1.716
35883SOL    HW1 7673   6.218   9.191   1.725
35883SOL    HW2 7674   6.326   9.114   1.630
35884SOL     OW 7675   6.489   7.534   0.133
35884SOL    HW1 7676   6.540   7.535   0.047
35884SOL    HW2 7677   6.545   7.492   0.204
35885SOL     OW 7678   7.312   7.583   0.523
35885SOL    HW1 7679   7.385   7.566   0.456
35885SOL    HW2 7680   7.281   7.496   0.561
35886SOL     OW 7681   6.974   9.021   0.477
35886SOL    HW1 7682   7.041   9.033   0.403
35886SOL    HW2 7683   6.934   9.110   0.500
35887SOL     OW 7684   5.716   9.242   1.851
35887SOL    HW1 7685   5.675   9.168   1.904
35887SOL    HW2 7686   5.780   9.293   1.909
35888SOL     OW 7687   6.866   8.375   0.672
35888SOL    HW1 7688   6.926   8.294   0.674
35888SOL    HW2 7689   6.906   8.444   0.612
35889SOL     OW 7690   6.416   8.721   1.422
35889SOL    HW1 7691   6.411   8.754   1.517
35889SOL    HW2 7692   6.330   8.740   1.376
35890SOL     OW 7693   6.258   9.064   0.154
35890SOL    HW1 7694   6.267   9.074   0.055
35890SOL    HW2 7695   6.218   8.975   0.175
35891SOL     OW 7696   7.236   9.168   1.394
35891SOL    HW1 7697   7.289   9.178   1.310
35891SOL    HW2 7698   7.209   9.258   1.428
35892SOL     OW 7699   7.427   7.623   0.963
35892SOL    HW1 7700   7.466   7.538   0.927
35892SOL    HW2 7701   7.329   7.625   0.944
35893SOL     OW 7702   5.849   7.774   0.720
35893SOL    HW1 7703   5.770   7.825   0.686
35893SOL    HW2 7704   5.840   7.759   0.818
35894SOL     OW 7705   6.780   9.060   0.031
35894SOL    HW1 7706   6.786   8.967   0.068
35894SOL    HW2 7707   6.721   9.060  -0.049
35895SOL     OW 7708   6.408   8.450   1.372
35895SOL    HW1 7709   6.448   8.449   1.280
35895SOL    HW2 7710   6.418   8.542   1.412
35896SOL     OW 7711   6.502   8.358   0.291
35896SOL    HW1 7712   6.565   8.396   0.223
35896SOL    HW2 7713   6.542   8.275   0.330
35897SOL     OW 7714   7.090   9.055   0.044
35897SOL    HW1 7715   6.998   9.092   0.051
35897SOL    HW2 7716   7.128   9.075  -0.046
35898SOL     OW 7717   5.958   8.736   1.490
35898SOL    HW1 7718   5.945   8.829   1.456
35898SOL    HW2 7719   5.874   8.684   1.477
35899SOL     OW 7720   7.200   8.740   1.289
35899SOL    HW1 7721   7.260   8.743   1.369
35899SOL    HW2 7722   7.125   8.804   1.302
35900SOL     OW 7723   6.625   8.546   0.696
35900SOL    HW1 7724   6.555   8.499   0.750
35900SOL    HW2 7725   6.684   8.478   0.653
35901SOL     OW 7726   6.600   7.684   0.971
35901SOL    HW1 7727   6.592   7.648   0.878
35901SOL    HW2 7728   6.598   7.608   1.036
35902SOL     OW 7729   6.176   8.935   0.491
35902SOL    HW1 7730   6.218   8.877   0.421
35902SOL    HW2 7731   6.132   9.014   0.447
35903SOL     OW 7732   7.295   7.833   1.381
35903SOL    HW1 7733   7.368   7.902   1.385
35903SOL    HW2 7734   7.323   7.758   1.322
35904SOL     OW 7735   5.841   8.796   0.290
35904SOL    HW1 7736   5.745   8.797   0.263
35904SOL    HW2 7737   5.853   8.849   0.374
35905SOL     OW 7738   5.691   8.461   1.726
35905SOL    HW1 7739   5.614   8.428   1.780
35905SOL    HW2 7740   5.776   8.431   1.768
35906SOL     OW 7741   6.258   7.651   1.489
35906SOL    HW1 7742   6.348   7.635   1.449
35906SOL    HW2 7743   6.266   7.656   1.588
35907SOL     OW 7744   7.026   8.304   1.398
35907SOL    HW1 7745   6.969   8.356   1.335
35907SOL    HW2 7746   7.122   8.316   1.374
35908SOL     OW 7747   5.658   7.614   0.318
35908SOL    HW1 7748   5.641   7.697   0.264
35908SOL    HW2 7749   5.748   7.577   0.296
35909SOL     OW 7750   6.769   8.783   0.119
35909SOL    HW1 7751   6.670   8.772   0.121
35909SOL    HW2 7752   6.803   8.798   0.212
35910SOL     OW 7753   6.199   8.290   1.431
35910SOL    HW1 7754   6.255   8.371   1.414
35910SOL    HW2 7755   6.258   8.210   1.434
35911SOL     OW 7756   7.079   9.215   0.959
35911SOL    HW1 7757   7.112   9.279   0.890
35911SOL    HW2 7758   7.145   9.209   1.034
35912SOL     OW 7759   6.302   8.013   1.708
35912SOL    HW1 7760   6.321   8.078   1.782
35912SOL    HW2 7761   6.362   7.933   1.717
35913SOL     OW 7762   7.036   8.668   1.633
35913SOL    HW1 7763   7.027   8.658   1.732
35913SOL    HW2 7764   7.132   8.661   1.607
35914SOL     OW 7765   5.976   9.189   1.560
35914SOL    HW1 7766   5.885   9.230   1.558
35914SOL    HW2 7767   5.969   9.095   1.592
35915SOL     OW 7768   7.260   8.331   1.254
35915SOL    HW1 7769   7.233   8.242   1.217
35915SOL    HW2 7770   7.261   8.399   1.181
35916SOL     OW 7771   6.811   7.773   0.449
35916SOL    HW1 7772   6.876   7.699   0.438
35916SOL    HW2 7773   6.831   7.823   0.533
35917SOL     OW 7774   6.180   8.193   0.652
35917SOL    HW1 7775   6.230   8.278   0.633
35917SOL    HW2 7776   6.092   8.195   0.604
35918SOL     OW 7777   7.363   7.790   1.642
35918SOL    HW1 7778   7.346   7.821   1.548
35918SOL    HW2 7779   7.279   7.753   1.680
35919SOL     OW 7780   7.316   8.382   1.517
35919SOL    HW1 7781   7.354   8.473   1.532
35919SOL    HW2 7782   7.308   8.365   1.418
35920SOL     OW 7783   6.445   8.822   0.016
35920SOL    HW1 7784   6.399   8.837   0.104
35920SOL    HW2 7785   6.489   8.907  -0.014
35921SOL     OW 7786   6.247   9.238   0.953
35921SOL    HW1 7787   6.201   9.326   0.940
35921SOL    HW2 7788   6.346   9.250   0.946
35922SOL     OW 7789   6.445   8.404   0.861
35922SOL    HW1 7790   6.499   8.335   0.909
35922SOL    HW2 7791   6.413   8.473   0.927
35923SOL     OW 7792   6.669   8.432   0.087
35923SOL    HW1 7793   6.646   8.485   0.005
35923SOL    HW2 7794   6.750   8.376   0.068
35924SOL     OW 7795   7.447   9.017   0.851
35924SOL    HW1 7796   7.376   9.005   0.781
35924SOL    HW2 7797   7.448   8.938   0.911
35925SOL     OW 7798   5.807   8.762   1.844
35925SOL    HW1 7799   5.742   8.689   1.823
35925SOL    HW2 7800   5.811   8.776   1.942
35926SOL     OW 7801   5.665   8.688   0.653
35926SOL    HW1 7802   5.664   8.641   0.741
35926SOL    HW2 7803   5.747   8.660   0.602
35927SOL     OW 7804   6.258   8.839   1.624
35927SOL    HW1 7805   6.180   8.789   1.662
35927SOL    HW2 7806   6.255   8.934   1.655
35928SOL     OW 7807   7.410   7.640   1.227
35928SOL    HW1 7808   7.406   7.550   1.271
35928SOL    HW2 7809   7.413   7.629   1.128
35929SOL     OW 7810   6.014   7.872   0.520
35929SOL    HW1 7811   6.044   7.800   0.458
35929SOL    HW2 7812   5.975   7.832   0.603
35930SOL     OW 7813   7.291   8.935   1.104
35930SOL    HW1 7814   7.198   8.910   1.077
35930SOL    HW2 7815   7.317   8.885   1.186
35931SOL     OW 7816   5.903   7.995   1.280
35931SOL    HW1 7817   5.941   7.936   1.352
35931SOL    HW2 7818   5.943   7.969   1.192
35932SOL     OW 7819   6.398   9.034   0.687
35932SOL    HW1 7820   6.430   9.044   0.593
35932SOL    HW2 7821   6.319   8.972   0.689
35933SOL     OW 7822   7.010   7.662   1.112
35933SOL    HW1 7823   7.062   7.597   1.167
35933SOL    HW2 7824   6.961   7.725   1.173
35934SOL     OW 7825   6.587   7.482   1.154
35934SOL    HW1 7826   6.524   7.410   1.123
35934SOL    HW2 7827   6.680   7.446   1.154
35935SOL     OW 7828   6.356   8.778   0.301
35935SOL    HW1 7829   6.310   8.691   0.318
35935SOL    HW2 7830   6.447   8.775   0.342
35936SOL     OW 7831   6.204   9.015   1.284
35936SOL    HW1 7832   6.199   9.097   1.341
35936SOL    HW2 7833   6.293   9.012   1.239
35937SOL     OW 7834   6.938   7.500   0.168
35937SOL    HW1 7835   6.973   7.459   0.084
35937SOL    HW2 7836   6.848   7.462   0.188
35938SOL     OW 7837   6.886   7.901   0.691
35938SOL    HW1 7838   6.827   7.981   0.695
35938SOL    HW2 7839   6.901   7.866   0.784
35939SOL     OW 7840   7.179   7.669   0.882
35939SOL    HW1 7841   7.095   7.668   0.936
35939SOL    HW2 7842   7.181   7.752   0.826
35940SOL     OW 7843   5.625   8.525   0.300
35940SOL    HW1 7844   5.724   8.514   0.291
35940SOL    HW2 7845   5.585   8.439   0.332
35941SOL     OW 7846   6.461   9.094   0.337
35941SOL    HW1 7847   6.384   9.059   0.283
35941SOL    HW2 7848   6.429   9.165   0.399
35942SOL     OW 7849   5.816   8.076   1.975
35942SOL    HW1 7850   5.723   8.074   2.012
35942SOL    HW2 7851   5.817   8.037   1.883
35943SOL     OW 7852   5.811   7.723   2.858
35943SOL    HW1 7853   5.846   7.706   2.950
35943SOL    HW2 7854   5.723   7.678   2.846
35944SOL     OW 7855   5.605   7.816   2.509
35944SOL    HW1 7856   5.523   7.859   2.548
35944SOL    HW2 7857   5.577   7.743   2.446
35945SOL     OW 7858   6.155   8.723   3.027
35945SOL    HW1 7859   6.062   8.716   2.990
35945SOL    HW2 7860   6.166   8.812   3.071
35946SOL     OW 7861   7.141   8.959   2.565
35946SOL    HW1 7862   7.084   8.943   2.646
35946SOL    HW2 7863   7.082   8.969   2.485
35947SOL     OW 7864   6.721   8.151   2.579
35947SOL    HW1 7865   6.778   8.229   2.554
35947SOL    HW2 7866   6.661   8.177   2.655
35948SOL     OW 7867   7.341   8.055   2.093
35948SOL    HW1 7868   7.329   8.042   1.994
35948SOL    HW2 7869   7.311   7.974   2.142
35949SOL     OW 7870   6.354   8.592   2.885
35949SOL    HW1 7871   6.276   8.609   2.945
35949SOL    HW2 7872   6.388   8.679   2.849
35950SOL     OW 7873   6.436   8.246   3.685
35950SOL    HW1 7874   6.432   8.322   3.750
35950SOL    HW2 7875   6.458   8.282   3.594
35951SOL     OW 7876   6.271   8.460   2.527
35951SOL    HW1 7877   6.340   8.444   2.597
35951SOL    HW2 7878   6.198   8.517   2.565
35952SOL     OW 7879   6.272   8.609   3.665
35952SOL    HW1 7880   6.332   8.688   3.679
35952SOL    HW2 7881   6.186   8.640   3.624
35953SOL     OW 7882   5.921   8.883   2.923
35953SOL    HW1 7883   5.843   8.852   2.870
35953SOL    HW2 7884   5.979   8.941   2.866
35954SOL     OW 7885   7.046   8.953   3.201
35954SOL    HW1 7886   7.070   9.047   3.227
35954SOL    HW2 7887   7.030   8.899   3.283
35955SOL     OW 7888   6.024   7.840   3.361
35955SOL    HW1 7889   6.106   7.784   3.370
35955SOL    HW2 7890   5.943   7.782   3.365
35956SOL     OW 7891   7.189   7.895   2.599
35956SOL    HW1 7892   7.115   7.941   2.549
35956SOL    HW2 7893   7.240   7.963   2.652
35957SOL     OW 7894   5.817   9.161   2.345
35957SOL    HW1 7895   5.851   9.238   2.399
35957SOL    HW2 7896   5.861   9.161   2.255
35958SOL     OW 7897   6.713   8.789   3.552
35958SOL    HW1 7898   6.760   8.789   3.640
35958SOL    HW2 7899   6.665   8.702   3.541
35959SOL     OW 7900   5.816   8.882   2.400
35959SOL    HW1 7901   5.790   8.978   2.400
35959SOL    HW2 7902   5.745   8.828   2.445
35960SOL     OW 7903   5.826   8.539   2.748
35960SOL    HW1 7904   5.840   8.455   2.800
35960SOL    HW2 7905   5.771   8.603   2.803
35961SOL     OW 7906   6.206   9.234   3.301
35961SOL    HW1 7907   6.114   9.217   3.336
35961SOL    HW2 7908   6.234   9.326   3.327
35962SOL     OW 7909   6.192   8.412   1.985
35962SOL    HW1 7910   6.199   8.496   1.931
35962SOL    HW2 7911   6.238   8.425   2.073
35963SOL     OW 7912   7.180   7.562   3.342
35963SOL    HW1 7913   7.162   7.629   3.270
35963SOL    HW2 7914   7.177   7.608   3.431
35964SOL     OW 7915   5.708   8.091   2.425
35964SOL    HW1 7916   5.663   8.003   2.442
35964SOL    HW2 7917   5.707   8.145   2.509
35965SOL     OW 7918   7.428   9.215   2.221
35965SOL    HW1 7919   7.482   9.186   2.301
35965SOL    HW2 7920   7.458   9.305   2.192
35966SOL     OW 7921   5.613   9.044   1.979
35966SOL    HW1 7922   5.594   8.948   2.000
35966SOL    HW2 7923   5.580   9.102   2.054
35967SOL     OW 7924   7.275   8.370   2.474
35967SOL    HW1 7925   7.370   8.341   2.482
35967SOL    HW2 7926   7.267   8.435   2.399
35968SOL     OW 7927   7.227   8.556   2.294
35968SOL    HW1 7928   7.313   8.558   2.242
35968SOL    HW2 7929   7.241   8.603   2.382
35969SOL     OW 7930   5.699   8.185   3.459
35969SOL    HW1 7931   5.787   8.172   3.504
35969SOL    HW2 7932   5.686   8.282   3.437
35970SOL     OW 7933   6.199   8.813   2.588
35970SOL    HW1 7934   6.150   8.726   2.597
35970SOL    HW2 7935   6.176   8.856   2.501
35971SOL     OW 7936   6.879   8.676   3.285
35971SOL    HW1 7937   6.916   8.603   3.227
35971SOL    HW2 7938   6.931   8.681   3.370
35972SOL     OW 7939   6.395   7.452   2.364
35972SOL    HW1 7940   6.435   7.543   2.355
35972SOL    HW2 7941   6.295   7.460   2.370
35973SOL     OW 7942   5.783   8.424   3.126
35973SOL    HW1 7943   5.872   8.379   3.112
35973SOL    HW2 7944   5.710   8.359   3.107
35974SOL     OW 7945   7.111   8.447   2.052
35974SOL    HW1 7946   7.048   8.371   2.065
35974SOL    HW2 7947   7.159   8.465   2.138
35975SOL     OW 7948   6.773   9.240   3.478
35975SOL    HW1 7949   6.797   9.300   3.402
35975SOL    HW2 7950   6.780   9.145   3.448
35976SOL     OW 7951   5.903   7.699   3.663
35976SOL    HW1 7952   5.974   7.770   3.669
35976SOL    HW2 7953   5.815   7.738   3.691
35977SOL     OW 7954   7.052   8.865   2.815
35977SOL    HW1 7955   6.993   8.871   2.895
35977SOL    HW2 7956   7.037   8.777   2.769
35978SOL     OW 7957   7.253   9.162   2.434
35978SOL    HW1 7958   7.212   9.139   2.346
35978SOL    HW2 7959   7.235   9.088   2.499
35979SOL     OW 7960   6.184   8.177   2.132
35979SOL    HW1 7961   6.208   8.246   2.064
35979SOL    HW2 7962   6.106   8.210   2.186
35980SOL     OW 7963   6.867   7.793   2.806
35980SOL    HW1 7964   6.781   7.743   2.793
35980SOL    HW2 7965   6.929   7.739   2.862
35981SOL     OW 7966   7.162   9.110   2.169
35981SOL    HW1 7967   7.251   9.156   2.172
35981SOL    HW2 7968   7.141   9.086   2.074
35982SOL     OW 7969   6.393   8.053   3.327
35982SOL    HW1 7970   6.346   8.050   3.416
35982SOL    HW2 7971   6.342   7.998   3.261
35983SOL     OW 7972   6.980   7.917   3.536
35983SOL    HW1 7973   6.960   7.960   3.624
35983SOL    HW2 7974   7.058   7.855   3.545
35984SOL     OW 7975   6.559   8.338   3.434
35984SOL    HW1 7976   6.605   8.254   3.405
35984SOL    HW2 7977   6.503   8.372   3.359
35985SOL     OW 7978   6.577   7.858   3.104
35985SOL    HW1 7979   6.500   7.892   3.158
35985SOL    HW2 7980   6.543   7.807   3.025
35986SOL     OW 7981   6.627   8.149   2.291
35986SOL    HW1 7982   6.653   8.145   2.387
35986SOL    HW2 7983   6.542   8.098   2.277
35987SOL     OW 7984   5.662   8.259   2.651
35987SOL    HW1 7985   5.761   8.247   2.660
35987SOL    HW2 7986   5.638   8.354   2.672
35988SOL     OW 7987   5.716   9.269   3.433
35988SOL    HW1 7988   5.706   9.254   3.532
35988SOL    HW2 7989   5.630   9.305   3.397
35989SOL     OW 7990   6.451   7.796   2.057
35989SOL    HW1 7991   6.510   7.859   2.008
35989SOL    HW2 7992   6.470   7.702   2.028
35990SOL     OW 7993   7.305   8.033   3.693
35990SOL    HW1 7994   7.279   8.122   3.657
35990SOL    HW2 7995   7.303   7.965   3.620
35991SOL     OW 7996   6.948   8.592   2.407
35991SOL    HW1 7997   7.031   8.563   2.359
35991SOL    HW2 7998   6.899   8.659   2.351
35992SOL     OW 7999   6.136   7.644   2.747
35992SOL    HW1 8000   6.131   7.639   2.847
35992SOL    HW2 8001   6.138   7.740   2.718
35993SOL     OW 8002   6.594   8.904   2.339
35993SOL    HW1 8003   6.548   8.976   2.287
35993SOL    HW2 8004   6.590   8.924   2.437
35994SOL     OW 8005   5.937   9.249   2.715
35994SOL    HW1 8006   5.987   9.163   2.721
35994SOL    HW2 8007   6.002   9.326   2.712
35995SOL     OW 8008   7.381   8.514   2.735
35995SOL    HW1 8009   7.319   8.499   2.659
35995SOL    HW2 8010   7.329   8.525   2.820
35996SOL     OW 8011   6.813   8.998   3.368
35996SOL    HW1 8012   6.819   8.921   3.432
35996SOL    HW2 8013   6.761   8.972   3.288
35997SOL     OW 8014   5.907   8.391   2.104
35997SOL    HW1 8015   5.989   8.430   2.062
35997SOL    HW2 8016   5.880   8.309   2.055
35998SOL     OW 8017   7.044   8.183   2.590
35998SOL    HW1 8018   7.039   8.118   2.665
35998SOL    HW2 8019   7.124   8.242   2.603
35999SOL     OW 8020   6.047   8.714   3.589
35999SOL    HW1 8021   5.997   8.715   3.503
35999SOL    HW2 8022   5.984   8.696   3.665
36000SOL     OW 8023   6.697   9.224   2.099
36000SOL    HW1 8024   6.637   9.162   2.149
36000SOL    HW2 8025   6.728   9.180   2.014
36001SOL     OW 8026   5.788   7.733   3.360
36001SOL    HW1 8027   5.708   7.793   3.347
36001SOL    HW2 8028   5.778   7.684   3.446
36002SOL     OW 8029   7.218   8.825   1.943
36002SOL    HW1 8030   7.186   8.919   1.933
36002SOL    HW2 8031   7.142   8.762   1.931
36003SOL     OW 8032   6.050   9.191   2.185
36003SOL    HW1 8033   6.083   9.230   2.271
36003SOL    HW2 8034   6.126   9.184   2.120
36004SOL     OW 8035   5.835   9.233   3.103
36004SOL    HW1 8036   5.892   9.168   3.153
36004SOL    HW2 8037   5.819   9.200   3.010
36005SOL     OW 8038   6.526   9.146   2.766
36005SOL    HW1 8039   6.606   9.089   2.787
36005SOL    HW2 8040   6.477   9.106   2.689
36006SOL     OW 8041   5.968   8.148   2.342
36006SOL    HW1 8042   6.013   8.058   2.339
36006SOL    HW2 8043   5.874   8.137   2.375
36007SOL     OW 8044   7.133   7.670   3.591
36007SOL    HW1 8045   7.128   7.707   3.683
36007SOL    HW2 8046   7.061   7.601   3.579
36008SOL     OW 8047   6.200   7.570   1.979
36008SOL    HW1 8048   6.298   7.548   1.986
36008SOL    HW2 8049   6.169   7.553   1.886
36009SOL     OW 8050   6.367   7.712   3.611
36009SOL    HW1 8051   6.434   7.651   3.654
36009SOL    HW2 8052   6.294   7.731   3.676
36010SOL     OW 8053   6.474   8.962   3.057
36010SOL    HW1 8054   6.451   8.937   2.963
36010SOL    HW2 8055   6.535   8.893   3.096
36011SOL     OW 8056   6.937   8.038   3.295
36011SOL    HW1 8057   6.965   7.995   3.380
36011SOL    HW2 8058   6.962   8.134   3.296
36012SOL     OW 8059   6.389   8.850   2.786
36012SOL    HW1 8060   6.479   8.864   2.744
36012SOL    HW2 8061   6.318   8.852   2.715
36013SOL     OW 8062   6.508   7.951   2.761
36013SOL    HW1 8063   6.483   7.942   2.665
36013SOL    HW2 8064   6.556   7.869   2.792
36014SOL     OW 8065   6.125   7.512   2.374
36014SOL    HW1 8066   6.044   7.513   2.432
36014SOL    HW2 8067   6.128   7.595   2.319
36015SOL     OW 8068   7.020   8.636   1.903
36015SOL    HW1 8069   7.052   8.560   1.960
36015SOL    HW2 8070   6.928   8.663   1.933
36016SOL     OW 8071   5.883   7.483   2.033
36016SOL    HW1 8072   5.932   7.567   2.012
36016SOL    HW2 8073   5.945   7.418   2.078
36017SOL     OW 8074   6.521   7.684   2.342
36017SOL    HW1 8075   6.473   7.725   2.264
36017SOL    HW2 8076   6.620   7.682   2.323
36018SOL     OW 8077   6.662   8.131   3.326
36018SOL    HW1 8078   6.582   8.070   3.329
36018SOL    HW2 8079   6.743   8.078   3.302
36019SOL     OW 8080   6.813   9.018   2.655
36019SOL    HW1 8081   6.834   9.092   2.590
36019SOL    HW2 8082   6.881   9.018   2.728
36020SOL     OW 8083   6.045   8.600   2.603
36020SOL    HW1 8084   5.974   8.573   2.668
36020SOL    HW2 8085   6.019   8.572   2.510
36021SOL     OW 8086   6.857   9.245   2.453
36021SOL    HW1 8087   6.901   9.309   2.389
36021SOL    HW2 8088   6.807   9.297   2.523
36022SOL     OW 8089   6.618   7.997   1.878
36022SOL    HW1 8090   6.577   8.079   1.839
36022SOL    HW2 8091   6.682   8.023   1.951
36023SOL     OW 8092   5.664   8.004   3.248
36023SOL    HW1 8093   5.756   8.003   3.207
36023SOL    HW2 8094   5.658   8.078   3.315
36024SOL     OW 8095   6.147   7.670   3.009
36024SOL    HW1 8096   6.185   7.586   3.046
36024SOL    HW2 8097   6.059   7.689   3.053
36025SOL     OW 8098   6.452   7.902   2.504
36025SOL    HW1 8099   6.420   7.974   2.442
36025SOL    HW2 8100   6.476   7.821   2.451
36026SOL     OW 8101   6.603   7.487   2.615
36026SOL    HW1 8102   6.531   7.492   2.546
36026SOL    HW2 8103   6.579   7.418   2.684
36027SOL     OW 8104   7.015   8.621   2.729
36027SOL    HW1 8105   6.960   8.537   2.722
36027SOL    HW2 8106   7.041   8.650   2.637
36028SOL     OW 8107   7.052   8.038   2.854
36028SOL    HW1 8108   7.022   7.943   2.861
36028SOL    HW2 8109   7.125   8.054   2.920
36029SOL     OW 8110   7.443   8.281   2.239
36029SOL    HW1 8111   7.485   8.217   2.303
36029SOL    HW2 8112   7.405   8.230   2.161
36030SOL     OW 8113   6.074   8.833   2.036
36030SOL    HW1 8114   5.987   8.818   2.083
36030SOL    HW2 8115   6.057   8.859   1.941
36031SOL     OW 8116   7.250   8.728   2.519
36031SOL    HW1 8117   7.349   8.736   2.533
36031SOL    HW2 8118   7.205   8.812   2.550
36032SOL     OW 8119   6.976   8.023   1.940
36032SOL    HW1 8120   6.922   8.002   2.021
36032SOL    HW2 8121   7.067   7.982   1.949
36033SOL     OW 8122   6.113   7.704   2.190
36033SOL    HW1 8123   6.140   7.645   2.115
36033SOL    HW2 8124   6.113   7.799   2.159
36034SOL     OW 8125   7.340   8.671   3.450
36034SOL    HW1 8126   7.431   8.632   3.437
36034SOL    HW2 8127   7.348   8.767   3.474
36035SOL     OW 8128   6.650   8.795   3.202
36035SOL    HW1 8129   6.570   8.772   3.257
36035SOL    HW2 8130   6.733   8.769   3.251
36036SOL     OW 8131   7.178   9.077   3.487
36036SOL    HW1 8132   7.205   9.111   3.397
36036SOL    HW2 8133   7.257   9.039   3.533
36037SOL     OW 8134   6.697   8.643   2.962
36037SOL    HW1 8135   6.657   8.687   3.043
36037SOL    HW2 8136   6.656   8.680   2.879
36038SOL     OW 8137   7.224   8.547   2.941
36038SOL    HW1 8138   7.229   8.628   3.000
36038SOL    HW2 8139   7.138   8.549   2.890
36039SOL     OW 8140   6.501   7.537   3.264
36039SOL    HW1 8141   6.526   7.517   3.169
36039SOL    HW2 8142   6.573   7.593   3.306
36040SOL     OW 8143   6.566   8.564   3.581
36040SOL    HW1 8144   6.467   8.570   3.591
36040SOL    HW2 8145   6.589   8.484   3.525
36041SOL     OW 8146   6.291   8.498   2.230
36041SOL    HW1 8147   6.277   8.505   2.329
36041SOL    HW2 8148   6.375   8.447   2.212
36042SOL     OW 8149   5.996   8.261   3.113
36042SOL    HW1 8150   6.082   8.273   3.163
36042SOL    HW2 8151   5.954   8.174   3.140
36043SOL     OW 8152   6.860   7.834   3.124
36043SOL    HW1 8153   6.881   7.908   3.188
36043SOL    HW2 8154   6.771   7.851   3.081
36044SOL     OW 8155   5.650   9.012   3.193
36044SOL    HW1 8156   5.604   9.094   3.159
36044SOL    HW2 8157   5.748   9.031   3.202
36045SOL     OW 8158   5.953   8.548   2.363
36045SOL    HW1 8159   5.946   8.631   2.307
36045SOL    HW2 8160   5.957   8.468   2.303
36046SOL     OW 8161   6.152   7.985   2.727
36046SOL    HW1 8162   6.164   8.051   2.653
36046SOL    HW2 8163   6.198   8.019   2.810
36047SOL     OW 8164   6.838   8.796   2.250
36047SOL    HW1 8165   6.888   8.873   2.290
36047SOL    HW2 8166   6.743   8.798   2.282
36048SOL     OW 8167   6.858   8.893   3.004
36048SOL    HW1 8168   6.905   8.906   3.091
36048SOL    HW2 8169   6.792   8.819   3.013
36049SOL     OW 8170   7.168   8.087   2.334
36049SOL    HW1 8171   7.137   8.148   2.407
36049SOL    HW2 8172   7.218   8.139   2.265
36050SOL     OW 8173   5.940   8.958   3.191
36050SOL    HW1 8174   5.919   8.914   3.104
36050SOL    HW2 8175   6.037   8.984   3.194
36051SOL     OW 8176   5.988   8.199   3.460
36051SOL    HW1 8177   6.056   8.254   3.413
36051SOL    HW2 8178   6.028   8.111   3.487
36052SOL     OW 8179   7.173   8.227   3.532
36052SOL    HW1 8180   7.081   8.265   3.527
36052SOL    HW2 8181   7.233   8.274   3.467
36053SOL     OW 8182   6.599   7.553   3.632
36053SOL    HW1 8183   6.605   7.638   3.580
36053SOL    HW2 8184   6.631   7.477   3.575
36054SOL     OW 8185   6.090   7.498   3.602
36054SOL    HW1 8186   6.048   7.441   3.532
36054SOL    HW2 8187   6.024   7.567   3.634
36055SOL     OW 8188   6.159   8.318   2.891
36055SOL    HW1 8189   6.203   8.407   2.882
36055SOL    HW2 8190   6.096   8.318   2.968
36056SOL     OW 8191   6.946   8.310   2.907
36056SOL    HW1 8192   6.871   8.310   2.841
36056SOL    HW2 8193   6.983   8.218   2.916
36057SOL     OW 8194   6.795   7.973   2.137
36057SOL    HW1 8195   6.808   7.889   2.191
36057SOL    HW2 8196   6.766   8.047   2.197
36058SOL     OW 8197   5.893   7.661   3.093
36058SOL    HW1 8198   5.870   7.698   3.183
36058SOL    HW2 8199   5.863   7.566   3.087
36059SOL     OW 8200   5.623   8.758   3.144
36059SOL    HW1 8201   5.676   8.709   3.212
36059SOL    HW2 8202   5.645   8.856   3.149
36060SOL     OW 8203   6.318   8.082   2.926
36060SOL    HW1 8204   6.377   8.056   2.850
36060SOL    HW2 8205   6.290   8.178   2.915
36061SOL     OW 8206   7.314   8.383   3.716
36061SOL    HW1 8207   7.268   8.376   3.627
36061SOL    HW2 8208   7.252   8.427   3.782
36062SOL     OW 8209   5.893   7.511   2.480
36062SOL    HW1 8210   5.882   7.605   2.513
36062SOL    HW2 8211   5.888   7.448   2.557
36063SOL     OW 8212   7.208   7.815   2.236
36063SOL    HW1 8213   7.210   7.739   2.300
36063SOL    HW2 8214   7.160   7.892   2.276
36064SOL     OW 8215   6.609   8.214   2.828
36064SOL    HW1 8216   6.624   8.235   2.924
36064SOL    HW2 8217   6.579   8.119   2.819
36065SOL     OW 8218   6.566   9.021   3.562
36065SOL    HW1 8219   6.546   9.065   3.474
36065SOL    HW2 8220   6.605   8.930   3.546
36066SOL     OW 8221   7.445   8.966   3.467
36066SOL    HW1 8222   7.459   8.993   3.372
36066SOL    HW2 8223   7.528   8.988   3.520
36067SOL     OW 8224   5.936   8.346   3.666
36067SOL    HW1 8225   6.012   8.390   3.714
36067SOL    HW2 8226   5.971   8.299   3.584
36068SOL     OW 8227   7.126   7.722   1.987
36068SOL    HW1 8228   7.065   7.647   2.010
36068SOL    HW2 8229   7.148   7.774   2.070
36069SOL     OW 8230   6.889   8.286   1.904
36069SOL    HW1 8231   6.923   8.193   1.919
36069SOL    HW2 8232   6.907   8.313   1.809
36070SOL     OW 8233   6.654   8.781   2.711
36070SOL    HW1 8234   6.661   8.697   2.656
36070SOL    HW2 8235   6.716   8.850   2.675
36071SOL     OW 8236   5.905   8.258   2.811
36071SOL    HW1 8237   5.998   8.294   2.816
36071SOL    HW2 8238   5.899   8.173   2.863
36072SOL     OW 8239   5.925   7.957   2.868
36072SOL    HW1 8240   5.873   7.874   2.851
36072SOL    HW2 8241   6.002   7.962   2.804
36073SOL     OW 8242   6.724   7.828   3.540
36073SOL    HW1 8243   6.679   7.891   3.604
36073SOL    HW2 8244   6.817   7.859   3.523
36074SOL     OW 8245   6.746   7.655   3.339
36074SOL    HW1 8246   6.746   7.719   3.416
36074SOL    HW2 8247   6.774   7.703   3.256
36075SOL     OW 8248   5.594   8.774   2.062
36075SOL    HW1 8249   5.501   8.795   2.031
36075SOL    HW2 8250   5.604   8.675   2.075
36076SOL     OW 8251   5.674   9.249   2.789
36076SOL    HW1 8252   5.632   9.163   2.762
36076SOL    HW2 8253   5.768   9.252   2.755
36077SOL     OW 8254   6.090   9.016   2.772
36077SOL    HW1 8255   6.156   9.090   2.781
36077SOL    HW2 8256   6.134   8.937   2.730
36078SOL     OW 8257   6.588   8.244   3.100
36078SOL    HW1 8258   6.629   8.212   3.186
36078SOL    HW2 8259   6.492   8.217   3.097
36079SOL     OW 8260   5.626   7.992   2.976
36079SOL    HW1 8261   5.711   7.959   2.935
36079SOL    HW2 8262   5.639   8.007   3.074
36080SOL     OW 8263   5.775   7.968   3.584
36080SOL    HW1 8264   5.834   7.928   3.514
36080SOL    HW2 8265   5.717   8.039   3.543
36081SOL     OW 8266   6.955   8.398   3.522
36081SOL    HW1 8267   6.994   8.487   3.542
36081SOL    HW2 8268   6.965   8.378   3.425
36082SOL     OW 8269   6.401   8.020   2.187
36082SOL    HW1 8270   6.408   7.931   2.141
36082SOL    HW2 8271   6.307   8.054   2.179
36083SOL     OW 8272   7.243   8.052   3.068
36083SOL    HW1 8273   7.205   7.983   3.130
36083SOL    HW2 8274   7.325   8.016   3.024
36084SOL     OW 8275   5.838   9.012   3.606
36084SOL    HW1 8276   5.808   9.069   3.682
36084SOL    HW2 8277   5.831   8.915   3.632
36085SOL     OW 8278   6.257   7.912   3.131
36085SOL    HW1 8279   6.223   7.823   3.101
36085SOL    HW2 8280   6.283   7.966   3.051
36086SOL     OW 8281   6.516   9.126   3.327
36086SOL    HW1 8282   6.492   9.108   3.232
36086SOL    HW2 8283   6.546   9.220   3.337
36087SOL     OW 8284   6.059   7.948   2.053
36087SOL    HW1 8285   6.120   8.028   2.057
36087SOL    HW2 8286   5.964   7.979   2.060
36088SOL     OW 8287   5.745   8.585   3.328
36088SOL    HW1 8288   5.767   8.524   3.404
36088SOL    HW2 8289   5.755   8.536   3.242
36089SOL     OW 8290   6.933   8.507   3.096
36089SOL    HW1 8291   6.957   8.444   3.022
36089SOL    HW2 8292   6.843   8.547   3.078
36090SOL     OW 8293   6.888   8.303   2.171
36090SOL    HW1 8294   6.802   8.272   2.213
36090SOL    HW2 8295   6.884   8.289   2.072
36091SOL     OW 8296   7.345   9.195   3.016
36091SOL    HW1 8297   7.406   9.225   2.943
36091SOL    HW2 8298   7.307   9.106   2.994
36092SOL     OW 8299   6.838   9.179   2.990
36092SOL    HW1 8300   6.922   9.184   2.936
36092SOL    HW2 8301   6.815   9.083   3.008
36093SOL     OW 8302   5.669   8.706   2.884
36093SOL    HW1 8303   5.664   8.705   2.984
36093SOL    HW2 8304   5.586   8.665   2.846
36094SOL     OW 8305   6.274   9.110   3.578
36094SOL    HW1 8306   6.218   9.191   3.587
36094SOL    HW2 8307   6.326   9.114   3.492
36095SOL     OW 8308   7.312   7.583   2.385
36095SOL    HW1 8309   7.385   7.566   2.318
36095SOL    HW2 8310   7.281   7.496   2.423
36096SOL     OW 8311   6.974   9.021   2.339
36096SOL    HW1 8312   7.041   9.033   2.265
36096SOL    HW2 8313   6.934   9.110   2.362
36097SOL     OW 8314   5.716   9.242   3.713
36097SOL    HW1 8315   5.675   9.168   3.766
36097SOL    HW2 8316   5.780   9.293   3.771
36098SOL     OW 8317   6.866   8.375   2.534
36098SOL    HW1 8318   6.926   8.294   2.536
36098SOL    HW2 8319   6.906   8.444   2.474
36099SOL     OW 8320   6.258   9.064   2.016
36099SOL    HW1 8321   6.267   9.074   1.917
36099SOL    HW2 8322   6.218   8.975   2.037
36100SOL     OW 8323   7.427   7.623   2.825
36100SOL    HW1 8324   7.466   7.538   2.789
36100SOL    HW2 8325   7.329   7.625   2.806
36101SOL     OW 8326   5.849   7.774   2.582
36101SOL    HW1 8327   5.770   7.825   2.548
36101SOL    HW2 8328   5.840   7.759   2.680
36102SOL     OW 8329   6.780   9.060   1.893
36102SOL    HW1 8330   6.786   8.967   1.930
36102SOL    HW2 8331   6.721   9.060   1.813
36103SOL     OW 8332   6.408   8.450   3.234
36103SOL    HW1 8333   6.448   8.449   3.142
36103SOL    HW2 8334   6.418   8.542   3.274
36104SOL     OW 8335   6.502   8.358   2.153
36104SOL    HW1 8336   6.565   8.396   2.085
36104SOL    HW2 8337   6.542   8.275   2.192
36105SOL     OW 8338   7.090   9.055   1.906
36105SOL    HW1 8339   6.998   9.092   1.913
36105SOL    HW2 8340   7.128   9.075   1.816
36106SOL     OW 8341   5.958   8.736   3.352
36106SOL    HW1 8342   5.945   8.829   3.318
36106SOL    HW2 8343   5.874   8.684   3.339
36107SOL     OW 8344   7.200   8.740   3.151
36107SOL    HW1 8345   7.260   8.743   3.231
36107SOL    HW2 8346   7.125   8.804   3.164
36108SOL     OW 8347   6.625   8.546   2.558
36108SOL    HW1 8348   6.555   8.499   2.612
36108SOL    HW2 8349   6.684   8.478   2.515
36109SOL     OW 8350   6.600   7.684   2.833
36109SOL    HW1 8351   6.592   7.648   2.740
36109SOL    HW2 8352   6.598   7.608   2.898
36110SOL     OW 8353   6.176   8.935   2.353
36110SOL    HW1 8354   6.218   8.877   2.283
36110SOL    HW2 8355   6.132   9.014   2.309
36111SOL     OW 8356   7.295   7.833   3.243
36111SOL    HW1 8357   7.368   7.902   3.247
36111SOL    HW2 8358   7.323   7.758   3.184
36112SOL     OW 8359   5.841   8.796   2.152
36112SOL    HW1 8360   5.745   8.797   2.125
36112SOL    HW2 8361   5.853   8.849   2.236
36113SOL     OW 8362   5.691   8.461   3.588
36113SOL    HW1 8363   5.614   8.428   3.642
36113SOL    HW2 8364   5.776   8.431   3.630
36114SOL     OW 8365   6.258   7.651   3.351
36114SOL    HW1 8366   6.348   7.635   3.311
36114SOL    HW2 8367   6.266   7.656   3.450
36115SOL     OW 8368   5.661   7.793   1.895
36115SOL    HW1 8369   5.569   7.765   1.866
36115SOL    HW2 8370   5.692   7.870   1.839
36116SOL     OW 8371   7.026   8.304   3.260
36116SOL    HW1 8372   6.969   8.356   3.197
36116SOL    HW2 8373   7.122   8.316   3.236
36117SOL     OW 8374   5.658   7.614   2.180
36117SOL    HW1 8375   5.641   7.697   2.126
36117SOL    HW2 8376   5.748   7.577   2.158
36118SOL     OW 8377   6.769   8.783   1.981
36118SOL    HW1 8378   6.670   8.772   1.983
36118SOL    HW2 8379   6.803   8.798   2.074
36119SOL     OW 8380   6.199   8.290   3.293
36119SOL    HW1 8381   6.255   8.371   3.276
36119SOL    HW2 8382   6.258   8.210   3.296
36120SOL     OW 8383   7.079   9.215   2.821
36120SOL    HW1 8384   7.112   9.279   2.752
36120SOL    HW2 8385   7.145   9.209   2.896
36121SOL     OW 8386   6.302   8.013   3.570
36121SOL    HW1 8387   6.321   8.078   3.644
36121SOL    HW2 8388   6.362   7.933   3.579
36122SOL     OW 8389   7.036   8.668   3.495
36122SOL    HW1 8390   7.027   8.658   3.594
36122SOL    HW2 8391   7.132   8.661   3.469
36123SOL     OW 8392   5.976   9.189   3.422
36123SOL    HW1 8393   5.885   9.230   3.420
36123SOL    HW2 8394   5.969   9.095   3.454
36124SOL     OW 8395   7.260   8.331   3.116
36124SOL    HW1 8396   7.233   8.242   3.079
36124SOL    HW2 8397   7.261   8.399   3.043
36125SOL     OW 8398   6.811   7.773   2.311
36125SOL    HW1 8399   6.876   7.699   2.300
36125SOL    HW2 8400   6.831   7.823   2.395
36126SOL     OW 8401   6.180   8.193   2.514
36126SOL    HW1 8402   6.230   8.278   2.495
36126SOL    HW2 8403   6.092   8.195   2.466
36127SOL     OW 8404   7.363   7.790   3.504
36127SOL    HW1 8405   7.346   7.821   3.410
36127SOL    HW2 8406   7.279   7.753   3.542
36128SOL     OW 8407   7.316   8.382   3.379
36128SOL    HW1 8408   7.354   8.473   3.394
36128SOL    HW2 8409   7.308   8.365   3.280
36129SOL     OW 8410   6.445   8.822   1.878
36129SOL    HW1 8411   6.399   8.837   1.966
36129SOL    HW2 8412   6.489   8.907   1.848
36130SOL     OW 8413   6.247   9.238   2.815
36130SOL    HW1 8414   6.201   9.326   2.802
36130SOL    HW2 8415   6.346   9.250   2.808
36131SOL     OW 8416   6.445   8.404   2.723
36131SOL    HW1 8417   6.499   8.335   2.771
36131SOL    HW2 8418   6.413   8.473   2.789
36132SOL     OW 8419   6.669   8.432   1.949
36132SOL    HW1 8420   6.646   8.485   1.867
36132SOL    HW2 8421   6.750   8.376   1.930
36133SOL     OW 8422   7.447   9.017   2.713
36133SOL    HW1 8423   7.376   9.005   2.643
36133SOL    HW2 8424   7.448   8.938   2.773
36134SOL     OW 8425   5.807   8.762   3.706
36134SOL    HW1 8426   5.742   8.689   3.685
36134SOL    HW2 8427   5.811   8.776   3.804
36135SOL     OW 8428   5.665   8.688   2.515
36135SOL    HW1 8429   5.664   8.641   2.603
36135SOL    HW2 8430   5.747   8.660   2.464
36136SOL     OW 8431   6.258   8.839   3.486
36136SOL    HW1 8432   6.180   8.789   3.524
36136SOL    HW2 8433   6.255   8.934   3.517
36137SOL     OW 8434   7.410   7.640   3.089
36137SOL    HW1 8435   7.406   7.550   3.133
36137SOL    HW2 8436   7.413   7.629   2.990
36138SOL     OW 8437   6.014   7.872   2.382
36138SOL    HW1 8438   6.044   7.800   2.320
36138SOL    HW2 8439   5.975   7.832   2.465
36139SOL     OW 8440   7.291   8.935   2.966
36139SOL    HW1 8441   7.198   8.910   2.939
36139SOL    HW2 8442   7.317   8.885   3.048
36140SOL     OW 8443   5.903   7.995   3.142
36140SOL    HW1 8444   5.941   7.936   3.214
36140SOL    HW2 8445   5.943   7.969   3.054
36141SOL     OW 8446   6.398   9.034   2.549
36141SOL    HW1 8447   6.430   9.044   2.455
36141SOL    HW2 8448   6.319   8.972   2.551
36142SOL     OW 8449   7.010   7.662   2.974
36142SOL    HW1 8450   7.062   7.597   3.029
36142SOL    HW2 8451   6.961   7.725   3.035
36143SOL     OW 8452   6.587   7.482   3.016
36143SOL    HW1 8453   6.524   7.410   2.985
36143SOL    HW2 8454   6.680   7.446   3.016
36144SOL     OW 8455   6.356   8.778   2.163
36144SOL    HW1 8456   6.310   8.691   2.180
36144SOL    HW2 8457   6.447   8.775   2.204
36145SOL     OW 8458   6.204   9.015   3.146
36145SOL    HW1 8459   6.199   9.097   3.203
36145SOL    HW2 8460   6.293   9.012   3.101
36146SOL     OW 8461   6.938   7.500   2.030
36146SOL    HW1 8462   6.973   7.459   1.946
36146SOL    HW2 8463   6.848   7.462   2.050
36147SOL     OW 8464   6.886   7.901   2.553
36147SOL    HW1 8465   6.827   7.981   2.557
36147SOL    HW2 8466   6.901   7.866   2.646
36148SOL     OW 8467   7.179   7.669   2.744
36148SOL    HW1 8468   7.095   7.668   2.798
36148SOL    HW2 8469   7.181   7.752   2.688
36149SOL     OW 8470   5.625   8.525   2.162
36149SOL    HW1 8471   5.724   8.514   2.153
36149SOL    HW2 8472   5.585   8.439   2.194
36150SOL     OW 8473   6.461   9.094   2.199
36150SOL    HW1 8474   6.384   9.059   2.145
36150SOL    HW2 8475   6.429   9.165   2.261
36151SOL     OW 8476   5.816   8.076   3.837
36151SOL    HW1 8477   5.723   8.074   3.874
36151SOL    HW2 8478   5.817   8.037   3.745
36152SOL     OW 8479   5.811   7.723   4.720
36152SOL    HW1 8480   5.846   7.706   4.812
36152SOL    HW2 8481   5.723   7.678   4.708
36153SOL     OW 8482   5.605   7.816   4.371
36153SOL    HW1 8483   5.523   7.859   4.410
36153SOL    HW2 8484   5.577   7.743   4.308
36154SOL     OW 8485   6.155   8.723   4.889
36154SOL    HW1 8486   6.062   8.716   4.852
36154SOL    HW2 8487   6.166   8.812   4.933
36155SOL     OW 8488   7.141   8.959   4.427
36155SOL    HW1 8489   7.084   8.943   4.508
36155SOL    HW2 8490   7.082   8.969   4.347
36156SOL     OW 8491   6.721   8.151   4.441
36156SOL    HW1 8492   6.778   8.229   4.416
36156SOL    HW2 8493   6.661   8.177   4.517
36157SOL     OW 8494   7.341   8.055   3.955
36157SOL    HW1 8495   7.329   8.042   3.856
36157SOL    HW2 8496   7.311   7.974   4.004
36158SOL     OW 8497   6.354   8.592   4.747
36158SOL    HW1 8498   6.276   8.609   4.807
36158SOL    HW2 8499   6.388   8.679   4.711
36159SOL     OW 8500   6.436   8.246   5.547
36159SOL    HW1 8501   6.432   8.322   5.612
36159SOL    HW2 8502   6.458   8.282   5.456
36160SOL     OW 8503   6.271   8.460   4.389
36160SOL    HW1 8504   6.340   8.444   4.459
36160SOL    HW2 8505   6.198   8.517   4.427
36161SOL     OW 8506   6.272   8.609   5.527
36161SOL    HW1 8507   6.332   8.688   5.541
36161SOL    HW2 8508   6.186   8.640   5.486
36162SOL     OW 8509   5.921   8.883   4.785
36162SOL    HW1 8510   5.843   8.852   4.732
36162SOL    HW2 8511   5.979   8.941   4.728
36163SOL     OW 8512   7.046   8.953   5.063
36163SOL    HW1 8513   7.070   9.047   5.089
36163SOL    HW2 8514   7.030   8.899   5.145
36164SOL     OW 8515   6.024   7.840   5.223
36164SOL    HW1 8516   6.106   7.784   5.232
36164SOL    HW2 8517   5.943   7.782   5.227
36165SOL     OW 8518   7.189   7.895   4.461
36165SOL    HW1 8519   7.115   7.941   4.411
36165SOL    HW2 8520   7.240   7.963   4.514
36166SOL     OW 8521   5.817   9.161   4.207
36166SOL    HW1 8522   5.851   9.238   4.261
36166SOL    HW2 8523   5.861   9.161   4.117
36167SOL     OW 8524   6.713   8.789   5.414
36167SOL    HW1 8525   6.760   8.789   5.502
36167SOL    HW2 8526   6.665   8.702   5.403
36168SOL     OW 8527   5.816   8.882   4.262
36168SOL    HW1 8528   5.790   8.978   4.262
36168SOL    HW2 8529   5.745   8.828   4.307
36169SOL     OW 8530   5.826   8.539   4.610
36169SOL    HW1 8531   5.840   8.455   4.662
36169SOL    HW2 8532   5.771   8.603   4.665
36170SOL     OW 8533   6.206   9.234   5.163
36170SOL    HW1 8534   6.114   9.217   5.198
36170SOL    HW2 8535   6.234   9.326   5.189
36171SOL     OW 8536   6.192   8.412   3.847
36171SOL    HW1 8537   6.199   8.496   3.793
36171SOL    HW2 8538   6.238   8.425   3.935
36172SOL     OW 8539   7.180   7.562   5.204
36172SOL    HW1 8540   7.162   7.629   5.132
36172SOL    HW2 8541   7.177   7.608   5.293
36173SOL     OW 8542   5.708   8.091   4.287
36173SOL    HW1 8543   5.663   8.003   4.304
36173SOL    HW2 8544   5.707   8.145   4.371
36174SOL     OW 8545   7.428   9.215   4.083
36174SOL    HW1 8546   7.482   9.186   4.163
36174SOL    HW2 8547   7.458   9.305   4.054
36175SOL     OW 8548   5.613   9.044   3.841
36175SOL    HW1 8549   5.594   8.948   3.862
36175SOL    HW2 8550   5.580   9.102   3.916
36176SOL     OW 8551   7.275   8.370   4.336
36176SOL    HW1 8552   7.370   8.341   4.344
36176SOL    HW2 8553   7.267   8.435   4.261
36177SOL     OW 8554   7.227   8.556   4.156
36177SOL    HW1 8555   7.313   8.558   4.104
36177SOL    HW2 8556   7.241   8.603   4.244
36178SOL     OW 8557   5.699   8.185   5.321
36178SOL    HW1 8558   5.787   8.172   5.366
36178SOL    HW2 8559   5.686   8.282   5.299
36179SOL     OW 8560   6.199   8.813   4.450
36179SOL    HW1 8561   6.150   8.726   4.459
36179SOL    HW2 8562   6.176   8.856   4.363
36180SOL     OW 8563   6.879   8.676   5.147
36180SOL    HW1 8564   6.916   8.603   5.089
36180SOL    HW2 8565   6.931   8.681   5.232
36181SOL     OW 8566   6.395   7.452   4.226
36181SOL    HW1 8567   6.435   7.543   4.217
36181SOL    HW2 8568   6.295   7.460   4.232
36182SOL     OW 8569   5.783   8.424   4.988
36182SOL    HW1 8570   5.872   8.379   4.974
36182SOL    HW2 8571   5.710   8.359   4.969
36183SOL     OW 8572   7.111   8.447   3.914
36183SOL    HW1 8573   7.048   8.371   3.927
36183SOL    HW2 8574   7.159   8.465   4.000
36184SOL     OW 8575   6.773   9.240   5.340
36184SOL    HW1 8576   6.797   9.300   5.264
36184SOL    HW2 8577   6.780   9.145   5.310
36185SOL     OW 8578   5.903   7.699   5.525
36185SOL    HW1 8579   5.974   7.770   5.531
36185SOL    HW2 8580   5.815   7.738   5.553
36186SOL     OW 8581   7.052   8.865   4.677
36186SOL    HW1 8582   6.993   8.871   4.757
36186SOL    HW2 8583   7.037   8.777   4.631
36187SOL     OW 8584   7.253   9.162   4.296
36187SOL    HW1 8585   7.212   9.139   4.208
36187SOL    HW2 8586   7.235   9.088   4.361
36188SOL     OW 8587   6.184   8.177   3.994
36188SOL    HW1 8588   6.208   8.246   3.926
36188SOL    HW2 8589   6.106   8.210   4.048
36189SOL     OW 8590   6.867   7.793   4.668
36189SOL    HW1 8591   6.781   7.743   4.655
36189SOL    HW2 8592   6.929   7.739   4.724
36190SOL     OW 8593   7.162   9.110   4.031
36190SOL    HW1 8594   7.251   9.156   4.034
36190SOL    HW2 8595   7.141   9.086   3.936
36191SOL     OW 8596   6.393   8.053   5.189
36191SOL    HW1 8597   6.346   8.050   5.278
36191SOL    HW2 8598   6.342   7.998   5.123
36192SOL     OW 8599   6.980   7.917   5.398
36192SOL    HW1 8600   6.960   7.960   5.486
36192SOL    HW2 8601   7.058   7.855   5.407
36193SOL     OW 8602   6.559   8.338   5.296
36193SOL    HW1 8603   6.605   8.254   5.267
36193SOL    HW2 8604   6.503   8.372   5.221
36194SOL     OW 8605   6.577   7.858   4.966
36194SOL    HW1 8606   6.500   7.892   5.020
36194SOL    HW2 8607   6.543   7.807   4.887
36195SOL     OW 8608   6.627   8.149   4.153
36195SOL    HW1 8609   6.653   8.145   4.249
36195SOL    HW2 8610   6.542   8.098   4.139
36196SOL     OW 8611   5.662   8.259   4.513
36196SOL    HW1 8612   5.761   8.247   4.522
36196SOL    HW2 8613   5.638   8.354   4.534
36197SOL     OW 8614   5.716   9.269   5.295
36197SOL    HW1 8615   5.706   9.254   5.394
36197SOL    HW2 8616   5.630   9.305   5.259
36198SOL     OW 8617   6.451   7.796   3.919
36198SOL    HW1 8618   6.510   7.859   3.870
36198SOL    HW2 8619   6.470   7.702   3.890
36199SOL     OW 8620   7.305   8.033   5.555
36199SOL    HW1 8621   7.279   8.122   5.519
36199SOL    HW2 8622   7.303   7.965   5.482
36200SOL     OW 8623   6.948   8.592   4.269
36200SOL    HW1 8624   7.031   8.563   4.221
36200SOL    HW2 8625   6.899   8.659   4.213
36201SOL     OW 8626   6.136   7.644   4.609
36201SOL    HW1 8627   6.131   7.639   4.709
36201SOL    HW2 8628   6.138   7.740   4.580
36202SOL     OW 8629   6.594   8.904   4.201
36202SOL    HW1 8630   6.548   8.976   4.149
36202SOL    HW2 8631   6.590   8.924   4.299
36203SOL     OW 8632   5.937   9.249   4.577
36203SOL    HW1 8633   5.987   9.163   4.583
36203SOL    HW2 8634   6.002   9.326   4.574
36204SOL     OW 8635   7.381   8.514   4.597
36204SOL    HW1 8636   7.319   8.499   4.521
36204SOL    HW2 8637   7.329   8.525   4.682
36205SOL     OW 8638   6.813   8.998   5.230
36205SOL    HW1 8639   6.819   8.921   5.294
36205SOL    HW2 8640   6.761   8.972   5.150
36206SOL     OW 8641   5.907   8.391   3.966
36206SOL    HW1 8642   5.989   8.430   3.924
36206SOL    HW2 8643   5.880   8.309   3.917
36207SOL     OW 8644   7.044   8.183   4.452
36207SOL    HW1 8645   7.039   8.118   4.527
36207SOL    HW2 8646   7.124   8.242   4.465
36208SOL     OW 8647   6.047   8.714   5.451
36208SOL    HW1 8648   5.997   8.715   5.365
36208SOL    HW2 8649   5.984   8.696   5.527
36209SOL     OW 8650   6.697   9.224   3.961
36209SOL    HW1 8651   6.637   9.162   4.011
36209SOL    HW2 8652   6.728   9.180   3.876
36210SOL     OW 8653   5.788   7.733   5.222
36210SOL    HW1 8654   5.708   7.793   5.209
36210SOL    HW2 8655   5.778   7.684   5.308
36211SOL     OW 8656   7.218   8.825   3.805
36211SOL    HW1 8657   7.186   8.919   3.795
36211SOL    HW2 8658   7.142   8.762   3.793
36212SOL     OW 8659   6.050   9.191   4.047
36212SOL    HW1 8660   6.083   9.230   4.133
36212SOL    HW2 8661   6.126   9.184   3.982
36213SOL     OW 8662   6.986   7.555   4.150
36213SOL    HW1 8663   6.962   7.518   4.060
36213SOL    HW2 8664   7.085   7.571   4.154
36214SOL     OW 8665   5.835   9.233   4.965
36214SOL    HW1 8666   5.892   9.168   5.015
36214SOL    HW2 8667   5.819   9.200   4.872
36215SOL     OW 8668   6.526   9.146   4.628
36215SOL    HW1 8669   6.606   9.089   4.649
36215SOL    HW2 8670   6.477   9.106   4.551
36216SOL     OW 8671   5.968   8.148   4.204
36216SOL    HW1 8672   6.013   8.058   4.201
36216SOL    HW2 8673   5.874   8.137   4.237
36217SOL     OW 8674   7.133   7.670   5.453
36217SOL    HW1 8675   7.128   7.707   5.545
36217SOL    HW2 8676   7.061   7.601   5.441
36218SOL     OW 8677   6.200   7.570   3.841
36218SOL    HW1 8678   6.298   7.548   3.848
36218SOL    HW2 8679   6.169   7.553   3.748
36219SOL     OW 8680   6.367   7.712   5.473
36219SOL    HW1 8681   6.434   7.651   5.516
36219SOL    HW2 8682   6.294   7.731   5.538
36220SOL     OW 8683   6.474   8.962   4.919
36220SOL    HW1 8684   6.451   8.937   4.825
36220SOL    HW2 8685   6.535   8.893   4.958
36221SOL     OW 8686   6.937   8.038   5.157
36221SOL    HW1 8687   6.965   7.995   5.242
36221SOL    HW2 8688   6.962   8.134   5.158
36222SOL     OW 8689   6.389   8.850   4.648
36222SOL    HW1 8690   6.479   8.864   4.606
36222SOL    HW2 8691   6.318   8.852   4.577
36223SOL     OW 8692   6.508   7.951   4.623
36223SOL    HW1 8693   6.483   7.942   4.527
36223SOL    HW2 8694   6.556   7.869   4.654
36224SOL     OW 8695   6.125   7.512   4.236
36224SOL    HW1 8696   6.044   7.513   4.294
36224SOL    HW2 8697   6.128   7.595   4.181
36225SOL     OW 8698   7.020   8.636   3.765
36225SOL    HW1 8699   7.052   8.560   3.822
36225SOL    HW2 8700   6.928   8.663   3.795
36226SOL     OW 8701   5.883   7.483   3.895
36226SOL    HW1 8702   5.932   7.567   3.874
36226SOL    HW2 8703   5.945   7.418   3.940
36227SOL     OW 8704   6.521   7.684   4.204
36227SOL    HW1 8705   6.473   7.725   4.126
36227SOL    HW2 8706   6.620   7.682   4.185
36228SOL     OW 8707   6.662   8.131   5.188
36228SOL    HW1 8708   6.582   8.070   5.191
36228SOL    HW2 8709   6.743   8.078   5.164
36229SOL     OW 8710   6.813   9.018   4.517
36229SOL    HW1 8711   6.834   9.092   4.452
36229SOL    HW2 8712   6.881   9.018   4.590
36230SOL     OW 8713   6.045   8.600   4.465
36230SOL    HW1 8714   5.974   8.573   4.530
36230SOL    HW2 8715   6.019   8.572   4.372
36231SOL     OW 8716   6.857   9.245   4.315
36231SOL    HW1 8717   6.901   9.309   4.251
36231SOL    HW2 8718   6.807   9.297   4.385
36232SOL     OW 8719   6.618   7.997   3.740
36232SOL    HW1 8720   6.577   8.079   3.701
36232SOL    HW2 8721   6.682   8.023   3.813
36233SOL     OW 8722   5.664   8.004   5.110
36233SOL    HW1 8723   5.756   8.003   5.069
36233SOL    HW2 8724   5.658   8.078   5.177
36234SOL     OW 8725   6.147   7.670   4.871
36234SOL    HW1 8726   6.185   7.586   4.908
36234SOL    HW2 8727   6.059   7.689   4.915
36235SOL     OW 8728   6.452   7.902   4.366
36235SOL    HW1 8729   6.420   7.974   4.304
36235SOL    HW2 8730   6.476   7.821   4.313
36236SOL     OW 8731   6.603   7.487   4.477
36236SOL    HW1 8732   6.531   7.492   4.408
36236SOL    HW2 8733   6.579   7.418   4.546
36237SOL     OW 8734   7.015   8.621   4.591
36237SOL    HW1 8735   6.960   8.537   4.584
36237SOL    HW2 8736   7.041   8.650   4.499
36238SOL     OW 8737   7.052   8.038   4.716
36238SOL    HW1 8738   7.022   7.943   4.723
36238SOL    HW2 8739   7.125   8.054   4.782
36239SOL     OW 8740   7.443   8.281   4.101
36239SOL    HW1 8741   7.485   8.217   4.165
36239SOL    HW2 8742   7.405   8.230   4.023
36240SOL     OW 8743   6.074   8.833   3.898
36240SOL    HW1 8744   5.987   8.818   3.945
36240SOL    HW2 8745   6.057   8.859   3.803
36241SOL     OW 8746   7.250   8.728   4.381
36241SOL    HW1 8747   7.349   8.736   4.395
36241SOL    HW2 8748   7.205   8.812   4.412
36242SOL     OW 8749   6.976   8.023   3.802
36242SOL    HW1 8750   6.922   8.002   3.883
36242SOL    HW2 8751   7.067   7.982   3.811
36243SOL     OW 8752   6.113   7.704   4.052
36243SOL    HW1 8753   6.140   7.645   3.977
36243SOL    HW2 8754   6.113   7.799   4.021
36244SOL     OW 8755   7.340   8.671   5.312
36244SOL    HW1 8756   7.431   8.632   5.299
36244SOL    HW2 8757   7.348   8.767   5.336
36245SOL     OW 8758   6.650   8.795   5.064
36245SOL    HW1 8759   6.570   8.772   5.119
36245SOL    HW2 8760   6.733   8.769   5.113
36246SOL     OW 8761   7.178   9.077   5.349
36246SOL    HW1 8762   7.205   9.111   5.259
36246SOL    HW2 8763   7.257   9.039   5.395
36247SOL     OW 8764   6.697   8.643   4.824
36247SOL    HW1 8765   6.657   8.687   4.905
36247SOL    HW2 8766   6.656   8.680   4.741
36248SOL     OW 8767   7.224   8.547   4.803
36248SOL    HW1 8768   7.229   8.628   4.862
36248SOL    HW2 8769   7.138   8.549   4.752
36249SOL     OW 8770   6.501   7.537   5.126
36249SOL    HW1 8771   6.526   7.517   5.031
36249SOL    HW2 8772   6.573   7.593   5.168
36250SOL     OW 8773   6.566   8.564   5.443
36250SOL    HW1 8774   6.467   8.570   5.453
36250SOL    HW2 8775   6.589   8.484   5.387
36251SOL     OW 8776   6.291   8.498   4.092
36251SOL    HW1 8777   6.277   8.505   4.191
36251SOL    HW2 8778   6.375   8.447   4.074
36252SOL     OW 8779   5.996   8.261   4.975
36252SOL    HW1 8780   6.082   8.273   5.025
36252SOL    HW2 8781   5.954   8.174   5.002
36253SOL     OW 8782   6.860   7.834   4.986
36253SOL    HW1 8783   6.881   7.908   5.050
36253SOL    HW2 8784   6.771   7.851   4.943
36254SOL     OW 8785   5.650   9.012   5.055
36254SOL    HW1 8786   5.604   9.094   5.021
36254SOL    HW2 8787   5.748   9.031   5.064
36255SOL     OW 8788   5.953   8.548   4.225
36255SOL    HW1 8789   5.946   8.631   4.169
36255SOL    HW2 8790   5.957   8.468   4.165
36256SOL     OW 8791   6.152   7.985   4.589
36256SOL    HW1 8792   6.164   8.051   4.515
36256SOL    HW2 8793   6.198   8.019   4.672
36257SOL     OW 8794   6.838   8.796   4.112
36257SOL    HW1 8795   6.888   8.873   4.152
36257SOL    HW2 8796   6.743   8.798   4.144
36258SOL     OW 8797   6.858   8.893   4.866
36258SOL    HW1 8798   6.905   8.906   4.953
36258SOL    HW2 8799   6.792   8.819   4.875
36259SOL     OW 8800   7.168   8.087   4.196
36259SOL    HW1 8801   7.137   8.148   4.269
36259SOL    HW2 8802   7.218   8.139   4.127
36260SOL     OW 8803   5.940   8.958   5.053
36260SOL    HW1 8804   5.919   8.914   4.966
36260SOL    HW2 8805   6.037   8.984   5.056
36261SOL     OW 8806   5.988   8.199   5.322
36261SOL    HW1 8807   6.056   8.254   5.275
36261SOL    HW2 8808   6.028   8.111   5.349
36262SOL     OW 8809   7.173   8.227   5.394
36262SOL    HW1 8810   7.081   8.265   5.389
36262SOL    HW2 8811   7.233   8.274   5.329
36263SOL     OW 8812   6.599   7.553   5.494
36263SOL    HW1 8813   6.605   7.638   5.442
36263SOL    HW2 8814   6.631   7.477   5.437
36264SOL     OW 8815   6.090   7.498   5.464
36264SOL    HW1 8816   6.048   7.441   5.394
36264SOL    HW2 8817   6.024   7.567   5.496
36265SOL     OW 8818   6.159   8.318   4.753
36265SOL    HW1 8819   6.203   8.407   4.744
36265SOL    HW2 8820   6.096   8.318   4.830
36266SOL     OW 8821   6.946   8.310   4.769
36266SOL    HW1 8822   6.871   8.310   4.703
36266SOL    HW2 8823   6.983   8.218   4.778
36267SOL     OW 8824   6.795   7.973   3.999
36267SOL    HW1 8825   6.808   7.889   4.053
36267SOL    HW2 8826   6.766   8.047   4.059
36268SOL     OW 8827   5.893   7.661   4.955
36268SOL    HW1 8828   5.870   7.698   5.045
36268SOL    HW2 8829   5.863   7.566   4.949
36269SOL     OW 8830   5.623   8.758   5.006
36269SOL    HW1 8831   5.676   8.709   5.074
36269SOL    HW2 8832   5.645   8.856   5.011
36270SOL     OW 8833   6.318   8.082   4.788
36270SOL    HW1 8834   6.377   8.056   4.712
36270SOL    HW2 8835   6.290   8.178   4.777
36271SOL     OW 8836   7.314   8.383   5.578
36271SOL    HW1 8837   7.268   8.376   5.489
36271SOL    HW2 8838   7.252   8.427   5.644
36272SOL     OW 8839   5.893   7.511   4.342
36272SOL    HW1 8840   5.882   7.605   4.375
36272SOL    HW2 8841   5.888   7.448   4.419
36273SOL     OW 8842   7.208   7.815   4.098
36273SOL    HW1 8843   7.210   7.739   4.162
36273SOL    HW2 8844   7.160   7.892   4.138
36274SOL     OW 8845   6.609   8.214   4.690
36274SOL    HW1 8846   6.624   8.235   4.786
36274SOL    HW2 8847   6.579   8.119   4.681
36275SOL     OW 8848   6.566   9.021   5.424
36275SOL    HW1 8849   6.546   9.065   5.336
36275SOL    HW2 8850   6.605   8.930   5.408
36276SOL     OW 8851   7.445   8.966   5.329
36276SOL    HW1 8852   7.459   8.993   5.234
36276SOL    HW2 8853   7.528   8.988   5.382
36277SOL     OW 8854   5.936   8.346   5.528
36277SOL    HW1 8855   6.012   8.390   5.576
36277SOL    HW2 8856   5.971   8.299   5.446
36278SOL     OW 8857   7.126   7.722   3.849
36278SOL    HW1 8858   7.065   7.647   3.872
36278SOL    HW2 8859   7.148   7.774   3.932
36279SOL     OW 8860   6.889   8.286   3.766
36279SOL    HW1 8861   6.923   8.193   3.781
36279SOL    HW2 8862   6.907   8.313   3.671
36280SOL     OW 8863   6.654   8.781   4.573
36280SOL    HW1 8864   6.661   8.697   4.518
36280SOL    HW2 8865   6.716   8.850   4.537
36281SOL     OW 8866   5.905   8.258   4.673
36281SOL    HW1 8867   5.998   8.294   4.678
36281SOL    HW2 8868   5.899   8.173   4.725
36282SOL     OW 8869   5.925   7.957   4.730
36282SOL    HW1 8870   5.873   7.874   4.713
36282SOL    HW2 8871   6.002   7.962   4.666
36283SOL     OW 8872   6.724   7.828   5.402
36283SOL    HW1 8873   6.679   7.891   5.466
36283SOL    HW2 8874   6.817   7.859   5.385
36284SOL     OW 8875   6.746   7.655   5.201
36284SOL    HW1 8876   6.746   7.719   5.278
36284SOL    HW2 8877   6.774   7.703   5.118
36285SOL     OW 8878   5.594   8.774   3.924
36285SOL    HW1 8879   5.501   8.795   3.893
36285SOL    HW2 8880   5.604   8.675   3.937
36286SOL     OW 8881   5.674   9.249   4.651
36286SOL    HW1 8882   5.632   9.163   4.624
36286SOL    HW2 8883   5.768   9.252   4.617
36287SOL     OW 8884   6.090   9.016   4.634
36287SOL    HW1 8885   6.156   9.090   4.643
36287SOL    HW2 8886   6.134   8.937   4.592
36288SOL     OW 8887   6.588   8.244   4.962
36288SOL    HW1 8888   6.629   8.212   5.048
36288SOL    HW2 8889   6.492   8.217   4.959
36289SOL     OW 8890   5.626   7.992   4.838
36289SOL    HW1 8891   5.711   7.959   4.797
36289SOL    HW2 8892   5.639   8.007   4.936
36290SOL     OW 8893   5.775   7.968   5.446
36290SOL    HW1 8894   5.834   7.928   5.376
36290SOL    HW2 8895   5.717   8.039   5.405
36291SOL     OW 8896   6.955   8.398   5.384
36291SOL    HW1 8897   6.994   8.487   5.404
36291SOL    HW2 8898   6.965   8.378   5.287
36292SOL     OW 8899   6.401   8.020   4.049
36292SOL    HW1 8900   6.408   7.931   4.003
36292SOL    HW2 8901   6.307   8.054   4.041
36293SOL     OW 8902   7.243   8.052   4.930
36293SOL    HW1 8903   7.205   7.983   4.992
36293SOL    HW2 8904   7.325   8.016   4.886
36294SOL     OW 8905   5.838   9.012   5.468
36294SOL    HW1 8906   5.808   9.069   5.544
36294SOL    HW2 8907   5.831   8.915   5.494
36295SOL     OW 8908   6.257   7.912   4.993
36295SOL    HW1 8909   6.223   7.823   4.963
36295SOL    HW2 8910   6.283   7.966   4.913
36296SOL     OW 8911   6.516   9.126   5.189
36296SOL    HW1 8912   6.492   9.108   5.094
36296SOL    HW2 8913   6.546   9.220   5.199
36297SOL     OW 8914   6.059   7.948   3.915
36297SOL    HW1 8915   6.120   8.028   3.919
36297SOL    HW2 8916   5.964   7.979   3.922
36298SOL     OW 8917   5.745   8.585   5.190
36298SOL    HW1 8918   5.767   8.524   5.266
36298SOL    HW2 8919   5.755   8.536   5.104
36299SOL     OW 8920   6.933   8.507   4.958
36299SOL    HW1 8921   6.957   8.444   4.884
36299SOL    HW2 8922   6.843   8.547   4.940
36300SOL     OW 8923   6.888   8.303   4.033
36300SOL    HW1 8924   6.802   8.272   4.075
36300SOL    HW2 8925   6.884   8.289   3.934
36301SOL     OW 8926   7.345   9.195   4.878
36301SOL    HW1 8927   7.406   9.225   4.805
36301SOL    HW2 8928   7.307   9.106   4.856
36302SOL     OW 8929   6.838   9.179   4.852
36302SOL    HW1 8930   6.922   9.184   4.798
36302SOL    HW2 8931   6.815   9.083   4.870
36303SOL     OW 8932   5.669   8.706   4.746
36303SOL    HW1 8933   5.664   8.705   4.846
36303SOL    HW2 8934   5.586   8.665   4.708
36304SOL     OW 8935   6.274   9.110   5.440
36304SOL    HW1 8936   6.218   9.191   5.449
36304SOL    HW2 8937   6.326   9.114   5.354
36305SOL     OW 8938   7.312   7.583   4.247
36305SOL    HW1 8939   7.385   7.566   4.180
36305SOL    HW2 8940   7.281   7.496   4.285
36306SOL     OW 8941   6.974   9.021   4.201
36306SOL    HW1 8942   7.041   9.033   4.127
36306SOL    HW2 8943   6.934   9.110   4.224
36307SOL     OW 8944   5.716   9.242   5.575
36307SOL    HW1 8945   5.675   9.168   5.628
36307SOL    HW2 8946   5.780   9.293   5.633
36308SOL     OW 8947   6.866   8.375   4.396
36308SOL    HW1 8948   6.926   8.294   4.398
36308SOL    HW2 8949   6.906   8.444   4.336
36309SOL     OW 8950   6.416   8.721   5.146
36309SOL    HW1 8951   6.411   8.754   5.241
36309SOL    HW2 8952   6.330   8.740   5.100
36310SOL     OW 8953   6.258   9.064   3.878
36310SOL    HW1 8954   6.267   9.074   3.779
36310SOL    HW2 8955   6.218   8.975   3.899
36311SOL     OW 8956   7.236   9.168   5.118
36311SOL    HW1 8957   7.289   9.178   5.034
36311SOL    HW2 8958   7.209   9.258   5.152
36312SOL     OW 8959   7.427   7.623   4.687
36312SOL    HW1 8960   7.466   7.538   4.651
36312SOL    HW2 8961   7.329   7.625   4.668
36313SOL     OW 8962   5.849   7.774   4.444
36313SOL    HW1 8963   5.770   7.825   4.410
36313SOL    HW2 8964   5.840   7.759   4.542
36314SOL     OW 8965   6.780   9.060   3.755
36314SOL    HW1 8966   6.786   8.967   3.792
36314SOL    HW2 8967   6.721   9.060   3.675
36315SOL     OW 8968   6.408   8.450   5.096
36315SOL    HW1 8969   6.448   8.449   5.004
36315SOL    HW2 8970   6.418   8.542   5.136
36316SOL     OW 8971   6.502   8.358   4.015
36316SOL    HW1 8972   6.565   8.396   3.947
36316SOL    HW2 8973   6.542   8.275   4.054
36317SOL     OW 8974   7.090   9.055   3.768
36317SOL    HW1 8975   6.998   9.092   3.775
36317SOL    HW2 8976   7.128   9.075   3.678
36318SOL     OW 8977   5.958   8.736   5.214
36318SOL    HW1 8978   5.945   8.829   5.180
36318SOL    HW2 8979   5.874   8.684   5.201
36319SOL     OW 8980   7.200   8.740   5.013
36319SOL    HW1 8981   7.260   8.743   5.093
36319SOL    HW2 8982   7.125   8.804   5.026
36320SOL     OW 8983   6.625   8.546   4.420
36320SOL    HW1 8984   6.555   8.499   4.474
36320SOL    HW2 8985   6.684   8.478   4.377
36321SOL     OW 8986   6.600   7.684   4.695
36321SOL    HW1 8987   6.592   7.648   4.602
36321SOL    HW2 8988   6.598   7.608   4.760
36322SOL     OW 8989   6.176   8.935   4.215
36322SOL    HW1 8990   6.218   8.877   4.145
36322SOL    HW2 8991   6.132   9.014   4.171
36323SOL     OW 8992   7.295   7.833   5.105
36323SOL    HW1 8993   7.368   7.902   5.109
36323SOL    HW2 8994   7.323   7.758   5.046
36324SOL     OW 8995   5.841   8.796   4.014
36324SOL    HW1 8996   5.745   8.797   3.987
36324SOL    HW2 8997   5.853   8.849   4.098
36325SOL     OW 8998   5.691   8.461   5.450
36325SOL    HW1 8999   5.614   8.428   5.504
36325SOL    HW2 9000   5.776   8.431   5.492
36326SOL     OW 9001   6.258   7.651   5.213
36326SOL    HW1 9002   6.348   7.635   5.173
36326SOL    HW2 9003   6.266   7.656   5.312
36327SOL     OW 9004   5.661   7.793   3.757
36327SOL    HW1 9005   5.569   7.765   3.728
36327SOL    HW2 9006   5.692   7.870   3.701
36328SOL     OW 9007   7.026   8.304   5.122
36328SOL    HW1 9008   6.969   8.356   5.059
36328SOL    HW2 9009   7.122   8.316   5.098
36329SOL     OW 9010   5.658   7.614   4.042
36329SOL    HW1 9011   5.641   7.697   3.988
36329SOL    HW2 9012   5.748   7.577   4.020
36330SOL     OW 9013   6.769   8.783   3.843
36330SOL    HW1 9014   6.670   8.772   3.845
36330SOL    HW2 9015   6.803   8.798   3.936
36331SOL     OW 9016   6.199   8.290   5.155
36331SOL    HW1 9017   6.255   8.371   5.138
36331SOL    HW2 9018   6.258   8.210   5.158
36332SOL     OW 9019   7.079   9.215   4.683
36332SOL    HW1 9020   7.112   9.279   4.614
36332SOL    HW2 9021   7.145   9.209   4.758
36333SOL     OW 9022   6.302   8.013   5.432
36333SOL    HW1 9023   6.321   8.078   5.506
36333SOL    HW2 9024   6.362   7.933   5.441
36334SOL     OW 9025   7.036   8.668   5.357
36334SOL    HW1 9026   7.027   8.658   5.456
36334SOL    HW2 9027   7.132   8.661   5.331
36335SOL     OW 9028   5.976   9.189   5.284
36335SOL    HW1 9029   5.885   9.230   5.282
36335SOL    HW2 9030   5.969   9.095   5.316
36336SOL     OW 9031   7.260   8.331   4.978
36336SOL    HW1 9032   7.233   8.242   4.941
36336SOL    HW2 9033   7.261   8.399   4.905
36337SOL     OW 9034   6.180   8.193   4.376
36337SOL    HW1 9035   6.230   8.278   4.357
36337SOL    HW2 9036   6.092   8.195   4.328
36338SOL     OW 9037   7.363   7.790   5.366
36338SOL    HW1 9038   7.346   7.821   5.272
36338SOL    HW2 9039   7.279   7.753   5.404
36339SOL     OW 9040   7.316   8.382   5.241
36339SOL    HW1 9041   7.354   8.473   5.256
36339SOL    HW2 9042   7.308   8.365   5.142
36340SOL     OW 9043   6.445   8.822   3.740
36340SOL    HW1 9044   6.399   8.837   3.828
36340SOL    HW2 9045   6.489   8.907   3.710
36341SOL     OW 9046   6.247   9.238   4.677
36341SOL    HW1 9047   6.201   9.326   4.664
36341SOL    HW2 9048   6.346   9.250   4.670
36342SOL     OW 9049   6.445   8.404   4.585
36342SOL    HW1 9050   6.499   8.335   4.633
36342SOL    HW2 9051   6.413   8.473   4.651
36343SOL     OW 9052   6.669   8.432   3.811
36343SOL    HW1 9053   6.646   8.485   3.729
36343SOL    HW2 9054   6.750   8.376   3.792
36344SOL     OW 9055   7.447   9.017   4.575
36344SOL    HW1 9056   7.376   9.005   4.505
36344SOL    HW2 9057   7.448   8.938   4.635
36345SOL     OW 9058   5.807   8.762   5.568
36345SOL    HW1 9059   5.742   8.689   5.547
36345SOL    HW2 9060   5.811   8.776   5.666
36346SOL     OW 9061   5.665   8.688   4.377
36346SOL    HW1 9062   5.664   8.641   4.465
36346SOL    HW2 9063   5.747   8.660   4.326
36347SOL     OW 9064   6.258   8.839   5.348
36347SOL    HW1 9065   6.180   8.789   5.386
36347SOL    HW2 9066   6.255   8.934   5.379
36348SOL     OW 9067   7.410   7.640   4.951
36348SOL    HW1 9068   7.406   7.550   4.995
36348SOL    HW2 9069   7.413   7.629   4.852
36349SOL     OW 9070   6.014   7.872   4.244
36349SOL    HW1 9071   6.044   7.800   4.182
36349SOL    HW2 9072   5.975   7.832   4.327
36350SOL     OW 9073   7.291   8.935   4.828
36350SOL    HW1 9074   7.198   8.910   4.801
36350SOL    HW2 9075   7.317   8.885   4.910
36351SOL     OW 9076   5.903   7.995   5.004
36351SOL    HW1 9077   5.941   7.936   5.076
36351SOL    HW2 9078   5.943   7.969   4.916
36352SOL     OW 9079   6.398   9.034   4.411
36352SOL    HW1 9080   6.430   9.044   4.317
36352SOL    HW2 9081   6.319   8.972   4.413
36353SOL     OW 9082   7.010   7.662   4.836
36353SOL    HW1 9083   7.062   7.597   4.891
36353SOL    HW2 9084   6.961   7.725   4.897
36354SOL     OW 9085   6.587   7.482   4.878
36354SOL    HW1 9086   6.524   7.410   4.847
36354SOL    HW2 9087   6.680   7.446   4.878
36355SOL     OW 9088   6.356   8.778   4.025
36355SOL    HW1 9089   6.310   8.691   4.042
36355SOL    HW2 9090   6.447   8.775   4.066
36356SOL     OW 9091   6.204   9.015   5.008
36356SOL    HW1 9092   6.199   9.097   5.065
36356SOL    HW2 9093   6.293   9.012   4.963
36357SOL     OW 9094   6.938   7.500   3.892
36357SOL    HW1 9095   6.973   7.459   3.808
36357SOL    HW2 9096   6.848   7.462   3.912
36358SOL     OW 9097   6.886   7.901   4.415
36358SOL    HW1 9098   6.827   7.981   4.419
36358SOL    HW2 9099   6.901   7.866   4.508
36359SOL     OW 9100   7.179   7.669   4.606
36359SOL    HW1 9101   7.095   7.668   4.660
36359SOL    HW2 9102   7.181   7.752   4.550
36360SOL     OW 9103   5.625   8.525   4.024
36360SOL    HW1 9104   5.724   8.514   4.015
36360SOL    HW2 9105   5.585   8.439   4.056
36361SOL     OW 9106   6.461   9.094   4.061
36361SOL    HW1 9107   6.384   9.059   4.007
36361SOL    HW2 9108   6.429   9.165   4.123
36362SOL     OW 9109   5.816   8.076   5.699
36362SOL    HW1 9110   5.723   8.074   5.736
36362SOL    HW2 9111   5.817   8.037   5.607
36363SOL     OW 9112   5.811   7.723   6.582
36363SOL    HW1 9113   5.846   7.706   6.674
36363SOL    HW2 9114   5.723   7.678   6.570
36364SOL     OW 9115   5.605   7.816   6.233
36364SOL    HW1 9116   5.523   7.859   6.272
36364SOL    HW2 9117   5.577   7.743   6.170
36365SOL     OW 9118   6.155   8.723   6.751
36365SOL    HW1 9119   6.062   8.716   6.714
36365SOL    HW2 9120   6.166   8.812   6.795
36366SOL     OW 9121   7.141   8.959   6.289
36366SOL    HW1 9122   7.084   8.943   6.370
36366SOL    HW2 9123   7.082   8.969   6.209
36367SOL     OW 9124   6.721   8.151   6.303
36367SOL    HW1 9125   6.778   8.229   6.278
36367SOL    HW2 9126   6.661   8.177   6.379
36368SOL     OW 9127   7.341   8.055   5.817
36368SOL    HW1 9128   7.329   8.042   5.718
36368SOL    HW2 9129   7.311   7.974   5.866
36369SOL     OW 9130   6.354   8.592   6.609
36369SOL    HW1 9131   6.276   8.609   6.669
36369SOL    HW2 9132   6.388   8.679   6.573
36370SOL     OW 9133   6.436   8.246   7.409
36370SOL    HW1 9134   6.432   8.322   7.474
36370SOL    HW2 9135   6.458   8.282   7.318
36371SOL     OW 9136   6.271   8.460   6.251
36371SOL    HW1 9137   6.340   8.444   6.321
36371SOL    HW2 9138   6.198   8.517   6.289
36372SOL     OW 9139   6.272   8.609   7.389
36372SOL    HW1 9140   6.332   8.688   7.403
36372SOL    HW2 9141   6.186   8.640   7.348
36373SOL     OW 9142   5.921   8.883   6.647
36373SOL    HW1 9143   5.843   8.852   6.594
36373SOL    HW2 9144   5.979   8.941   6.590
36374SOL     OW 9145   7.046   8.953   6.925
36374SOL    HW1 9146   7.070   9.047   6.951
36374SOL    HW2 9147   7.030   8.899   7.007
36375SOL     OW 9148   6.024   7.840   7.085
36375SOL    HW1 9149   6.106   7.784   7.094
36375SOL    HW2 9150   5.943   7.782   7.089
36376SOL     OW 9151   7.189   7.895   6.323
36376SOL    HW1 9152   7.115   7.941   6.273
36376SOL    HW2 9153   7.240   7.963   6.376
36377SOL     OW 9154   5.817   9.161   6.069
36377SOL    HW1 9155   5.851   9.238   6.123
36377SOL    HW2 9156   5.861   9.161   5.979
36378SOL     OW 9157   6.713   8.789   7.276
36378SOL    HW1 9158   6.760   8.789   7.364
36378SOL    HW2 9159   6.665   8.702   7.265
36379SOL     OW 9160   5.816   8.882   6.124
36379SOL    HW1 9161   5.790   8.978   6.124
36379SOL    HW2 9162   5.745   8.828   6.169
36380SOL     OW 9163   5.826   8.539   6.472
36380SOL    HW1 9164   5.840   8.455   6.524
36380SOL    HW2 9165   5.771   8.603   6.527
36381SOL     OW 9166   6.206   9.234   7.025
36381SOL    HW1 9167   6.114   9.217   7.060
36381SOL    HW2 9168   6.234   9.326   7.051
36382SOL     OW 9169   6.192   8.412   5.709
36382SOL    HW1 9170   6.199   8.496   5.655
36382SOL    HW2 9171   6.238   8.425   5.797
36383SOL     OW 9172   7.180   7.562   7.066
36383SOL    HW1 9173   7.162   7.629   6.994
36383SOL    HW2 9174   7.177   7.608   7.155
36384SOL     OW 9175   5.708   8.091   6.149
36384SOL    HW1 9176   5.663   8.003   6.166
36384SOL    HW2 9177   5.707   8.145   6.233
36385SOL     OW 9178   7.428   9.215   5.945
36385SOL    HW1 9179   7.482   9.186   6.025
36385SOL    HW2 9180   7.458   9.305   5.916
36386SOL     OW 9181   5.613   9.044   5.703
36386SOL    HW1 9182   5.594   8.948   5.724
36386SOL    HW2 9183   5.580   9.102   5.778
36387SOL     OW 9184   7.275   8.370   6.198
36387SOL    HW1 9185   7.370   8.341   6.206
36387SOL    HW2 9186   7.267   8.435   6.123
36388SOL     OW 9187   5.699   8.185   7.183
36388SOL    HW1 9188   5.787   8.172   7.228
36388SOL    HW2 9189   5.686   8.282   7.161
36389SOL     OW 9190   6.199   8.813   6.312
36389SOL    HW1 9191   6.150   8.726   6.321
36389SOL    HW2 9192   6.176   8.856   6.225
36390SOL     OW 9193   6.879   8.676   7.009
36390SOL    HW1 9194   6.916   8.603   6.951
36390SOL    HW2 9195   6.931   8.681   7.094
36391SOL     OW 9196   6.395   7.452   6.088
36391SOL    HW1 9197   6.435   7.543   6.079
36391SOL    HW2 9198   6.295   7.460   6.094
36392SOL     OW 9199   5.783   8.424   6.850
36392SOL    HW1 9200   5.872   8.379   6.836
36392SOL    HW2 9201   5.710   8.359   6.831
36393SOL     OW 9202   7.111   8.447   5.776
36393SOL    HW1 9203   7.048   8.371   5.789
36393SOL    HW2 9204   7.159   8.465   5.862
36394SOL     OW 9205   6.773   9.240   7.202
36394SOL    HW1 9206   6.797   9.300   7.126
36394SOL    HW2 9207   6.780   9.145   7.172
36395SOL     OW 9208   5.903   7.699   7.387
36395SOL    HW1 9209   5.974   7.770   7.393
36395SOL    HW2 9210   5.815   7.738   7.415
36396SOL     OW 9211   7.052   8.865   6.539
36396SOL    HW1 9212   6.993   8.871   6.619
36396SOL    HW2 9213   7.037   8.777   6.493
36397SOL     OW 9214   7.253   9.162   6.158
36397SOL    HW1 9215   7.212   9.139   6.070
36397SOL    HW2 9216   7.235   9.088   6.223
36398SOL     OW 9217   6.184   8.177   5.856
36398SOL    HW1 9218   6.208   8.246   5.788
36398SOL    HW2 9219   6.106   8.210   5.910
36399SOL     OW 9220   6.867   7.793   6.530
36399SOL    HW1 9221   6.781   7.743   6.517
36399SOL    HW2 9222   6.929   7.739   6.586
36400SOL     OW 9223   7.162   9.110   5.893
36400SOL    HW1 9224   7.251   9.156   5.896
36400SOL    HW2 9225   7.141   9.086   5.798
36401SOL     OW 9226   6.393   8.053   7.051
36401SOL    HW1 9227   6.346   8.050   7.140
36401SOL    HW2 9228   6.342   7.998   6.985
36402SOL     OW 9229   6.980   7.917   7.260
36402SOL    HW1 9230   6.960   7.960   7.348
36402SOL    HW2 9231   7.058   7.855   7.269
36403SOL     OW 9232   6.559   8.338   7.158
36403SOL    HW1 9233   6.605   8.254   7.129
36403SOL    HW2 9234   6.503   8.372   7.083
36404SOL     OW 9235   6.577   7.858   6.828
36404SOL    HW1 9236   6.500   7.892   6.882
36404SOL    HW2 9237   6.543   7.807   6.749
36405SOL     OW 9238   6.627   8.149   6.015
36405SOL    HW1 9239   6.653   8.145   6.111
36405SOL    HW2 9240   6.542   8.098   6.001
36406SOL     OW 9241   5.662   8.259   6.375
36406SOL    HW1 9242   5.761   8.247   6.384
36406SOL    HW2 9243   5.638   8.354   6.396
36407SOL     OW 9244   5.716   9.269   7.157
36407SOL    HW1 9245   5.706   9.254   7.256
36407SOL    HW2 9246   5.630   9.305   7.121
36408SOL     OW 9247   6.451   7.796   5.781
36408SOL    HW1 9248   6.510   7.859   5.732
36408SOL    HW2 9249   6.470   7.702   5.752
36409SOL     OW 9250   7.305   8.033   7.417
36409SOL    HW1 9251   7.279   8.122   7.381
36409SOL    HW2 9252   7.303   7.965   7.344
36410SOL     OW 9253   6.948   8.592   6.131
36410SOL    HW1 9254   7.031   8.563   6.083
36410SOL    HW2 9255   6.899   8.659   6.075
36411SOL     OW 9256   6.136   7.644   6.471
36411SOL    HW1 9257   6.131   7.639   6.571
36411SOL    HW2 9258   6.138   7.740   6.442
36412SOL     OW 9259   6.594   8.904   6.063
36412SOL    HW1 9260   6.548   8.976   6.011
36412SOL    HW2 9261   6.590   8.924   6.161
36413SOL     OW 9262   5.937   9.249   6.439
36413SOL    HW1 9263   5.987   9.163   6.445
36413SOL    HW2 9264   6.002   9.326   6.436
36414SOL     OW 9265   7.381   8.514   6.459
36414SOL    HW1 9266   7.319   8.499   6.383
36414SOL    HW2 9267   7.329   8.525   6.544
36415SOL     OW 9268   6.813   8.998   7.092
36415SOL    HW1 9269   6.819   8.921   7.156
36415SOL    HW2 9270   6.761   8.972   7.012
36416SOL     OW 9271   5.907   8.391   5.828
36416SOL    HW1 9272   5.989   8.430   5.786
36416SOL    HW2 9273   5.880   8.309   5.779
36417SOL     OW 9274   7.044   8.183   6.314
36417SOL    HW1 9275   7.039   8.118   6.389
36417SOL    HW2 9276   7.124   8.242   6.327
36418SOL     OW 9277   6.047   8.714   7.313
36418SOL    HW1 9278   5.997   8.715   7.227
36418SOL    HW2 9279   5.984   8.696   7.389
36419SOL     OW 9280   6.697   9.224   5.823
36419SOL    HW1 9281   6.637   9.162   5.873
36419SOL    HW2 9282   6.728   9.180   5.738
36420SOL     OW 9283   5.788   7.733   7.084
36420SOL    HW1 9284   5.708   7.793   7.071
36420SOL    HW2 9285   5.778   7.684   7.170
36421SOL     OW 9286   7.218   8.825   5.667
36421SOL    HW1 9287   7.186   8.919   5.657
36421SOL    HW2 9288   7.142   8.762   5.655
36422SOL     OW 9289   6.050   9.191   5.909
36422SOL    HW1 9290   6.083   9.230   5.995
36422SOL    HW2 9291   6.126   9.184   5.844
36423SOL     OW 9292   6.986   7.555   6.012
36423SOL    HW1 9293   6.962   7.518   5.922
36423SOL    HW2 9294   7.085   7.571   6.016
36424SOL     OW 9295   5.835   9.233   6.827
36424SOL    HW1 9296   5.892   9.168   6.877
36424SOL    HW2 9297   5.819   9.200   6.734
36425SOL     OW 9298   6.526   9.146   6.490
36425SOL    HW1 9299   6.606   9.089   6.511
36425SOL    HW2 9300   6.477   9.106   6.413
36426SOL     OW 9301   5.968   8.148   6.066
36426SOL    HW1 9302   6.013   8.058   6.063
36426SOL    HW2 9303   5.874   8.137   6.099
36427SOL     OW 9304   7.133   7.670   7.315
36427SOL    HW1 9305   7.128   7.707   7.407
36427SOL    HW2 9306   7.061   7.601   7.303
36428SOL     OW 9307   6.200   7.570   5.703
36428SOL    HW1 9308   6.298   7.548   5.710
36428SOL    HW2 9309   6.169   7.553   5.610
36429SOL     OW 9310   6.367   7.712   7.335
36429SOL    HW1 9311   6.434   7.651   7.378
36429SOL    HW2 9312   6.294   7.731   7.400
36430SOL     OW 9313   6.474   8.962   6.781
36430SOL    HW1 9314   6.451   8.937   6.687
36430SOL    HW2 9315   6.535   8.893   6.820
36431SOL     OW 9316   6.937   8.038   7.019
36431SOL    HW1 9317   6.965   7.995   7.104
36431SOL    HW2 9318   6.962   8.134   7.020
36432SOL     OW 9319   6.389   8.850   6.510
36432SOL    HW1 9320   6.479   8.864   6.468
36432SOL    HW2 9321   6.318   8.852   6.439
36433SOL     OW 9322   6.508   7.951   6.485
36433SOL    HW1 9323   6.483   7.942   6.389
36433SOL    HW2 9324   6.556   7.869   6.516
36434SOL     OW 9325   6.125   7.512   6.098
36434SOL    HW1 9326   6.044   7.513   6.156
36434SOL    HW2 9327   6.128   7.595   6.043
36435SOL     OW 9328   7.020   8.636   5.627
36435SOL    HW1 9329   7.052   8.560   5.684
36435SOL    HW2 9330   6.928   8.663   5.657
36436SOL     OW 9331   5.883   7.483   5.757
36436SOL    HW1 9332   5.932   7.567   5.736
36436SOL    HW2 9333   5.945   7.418   5.802
36437SOL     OW 9334   6.521   7.684   6.066
36437SOL    HW1 9335   6.473   7.725   5.988
36437SOL    HW2 9336   6.620   7.682   6.047
36438SOL     OW 9337   6.662   8.131   7.050
36438SOL    HW1 9338   6.582   8.070   7.053
36438SOL    HW2 9339   6.743   8.078   7.026
36439SOL     OW 9340   6.813   9.018   6.379
36439SOL    HW1 9341   6.834   9.092   6.314
36439SOL    HW2 9342   6.881   9.018   6.452
36440SOL     OW 9343   6.045   8.600   6.327
36440SOL    HW1 9344   5.974   8.573   6.392
36440SOL    HW2 9345   6.019   8.572   6.234
36441SOL     OW 9346   6.857   9.245   6.177
36441SOL    HW1 9347   6.901   9.309   6.113
36441SOL    HW2 9348   6.807   9.297   6.247
36442SOL     OW 9349   6.618   7.997   5.602
36442SOL    HW1 9350   6.577   8.079   5.563
36442SOL    HW2 9351   6.682   8.023   5.675
36443SOL     OW 9352   5.664   8.004   6.972
36443SOL    HW1 9353   5.756   8.003   6.931
36443SOL    HW2 9354   5.658   8.078   7.039
36444SOL     OW 9355   6.147   7.670   6.733
36444SOL    HW1 9356   6.185   7.586   6.770
36444SOL    HW2 9357   6.059   7.689   6.777
36445SOL     OW 9358   6.452   7.902   6.228
36445SOL    HW1 9359   6.420   7.974   6.166
36445SOL    HW2 9360   6.476   7.821   6.175
36446SOL     OW 9361   6.603   7.487   6.339
36446SOL    HW1 9362   6.531   7.492   6.270
36446SOL    HW2 9363   6.579   7.418   6.408
36447SOL     OW 9364   7.015   8.621   6.453
36447SOL    HW1 9365   6.960   8.537   6.446
36447SOL    HW2 9366   7.041   8.650   6.361
36448SOL     OW 9367   7.052   8.038   6.578
36448SOL    HW1 9368   7.022   7.943   6.585
36448SOL    HW2 9369   7.125   8.054   6.644
36449SOL     OW 9370   7.443   8.281   5.963
36449SOL    HW1 9371   7.485   8.217   6.027
36449SOL    HW2 9372   7.405   8.230   5.885
36450SOL     OW 9373   6.074   8.833   5.760
36450SOL    HW1 9374   5.987   8.818   5.807
36450SOL    HW2 9375   6.057   8.859   5.665
36451SOL     OW 9376   7.250   8.728   6.243
36451SOL    HW1 9377   7.349   8.736   6.257
36451SOL    HW2 9378   7.205   8.812   6.274
36452SOL     OW 9379   6.976   8.023   5.664
36452SOL    HW1 9380   6.922   8.002   5.745
36452SOL    HW2 9381   7.067   7.982   5.673
36453SOL     OW 9382   6.113   7.704   5.914
36453SOL    HW1 9383   6.140   7.645   5.839
36453SOL    HW2 9384   6.113   7.799   5.883
36454SOL     OW 9385   7.340   8.671   7.174
36454SOL    HW1 9386   7.431   8.632   7.161
36454SOL    HW2 9387   7.348   8.767   7.198
36455SOL     OW 9388   6.650   8.795   6.926
36455SOL    HW1 9389   6.570   8.772   6.981
36455SOL    HW2 9390   6.733   8.769   6.975
36456SOL     OW 9391   7.178   9.077   7.211
36456SOL    HW1 9392   7.205   9.111   7.121
36456SOL    HW2 9393   7.257   9.039   7.257
36457SOL     OW 9394   6.697   8.643   6.686
36457SOL    HW1 9395   6.657   8.687   6.767
36457SOL    HW2 9396   6.656   8.680   6.603
36458SOL     OW 9397   7.224   8.547   6.665
36458SOL    HW1 9398   7.229   8.628   6.724
36458SOL    HW2 9399   7.138   8.549   6.614
36459SOL     OW 9400   6.501   7.537   6.988
36459SOL    HW1 9401   6.526   7.517   6.893
36459SOL    HW2 9402   6.573   7.593   7.030
36460SOL     OW 9403   6.566   8.564   7.305
36460SOL    HW1 9404   6.467   8.570   7.315
36460SOL    HW2 9405   6.589   8.484   7.249
36461SOL     OW 9406   6.291   8.498   5.954
36461SOL    HW1 9407   6.277   8.505   6.053
36461SOL    HW2 9408   6.375   8.447   5.936
36462SOL     OW 9409   5.996   8.261   6.837
36462SOL    HW1 9410   6.082   8.273   6.887
36462SOL    HW2 9411   5.954   8.174   6.864
36463SOL     OW 9412   6.860   7.834   6.848
36463SOL    HW1 9413   6.881   7.908   6.912
36463SOL    HW2 9414   6.771   7.851   6.805
36464SOL     OW 9415   5.650   9.012   6.917
36464SOL    HW1 9416   5.604   9.094   6.883
36464SOL    HW2 9417   5.748   9.031   6.926
36465SOL     OW 9418   5.953   8.548   6.087
36465SOL    HW1 9419   5.946   8.631   6.031
36465SOL    HW2 9420   5.957   8.468   6.027
36466SOL     OW 9421   6.152   7.985   6.451
36466SOL    HW1 9422   6.164   8.051   6.377
36466SOL    HW2 9423   6.198   8.019   6.534
36467SOL     OW 9424   6.838   8.796   5.974
36467SOL    HW1 9425   6.888   8.873   6.014
36467SOL    HW2 9426   6.743   8.798   6.006
36468SOL     OW 9427   6.858   8.893   6.728
36468SOL    HW1 9428   6.905   8.906   6.815
36468SOL    HW2 9429   6.792   8.819   6.737
36469SOL     OW 9430   7.168   8.087   6.058
36469SOL    HW1 9431   7.137   8.148   6.131
36469SOL    HW2 9432   7.218   8.139   5.989
36470SOL     OW 9433   5.940   8.958   6.915
36470SOL    HW1 9434   5.919   8.914   6.828
36470SOL    HW2 9435   6.037   8.984   6.918
36471SOL     OW 9436   5.988   8.199   7.184
36471SOL    HW1 9437   6.056   8.254   7.137
36471SOL    HW2 9438   6.028   8.111   7.211
36472SOL     OW 9439   7.173   8.227   7.256
36472SOL    HW1 9440   7.081   8.265   7.251
36472SOL    HW2 9441   7.233   8.274   7.191
36473SOL     OW 9442   6.599   7.553   7.356
36473SOL    HW1 9443   6.605   7.638   7.304
36473SOL    HW2 9444   6.631   7.477   7.299
36474SOL     OW 9445   6.090   7.498   7.326
36474SOL    HW1 9446   6.048   7.441   7.256
36474SOL    HW2 9447   6.024   7.567   7.358
36475SOL     OW 9448   6.159   8.318   6.615
36475SOL    HW1 9449   6.203   8.407   6.606
36475SOL    HW2 9450   6.096   8.318   6.692
36476SOL     OW 9451   6.946   8.310   6.631
36476SOL    HW1 9452   6.871   8.310   6.565
36476SOL    HW2 9453   6.983   8.218   6.640
36477SOL     OW 9454   6.795   7.973   5.861
36477SOL    HW1 9455   6.808   7.889   5.915
36477SOL    HW2 9456   6.766   8.047   5.921
36478SOL     OW 9457   5.893   7.661   6.817
36478SOL    HW1 9458   5.870   7.698   6.907
36478SOL    HW2 9459   5.863   7.566   6.811
36479SOL     OW 9460   5.623   8.758   6.868
36479SOL    HW1 9461   5.676   8.709   6.936
36479SOL    HW2 9462   5.645   8.856   6.873
36480SOL     OW 9463   6.318   8.082   6.650
36480SOL    HW1 9464   6.377   8.056   6.574
36480SOL    HW2 9465   6.290   8.178   6.639
36481SOL     OW 9466   7.314   8.383   7.440
36481SOL    HW1 9467   7.268   8.376   7.351
36481SOL    HW2 9468   7.252   8.427   7.506
36482SOL     OW 9469   5.893   7.511   6.204
36482SOL    HW1 9470   5.882   7.605   6.237
36482SOL    HW2 9471   5.888   7.448   6.281
36483SOL     OW 9472   7.208   7.815   5.960
36483SOL    HW1 9473   7.210   7.739   6.024
36483SOL    HW2 9474   7.160   7.892   6.000
36484SOL     OW 9475   6.609   8.214   6.552
36484SOL    HW1 9476   6.624   8.235   6.648
36484SOL    HW2 9477   6.579   8.119   6.543
36485SOL     OW 9478   6.566   9.021   7.286
36485SOL    HW1 9479   6.546   9.065   7.198
36485SOL    HW2 9480   6.605   8.930   7.270
36486SOL     OW 9481   7.445   8.966   7.191
36486SOL    HW1 9482   7.459   8.993   7.096
36486SOL    HW2 9483   7.528   8.988   7.244
36487SOL     OW 9484   5.936   8.346   7.390
36487SOL    HW1 9485   6.012   8.390   7.438
36487SOL    HW2 9486   5.971   8.299   7.308
36488SOL     OW 9487   7.126   7.722   5.711
36488SOL    HW1 9488   7.065   7.647   5.734
36488SOL    HW2 9489   7.148   7.774   5.794
36489SOL     OW 9490   6.889   8.286   5.628
36489SOL    HW1 9491   6.923   8.193   5.643
36489SOL    HW2 9492   6.907   8.313   5.533
36490SOL     OW 9493   6.654   8.781   6.435
36490SOL    HW1 9494   6.661   8.697   6.380
36490SOL    HW2 9495   6.716   8.850   6.399
36491SOL     OW 9496   5.905   8.258   6.535
36491SOL    HW1 9497   5.998   8.294   6.540
36491SOL    HW2 9498   5.899   8.173   6.587
36492SOL     OW 9499   5.925   7.957   6.592
36492SOL    HW1 9500   5.873   7.874   6.575
36492SOL    HW2 9501   6.002   7.962   6.528
36493SOL     OW 9502   6.724   7.828   7.264
36493SOL    HW1 9503   6.679   7.891   7.328
36493SOL    HW2 9504   6.817   7.859   7.247
36494SOL     OW 9505   6.746   7.655   7.063
36494SOL    HW1 9506   6.746   7.719   7.140
36494SOL    HW2 9507   6.774   7.703   6.980
36495SOL     OW 9508   5.594   8.774   5.786
36495SOL    HW1 9509   5.501   8.795   5.755
36495SOL    HW2 9510   5.604   8.675   5.799
36496SOL     OW 9511   5.674   9.249   6.513
36496SOL    HW1 9512   5.632   9.163   6.486
36496SOL    HW2 9513   5.768   9.252   6.479
36497SOL     OW 9514   6.090   9.016   6.496
36497SOL    HW1 9515   6.156   9.090   6.505
36497SOL    HW2 9516   6.134   8.937   6.454
36498SOL     OW 9517   6.588   8.244   6.824
36498SOL    HW1 9518   6.629   8.212   6.910
36498SOL    HW2 9519   6.492   8.217   6.821
36499SOL     OW 9520   5.626   7.992   6.700
36499SOL    HW1 9521   5.711   7.959   6.659
36499SOL    HW2 9522   5.639   8.007   6.798
36500SOL     OW 9523   5.775   7.968   7.308
36500SOL    HW1 9524   5.834   7.928   7.238
36500SOL    HW2 9525   5.717   8.039   7.267
36501SOL     OW 9526   6.955   8.398   7.246
36501SOL    HW1 9527   6.994   8.487   7.266
36501SOL    HW2 9528   6.965   8.378   7.149
36502SOL     OW 9529   6.401   8.020   5.911
36502SOL    HW1 9530   6.408   7.931   5.865
36502SOL    HW2 9531   6.307   8.054   5.903
36503SOL     OW 9532   7.243   8.052   6.792
36503SOL    HW1 9533   7.205   7.983   6.854
36503SOL    HW2 9534   7.325   8.016   6.748
36504SOL     OW 9535   5.838   9.012   7.330
36504SOL    HW1 9536   5.808   9.069   7.406
36504SOL    HW2 9537   5.831   8.915   7.356
36505SOL     OW 9538   6.257   7.912   6.855
36505SOL    HW1 9539   6.223   7.823   6.825
36505SOL    HW2 9540   6.283   7.966   6.775
36506SOL     OW 9541   6.516   9.126   7.051
36506SOL    HW1 9542   6.492   9.108   6.956
36506SOL    HW2 9543   6.546   9.220   7.061
36507SOL     OW 9544   6.059   7.948   5.777
36507SOL    HW1 9545   6.120   8.028   5.781
36507SOL    HW2 9546   5.964   7.979   5.784
36508SOL     OW 9547   5.745   8.585   7.052
36508SOL    HW1 9548   5.767   8.524   7.128
36508SOL    HW2 9549   5.755   8.536   6.966
36509SOL     OW 9550   6.933   8.507   6.820
36509SOL    HW1 9551   6.957   8.444   6.746
36509SOL    HW2 9552   6.843   8.547   6.802
36510SOL     OW 9553   6.888   8.303   5.895
36510SOL    HW1 9554   6.802   8.272   5.937
36510SOL    HW2 9555   6.884   8.289   5.796
36511SOL     OW 9556   7.345   9.195   6.740
36511SOL    HW1 9557   7.406   9.225   6.667
36511SOL    HW2 9558   7.307   9.106   6.718
36512SOL     OW 9559   6.838   9.179   6.714
36512SOL    HW1 9560   6.922   9.184   6.660
36512SOL    HW2 9561   6.815   9.083   6.732
36513SOL     OW 9562   5.669   8.706   6.608
36513SOL    HW1 9563   5.664   8.705   6.708
36513SOL    HW2 9564   5.586   8.665   6.570
36514SOL     OW 9565   6.274   9.110   7.302
36514SOL    HW1 9566   6.218   9.191   7.311
36514SOL    HW2 9567   6.326   9.114   7.216
36515SOL     OW 9568   7.312   7.583   6.109
36515SOL    HW1 9569   7.385   7.566   6.042
36515SOL    HW2 9570   7.281   7.496   6.147
36516SOL     OW 9571   6.974   9.021   6.063
36516SOL    HW1 9572   7.041   9.033   5.989
36516SOL    HW2 9573   6.934   9.110   6.086
36517SOL     OW 9574   5.716   9.242   7.437
36517SOL    HW1 9575   5.675   9.168   7.490
36517SOL    HW2 9576   5.780   9.293   7.495
36518SOL     OW 9577   6.866   8.375   6.258
36518SOL    HW1 9578   6.926   8.294   6.260
36518SOL    HW2 9579   6.906   8.444   6.198
36519SOL     OW 9580   6.416   8.721   7.008
36519SOL    HW1 9581   6.411   8.754   7.103
36519SOL    HW2 9582   6.330   8.740   6.962
36520SOL     OW 9583   6.258   9.064   5.740
36520SOL    HW1 9584   6.267   9.074   5.641
36520SOL    HW2 9585   6.218   8.975   5.761
36521SOL     OW 9586   7.236   9.168   6.980
36521SOL    HW1 9587   7.289   9.178   6.896
36521SOL    HW2 9588   7.209   9.258   7.014
36522SOL     OW 9589   7.427   7.623   6.549
36522SOL    HW1 9590   7.466   7.538   6.513
36522SOL    HW2 9591   7.329   7.625   6.530
36523SOL     OW 9592   5.849   7.774   6.306
36523SOL    HW1 9593   5.770   7.825   6.272
36523SOL    HW2 9594   5.840   7.759   6.404
36524SOL     OW 9595   6.780   9.060   5.617
36524SOL    HW1 9596   6.786   8.967   5.654
36524SOL    HW2 9597   6.721   9.060   5.537
36525SOL     OW 9598   6.408   8.450   6.958
36525SOL    HW1 9599   6.448   8.449   6.866
36525SOL    HW2 9600   6.418   8.542   6.998
36526SOL     OW 9601   6.502   8.358   5.877
36526SOL    HW1 9602   6.565   8.396   5.809
36526SOL    HW2 9603   6.542   8.275   5.916
36527SOL     OW 9604   7.090   9.055   5.630
36527SOL    HW1 9605   6.998   9.092   5.637
36527SOL    HW2 9606   7.128   9.075   5.540
36528SOL     OW 9607   5.958   8.736   7.076
36528SOL    HW1 9608   5.945   8.829   7.042
36528SOL    HW2 9609   5.874   8.684   7.063
36529SOL     OW 9610   7.200   8.740   6.875
36529SOL    HW1 9611   7.260   8.743   6.955
36529SOL    HW2 9612   7.125   8.804   6.888
36530SOL     OW 9613   6.625   8.546   6.282
36530SOL    HW1 9614   6.555   8.499   6.336
36530SOL    HW2 9615   6.684   8.478   6.239
36531SOL     OW 9616   6.600   7.684   6.557
36531SOL    HW1 9617   6.592   7.648   6.464
36531SOL    HW2 9618   6.598   7.608   6.622
36532SOL     OW 9619   6.176   8.935   6.077
36532SOL    HW1 9620   6.218   8.877   6.007
36532SOL    HW2 9621   6.132   9.014   6.033
36533SOL     OW 9622   7.295   7.833   6.967
36533SOL    HW1 9623   7.368   7.902   6.971
36533SOL    HW2 9624   7.323   7.758   6.908
36534SOL     OW 9625   5.841   8.796   5.876
36534SOL    HW1 9626   5.745   8.797   5.849
36534SOL    HW2 9627   5.853   8.849   5.960
36535SOL     OW 9628   5.691   8.461   7.312
36535SOL    HW1 9629   5.614   8.428   7.366
36535SOL    HW2 9630   5.776   8.431   7.354
36536SOL     OW 9631   6.258   7.651   7.075
36536SOL    HW1 9632   6.348   7.635   7.035
36536SOL    HW2 9633   6.266   7.656   7.174
36537SOL     OW 9634   5.661   7.793   5.619
36537SOL    HW1 9635   5.569   7.765   5.590
36537SOL    HW2 9636   5.692   7.870   5.563
36538SOL     OW 9637   7.026   8.304   6.984
36538SOL    HW1 9638   6.969   8.356   6.921
36538SOL    HW2 9639   7.122   8.316   6.960
36539SOL     OW 9640   5.658   7.614   5.904
36539SOL    HW1 9641   5.641   7.697   5.850
36539SOL    HW2 9642   5.748   7.577   5.882
36540SOL     OW 9643   6.769   8.783   5.705
36540SOL    HW1 9644   6.670   8.772   5.707
36540SOL    HW2 9645   6.803   8.798   5.798
36541SOL     OW 9646   6.199   8.290   7.017
36541SOL    HW1 9647   6.255   8.371   7.000
36541SOL    HW2 9648   6.258   8.210   7.020
36542SOL     OW 9649   7.079   9.215   6.545
36542SOL    HW1 9650   7.112   9.279   6.476
36542SOL    HW2 9651   7.145   9.209   6.620
36543SOL     OW 9652   6.302   8.013   7.294
36543SOL    HW1 9653   6.321   8.078   7.368
36543SOL    HW2 9654   6.362   7.933   7.303
36544SOL     OW 9655   7.036   8.668   7.219
36544SOL    HW1 9656   7.027   8.658   7.318
36544SOL    HW2 9657   7.132   8.661   7.193
36545SOL     OW 9658   5.976   9.189   7.146
36545SOL    HW1 9659   5.885   9.230   7.144
36545SOL    HW2 9660   5.969   9.095   7.178
36546SOL     OW 9661   7.260   8.331   6.840
36546SOL    HW1 9662   7.233   8.242   6.803
36546SOL    HW2 9663   7.261   8.399   6.767
36547SOL     OW 9664   6.811   7.773   6.035
36547SOL    HW1 9665   6.876   7.699   6.024
36547SOL    HW2 9666   6.831   7.823   6.119
36548SOL     OW 9667   6.180   8.193   6.238
36548SOL    HW1 9668   6.230   8.278   6.219
36548SOL    HW2 9669   6.092   8.195   6.190
36549SOL     OW 9670   7.363   7.790   7.228
36549SOL    HW1 9671   7.346   7.821   7.134
36549SOL    HW2 9672   7.279   7.753   7.266
36550SOL     OW 9673   7.316   8.382   7.103
36550SOL    HW1 9674   7.354   8.473   7.118
36550SOL    HW2 9675   7.308   8.365   7.004
36551SOL     OW 9676   6.445   8.822   5.602
36551SOL    HW1 9677   6.399   8.837   5.690
36551SOL    HW2 9678   6.489   8.907   5.572
36552SOL     OW 9679   6.247   9.238   6.539
36552SOL    HW1 9680   6.201   9.326   6.526
36552SOL    HW2 9681   6.346   9.250   6.532
36553SOL     OW 9682   6.445   8.404   6.447
36553SOL    HW1 9683   6.499   8.335   6.495
36553SOL    HW2 9684   6.413   8.473   6.513
36554SOL     OW 9685   6.669   8.432   5.673
36554SOL    HW1 9686   6.646   8.485   5.591
36554SOL    HW2 9687   6.750   8.376   5.654
36555SOL     OW 9688   7.447   9.017   6.437
36555SOL    HW1 9689   7.376   9.005   6.367
36555SOL    HW2 9690   7.448   8.938   6.497
36556SOL     OW 9691   5.807   8.762   7.430
36556SOL    HW1 9692   5.742   8.689   7.409
36556SOL    HW2 9693   5.811   8.776   7.528
36557SOL     OW 9694   5.665   8.688   6.239
36557SOL    HW1 9695   5.664   8.641   6.327
36557SOL    HW2 9696   5.747   8.660   6.188
36558SOL     OW 9697   6.258   8.839   7.210
36558SOL    HW1 9698   6.180   8.789   7.248
36558SOL    HW2 9699   6.255   8.934   7.241
36559SOL     OW 9700   7.410   7.640   6.813
36559SOL    HW1 9701   7.406   7.550   6.857
36559SOL    HW2 9702   7.413   7.629   6.714
36560SOL     OW 9703   6.014   7.872   6.106
36560SOL    HW1 9704   6.044   7.800   6.044
36560SOL    HW2 9705   5.975   7.832   6.189
36561SOL     OW 9706   7.291   8.935   6.690
36561SOL    HW1 9707   7.198   8.910   6.663
36561SOL    HW2 9708   7.317   8.885   6.772
36562SOL     OW 9709   5.903   7.995   6.866
36562SOL    HW1 9710   5.941   7.936   6.938
36562SOL    HW2 9711   5.943   7.969   6.778
36563SOL     OW 9712   6.398   9.034   6.273
36563SOL    HW1 9713   6.430   9.044   6.179
36563SOL    HW2 9714   6.319   8.972   6.275
36564SOL     OW 9715   7.010   7.662   6.698
36564SOL    HW1 9716   7.062   7.597   6.753
36564SOL    HW2 9717   6.961   7.725   6.759
36565SOL     OW 9718   6.587   7.482   6.740
36565SOL    HW1 9719   6.524   7.410   6.709
36565SOL    HW2 9720   6.680   7.446   6.740
36566SOL     OW 9721   6.356   8.778   5.887
36566SOL    HW1 9722   6.310   8.691   5.904
36566SOL    HW2 9723   6.447   8.775   5.928
36567SOL     OW 9724   6.204   9.015   6.870
36567SOL    HW1 9725   6.199   9.097   6.927
36567SOL    HW2 9726   6.293   9.012   6.825
36568SOL     OW 9727   6.938   7.500   5.754
36568SOL    HW1 9728   6.973   7.459   5.670
36568SOL    HW2 9729   6.848   7.462   5.774
36569SOL     OW 9730   6.886   7.901   6.277
36569SOL    HW1 9731   6.827   7.981   6.281
36569SOL    HW2 9732   6.901   7.866   6.370
36570SOL     OW 9733   7.179   7.669   6.468
36570SOL    HW1 9734   7.095   7.668   6.522
36570SOL    HW2 9735   7.181   7.752   6.412
36571SOL     OW 9736   5.625   8.525   5.886
36571SOL    HW1 9737   5.724   8.514   5.877
36571SOL    HW2 9738   5.585   8.439   5.918
36572SOL     OW 9739   6.461   9.094   5.923
36572SOL    HW1 9740   6.384   9.059   5.869
36572SOL    HW2 9741   6.429   9.165   5.985
36573SOL     OW 9742   5.816   8.076   7.561
36573SOL    HW1 9743   5.723   8.074   7.598
36573SOL    HW2 9744   5.817   8.037   7.469
36574SOL     OW 9745   5.811   7.723   8.444
36574SOL    HW1 9746   5.846   7.706   8.536
36574SOL    HW2 9747   5.723   7.678   8.432
36575SOL     OW 9748   5.605   7.816   8.095
36575SOL    HW1 9749   5.523   7.859   8.134
36575SOL    HW2 9750   5.577   7.743   8.032
36576SOL     OW 9751   6.155   8.723   8.613
36576SOL    HW1 9752   6.062   8.716   8.576
36576SOL    HW2 9753   6.166   8.812   8.657
36577SOL     OW 9754   6.721   8.151   8.165
36577SOL    HW1 9755   6.778   8.229   8.140
36577SOL    HW2 9756   6.661   8.177   8.241
36578SOL     OW 9757   7.341   8.055   7.679
36578SOL    HW1 9758   7.329   8.042   7.580
36578SOL    HW2 9759   7.311   7.974   7.728
36579SOL     OW 9760   6.354   8.592   8.471
36579SOL    HW1 9761   6.276   8.609   8.531
36579SOL    HW2 9762   6.388   8.679   8.435
36580SOL     OW 9763   6.436   8.246   9.271
36580SOL    HW1 9764   6.432   8.322   9.336
36580SOL    HW2 9765   6.458   8.282   9.180
36581SOL     OW 9766   6.271   8.460   8.113
36581SOL    HW1 9767   6.340   8.444   8.183
36581SOL    HW2 9768   6.198   8.517   8.151
36582SOL     OW 9769   6.272   8.609   9.251
36582SOL    HW1 9770   6.332   8.688   9.265
36582SOL    HW2 9771   6.186   8.640   9.210
36583SOL     OW 9772   5.921   8.883   8.509
36583SOL    HW1 9773   5.843   8.852   8.456
36583SOL    HW2 9774   5.979   8.941   8.452
36584SOL     OW 9775   7.046   8.953   8.787
36584SOL    HW1 9776   7.070   9.047   8.813
36584SOL    HW2 9777   7.030   8.899   8.869
36585SOL     OW 9778   6.024   7.840   8.947
36585SOL    HW1 9779   6.106   7.784   8.956
36585SOL    HW2 9780   5.943   7.782   8.951
36586SOL     OW 9781   7.189   7.895   8.185
36586SOL    HW1 9782   7.115   7.941   8.135
36586SOL    HW2 9783   7.240   7.963   8.238
36587SOL     OW 9784   5.817   9.161   7.931
36587SOL    HW1 9785   5.851   9.238   7.985
36587SOL    HW2 9786   5.861   9.161   7.841
36588SOL     OW 9787   6.713   8.789   9.138
36588SOL    HW1 9788   6.760   8.789   9.226
36588SOL    HW2 9789   6.665   8.702   9.127
36589SOL     OW 9790   5.816   8.882   7.986
36589SOL    HW1 9791   5.790   8.978   7.986
36589SOL    HW2 9792   5.745   8.828   8.031
36590SOL     OW 9793   5.826   8.539   8.334
36590SOL    HW1 9794   5.840   8.455   8.386
36590SOL    HW2 9795   5.771   8.603   8.389
36591SOL     OW 9796   6.206   9.234   8.887
36591SOL    HW1 9797   6.114   9.217   8.922
36591SOL    HW2 9798   6.234   9.326   8.913
36592SOL     OW 9799   6.192   8.412   7.571
36592SOL    HW1 9800   6.199   8.496   7.517
36592SOL    HW2 9801   6.238   8.425   7.659
36593SOL     OW 9802   7.180   7.562   8.928
36593SOL    HW1 9803   7.162   7.629   8.856
36593SOL    HW2 9804   7.177   7.608   9.017
36594SOL     OW 9805   5.708   8.091   8.011
36594SOL    HW1 9806   5.663   8.003   8.028
36594SOL    HW2 9807   5.707   8.145   8.095
36595SOL     OW 9808   7.428   9.215   7.807
36595SOL    HW1 9809   7.482   9.186   7.887
36595SOL    HW2 9810   7.458   9.305   7.778
36596SOL     OW 9811   5.613   9.044   7.565
36596SOL    HW1 9812   5.594   8.948   7.586
36596SOL    HW2 9813   5.580   9.102   7.640
36597SOL     OW 9814   7.275   8.370   8.060
36597SOL    HW1 9815   7.370   8.341   8.068
36597SOL    HW2 9816   7.267   8.435   7.985
36598SOL     OW 9817   7.227   8.556   7.880
36598SOL    HW1 9818   7.313   8.558   7.828
36598SOL    HW2 9819   7.241   8.603   7.968
36599SOL     OW 9820   5.699   8.185   9.045
36599SOL    HW1 9821   5.787   8.172   9.090
36599SOL    HW2 9822   5.686   8.282   9.023
36600SOL     OW 9823   6.199   8.813   8.174
36600SOL    HW1 9824   6.150   8.726   8.183
36600SOL    HW2 9825   6.176   8.856   8.087
36601SOL     OW 9826   6.879   8.676   8.871
36601SOL    HW1 9827   6.916   8.603   8.813
36601SOL    HW2 9828   6.931   8.681   8.956
36602SOL     OW 9829   6.395   7.452   7.950
36602SOL    HW1 9830   6.435   7.543   7.941
36602SOL    HW2 9831   6.295   7.460   7.956
36603SOL     OW 9832   5.783   8.424   8.712
36603SOL    HW1 9833   5.872   8.379   8.698
36603SOL    HW2 9834   5.710   8.359   8.693
36604SOL     OW 9835   7.111   8.447   7.638
36604SOL    HW1 9836   7.048   8.371   7.651
36604SOL    HW2 9837   7.159   8.465   7.724
36605SOL     OW 9838   6.773   9.240   9.064
36605SOL    HW1 9839   6.797   9.300   8.988
36605SOL    HW2 9840   6.780   9.145   9.034
36606SOL     OW 9841   5.903   7.699   9.249
36606SOL    HW1 9842   5.974   7.770   9.255
36606SOL    HW2 9843   5.815   7.738   9.277
36607SOL     OW 9844   7.052   8.865   8.401
36607SOL    HW1 9845   6.993   8.871   8.481
36607SOL    HW2 9846   7.037   8.777   8.355
36608SOL     OW 9847   7.253   9.162   8.020
36608SOL    HW1 9848   7.212   9.139   7.932
36608SOL    HW2 9849   7.235   9.088   8.085
36609SOL     OW 9850   6.867   7.793   8.392
36609SOL    HW1 9851   6.781   7.743   8.379
36609SOL    HW2 9852   6.929   7.739   8.448
36610SOL     OW 9853   7.162   9.110   7.755
36610SOL    HW1 9854   7.251   9.156   7.758
36610SOL    HW2 9855   7.141   9.086   7.660
36611SOL     OW 9856   6.393   8.053   8.913
36611SOL    HW1 9857   6.346   8.050   9.002
36611SOL    HW2 9858   6.342   7.998   8.847
36612SOL     OW 9859   6.980   7.917   9.122
36612SOL    HW1 9860   6.960   7.960   9.210
36612SOL    HW2 9861   7.058   7.855   9.131
36613SOL     OW 9862   6.559   8.338   9.020
36613SOL    HW1 9863   6.605   8.254   8.991
36613SOL    HW2 9864   6.503   8.372   8.945
36614SOL     OW 9865   6.577   7.858   8.690
36614SOL    HW1 9866   6.500   7.892   8.744
36614SOL    HW2 9867   6.543   7.807   8.611
36615SOL     OW 9868   6.627   8.149   7.877
36615SOL    HW1 9869   6.653   8.145   7.973
36615SOL    HW2 9870   6.542   8.098   7.863
36616SOL     OW 9871   5.662   8.259   8.237
36616SOL    HW1 9872   5.761   8.247   8.246
36616SOL    HW2 9873   5.638   8.354   8.258
36617SOL     OW 9874   5.716   9.269   9.019
36617SOL    HW1 9875   5.706   9.254   9.118
36617SOL    HW2 9876   5.630   9.305   8.983
36618SOL     OW 9877   6.451   7.796   7.643
36618SOL    HW1 9878   6.510   7.859   7.594
36618SOL    HW2 9879   6.470   7.702   7.614
36619SOL     OW 9880   7.305   8.033   9.279
36619SOL    HW1 9881   7.279   8.122   9.243
36619SOL    HW2 9882   7.303   7.965   9.206
36620SOL     OW 9883   6.948   8.592   7.993
36620SOL    HW1 9884   7.031   8.563   7.945
36620SOL    HW2 9885   6.899   8.659   7.937
36621SOL     OW 9886   6.136   7.644   8.333
36621SOL    HW1 9887   6.131   7.639   8.433
36621SOL    HW2 9888   6.138   7.740   8.304
36622SOL     OW 9889   6.594   8.904   7.925
36622SOL    HW1 9890   6.548   8.976   7.873
36622SOL    HW2 9891   6.590   8.924   8.023
36623SOL     OW 9892   5.937   9.249   8.301
36623SOL    HW1 9893   5.987   9.163   8.307
36623SOL    HW2 9894   6.002   9.326   8.298
36624SOL     OW 9895   7.381   8.514   8.321
36624SOL    HW1 9896   7.319   8.499   8.245
36624SOL    HW2 9897   7.329   8.525   8.406
36625SOL     OW 9898   6.813   8.998   8.954
36625SOL    HW1 9899   6.819   8.921   9.018
36625SOL    HW2 9900   6.761   8.972   8.874
36626SOL     OW 9901   5.907   8.391   7.690
36626SOL    HW1 9902   5.989   8.430   7.648
36626SOL    HW2 9903   5.880   8.309   7.641
36627SOL     OW 9904   7.044   8.183   8.176
36627SOL    HW1 9905   7.039   8.118   8.251
36627SOL    HW2 9906   7.124   8.242   8.189
36628SOL     OW 9907   6.047   8.714   9.175
36628SOL    HW1 9908   5.997   8.715   9.089
36628SOL    HW2 9909   5.984   8.696   9.251
36629SOL     OW 9910   6.697   9.224   7.685
36629SOL    HW1 9911   6.637   9.162   7.735
36629SOL    HW2 9912   6.728   9.180   7.600
36630SOL     OW 9913   5.788   7.733   8.946
36630SOL    HW1 9914   5.708   7.793   8.933
36630SOL    HW2 9915   5.778   7.684   9.032
36631SOL     OW 9916   7.218   8.825   7.529
36631SOL    HW1 9917   7.186   8.919   7.519
36631SOL    HW2 9918   7.142   8.762   7.517
36632SOL     OW 9919   6.050   9.191   7.771
36632SOL    HW1 9920   6.083   9.230   7.857
36632SOL    HW2 9921   6.126   9.184   7.706
36633SOL     OW 9922   6.986   7.555   7.874
36633SOL    HW1 9923   6.962   7.518   7.784
36633SOL    HW2 9924   7.085   7.571   7.878
36634SOL     OW 9925   5.835   9.233   8.689
36634SOL    HW1 9926   5.892   9.168   8.739
36634SOL    HW2 9927   5.819   9.200   8.596
36635SOL     OW 9928   6.526   9.146   8.352
36635SOL    HW1 9929   6.606   9.089   8.373
36635SOL    HW2 9930   6.477   9.106   8.275
36636SOL     OW 9931   5.968   8.148   7.928
36636SOL    HW1 9932   6.013   8.058   7.925
36636SOL    HW2 9933   5.874   8.137   7.961
36637SOL     OW 9934   7.133   7.670   9.177
36637SOL    HW1 9935   7.128   7.707   9.269
36637SOL    HW2 9936   7.061   7.601   9.165
36638SOL     OW 9937   6.200   7.570   7.565
36638SOL    HW1 9938   6.298   7.548   7.572
36638SOL    HW2 9939   6.169   7.553   7.472
36639SOL     OW 9940   6.367   7.712   9.197
36639SOL    HW1 9941   6.434   7.651   9.240
36639SOL    HW2 9942   6.294   7.731   9.262
36640SOL     OW 9943   6.474   8.962   8.643
36640SOL    HW1 9944   6.451   8.937   8.549
36640SOL    HW2 9945   6.535   8.893   8.682
36641SOL     OW 9946   6.937   8.038   8.881
36641SOL    HW1 9947   6.965   7.995   8.966
36641SOL    HW2 9948   6.962   8.134   8.882
36642SOL     OW 9949   6.389   8.850   8.372
36642SOL    HW1 9950   6.479   8.864   8.330
36642SOL    HW2 9951   6.318   8.852   8.301
36643SOL     OW 9952   6.508   7.951   8.347
36643SOL    HW1 9953   6.483   7.942   8.251
36643SOL    HW2 9954   6.556   7.869   8.378
36644SOL     OW 9955   6.125   7.512   7.960
36644SOL    HW1 9956   6.044   7.513   8.018
36644SOL    HW2 9957   6.128   7.595   7.905
36645SOL     OW 9958   7.020   8.636   7.489
36645SOL    HW1 9959   7.052   8.560   7.546
36645SOL    HW2 9960   6.928   8.663   7.519
36646SOL     OW 9961   5.883   7.483   7.619
36646SOL    HW1 9962   5.932   7.567   7.598
36646SOL    HW2 9963   5.945   7.418   7.664
36647SOL     OW 9964   6.521   7.684   7.928
36647SOL    HW1 9965   6.473   7.725   7.850
36647SOL    HW2 9966   6.620   7.682   7.909
36648SOL     OW 9967   6.662   8.131   8.912
36648SOL    HW1 9968   6.582   8.070   8.915
36648SOL    HW2 9969   6.743   8.078   8.888
36649SOL     OW 9970   6.813   9.018   8.241
36649SOL    HW1 9971   6.834   9.092   8.176
36649SOL    HW2 9972   6.881   9.018   8.314
36650SOL     OW 9973   6.045   8.600   8.189
36650SOL    HW1 9974   5.974   8.573   8.254
36650SOL    HW2 9975   6.019   8.572   8.096
36651SOL     OW 9976   6.857   9.245   8.039
36651SOL    HW1 9977   6.901   9.309   7.975
36651SOL    HW2 9978   6.807   9.297   8.109
36652SOL     OW 9979   6.618   7.997   7.464
36652SOL    HW1 9980   6.577   8.079   7.425
36652SOL    HW2 9981   6.682   8.023   7.537
36653SOL     OW 9982   5.664   8.004   8.834
36653SOL    HW1 9983   5.756   8.003   8.793
36653SOL    HW2 9984   5.658   8.078   8.901
36654SOL     OW 9985   6.147   7.670   8.595
36654SOL    HW1 9986   6.185   7.586   8.632
36654SOL    HW2 9987   6.059   7.689   8.639
36655SOL     OW 9988   6.452   7.902   8.090
36655SOL    HW1 9989   6.420   7.974   8.028
36655SOL    HW2 9990   6.476   7.821   8.037
36656SOL     OW 9991   6.603   7.487   8.201
36656SOL    HW1 9992   6.531   7.492   8.132
36656SOL    HW2 9993   6.579   7.418   8.270
36657SOL     OW 9994   7.015   8.621   8.315
36657SOL    HW1 9995   6.960   8.537   8.308
36657SOL    HW2 9996   7.041   8.650   8.223
36658SOL     OW 9997   7.052   8.038   8.440
36658SOL    HW1 9998   7.022   7.943   8.447
36658SOL    HW2 9999   7.125   8.054   8.506
36659SOL     OW10000   7.443   8.281   7.825
36659SOL    HW110001   7.485   8.217   7.889
36659SOL    HW210002   7.405   8.230   7.747
36660SOL     OW10003   6.074   8.833   7.622
36660SOL    HW110004   5.987   8.818   7.669
36660SOL    HW210005   6.057   8.859   7.527
36661SOL     OW10006   7.250   8.728   8.105
36661SOL    HW110007   7.349   8.736   8.119
36661SOL    HW210008   7.205   8.812   8.136
36662SOL     OW10009   6.976   8.023   7.526
36662SOL    HW110010   6.922   8.002   7.607
36662SOL    HW210011   7.067   7.982   7.535
36663SOL     OW10012   6.113   7.704   7.776
36663SOL    HW110013   6.140   7.645   7.701
36663SOL    HW210014   6.113   7.799   7.745
36664SOL     OW10015   7.340   8.671   9.036
36664SOL    HW110016   7.431   8.632   9.023
36664SOL    HW210017   7.348   8.767   9.060
36665SOL     OW10018   6.650   8.795   8.788
36665SOL    HW110019   6.570   8.772   8.843
36665SOL    HW210020   6.733   8.769   8.837
36666SOL     OW10021   7.178   9.077   9.073
36666SOL    HW110022   7.205   9.111   8.983
36666SOL    HW210023   7.257   9.039   9.119
36667SOL     OW10024   6.697   8.643   8.548
36667SOL    HW110025   6.657   8.687   8.629
36667SOL    HW210026   6.656   8.680   8.465
36668SOL     OW10027   7.224   8.547   8.527
36668SOL    HW110028   7.229   8.628   8.586
36668SOL    HW210029   7.138   8.549   8.476
36669SOL     OW10030   6.501   7.537   8.850
36669SOL    HW110031   6.526   7.517   8.755
36669SOL    HW210032   6.573   7.593   8.892
36670SOL     OW10033   6.566   8.564   9.167
36670SOL    HW110034   6.467   8.570   9.177
36670SOL    HW210035   6.589   8.484   9.111
36671SOL     OW10036   6.291   8.498   7.816
36671SOL    HW110037   6.277   8.505   7.915
36671SOL    HW210038   6.375   8.447   7.798
36672SOL     OW10039   5.996   8.261   8.699
36672SOL    HW110040   6.082   8.273   8.749
36672SOL    HW210041   5.954   8.174   8.726
36673SOL     OW10042   6.860   7.834   8.710
36673SOL    HW110043   6.881   7.908   8.774
36673SOL    HW210044   6.771   7.851   8.667
36674SOL     OW10045   5.650   9.012   8.779
36674SOL    HW110046   5.604   9.094   8.745
36674SOL    HW210047   5.748   9.031   8.788
36675SOL     OW10048   5.953   8.548   7.949
36675SOL    HW110049   5.946   8.631   7.893
36675SOL    HW210050   5.957   8.468   7.889
36676SOL     OW10051   6.152   7.985   8.313
36676SOL    HW110052   6.164   8.051   8.239
36676SOL    HW210053   6.198   8.019   8.396
36677SOL     OW10054   6.838   8.796   7.836
36677SOL    HW110055   6.888   8.873   7.876
36677SOL    HW210056   6.743   8.798   7.868
36678SOL     OW10057   6.858   8.893   8.590
36678SOL    HW110058   6.905   8.906   8.677
36678SOL    HW210059   6.792   8.819   8.599
36679SOL     OW10060   7.168   8.087   7.920
36679SOL    HW110061   7.137   8.148   7.993
36679SOL    HW210062   7.218   8.139   7.851
36680SOL     OW10063   5.940   8.958   8.777
36680SOL    HW110064   5.919   8.914   8.690
36680SOL    HW210065   6.037   8.984   8.780
36681SOL     OW10066   5.988   8.199   9.046
36681SOL    HW110067   6.056   8.254   8.999
36681SOL    HW210068   6.028   8.111   9.073
36682SOL     OW10069   7.173   8.227   9.118
36682SOL    HW110070   7.081   8.265   9.113
36682SOL    HW210071   7.233   8.274   9.053
36683SOL     OW10072   6.599   7.553   9.218
36683SOL    HW110073   6.605   7.638   9.166
36683SOL    HW210074   6.631   7.477   9.161
36684SOL     OW10075   6.090   7.498   9.188
36684SOL    HW110076   6.048   7.441   9.118
36684SOL    HW210077   6.024   7.567   9.220
36685SOL     OW10078   6.159   8.318   8.477
36685SOL    HW110079   6.203   8.407   8.468
36685SOL    HW210080   6.096   8.318   8.554
36686SOL     OW10081   6.946   8.310   8.493
36686SOL    HW110082   6.871   8.310   8.427
36686SOL    HW210083   6.983   8.218   8.502
36687SOL     OW10084   6.795   7.973   7.723
36687SOL    HW110085   6.808   7.889   7.777
36687SOL    HW210086   6.766   8.047   7.783
36688SOL     OW10087   5.893   7.661   8.679
36688SOL    HW110088   5.870   7.698   8.769
36688SOL    HW210089   5.863   7.566   8.673
36689SOL     OW10090   5.623   8.758   8.730
36689SOL    HW110091   5.676   8.709   8.798
36689SOL    HW210092   5.645   8.856   8.735
36690SOL     OW10093   6.318   8.082   8.512
36690SOL    HW110094   6.377   8.056   8.436
36690SOL    HW210095   6.290   8.178   8.501
36691SOL     OW10096   7.314   8.383   9.302
36691SOL    HW110097   7.268   8.376   9.213
36691SOL    HW210098   7.252   8.427   9.368
36692SOL     OW10099   5.893   7.511   8.066
36692SOL    HW110100   5.882   7.605   8.099
36692SOL    HW210101   5.888   7.448   8.143
36693SOL     OW10102   7.208   7.815   7.822
36693SOL    HW110103   7.210   7.739   7.886
36693SOL    HW210104   7.160   7.892   7.862
36694SOL     OW10105   6.609   8.214   8.414
36694SOL    HW110106   6.624   8.235   8.510
36694SOL    HW210107   6.579   8.119   8.405
36695SOL     OW10108   6.566   9.021   9.148
36695SOL    HW110109   6.546   9.065   9.060
36695SOL    HW210110   6.605   8.930   9.132
36696SOL     OW10111   7.445   8.966   9.053
36696SOL    HW110112   7.459   8.993   8.958
36696SOL    HW210113   7.528   8.988   9.106
36697SOL     OW10114   5.936   8.346   9.252
36697SOL    HW110115   6.012   8.390   9.300
36697SOL    HW210116   5.971   8.299   9.170
36698SOL     OW10117   7.126   7.722   7.573
36698SOL    HW110118   7.065   7.647   7.596
36698SOL    HW210119   7.148   7.774   7.656
36699SOL     OW10120   6.889   8.286   7.490
36699SOL    HW110121   6.923   8.193   7.505
36699SOL    HW210122   6.907   8.313   7.395
36700SOL     OW10123   6.654   8.781   8.297
36700SOL    HW110124   6.661   8.697   8.242
36700SOL    HW210125   6.716   8.850   8.261
36701SOL     OW10126   5.905   8.258   8.397
36701SOL    HW110127   5.998   8.294   8.402
36701SOL    HW210128   5.899   8.173   8.449
36702SOL     OW10129   5.925   7.957   8.454
36702SOL    HW110130   5.873   7.874   8.437
36702SOL    HW210131   6.002   7.962   8.390
36703SOL     OW10132   6.724   7.828   9.126
36703SOL    HW110133   6.679   7.891   9.190
36703SOL    HW210134   6.817   7.859   9.109
36704SOL     OW10135   6.746   7.655   8.925
36704SOL    HW110136   6.746   7.719   9.002
36704SOL    HW210137   6.774   7.703   8.842
36705SOL     OW10138   5.594   8.774   7.648
36705SOL    HW110139   5.501   8.795   7.617
36705SOL    HW210140   5.604   8.675   7.661
36706SOL     OW10141   5.674   9.249   8.375
36706SOL    HW110142   5.632   9.163   8.348
36706SOL    HW210143   5.768   9.252   8.341
36707SOL     OW10144   6.090   9.016   8.358
36707SOL    HW110145   6.156   9.090   8.367
36707SOL    HW210146   6.134   8.937   8.316
36708SOL     OW10147   6.588   8.244   8.686
36708SOL    HW110148   6.629   8.212   8.772
36708SOL    HW210149   6.492   8.217   8.683
36709SOL     OW10150   5.626   7.992   8.562
36709SOL    HW110151   5.711   7.959   8.521
36709SOL    HW210152   5.639   8.007   8.660
36710SOL     OW10153   5.775   7.968   9.170
36710SOL    HW110154   5.834   7.928   9.100
36710SOL    HW210155   5.717   8.039   9.129
36711SOL     OW10156   6.955   8.398   9.108
36711SOL    HW110157   6.994   8.487   9.128
36711SOL    HW210158   6.965   8.378   9.011
36712SOL     OW10159   6.401   8.020   7.773
36712SOL    HW110160   6.408   7.931   7.727
36712SOL    HW210161   6.307   8.054   7.765
36713SOL     OW10162   7.243   8.052   8.654
36713SOL    HW110163   7.205   7.983   8.716
36713SOL    HW210164   7.325   8.016   8.610
36714SOL     OW10165   5.838   9.012   9.192
36714SOL    HW110166   5.808   9.069   9.268
36714SOL    HW210167   5.831   8.915   9.218
36715SOL     OW10168   6.257   7.912   8.717
36715SOL    HW110169   6.223   7.823   8.687
36715SOL    HW210170   6.283   7.966   8.637
36716SOL     OW10171   6.516   9.126   8.913
36716SOL    HW110172   6.492   9.108   8.818
36716SOL    HW210173   6.546   9.220   8.923
36717SOL     OW10174   6.059   7.948   7.639
36717SOL    HW110175   6.120   8.028   7.643
36717SOL    HW210176   5.964   7.979   7.646
36718SOL     OW10177   5.745   8.585   8.914
36718SOL    HW110178   5.767   8.524   8.990
36718SOL    HW210179   5.755   8.536   8.828
36719SOL     OW10180   6.933   8.507   8.682
36719SOL    HW110181   6.957   8.444   8.608
36719SOL    HW210182   6.843   8.547   8.664
36720SOL     OW10183   6.888   8.303   7.757
36720SOL    HW110184   6.802   8.272   7.799
36720SOL    HW210185   6.884   8.289   7.658
36721SOL     OW10186   7.345   9.195   8.602
36721SOL    HW110187   7.406   9.225   8.529
36721SOL    HW210188   7.307   9.106   8.580
36722SOL     OW10189   6.838   9.179   8.576
36722SOL    HW110190   6.922   9.184   8.522
36722SOL    HW210191   6.815   9.083   8.594
36723SOL     OW10192   5.669   8.706   8.470
36723SOL    HW110193   5.664   8.705   8.570
36723SOL    HW210194   5.586   8.665   8.432
36724SOL     OW10195   6.274   9.110   9.164
36724SOL    HW110196   6.218   9.191   9.173
36724SOL    HW210197   6.326   9.114   9.078
36725SOL     OW10198   7.312   7.583   7.971
36725SOL    HW110199   7.385   7.566   7.904
36725SOL    HW210200   7.281   7.496   8.009
36726SOL     OW10201   6.974   9.021   7.925
36726SOL    HW110202   7.041   9.033   7.851
36726SOL    HW210203   6.934   9.110   7.948
36727SOL     OW10204   5.716   9.242   9.299
36727SOL    HW110205   5.675   9.168   9.352
36727SOL    HW210206   5.780   9.293   9.357
36728SOL     OW10207   6.866   8.375   8.120
36728SOL    HW110208   6.926   8.294   8.122
36728SOL    HW210209   6.906   8.444   8.060
36729SOL     OW10210   6.416   8.721   8.870
36729SOL    HW110211   6.411   8.754   8.965
36729SOL    HW210212   6.330   8.740   8.824
36730SOL     OW10213   6.258   9.064   7.602
36730SOL    HW110214   6.267   9.074   7.503
36730SOL    HW210215   6.218   8.975   7.623
36731SOL     OW10216   7.236   9.168   8.842
36731SOL    HW110217   7.289   9.178   8.758
36731SOL    HW210218   7.209   9.258   8.876
36732SOL     OW10219   7.427   7.623   8.411
36732SOL    HW110220   7.466   7.538   8.375
36732SOL    HW210221   7.329   7.625   8.392
36733SOL     OW10222   5.849   7.774   8.168
36733SOL    HW110223   5.770   7.825   8.134
36733SOL    HW210224   5.840   7.759   8.266
36734SOL     OW10225   6.780   9.060   7.479
36734SOL    HW110226   6.786   8.967   7.516
36734SOL    HW210227   6.721   9.060   7.399
36735SOL     OW10228   6.408   8.450   8.820
36735SOL    HW110229   6.448   8.449   8.728
36735SOL    HW210230   6.418   8.542   8.860
36736SOL     OW10231   6.502   8.358   7.739
36736SOL    HW110232   6.565   8.396   7.671
36736SOL    HW210233   6.542   8.275   7.778
36737SOL     OW10234   7.090   9.055   7.492
36737SOL    HW110235   6.998   9.092   7.499
36737SOL    HW210236   7.128   9.075   7.402
36738SOL     OW10237   5.958   8.736   8.938
36738SOL    HW110238   5.945   8.829   8.904
36738SOL    HW210239   5.874   8.684   8.925
36739SOL     OW10240   7.200   8.740   8.737
36739SOL    HW110241   7.260   8.743   8.817
36739SOL    HW210242   7.125   8.804   8.750
36740SOL     OW10243   6.625   8.546   8.144
36740SOL    HW110244   6.555   8.499   8.198
36740SOL    HW210245   6.684   8.478   8.101
36741SOL     OW10246   6.600   7.684   8.419
36741SOL    HW110247   6.592   7.648   8.326
36741SOL    HW210248   6.598   7.608   8.484
36742SOL     OW10249   6.176   8.935   7.939
36742SOL    HW110250   6.218   8.877   7.869
36742SOL    HW210251   6.132   9.014   7.895
36743SOL     OW10252   7.295   7.833   8.829
36743SOL    HW110253   7.368   7.902   8.833
36743SOL    HW210254   7.323   7.758   8.770
36744SOL     OW10255   5.841   8.796   7.738
36744SOL    HW110256   5.745   8.797   7.711
36744SOL    HW210257   5.853   8.849   7.822
36745SOL     OW10258   5.691   8.461   9.174
36745SOL    HW110259   5.614   8.428   9.228
36745SOL    HW210260   5.776   8.431   9.216
36746SOL     OW10261   6.258   7.651   8.937
36746SOL    HW110262   6.348   7.635   8.897
36746SOL    HW210263   6.266   7.656   9.036
36747SOL     OW10264   5.661   7.793   7.481
36747SOL    HW110265   5.569   7.765   7.452
36747SOL    HW210266   5.692   7.870   7.425
36748SOL     OW10267   7.026   8.304   8.846
36748SOL    HW110268   6.969   8.356   8.783
36748SOL    HW210269   7.122   8.316   8.822
36749SOL     OW10270   5.658   7.614   7.766
36749SOL    HW110271   5.641   7.697   7.712
36749SOL    HW210272   5.748   7.577   7.744
36750SOL     OW10273   6.769   8.783   7.567
36750SOL    HW110274   6.670   8.772   7.569
36750SOL    HW210275   6.803   8.798   7.660
36751SOL     OW10276   6.199   8.290   8.879
36751SOL    HW110277   6.255   8.371   8.862
36751SOL    HW210278   6.258   8.210   8.882
36752SOL     OW10279   7.079   9.215   8.407
36752SOL    HW110280   7.112   9.279   8.338
36752SOL    HW210281   7.145   9.209   8.482
36753SOL     OW10282   6.302   8.013   9.156
36753SOL    HW110283   6.321   8.078   9.230
36753SOL    HW210284   6.362   7.933   9.165
36754SOL     OW10285   7.036   8.668   9.081
36754SOL    HW110286   7.027   8.658   9.180
36754SOL    HW210287   7.132   8.661   9.055
36755SOL     OW10288   5.976   9.189   9.008
36755SOL    HW110289   5.885   9.230   9.006
36755SOL    HW210290   5.969   9.095   9.040
36756SOL     OW10291   6.811   7.773   7.897
36756SOL    HW110292   6.876   7.699   7.886
36756SOL    HW210293   6.831   7.823   7.981
36757SOL     OW10294   6.180   8.193   8.100
36757SOL    HW110295   6.230   8.278   8.081
36757SOL    HW210296   6.092   8.195   8.052
36758SOL     OW10297   7.363   7.790   9.090
36758SOL    HW110298   7.346   7.821   8.996
36758SOL    HW210299   7.279   7.753   9.128
36759SOL     OW10300   7.316   8.382   8.965
36759SOL    HW110301   7.354   8.473   8.980
36759SOL    HW210302   7.308   8.365   8.866
36760SOL     OW10303   6.445   8.822   7.464
36760SOL    HW110304   6.399   8.837   7.552
36760SOL    HW210305   6.489   8.907   7.434
36761SOL     OW10306   6.247   9.238   8.401
36761SOL    HW110307   6.201   9.326   8.388
36761SOL    HW210308   6.346   9.250   8.394
36762SOL     OW10309   6.445   8.404   8.309
36762SOL    HW110310   6.499   8.335   8.357
36762SOL    HW210311   6.413   8.473   8.375
36763SOL     OW10312   6.669   8.432   7.535
36763SOL    HW110313   6.646   8.485   7.453
36763SOL    HW210314   6.750   8.376   7.516
36764SOL     OW10315   7.447   9.017   8.299
36764SOL    HW110316   7.376   9.005   8.229
36764SOL    HW210317   7.448   8.938   8.359
36765SOL     OW10318   5.807   8.762   9.292
36765SOL    HW110319   5.742   8.689   9.271
36765SOL    HW210320   5.811   8.776   9.390
36766SOL     OW10321   5.665   8.688   8.101
36766SOL    HW110322   5.664   8.641   8.189
36766SOL    HW210323   5.747   8.660   8.050
36767SOL     OW10324   6.258   8.839   9.072
36767SOL    HW110325   6.180   8.789   9.110
36767SOL    HW210326   6.255   8.934   9.103
36768SOL     OW10327   7.410   7.640   8.675
36768SOL    HW110328   7.406   7.550   8.719
36768SOL    HW210329   7.413   7.629   8.576
36769SOL     OW10330   6.014   7.872   7.968
36769SOL    HW110331   6.044   7.800   7.906
36769SOL    HW210332   5.975   7.832   8.051
36770SOL     OW10333   7.291   8.935   8.552
36770SOL    HW110334   7.198   8.910   8.525
36770SOL    HW210335   7.317   8.885   8.634
36771SOL     OW10336   5.903   7.995   8.728
36771SOL    HW110337   5.941   7.936   8.800
36771SOL    HW210338   5.943   7.969   8.640
36772SOL     OW10339   6.398   9.034   8.135
36772SOL    HW110340   6.430   9.044   8.041
36772SOL    HW210341   6.319   8.972   8.137
36773SOL     OW10342   7.010   7.662   8.560
36773SOL    HW110343   7.062   7.597   8.615
36773SOL    HW210344   6.961   7.725   8.621
36774SOL     OW10345   6.587   7.482   8.602
36774SOL    HW110346   6.524   7.410   8.571
36774SOL    HW210347   6.680   7.446   8.602
36775SOL     OW10348   6.356   8.778   7.749
36775SOL    HW110349   6.310   8.691   7.766
36775SOL    HW210350   6.447   8.775   7.790
36776SOL     OW10351   6.204   9.015   8.732
36776SOL    HW110352   6.199   9.097   8.789
36776SOL    HW210353   6.293   9.012   8.687
36777SOL     OW10354   6.938   7.500   7.616
36777SOL    HW110355   6.973   7.459   7.532
36777SOL    HW210356   6.848   7.462   7.636
36778SOL     OW10357   6.886   7.901   8.139
36778SOL    HW110358   6.827   7.981   8.143
36778SOL    HW210359   6.901   7.866   8.232
36779SOL     OW10360   7.179   7.669   8.330
36779SOL    HW110361   7.095   7.668   8.384
36779SOL    HW210362   7.181   7.752   8.274
36780SOL     OW10363   5.625   8.525   7.748
36780SOL    HW110364   5.724   8.514   7.739
36780SOL    HW210365   5.585   8.439   7.780
36781SOL     OW10366   6.461   9.094   7.785
36781SOL    HW110367   6.384   9.059   7.731
36781SOL    HW210368   6.429   9.165   7.847
36782SOL     OW10369   5.816   8.076   9.423
36782SOL    HW110370   5.723   8.074   9.460
36782SOL    HW210371   5.817   8.037   9.331
36783SOL     OW10372   5.811   7.723  10.306
36783SOL    HW110373   5.846   7.706  10.398
36783SOL    HW210374   5.723   7.678  10.294
36784SOL     OW10375   5.605   7.816   9.957
36784SOL    HW110376   5.523   7.859   9.996
36784SOL    HW210377   5.577   7.743   9.894
36785SOL     OW10378   6.155   8.723  10.475
36785SOL    HW110379   6.062   8.716  10.438
36785SOL    HW210380   6.166   8.812  10.519
36786SOL     OW10381   6.721   8.151  10.027
36786SOL    HW110382   6.778   8.229  10.002
36786SOL    HW210383   6.661   8.177  10.103
36787SOL     OW10384   7.341   8.055   9.541
36787SOL    HW110385   7.329   8.042   9.442
36787SOL    HW210386   7.311   7.974   9.590
36788SOL     OW10387   6.354   8.592  10.333
36788SOL    HW110388   6.276   8.609  10.393
36788SOL    HW210389   6.388   8.679  10.297
36789SOL     OW10390   6.436   8.246  11.133
36789SOL    HW110391   6.432   8.322  11.198
36789SOL    HW210392   6.458   8.282  11.042
36790SOL     OW10393   6.271   8.460   9.975
36790SOL    HW110394   6.340   8.444  10.045
36790SOL    HW210395   6.198   8.517  10.013
36791SOL     OW10396   6.272   8.609  11.113
36791SOL    HW110397   6.332   8.688  11.127
36791SOL    HW210398   6.186   8.640  11.072
36792SOL     OW10399   5.921   8.883  10.371
36792SOL    HW110400   5.843   8.852  10.318
36792SOL    HW210401   5.979   8.941  10.314
36793SOL     OW10402   7.046   8.953  10.649
36793SOL    HW110403   7.070   9.047  10.675
36793SOL    HW210404   7.030   8.899  10.731
36794SOL     OW10405   6.024   7.840  10.809
36794SOL    HW110406   6.106   7.784  10.818
36794SOL    HW210407   5.943   7.782  10.813
36795SOL     OW10408   7.189   7.895  10.047
36795SOL    HW110409   7.115   7.941   9.997
36795SOL    HW210410   7.240   7.963  10.100
36796SOL     OW10411   6.713   8.789  11.000
36796SOL    HW110412   6.760   8.789  11.088
36796SOL    HW210413   6.665   8.702  10.989
36797SOL     OW10414   5.816   8.882   9.848
36797SOL    HW110415   5.790   8.978   9.848
36797SOL    HW210416   5.745   8.828   9.893
36798SOL     OW10417   5.826   8.539  10.196
36798SOL    HW110418   5.840   8.455  10.248
36798SOL    HW210419   5.771   8.603  10.251
36799SOL     OW10420   6.206   9.234  10.749
36799SOL    HW110421   6.114   9.217  10.784
36799SOL    HW210422   6.234   9.326  10.775
36800SOL     OW10423   6.192   8.412   9.433
36800SOL    HW110424   6.199   8.496   9.379
36800SOL    HW210425   6.238   8.425   9.521
36801SOL     OW10426   7.180   7.562  10.790
36801SOL    HW110427   7.162   7.629  10.718
36801SOL    HW210428   7.177   7.608  10.879
36802SOL     OW10429   5.708   8.091   9.873
36802SOL    HW110430   5.663   8.003   9.890
36802SOL    HW210431   5.707   8.145   9.957
36803SOL     OW10432   7.428   9.215   9.669
36803SOL    HW110433   7.482   9.186   9.749
36803SOL    HW210434   7.458   9.305   9.640
36804SOL     OW10435   5.613   9.044   9.427
36804SOL    HW110436   5.594   8.948   9.448
36804SOL    HW210437   5.580   9.102   9.502
36805SOL     OW10438   7.275   8.370   9.922
36805SOL    HW110439   7.370   8.341   9.930
36805SOL    HW210440   7.267   8.435   9.847
36806SOL     OW10441   7.227   8.556   9.742
36806SOL    HW110442   7.313   8.558   9.690
36806SOL    HW210443   7.241   8.603   9.830
36807SOL     OW10444   5.699   8.185  10.907
36807SOL    HW110445   5.787   8.172  10.952
36807SOL    HW210446   5.686   8.282  10.885
36808SOL     OW10447   6.199   8.813  10.036
36808SOL    HW110448   6.150   8.726  10.045
36808SOL    HW210449   6.176   8.856   9.949
36809SOL     OW10450   6.879   8.676  10.733
36809SOL    HW110451   6.916   8.603  10.675
36809SOL    HW210452   6.931   8.681  10.818
36810SOL     OW10453   6.395   7.452   9.812
36810SOL    HW110454   6.435   7.543   9.803
36810SOL    HW210455   6.295   7.460   9.818
36811SOL     OW10456   5.783   8.424  10.574
36811SOL    HW110457   5.872   8.379  10.560
36811SOL    HW210458   5.710   8.359  10.555
36812SOL     OW10459   7.111   8.447   9.500
36812SOL    HW110460   7.048   8.371   9.513
36812SOL    HW210461   7.159   8.465   9.586
36813SOL     OW10462   6.773   9.240  10.926
36813SOL    HW110463   6.797   9.300  10.850
36813SOL    HW210464   6.780   9.145  10.896
36814SOL     OW10465   5.903   7.699  11.111
36814SOL    HW110466   5.974   7.770  11.117
36814SOL    HW210467   5.815   7.738  11.139
36815SOL     OW10468   7.052   8.865  10.263
36815SOL    HW110469   6.993   8.871  10.343
36815SOL    HW210470   7.037   8.777  10.217
36816SOL     OW10471   7.253   9.162   9.882
36816SOL    HW110472   7.212   9.139   9.794
36816SOL    HW210473   7.235   9.088   9.947
36817SOL     OW10474   6.184   8.177   9.580
36817SOL    HW110475   6.208   8.246   9.512
36817SOL    HW210476   6.106   8.210   9.634
36818SOL     OW10477   6.867   7.793  10.254
36818SOL    HW110478   6.781   7.743  10.241
36818SOL    HW210479   6.929   7.739  10.310
36819SOL     OW10480   7.162   9.110   9.617
36819SOL    HW110481   7.251   9.156   9.620
36819SOL    HW210482   7.141   9.086   9.522
36820SOL     OW10483   6.393   8.053  10.775
36820SOL    HW110484   6.346   8.050  10.864
36820SOL    HW210485   6.342   7.998  10.709
36821SOL     OW10486   6.559   8.338  10.882
36821SOL    HW110487   6.605   8.254  10.853
36821SOL    HW210488   6.503   8.372  10.807
36822SOL     OW10489   6.577   7.858  10.552
36822SOL    HW110490   6.500   7.892  10.606
36822SOL    HW210491   6.543   7.807  10.473
36823SOL     OW10492   6.627   8.149   9.739
36823SOL    HW110493   6.653   8.145   9.835
36823SOL    HW210494   6.542   8.098   9.725
36824SOL     OW10495   5.716   9.269  10.881
36824SOL    HW110496   5.706   9.254  10.980
36824SOL    HW210497   5.630   9.305  10.845
36825SOL     OW10498   6.451   7.796   9.505
36825SOL    HW110499   6.510   7.859   9.456
36825SOL    HW210500   6.470   7.702   9.476
36826SOL     OW10501   7.305   8.033  11.141
36826SOL    HW110502   7.279   8.122  11.105
36826SOL    HW210503   7.303   7.965  11.068
36827SOL     OW10504   6.948   8.592   9.855
36827SOL    HW110505   7.031   8.563   9.807
36827SOL    HW210506   6.899   8.659   9.799
36828SOL     OW10507   6.136   7.644  10.195
36828SOL    HW110508   6.131   7.639  10.295
36828SOL    HW210509   6.138   7.740  10.166
36829SOL     OW10510   6.594   8.904   9.787
36829SOL    HW110511   6.548   8.976   9.735
36829SOL    HW210512   6.590   8.924   9.885
36830SOL     OW10513   5.937   9.249  10.163
36830SOL    HW110514   5.987   9.163  10.169
36830SOL    HW210515   6.002   9.326  10.160
36831SOL     OW10516   7.381   8.514  10.183
36831SOL    HW110517   7.319   8.499  10.107
36831SOL    HW210518   7.329   8.525  10.268
36832SOL     OW10519   6.813   8.998  10.816
36832SOL    HW110520   6.819   8.921  10.880
36832SOL    HW210521   6.761   8.972  10.736
36833SOL     OW10522   5.907   8.391   9.552
36833SOL    HW110523   5.989   8.430   9.510
36833SOL    HW210524   5.880   8.309   9.503
36834SOL     OW10525   7.044   8.183  10.038
36834SOL    HW110526   7.039   8.118  10.113
36834SOL    HW210527   7.124   8.242  10.051
36835SOL     OW10528   6.047   8.714  11.037
36835SOL    HW110529   5.997   8.715  10.951
36835SOL    HW210530   5.984   8.696  11.113
36836SOL     OW10531   6.697   9.224   9.547
36836SOL    HW110532   6.637   9.162   9.597
36836SOL    HW210533   6.728   9.180   9.462
36837SOL     OW10534   5.788   7.733  10.808
36837SOL    HW110535   5.708   7.793  10.795
36837SOL    HW210536   5.778   7.684  10.894
36838SOL     OW10537   7.218   8.825   9.391
36838SOL    HW110538   7.186   8.919   9.381
36838SOL    HW210539   7.142   8.762   9.379
36839SOL     OW10540   6.050   9.191   9.633
36839SOL    HW110541   6.083   9.230   9.719
36839SOL    HW210542   6.126   9.184   9.568
36840SOL     OW10543   6.986   7.555   9.736
36840SOL    HW110544   6.962   7.518   9.646
36840SOL    HW210545   7.085   7.571   9.740
36841SOL     OW10546   5.835   9.233  10.551
36841SOL    HW110547   5.892   9.168  10.601
36841SOL    HW210548   5.819   9.200  10.458
36842SOL     OW10549   6.526   9.146  10.214
36842SOL    HW110550   6.606   9.089  10.235
36842SOL    HW210551   6.477   9.106  10.137
36843SOL     OW10552   5.968   8.148   9.790
36843SOL    HW110553   6.013   8.058   9.787
36843SOL    HW210554   5.874   8.137   9.823
36844SOL     OW10555   7.133   7.670  11.039
36844SOL    HW110556   7.128   7.707  11.131
36844SOL    HW210557   7.061   7.601  11.027
36845SOL     OW10558   6.200   7.570   9.427
36845SOL    HW110559   6.298   7.548   9.434
36845SOL    HW210560   6.169   7.553   9.334
36846SOL     OW10561   6.367   7.712  11.059
36846SOL    HW110562   6.434   7.651  11.102
36846SOL    HW210563   6.294   7.731  11.124
36847SOL     OW10564   6.474   8.962  10.505
36847SOL    HW110565   6.451   8.937  10.411
36847SOL    HW210566   6.535   8.893  10.544
36848SOL     OW10567   6.937   8.038  10.743
36848SOL    HW110568   6.965   7.995  10.828
36848SOL    HW210569   6.962   8.134  10.744
36849SOL     OW10570   6.389   8.850  10.234
36849SOL    HW110571   6.479   8.864  10.192
36849SOL    HW210572   6.318   8.852  10.163
36850SOL     OW10573   6.508   7.951  10.209
36850SOL    HW110574   6.483   7.942  10.113
36850SOL    HW210575   6.556   7.869  10.240
36851SOL     OW10576   6.125   7.512   9.822
36851SOL    HW110577   6.044   7.513   9.880
36851SOL    HW210578   6.128   7.595   9.767
36852SOL     OW10579   7.020   8.636   9.351
36852SOL    HW110580   7.052   8.560   9.408
36852SOL    HW210581   6.928   8.663   9.381
36853SOL     OW10582   5.883   7.483   9.481
36853SOL    HW110583   5.932   7.567   9.460
36853SOL    HW210584   5.945   7.418   9.526
36854SOL     OW10585   6.521   7.684   9.790
36854SOL    HW110586   6.473   7.725   9.712
36854SOL    HW210587   6.620   7.682   9.771
36855SOL     OW10588   6.662   8.131  10.774
36855SOL    HW110589   6.582   8.070  10.777
36855SOL    HW210590   6.743   8.078  10.750
36856SOL     OW10591   6.813   9.018  10.103
36856SOL    HW110592   6.834   9.092  10.038
36856SOL    HW210593   6.881   9.018  10.176
36857SOL     OW10594   6.045   8.600  10.051
36857SOL    HW110595   5.974   8.573  10.116
36857SOL    HW210596   6.019   8.572   9.958
36858SOL     OW10597   6.857   9.245   9.901
36858SOL    HW110598   6.901   9.309   9.837
36858SOL    HW210599   6.807   9.297   9.971
36859SOL     OW10600   6.618   7.997   9.326
36859SOL    HW110601   6.577   8.079   9.287
36859SOL    HW210602   6.682   8.023   9.399
36860SOL     OW10603   5.664   8.004  10.696
36860SOL    HW110604   5.756   8.003  10.655
36860SOL    HW210605   5.658   8.078  10.763
36861SOL     OW10606   6.147   7.670  10.457
36861SOL    HW110607   6.185   7.586  10.494
36861SOL    HW210608   6.059   7.689  10.501
36862SOL     OW10609   6.452   7.902   9.952
36862SOL    HW110610   6.420   7.974   9.890
36862SOL    HW210611   6.476   7.821   9.899
36863SOL     OW10612   6.603   7.487  10.063
36863SOL    HW110613   6.531   7.492   9.994
36863SOL    HW210614   6.579   7.418  10.132
36864SOL     OW10615   7.015   8.621  10.177
36864SOL    HW110616   6.960   8.537  10.170
36864SOL    HW210617   7.041   8.650  10.085
36865SOL     OW10618   7.052   8.038  10.302
36865SOL    HW110619   7.022   7.943  10.309
36865SOL    HW210620   7.125   8.054  10.368
36866SOL     OW10621   7.443   8.281   9.687
36866SOL    HW110622   7.485   8.217   9.751
36866SOL    HW210623   7.405   8.230   9.609
36867SOL     OW10624   6.074   8.833   9.484
36867SOL    HW110625   5.987   8.818   9.531
36867SOL    HW210626   6.057   8.859   9.389
36868SOL     OW10627   7.250   8.728   9.967
36868SOL    HW110628   7.349   8.736   9.981
36868SOL    HW210629   7.205   8.812   9.998
36869SOL     OW10630   6.976   8.023   9.388
36869SOL    HW110631   6.922   8.002   9.469
36869SOL    HW210632   7.067   7.982   9.397
36870SOL     OW10633   6.113   7.704   9.638
36870SOL    HW110634   6.140   7.645   9.563
36870SOL    HW210635   6.113   7.799   9.607
36871SOL     OW10636   7.340   8.671  10.898
36871SOL    HW110637   7.431   8.632  10.885
36871SOL    HW210638   7.348   8.767  10.922
36872SOL     OW10639   6.650   8.795  10.650
36872SOL    HW110640   6.570   8.772  10.705
36872SOL    HW210641   6.733   8.769  10.699
36873SOL     OW10642   7.178   9.077  10.935
36873SOL    HW110643   7.205   9.111  10.845
36873SOL    HW210644   7.257   9.039  10.981
36874SOL     OW10645   6.697   8.643  10.410
36874SOL    HW110646   6.657   8.687  10.491
36874SOL    HW210647   6.656   8.680  10.327
36875SOL     OW10648   7.224   8.547  10.389
36875SOL    HW110649   7.229   8.628  10.448
36875SOL    HW210650   7.138   8.549  10.338
36876SOL     OW10651   6.501   7.537  10.712
36876SOL    HW110652   6.526   7.517  10.617
36876SOL    HW210653   6.573   7.593  10.754
36877SOL     OW10654   6.566   8.564  11.029
36877SOL    HW110655   6.467   8.570  11.039
36877SOL    HW210656   6.589   8.484  10.973
36878SOL     OW10657   6.291   8.498   9.678
36878SOL    HW110658   6.277   8.505   9.777
36878SOL    HW210659   6.375   8.447   9.660
36879SOL     OW10660   5.996   8.261  10.561
36879SOL    HW110661   6.082   8.273  10.611
36879SOL    HW210662   5.954   8.174  10.588
36880SOL     OW10663   6.860   7.834  10.572
36880SOL    HW110664   6.881   7.908  10.636
36880SOL    HW210665   6.771   7.851  10.529
36881SOL     OW10666   5.650   9.012  10.641
36881SOL    HW110667   5.604   9.094  10.607
36881SOL    HW210668   5.748   9.031  10.650
36882SOL     OW10669   5.953   8.548   9.811
36882SOL    HW110670   5.946   8.631   9.755
36882SOL    HW210671   5.957   8.468   9.751
36883SOL     OW10672   6.152   7.985  10.175
36883SOL    HW110673   6.164   8.051  10.101
36883SOL    HW210674   6.198   8.019  10.258
36884SOL     OW10675   6.838   8.796   9.698
36884SOL    HW110676   6.888   8.873   9.738
36884SOL    HW210677   6.743   8.798   9.730
36885SOL     OW10678   6.858   8.893  10.452
36885SOL    HW110679   6.905   8.906  10.539
36885SOL    HW210680   6.792   8.819  10.461
36886SOL     OW10681   7.168   8.087   9.782
36886SOL    HW110682   7.137   8.148   9.855
36886SOL    HW210683   7.218   8.139   9.713
36887SOL     OW10684   5.940   8.958  10.639
36887SOL    HW110685   5.919   8.914  10.552
36887SOL    HW210686   6.037   8.984  10.642
36888SOL     OW10687   5.988   8.199  10.908
36888SOL    HW110688   6.056   8.254  10.861
36888SOL    HW210689   6.028   8.111  10.935
36889SOL     OW10690   7.173   8.227  10.980
36889SOL    HW110691   7.081   8.265  10.975
36889SOL    HW210692   7.233   8.274  10.915
36890SOL     OW10693   6.599   7.553  11.080
36890SOL    HW110694   6.605   7.638  11.028
36890SOL    HW210695   6.631   7.477  11.023
36891SOL     OW10696   6.090   7.498  11.050
36891SOL    HW110697   6.048   7.441  10.980
36891SOL    HW210698   6.024   7.567  11.082
36892SOL     OW10699   6.159   8.318  10.339
36892SOL    HW110700   6.203   8.407  10.330
36892SOL    HW210701   6.096   8.318  10.416
36893SOL     OW10702   6.946   8.310  10.355
36893SOL    HW110703   6.871   8.310  10.289
36893SOL    HW210704   6.983   8.218  10.364
36894SOL     OW10705   6.795   7.973   9.585
36894SOL    HW110706   6.808   7.889   9.639
36894SOL    HW210707   6.766   8.047   9.645
36895SOL     OW10708   5.893   7.661  10.541
36895SOL    HW110709   5.870   7.698  10.631
36895SOL    HW210710   5.863   7.566  10.535
36896SOL     OW10711   5.623   8.758  10.592
36896SOL    HW110712   5.676   8.709  10.660
36896SOL    HW210713   5.645   8.856  10.597
36897SOL     OW10714   6.318   8.082  10.374
36897SOL    HW110715   6.377   8.056  10.298
36897SOL    HW210716   6.290   8.178  10.363
36898SOL     OW10717   7.314   8.383  11.164
36898SOL    HW110718   7.268   8.376  11.075
36898SOL    HW210719   7.252   8.427  11.230
36899SOL     OW10720   5.893   7.511   9.928
36899SOL    HW110721   5.882   7.605   9.961
36899SOL    HW210722   5.888   7.448  10.005
36900SOL     OW10723   7.208   7.815   9.684
36900SOL    HW110724   7.210   7.739   9.748
36900SOL    HW210725   7.160   7.892   9.724
36901SOL     OW10726   6.609   8.214  10.276
36901SOL    HW110727   6.624   8.235  10.372
36901SOL    HW210728   6.579   8.119  10.267
36902SOL     OW10729   6.566   9.021  11.010
36902SOL    HW110730   6.546   9.065  10.922
36902SOL    HW210731   6.605   8.930  10.994
36903SOL     OW10732   7.445   8.966  10.915
36903SOL    HW110733   7.459   8.993  10.820
36903SOL    HW210734   7.528   8.988  10.968
36904SOL     OW10735   5.936   8.346  11.114
36904SOL    HW110736   6.012   8.390  11.162
36904SOL    HW210737   5.971   8.299  11.032
36905SOL     OW10738   7.126   7.722   9.435
36905SOL    HW110739   7.065   7.647   9.458
36905SOL    HW210740   7.148   7.774   9.518
36906SOL     OW10741   6.889   8.286   9.352
36906SOL    HW110742   6.923   8.193   9.367
36906SOL    HW210743   6.907   8.313   9.257
36907SOL     OW10744   6.654   8.781  10.159
36907SOL    HW110745   6.661   8.697  10.104
36907SOL    HW210746   6.716   8.850  10.123
36908SOL     OW10747   5.905   8.258  10.259
36908SOL    HW110748   5.998   8.294  10.264
36908SOL    HW210749   5.899   8.173  10.311
36909SOL     OW10750   5.925   7.957  10.316
36909SOL    HW110751   5.873   7.874  10.299
36909SOL    HW210752   6.002   7.962  10.252
36910SOL     OW10753   6.724   7.828  10.988
36910SOL    HW110754   6.679   7.891  11.052
36910SOL    HW210755   6.817   7.859  10.971
36911SOL     OW10756   6.746   7.655  10.787
36911SOL    HW110757   6.746   7.719  10.864
36911SOL    HW210758   6.774   7.703  10.704
36912SOL     OW10759   5.594   8.774   9.510
36912SOL    HW110760   5.501   8.795   9.479
36912SOL    HW210761   5.604   8.675   9.523
36913SOL     OW10762   5.674   9.249  10.237
36913SOL    HW110763   5.632   9.163  10.210
36913SOL    HW210764   5.768   9.252  10.203
36914SOL     OW10765   6.090   9.016  10.220
36914SOL    HW110766   6.156   9.090  10.229
36914SOL    HW210767   6.134   8.937  10.178
36915SOL     OW10768   6.588   8.244  10.548
36915SOL    HW110769   6.629   8.212  10.634
36915SOL    HW210770   6.492   8.217  10.545
36916SOL     OW10771   5.626   7.992  10.424
36916SOL    HW110772   5.711   7.959  10.383
36916SOL    HW210773   5.639   8.007  10.522
36917SOL     OW10774   5.775   7.968  11.032
36917SOL    HW110775   5.834   7.928  10.962
36917SOL    HW210776   5.717   8.039  10.991
36918SOL     OW10777   6.955   8.398  10.970
36918SOL    HW110778   6.994   8.487  10.990
36918SOL    HW210779   6.965   8.378  10.873
36919SOL     OW10780   6.401   8.020   9.635
36919SOL    HW110781   6.408   7.931   9.589
36919SOL    HW210782   6.307   8.054   9.627
36920SOL     OW10783   7.243   8.052  10.516
36920SOL    HW110784   7.205   7.983  10.578
36920SOL    HW210785   7.325   8.016  10.472
36921SOL     OW10786   5.838   9.012  11.054
36921SOL    HW110787   5.808   9.069  11.130
36921SOL    HW210788   5.831   8.915  11.080
36922SOL     OW10789   6.516   9.126  10.775
36922SOL    HW110790   6.492   9.108  10.680
36922SOL    HW210791   6.546   9.220  10.785
36923SOL     OW10792   6.059   7.948   9.501
36923SOL    HW110793   6.120   8.028   9.505
36923SOL    HW210794   5.964   7.979   9.508
36924SOL     OW10795   5.745   8.585  10.776
36924SOL    HW110796   5.767   8.524  10.852
36924SOL    HW210797   5.755   8.536  10.690
36925SOL     OW10798   6.933   8.507  10.544
36925SOL    HW110799   6.957   8.444  10.470
36925SOL    HW210800   6.843   8.547  10.526
36926SOL     OW10801   6.888   8.303   9.619
36926SOL    HW110802   6.802   8.272   9.661
36926SOL    HW210803   6.884   8.289   9.520
36927SOL     OW10804   7.345   9.195  10.464
36927SOL    HW110805   7.406   9.225  10.391
36927SOL    HW210806   7.307   9.106  10.442
36928SOL     OW10807   6.838   9.179  10.438
36928SOL    HW110808   6.922   9.184  10.384
36928SOL    HW210809   6.815   9.083  10.456
36929SOL     OW10810   5.669   8.706  10.332
36929SOL    HW110811   5.664   8.705  10.432
36929SOL    HW210812   5.586   8.665  10.294
36930SOL     OW10813   6.274   9.110  11.026
36930SOL    HW110814   6.218   9.191  11.035
36930SOL    HW210815   6.326   9.114  10.940
36931SOL     OW10816   7.312   7.583   9.833
36931SOL    HW110817   7.385   7.566   9.766
36931SOL    HW210818   7.281   7.496   9.871
36932SOL     OW10819   6.974   9.021   9.787
36932SOL    HW110820   7.041   9.033   9.713
36932SOL    HW210821   6.934   9.110   9.810
36933SOL     OW10822   5.716   9.242  11.161
36933SOL    HW110823   5.675   9.168  11.214
36933SOL    HW210824   5.780   9.293  11.219
36934SOL     OW10825   6.866   8.375   9.982
36934SOL    HW110826   6.926   8.294   9.984
36934SOL    HW210827   6.906   8.444   9.922
36935SOL     OW10828   6.416   8.721  10.732
36935SOL    HW110829   6.411   8.754  10.827
36935SOL    HW210830   6.330   8.740  10.686
36936SOL     OW10831   6.258   9.064   9.464
36936SOL    HW110832   6.267   9.074   9.365
36936SOL    HW210833   6.218   8.975   9.485
36937SOL     OW10834   7.236   9.168  10.704
36937SOL    HW110835   7.289   9.178  10.620
36937SOL    HW210836   7.209   9.258  10.738
36938SOL     OW10837   7.427   7.623  10.273
36938SOL    HW110838   7.466   7.538  10.237
36938SOL    HW210839   7.329   7.625  10.254
36939SOL     OW10840   5.849   7.774  10.030
36939SOL    HW110841   5.770   7.825   9.996
36939SOL    HW210842   5.840   7.759  10.128
36940SOL     OW10843   6.780   9.060   9.341
36940SOL    HW110844   6.786   8.967   9.378
36940SOL    HW210845   6.721   9.060   9.261
36941SOL     OW10846   6.408   8.450  10.682
36941SOL    HW110847   6.448   8.449  10.590
36941SOL    HW210848   6.418   8.542  10.722
36942SOL     OW10849   6.502   8.358   9.601
36942SOL    HW110850   6.565   8.396   9.533
36942SOL    HW210851   6.542   8.275   9.640
36943SOL     OW10852   7.090   9.055   9.354
36943SOL    HW110853   6.998   9.092   9.361
36943SOL    HW210854   7.128   9.075   9.264
36944SOL     OW10855   5.958   8.736  10.800
36944SOL    HW110856   5.945   8.829  10.766
36944SOL    HW210857   5.874   8.684  10.787
36945SOL     OW10858   7.200   8.740  10.599
36945SOL    HW110859   7.260   8.743  10.679
36945SOL    HW210860   7.125   8.804  10.612
36946SOL     OW10861   6.625   8.546  10.006
36946SOL    HW110862   6.555   8.499  10.060
36946SOL    HW210863   6.684   8.478   9.963
36947SOL     OW10864   6.600   7.684  10.281
36947SOL    HW110865   6.592   7.648  10.188
36947SOL    HW210866   6.598   7.608  10.346
36948SOL     OW10867   6.176   8.935   9.801
36948SOL    HW110868   6.218   8.877   9.731
36948SOL    HW210869   6.132   9.014   9.757
36949SOL     OW10870   7.295   7.833  10.691
36949SOL    HW110871   7.368   7.902  10.695
36949SOL    HW210872   7.323   7.758  10.632
36950SOL     OW10873   5.841   8.796   9.600
36950SOL    HW110874   5.745   8.797   9.573
36950SOL    HW210875   5.853   8.849   9.684
36951SOL     OW10876   5.691   8.461  11.036
36951SOL    HW110877   5.614   8.428  11.090
36951SOL    HW210878   5.776   8.431  11.078
36952SOL     OW10879   6.258   7.651  10.799
36952SOL    HW110880   6.348   7.635  10.759
36952SOL    HW210881   6.266   7.656  10.898
36953SOL     OW10882   5.661   7.793   9.343
36953SOL    HW110883   5.569   7.765   9.314
36953SOL    HW210884   5.692   7.870   9.287
36954SOL     OW10885   7.026   8.304  10.708
36954SOL    HW110886   6.969   8.356  10.645
36954SOL    HW210887   7.122   8.316  10.684
36955SOL     OW10888   5.658   7.614   9.628
36955SOL    HW110889   5.641   7.697   9.574
36955SOL    HW210890   5.748   7.577   9.606
36956SOL     OW10891   6.769   8.783   9.429
36956SOL    HW110892   6.670   8.772   9.431
36956SOL    HW210893   6.803   8.798   9.522
36957SOL     OW10894   6.199   8.290  10.741
36957SOL    HW110895   6.255   8.371  10.724
36957SOL    HW210896   6.258   8.210  10.744
36958SOL     OW10897   7.079   9.215  10.269
36958SOL    HW110898   7.112   9.279  10.200
36958SOL    HW210899   7.145   9.209  10.344
36959SOL     OW10900   6.302   8.013  11.018
36959SOL    HW110901   6.321   8.078  11.092
36959SOL    HW210902   6.362   7.933  11.027
36960SOL     OW10903   7.036   8.668  10.943
36960SOL    HW110904   7.027   8.658  11.042
36960SOL    HW210905   7.132   8.661  10.917
36961SOL     OW10906   5.976   9.189  10.870
36961SOL    HW110907   5.885   9.230  10.868
36961SOL    HW210908   5.969   9.095  10.902
36962SOL     OW10909   7.260   8.331  10.564
36962SOL    HW110910   7.233   8.242  10.527
36962SOL    HW210911   7.261   8.399  10.491
36963SOL     OW10912   6.811   7.773   9.759
36963SOL    HW110913   6.876   7.699   9.748
36963SOL    HW210914   6.831   7.823   9.843
36964SOL     OW10915   6.180   8.193   9.962
36964SOL    HW110916   6.230   8.278   9.943
36964SOL    HW210917   6.092   8.195   9.914
36965SOL     OW10918   7.363   7.790  10.952
36965SOL    HW110919   7.346   7.821  10.858
36965SOL    HW210920   7.279   7.753  10.990
36966SOL     OW10921   7.316   8.382  10.827
36966SOL    HW110922   7.354   8.473  10.842
36966SOL    HW210923   7.308   8.365  10.728
36967SOL     OW10924   6.445   8.822   9.326
36967SOL    HW110925   6.399   8.837   9.414
36967SOL    HW210926   6.489   8.907   9.296
36968SOL     OW10927   6.247   9.238  10.263
36968SOL    HW110928   6.201   9.326  10.250
36968SOL    HW210929   6.346   9.250  10.256
36969SOL     OW10930   6.445   8.404  10.171
36969SOL    HW110931   6.499   8.335  10.219
36969SOL    HW210932   6.413   8.473  10.237
36970SOL     OW10933   6.669   8.432   9.397
36970SOL    HW110934   6.646   8.485   9.315
36970SOL    HW210935   6.750   8.376   9.378
36971SOL     OW10936   7.447   9.017  10.161
36971SOL    HW110937   7.376   9.005  10.091
36971SOL    HW210938   7.448   8.938  10.221
36972SOL     OW10939   5.807   8.762  11.154
36972SOL    HW110940   5.742   8.689  11.133
36972SOL    HW210941   5.811   8.776  11.252
36973SOL     OW10942   5.665   8.688   9.963
36973SOL    HW110943   5.664   8.641  10.051
36973SOL    HW210944   5.747   8.660   9.912
36974SOL     OW10945   6.258   8.839  10.934
36974SOL    HW110946   6.180   8.789  10.972
36974SOL    HW210947   6.255   8.934  10.965
36975SOL     OW10948   7.410   7.640  10.537
36975SOL    HW110949   7.406   7.550  10.581
36975SOL    HW210950   7.413   7.629  10.438
36976SOL     OW10951   6.014   7.872   9.830
36976SOL    HW110952   6.044   7.800   9.768
36976SOL    HW210953   5.975   7.832   9.913
36977SOL     OW10954   7.291   8.935  10.414
36977SOL    HW110955   7.198   8.910  10.387
36977SOL    HW210956   7.317   8.885  10.496
36978SOL     OW10957   5.903   7.995  10.590
36978SOL    HW110958   5.941   7.936  10.662
36978SOL    HW210959   5.943   7.969  10.502
36979SOL     OW10960   6.398   9.034   9.997
36979SOL    HW110961   6.430   9.044   9.903
36979SOL    HW210962   6.319   8.972   9.999
36980SOL     OW10963   7.010   7.662  10.422
36980SOL    HW110964   7.062   7.597  10.477
36980SOL    HW210965   6.961   7.725  10.483
36981SOL     OW10966   6.587   7.482  10.464
36981SOL    HW110967   6.524   7.410  10.433
36981SOL    HW210968   6.680   7.446  10.464
36982SOL     OW10969   6.356   8.778   9.611
36982SOL    HW110970   6.310   8.691   9.628
36982SOL    HW210971   6.447   8.775   9.652
36983SOL     OW10972   6.204   9.015  10.594
36983SOL    HW110973   6.199   9.097  10.651
36983SOL    HW210974   6.293   9.012  10.549
36984SOL     OW10975   6.938   7.500   9.478
36984SOL    HW110976   6.973   7.459   9.394
36984SOL    HW210977   6.848   7.462   9.498
36985SOL     OW10978   6.886   7.901  10.001
36985SOL    HW110979   6.827   7.981  10.005
36985SOL    HW210980   6.901   7.866  10.094
36986SOL     OW10981   7.179   7.669  10.192
36986SOL    HW110982   7.095   7.668  10.246
36986SOL    HW210983   7.181   7.752  10.136
36987SOL     OW10984   5.625   8.525   9.610
36987SOL    HW110985   5.724   8.514   9.601
36987SOL    HW210986   5.585   8.439   9.642
36988SOL     OW10987   6.461   9.094   9.647
36988SOL    HW110988   6.384   9.059   9.593
36988SOL    HW210989   6.429   9.165   9.709
36989SOL     OW10990   5.816   8.076  11.285
36989SOL    HW110991   5.723   8.074  11.322
36989SOL    HW210992   5.817   8.037  11.193
36990SOL     OW10993   5.811   7.723  12.168
36990SOL    HW110994   5.846   7.706  12.260
36990SOL    HW210995   5.723   7.678  12.156
36991SOL     OW10996   5.605   7.816  11.819
36991SOL    HW110997   5.523   7.859  11.858
36991SOL    HW210998   5.577   7.743  11.756
36992SOL     OW10999   6.155   8.723  12.337
36992SOL    HW111000   6.062   8.716  12.300
36992SOL    HW211001   6.166   8.812  12.381
36993SOL     OW11002   7.141   8.959  11.875
36993SOL    HW111003   7.084   8.943  11.956
36993SOL    HW211004   7.082   8.969  11.795
36994SOL     OW11005   6.721   8.151  11.889
36994SOL    HW111006   6.778   8.229  11.864
36994SOL    HW211007   6.661   8.177  11.965
36995SOL     OW11008   7.341   8.055  11.403
36995SOL    HW111009   7.329   8.042  11.304
36995SOL    HW211010   7.311   7.974  11.452
36996SOL     OW11011   6.354   8.592  12.195
36996SOL    HW111012   6.276   8.609  12.255
36996SOL    HW211013   6.388   8.679  12.159
36997SOL     OW11014   6.271   8.460  11.837
36997SOL    HW111015   6.340   8.444  11.907
36997SOL    HW211016   6.198   8.517  11.875
36998SOL     OW11017   5.921   8.883  12.233
36998SOL    HW111018   5.843   8.852  12.180
36998SOL    HW211019   5.979   8.941  12.176
36999SOL     OW11020   7.046   8.953  12.511
36999SOL    HW111021   7.070   9.047  12.537
36999SOL    HW211022   7.030   8.899  12.593
37000SOL     OW11023   6.024   7.840  12.671
37000SOL    HW111024   6.106   7.784  12.680
37000SOL    HW211025   5.943   7.782  12.675
37001SOL     OW11026   7.189   7.895  11.909
37001SOL    HW111027   7.115   7.941  11.859
37001SOL    HW211028   7.240   7.963  11.962
37002SOL     OW11029   5.817   9.161  11.655
37002SOL    HW111030   5.851   9.238  11.709
37002SOL    HW211031   5.861   9.161  11.565
37003SOL     OW11032   5.816   8.882  11.710
37003SOL    HW111033   5.790   8.978  11.710
37003SOL    HW211034   5.745   8.828  11.755
37004SOL     OW11035   5.826   8.539  12.058
37004SOL    HW111036   5.840   8.455  12.110
37004SOL    HW211037   5.771   8.603  12.113
37005SOL     OW11038   6.206   9.234  12.611
37005SOL    HW111039   6.114   9.217  12.646
37005SOL    HW211040   6.234   9.326  12.637
37006SOL     OW11041   6.192   8.412  11.295
37006SOL    HW111042   6.199   8.496  11.241
37006SOL    HW211043   6.238   8.425  11.383
37007SOL     OW11044   7.180   7.562  12.652
37007SOL    HW111045   7.162   7.629  12.580
37007SOL    HW211046   7.177   7.608  12.741
37008SOL     OW11047   5.708   8.091  11.735
37008SOL    HW111048   5.663   8.003  11.752
37008SOL    HW211049   5.707   8.145  11.819
37009SOL     OW11050   7.428   9.215  11.531
37009SOL    HW111051   7.482   9.186  11.611
37009SOL    HW211052   7.458   9.305  11.502
37010SOL     OW11053   5.613   9.044  11.289
37010SOL    HW111054   5.594   8.948  11.310
37010SOL    HW211055   5.580   9.102  11.364
37011SOL     OW11056   7.275   8.370  11.784
37011SOL    HW111057   7.370   8.341  11.792
37011SOL    HW211058   7.267   8.435  11.709
37012SOL     OW11059   7.227   8.556  11.604
37012SOL    HW111060   7.313   8.558  11.552
37012SOL    HW211061   7.241   8.603  11.692
37013SOL     OW11062   5.699   8.185  12.769
37013SOL    HW111063   5.787   8.172  12.814
37013SOL    HW211064   5.686   8.282  12.747
37014SOL     OW11065   6.199   8.813  11.898
37014SOL    HW111066   6.150   8.726  11.907
37014SOL    HW211067   6.176   8.856  11.811
37015SOL     OW11068   6.879   8.676  12.595
37015SOL    HW111069   6.916   8.603  12.537
37015SOL    HW211070   6.931   8.681  12.680
37016SOL     OW11071   6.395   7.452  11.674
37016SOL    HW111072   6.435   7.543  11.665
37016SOL    HW211073   6.295   7.460  11.680
37017SOL     OW11074   5.783   8.424  12.436
37017SOL    HW111075   5.872   8.379  12.422
37017SOL    HW211076   5.710   8.359  12.417
37018SOL     OW11077   7.111   8.447  11.362
37018SOL    HW111078   7.048   8.371  11.375
37018SOL    HW211079   7.159   8.465  11.448
37019SOL     OW11080   7.253   9.162  11.744
37019SOL    HW111081   7.212   9.139  11.656
37019SOL    HW211082   7.235   9.088  11.809
37020SOL     OW11083   6.184   8.177  11.442
37020SOL    HW111084   6.208   8.246  11.374
37020SOL    HW211085   6.106   8.210  11.496
37021SOL     OW11086   6.867   7.793  12.116
37021SOL    HW111087   6.781   7.743  12.103
37021SOL    HW211088   6.929   7.739  12.172
37022SOL     OW11089   7.162   9.110  11.479
37022SOL    HW111090   7.251   9.156  11.482
37022SOL    HW211091   7.141   9.086  11.384
37023SOL     OW11092   6.393   8.053  12.637
37023SOL    HW111093   6.346   8.050  12.726
37023SOL    HW211094   6.342   7.998  12.571
37024SOL     OW11095   6.559   8.338  12.744
37024SOL    HW111096   6.605   8.254  12.715
37024SOL    HW211097   6.503   8.372  12.669
37025SOL     OW11098   6.577   7.858  12.414
37025SOL    HW111099   6.500   7.892  12.468
37025SOL    HW211100   6.543   7.807  12.335
37026SOL     OW11101   6.627   8.149  11.601
37026SOL    HW111102   6.653   8.145  11.697
37026SOL    HW211103   6.542   8.098  11.587
37027SOL     OW11104   5.662   8.259  11.961
37027SOL    HW111105   5.761   8.247  11.970
37027SOL    HW211106   5.638   8.354  11.982
37028SOL     OW11107   5.716   9.269  12.743
37028SOL    HW111108   5.706   9.254  12.842
37028SOL    HW211109   5.630   9.305  12.707
37029SOL     OW11110   6.451   7.796  11.367
37029SOL    HW111111   6.510   7.859  11.318
37029SOL    HW211112   6.470   7.702  11.338
37030SOL     OW11113   6.948   8.592  11.717
37030SOL    HW111114   7.031   8.563  11.669
37030SOL    HW211115   6.899   8.659  11.661
37031SOL     OW11116   6.136   7.644  12.057
37031SOL    HW111117   6.131   7.639  12.157
37031SOL    HW211118   6.138   7.740  12.028
37032SOL     OW11119   6.594   8.904  11.649
37032SOL    HW111120   6.548   8.976  11.597
37032SOL    HW211121   6.590   8.924  11.747
37033SOL     OW11122   5.937   9.249  12.025
37033SOL    HW111123   5.987   9.163  12.031
37033SOL    HW211124   6.002   9.326  12.022
37034SOL     OW11125   7.381   8.514  12.045
37034SOL    HW111126   7.319   8.499  11.969
37034SOL    HW211127   7.329   8.525  12.130
37035SOL     OW11128   6.813   8.998  12.678
37035SOL    HW111129   6.819   8.921  12.742
37035SOL    HW211130   6.761   8.972  12.598
37036SOL     OW11131   5.907   8.391  11.414
37036SOL    HW111132   5.989   8.430  11.372
37036SOL    HW211133   5.880   8.309  11.365
37037SOL     OW11134   7.044   8.183  11.900
37037SOL    HW111135   7.039   8.118  11.975
37037SOL    HW211136   7.124   8.242  11.913
37038SOL     OW11137   6.697   9.224  11.409
37038SOL    HW111138   6.637   9.162  11.459
37038SOL    HW211139   6.728   9.180  11.324
37039SOL     OW11140   5.788   7.733  12.670
37039SOL    HW111141   5.708   7.793  12.657
37039SOL    HW211142   5.778   7.684  12.756
37040SOL     OW11143   7.218   8.825  11.253
37040SOL    HW111144   7.186   8.919  11.243
37040SOL    HW211145   7.142   8.762  11.241
37041SOL     OW11146   6.050   9.191  11.495
37041SOL    HW111147   6.083   9.230  11.581
37041SOL    HW211148   6.126   9.184  11.430
37042SOL     OW11149   6.986   7.555  11.598
37042SOL    HW111150   6.962   7.518  11.508
37042SOL    HW211151   7.085   7.571  11.602
37043SOL     OW11152   5.835   9.233  12.413
37043SOL    HW111153   5.892   9.168  12.463
37043SOL    HW211154   5.819   9.200  12.320
37044SOL     OW11155   6.526   9.146  12.076
37044SOL    HW111156   6.606   9.089  12.097
37044SOL    HW211157   6.477   9.106  11.999
37045SOL     OW11158   5.968   8.148  11.652
37045SOL    HW111159   6.013   8.058  11.649
37045SOL    HW211160   5.874   8.137  11.685
37046SOL     OW11161   6.200   7.570  11.289
37046SOL    HW111162   6.298   7.548  11.296
37046SOL    HW211163   6.169   7.553  11.196
37047SOL     OW11164   6.474   8.962  12.367
37047SOL    HW111165   6.451   8.937  12.273
37047SOL    HW211166   6.535   8.893  12.406
37048SOL     OW11167   6.937   8.038  12.605
37048SOL    HW111168   6.965   7.995  12.690
37048SOL    HW211169   6.962   8.134  12.606
37049SOL     OW11170   6.389   8.850  12.096
37049SOL    HW111171   6.479   8.864  12.054
37049SOL    HW211172   6.318   8.852  12.025
37050SOL     OW11173   6.508   7.951  12.071
37050SOL    HW111174   6.483   7.942  11.975
37050SOL    HW211175   6.556   7.869  12.102
37051SOL     OW11176   6.125   7.512  11.684
37051SOL    HW111177   6.044   7.513  11.742
37051SOL    HW211178   6.128   7.595  11.629
37052SOL     OW11179   7.020   8.636  11.213
37052SOL    HW111180   7.052   8.560  11.270
37052SOL    HW211181   6.928   8.663  11.243
37053SOL     OW11182   5.883   7.483  11.343
37053SOL    HW111183   5.932   7.567  11.322
37053SOL    HW211184   5.945   7.418  11.388
37054SOL     OW11185   6.521   7.684  11.652
37054SOL    HW111186   6.473   7.725  11.574
37054SOL    HW211187   6.620   7.682  11.633
37055SOL     OW11188   6.662   8.131  12.636
37055SOL    HW111189   6.582   8.070  12.639
37055SOL    HW211190   6.743   8.078  12.612
37056SOL     OW11191   6.813   9.018  11.965
37056SOL    HW111192   6.834   9.092  11.900
37056SOL    HW211193   6.881   9.018  12.038
37057SOL     OW11194   6.045   8.600  11.913
37057SOL    HW111195   5.974   8.573  11.978
37057SOL    HW211196   6.019   8.572  11.820
37058SOL     OW11197   6.857   9.245  11.763
37058SOL    HW111198   6.901   9.309  11.699
37058SOL    HW211199   6.807   9.297  11.833
37059SOL     OW11200   6.618   7.997  11.188
37059SOL    HW111201   6.577   8.079  11.149
37059SOL    HW211202   6.682   8.023  11.261
37060SOL     OW11203   5.664   8.004  12.558
37060SOL    HW111204   5.756   8.003  12.517
37060SOL    HW211205   5.658   8.078  12.625
37061SOL     OW11206   6.147   7.670  12.319
37061SOL    HW111207   6.185   7.586  12.356
37061SOL    HW211208   6.059   7.689  12.363
37062SOL     OW11209   6.452   7.902  11.814
37062SOL    HW111210   6.420   7.974  11.752
37062SOL    HW211211   6.476   7.821  11.761
37063SOL     OW11212   6.603   7.487  11.925
37063SOL    HW111213   6.531   7.492  11.856
37063SOL    HW211214   6.579   7.418  11.994
37064SOL     OW11215   7.015   8.621  12.039
37064SOL    HW111216   6.960   8.537  12.032
37064SOL    HW211217   7.041   8.650  11.947
37065SOL     OW11218   7.052   8.038  12.164
37065SOL    HW111219   7.022   7.943  12.171
37065SOL    HW211220   7.125   8.054  12.230
37066SOL     OW11221   7.443   8.281  11.549
37066SOL    HW111222   7.485   8.217  11.613
37066SOL    HW211223   7.405   8.230  11.471
37067SOL     OW11224   6.074   8.833  11.346
37067SOL    HW111225   5.987   8.818  11.393
37067SOL    HW211226   6.057   8.859  11.251
37068SOL     OW11227   7.250   8.728  11.829
37068SOL    HW111228   7.349   8.736  11.843
37068SOL    HW211229   7.205   8.812  11.860
37069SOL     OW11230   6.976   8.023  11.250
37069SOL    HW111231   6.922   8.002  11.331
37069SOL    HW211232   7.067   7.982  11.259
37070SOL     OW11233   6.113   7.704  11.500
37070SOL    HW111234   6.140   7.645  11.425
37070SOL    HW211235   6.113   7.799  11.469
37071SOL     OW11236   7.340   8.671  12.760
37071SOL    HW111237   7.431   8.632  12.747
37071SOL    HW211238   7.348   8.767  12.784
37072SOL     OW11239   6.650   8.795  12.512
37072SOL    HW111240   6.570   8.772  12.567
37072SOL    HW211241   6.733   8.769  12.561
37073SOL     OW11242   6.697   8.643  12.272
37073SOL    HW111243   6.657   8.687  12.353
37073SOL    HW211244   6.656   8.680  12.189
37074SOL     OW11245   7.224   8.547  12.251
37074SOL    HW111246   7.229   8.628  12.310
37074SOL    HW211247   7.138   8.549  12.200
37075SOL     OW11248   6.501   7.537  12.574
37075SOL    HW111249   6.526   7.517  12.479
37075SOL    HW211250   6.573   7.593  12.616
37076SOL     OW11251   6.291   8.498  11.540
37076SOL    HW111252   6.277   8.505  11.639
37076SOL    HW211253   6.375   8.447  11.522
37077SOL     OW11254   5.996   8.261  12.423
37077SOL    HW111255   6.082   8.273  12.473
37077SOL    HW211256   5.954   8.174  12.450
37078SOL     OW11257   6.860   7.834  12.434
37078SOL    HW111258   6.881   7.908  12.498
37078SOL    HW211259   6.771   7.851  12.391
37079SOL     OW11260   5.650   9.012  12.503
37079SOL    HW111261   5.604   9.094  12.469
37079SOL    HW211262   5.748   9.031  12.512
37080SOL     OW11263   5.953   8.548  11.673
37080SOL    HW111264   5.946   8.631  11.617
37080SOL    HW211265   5.957   8.468  11.613
37081SOL     OW11266   6.152   7.985  12.037
37081SOL    HW111267   6.164   8.051  11.963
37081SOL    HW211268   6.198   8.019  12.120
37082SOL     OW11269   6.838   8.796  11.560
37082SOL    HW111270   6.888   8.873  11.600
37082SOL    HW211271   6.743   8.798  11.592
37083SOL     OW11272   6.858   8.893  12.314
37083SOL    HW111273   6.905   8.906  12.401
37083SOL    HW211274   6.792   8.819  12.323
37084SOL     OW11275   7.168   8.087  11.644
37084SOL    HW111276   7.137   8.148  11.717
37084SOL    HW211277   7.218   8.139  11.575
37085SOL     OW11278   5.940   8.958  12.501
37085SOL    HW111279   5.919   8.914  12.414
37085SOL    HW211280   6.037   8.984  12.504
37086SOL     OW11281   5.988   8.199  12.770
37086SOL    HW111282   6.056   8.254  12.723
37086SOL    HW211283   6.028   8.111  12.797
37087SOL     OW11284   7.173   8.227  12.842
37087SOL    HW111285   7.081   8.265  12.837
37087SOL    HW211286   7.233   8.274  12.777
37088SOL     OW11287   6.159   8.318  12.201
37088SOL    HW111288   6.203   8.407  12.192
37088SOL    HW211289   6.096   8.318  12.278
37089SOL     OW11290   6.946   8.310  12.217
37089SOL    HW111291   6.871   8.310  12.151
37089SOL    HW211292   6.983   8.218  12.226
37090SOL     OW11293   6.795   7.973  11.447
37090SOL    HW111294   6.808   7.889  11.501
37090SOL    HW211295   6.766   8.047  11.507
37091SOL     OW11296   5.893   7.661  12.403
37091SOL    HW111297   5.870   7.698  12.493
37091SOL    HW211298   5.863   7.566  12.397
37092SOL     OW11299   5.623   8.758  12.454
37092SOL    HW111300   5.676   8.709  12.522
37092SOL    HW211301   5.645   8.856  12.459
37093SOL     OW11302   6.318   8.082  12.236
37093SOL    HW111303   6.377   8.056  12.160
37093SOL    HW211304   6.290   8.178  12.225
37094SOL     OW11305   5.893   7.511  11.790
37094SOL    HW111306   5.882   7.605  11.823
37094SOL    HW211307   5.888   7.448  11.867
37095SOL     OW11308   7.208   7.815  11.546
37095SOL    HW111309   7.210   7.739  11.610
37095SOL    HW211310   7.160   7.892  11.586
37096SOL     OW11311   6.609   8.214  12.138
37096SOL    HW111312   6.624   8.235  12.234
37096SOL    HW211313   6.579   8.119  12.129
37097SOL     OW11314   7.126   7.722  11.297
37097SOL    HW111315   7.065   7.647  11.320
37097SOL    HW211316   7.148   7.774  11.380
37098SOL     OW11317   6.889   8.286  11.214
37098SOL    HW111318   6.923   8.193  11.229
37098SOL    HW211319   6.907   8.313  11.119
37099SOL     OW11320   6.654   8.781  12.021
37099SOL    HW111321   6.661   8.697  11.966
37099SOL    HW211322   6.716   8.850  11.985
37100SOL     OW11323   5.905   8.258  12.121
37100SOL    HW111324   5.998   8.294  12.126
37100SOL    HW211325   5.899   8.173  12.173
37101SOL     OW11326   5.925   7.957  12.178
37101SOL    HW111327   5.873   7.874  12.161
37101SOL    HW211328   6.002   7.962  12.114
37102SOL     OW11329   6.746   7.655  12.649
37102SOL    HW111330   6.746   7.719  12.726
37102SOL    HW211331   6.774   7.703  12.566
37103SOL     OW11332   5.594   8.774  11.372
37103SOL    HW111333   5.501   8.795  11.341
37103SOL    HW211334   5.604   8.675  11.385
37104SOL     OW11335   5.674   9.249  12.099
37104SOL    HW111336   5.632   9.163  12.072
37104SOL    HW211337   5.768   9.252  12.065
37105SOL     OW11338   6.090   9.016  12.082
37105SOL    HW111339   6.156   9.090  12.091
37105SOL    HW211340   6.134   8.937  12.040
37106SOL     OW11341   6.588   8.244  12.410
37106SOL    HW111342   6.629   8.212  12.496
37106SOL    HW211343   6.492   8.217  12.407
37107SOL     OW11344   5.626   7.992  12.286
37107SOL    HW111345   5.711   7.959  12.245
37107SOL    HW211346   5.639   8.007  12.384
37108SOL     OW11347   6.401   8.020  11.497
37108SOL    HW111348   6.408   7.931  11.451
37108SOL    HW211349   6.307   8.054  11.489
37109SOL     OW11350   7.243   8.052  12.378
37109SOL    HW111351   7.205   7.983  12.440
37109SOL    HW211352   7.325   8.016  12.334
37110SOL     OW11353   5.838   9.012  12.916
37110SOL    HW111354   5.808   9.069  12.992
37110SOL    HW211355   5.831   8.915  12.942
37111SOL     OW11356   6.257   7.912  12.441
37111SOL    HW111357   6.223   7.823  12.411
37111SOL    HW211358   6.283   7.966  12.361
37112SOL     OW11359   6.516   9.126  12.637
37112SOL    HW111360   6.492   9.108  12.542
37112SOL    HW211361   6.546   9.220  12.647
37113SOL     OW11362   6.059   7.948  11.363
37113SOL    HW111363   6.120   8.028  11.367
37113SOL    HW211364   5.964   7.979  11.370
37114SOL     OW11365   5.745   8.585  12.638
37114SOL    HW111366   5.767   8.524  12.714
37114SOL    HW211367   5.755   8.536  12.552
37115SOL     OW11368   6.933   8.507  12.406
37115SOL    HW111369   6.957   8.444  12.332
37115SOL    HW211370   6.843   8.547  12.388
37116SOL     OW11371   6.888   8.303  11.481
37116SOL    HW111372   6.802   8.272  11.523
37116SOL    HW211373   6.884   8.289  11.382
37117SOL     OW11374   7.345   9.195  12.326
37117SOL    HW111375   7.406   9.225  12.253
37117SOL    HW211376   7.307   9.106  12.304
37118SOL     OW11377   6.838   9.179  12.300
37118SOL    HW111378   6.922   9.184  12.246
37118SOL    HW211379   6.815   9.083  12.318
37119SOL     OW11380   5.669   8.706  12.194
37119SOL    HW111381   5.664   8.705  12.294
37119SOL    HW211382   5.586   8.665  12.156
37120SOL     OW11383   7.312   7.583  11.695
37120SOL    HW111384   7.385   7.566  11.628
37120SOL    HW211385   7.281   7.496  11.733
37121SOL     OW11386   6.974   9.021  11.649
37121SOL    HW111387   7.041   9.033  11.575
37121SOL    HW211388   6.934   9.110  11.672
37122SOL     OW11389   6.866   8.375  11.844
37122SOL    HW111390   6.926   8.294  11.846
37122SOL    HW211391   6.906   8.444  11.784
37123SOL     OW11392   6.416   8.721  12.594
37123SOL    HW111393   6.411   8.754  12.689
37123SOL    HW211394   6.330   8.740  12.548
37124SOL     OW11395   6.258   9.064  11.326
37124SOL    HW111396   6.267   9.074  11.227
37124SOL    HW211397   6.218   8.975  11.347
37125SOL     OW11398   7.236   9.168  12.566
37125SOL    HW111399   7.289   9.178  12.482
37125SOL    HW211400   7.209   9.258  12.600
37126SOL     OW11401   7.427   7.623  12.135
37126SOL    HW111402   7.466   7.538  12.099
37126SOL    HW211403   7.329   7.625  12.116
37127SOL     OW11404   5.849   7.774  11.892
37127SOL    HW111405   5.770   7.825  11.858
37127SOL    HW211406   5.840   7.759  11.990
37128SOL     OW11407   6.780   9.060  11.203
37128SOL    HW111408   6.786   8.967  11.240
37128SOL    HW211409   6.721   9.060  11.123
37129SOL     OW11410   6.408   8.450  12.544
37129SOL    HW111411   6.448   8.449  12.452
37129SOL    HW211412   6.418   8.542  12.584
37130SOL     OW11413   6.502   8.358  11.463
37130SOL    HW111414   6.565   8.396  11.395
37130SOL    HW211415   6.542   8.275  11.502
37131SOL     OW11416   7.090   9.055  11.216
37131SOL    HW111417   6.998   9.092  11.223
37131SOL    HW211418   7.128   9.075  11.126
37132SOL     OW11419   5.958   8.736  12.662
37132SOL    HW111420   5.945   8.829  12.628
37132SOL    HW211421   5.874   8.684  12.649
37133SOL     OW11422   7.200   8.740  12.461
37133SOL    HW111423   7.260   8.743  12.541
37133SOL    HW211424   7.125   8.804  12.474
37134SOL     OW11425   6.625   8.546  11.868
37134SOL    HW111426   6.555   8.499  11.922
37134SOL    HW211427   6.684   8.478  11.825
37135SOL     OW11428   6.600   7.684  12.143
37135SOL    HW111429   6.592   7.648  12.050
37135SOL    HW211430   6.598   7.608  12.208
37136SOL     OW11431   6.176   8.935  11.663
37136SOL    HW111432   6.218   8.877  11.593
37136SOL    HW211433   6.132   9.014  11.619
37137SOL     OW11434   7.295   7.833  12.553
37137SOL    HW111435   7.368   7.902  12.557
37137SOL    HW211436   7.323   7.758  12.494
37138SOL     OW11437   5.841   8.796  11.462
37138SOL    HW111438   5.745   8.797  11.435
37138SOL    HW211439   5.853   8.849  11.546
37139SOL     OW11440   5.691   8.461  12.898
37139SOL    HW111441   5.614   8.428  12.952
37139SOL    HW211442   5.776   8.431  12.940
37140SOL     OW11443   6.258   7.651  12.661
37140SOL    HW111444   6.348   7.635  12.621
37140SOL    HW211445   6.266   7.656  12.760
37141SOL     OW11446   5.661   7.793  11.205
37141SOL    HW111447   5.569   7.765  11.176
37141SOL    HW211448   5.692   7.870  11.149
37142SOL     OW11449   7.026   8.304  12.570
37142SOL    HW111450   6.969   8.356  12.507
37142SOL    HW211451   7.122   8.316  12.546
37143SOL     OW11452   5.658   7.614  11.490
37143SOL    HW111453   5.641   7.697  11.436
37143SOL    HW211454   5.748   7.577  11.468
37144SOL     OW11455   6.769   8.783  11.291
37144SOL    HW111456   6.670   8.772  11.293
37144SOL    HW211457   6.803   8.798  11.384
37145SOL     OW11458   6.199   8.290  12.603
37145SOL    HW111459   6.255   8.371  12.586
37145SOL    HW211460   6.258   8.210  12.606
37146SOL     OW11461   7.079   9.215  12.131
37146SOL    HW111462   7.112   9.279  12.062
37146SOL    HW211463   7.145   9.209  12.206
37147SOL     OW11464   6.302   8.013  12.880
37147SOL    HW111465   6.321   8.078  12.954
37147SOL    HW211466   6.362   7.933  12.889
37148SOL     OW11467   5.976   9.189  12.732
37148SOL    HW111468   5.885   9.230  12.730
37148SOL    HW211469   5.969   9.095  12.764
37149SOL     OW11470   7.260   8.331  12.426
37149SOL    HW111471   7.233   8.242  12.389
37149SOL    HW211472   7.261   8.399  12.353
37150SOL     OW11473   6.811   7.773  11.621
37150SOL    HW111474   6.876   7.699  11.610
37150SOL    HW211475   6.831   7.823  11.705
37151SOL     OW11476   6.180   8.193  11.824
37151SOL    HW111477   6.230   8.278  11.805
37151SOL    HW211478   6.092   8.195  11.776
37152SOL     OW11479   7.363   7.790  12.814
37152SOL    HW111480   7.346   7.821  12.720
37152SOL    HW211481   7.279   7.753  12.852
37153SOL     OW11482   7.316   8.382  12.689
37153SOL    HW111483   7.354   8.473  12.704
37153SOL    HW211484   7.308   8.365  12.590
37154SOL     OW11485   6.445   8.822  11.188
37154SOL    HW111486   6.399   8.837  11.276
37154SOL    HW211487   6.489   8.907  11.158
37155SOL     OW11488   6.247   9.238  12.125
37155SOL    HW111489   6.201   9.326  12.112
37155SOL    HW211490   6.346   9.250  12.118
37156SOL     OW11491   6.445   8.404  12.033
37156SOL    HW111492   6.499   8.335  12.081
37156SOL    HW211493   6.413   8.473  12.099
37157SOL     OW11494   6.669   8.432  11.259
37157SOL    HW111495   6.646   8.485  11.177
37157SOL    HW211496   6.750   8.376  11.240
37158SOL     OW11497   7.447   9.017  12.023
37158SOL    HW111498   7.376   9.005  11.953
37158SOL    HW211499   7.448   8.938  12.083
37159SOL     OW11500   5.665   8.688  11.825
37159SOL    HW111501   5.664   8.641  11.913
37159SOL    HW211502   5.747   8.660  11.774
37160SOL     OW11503   6.258   8.839  12.796
37160SOL    HW111504   6.180   8.789  12.834
37160SOL    HW211505   6.255   8.934  12.827
37161SOL     OW11506   7.410   7.640  12.399
37161SOL    HW111507   7.406   7.550  12.443
37161SOL    HW211508   7.413   7.629  12.300
37162SOL     OW11509   6.014   7.872  11.692
37162SOL    HW111510   6.044   7.800  11.630
37162SOL    HW211511   5.975   7.832  11.775
37163SOL     OW11512   7.291   8.935  12.276
37163SOL    HW111513   7.198   8.910  12.249
37163SOL    HW211514   7.317   8.885  12.358
37164SOL     OW11515   5.903   7.995  12.452
37164SOL    HW111516   5.941   7.936  12.524
37164SOL    HW211517   5.943   7.969  12.364
37165SOL     OW11518   6.398   9.034  11.859
37165SOL    HW111519   6.430   9.044  11.765
37165SOL    HW211520   6.319   8.972  11.861
37166SOL     OW11521   7.010   7.662  12.284
37166SOL    HW111522   7.062   7.597  12.339
37166SOL    HW211523   6.961   7.725  12.345
37167SOL     OW11524   6.587   7.482  12.326
37167SOL    HW111525   6.524   7.410  12.295
37167SOL    HW211526   6.680   7.446  12.326
37168SOL     OW11527   6.356   8.778  11.473
37168SOL    HW111528   6.310   8.691  11.490
37168SOL    HW211529   6.447   8.775  11.514
37169SOL     OW11530   6.204   9.015  12.456
37169SOL    HW111531   6.199   9.097  12.513
37169SOL    HW211532   6.293   9.012  12.411
37170SOL     OW11533   6.938   7.500  11.340
37170SOL    HW111534   6.973   7.459  11.256
37170SOL    HW211535   6.848   7.462  11.360
37171SOL     OW11536   6.886   7.901  11.863
37171SOL    HW111537   6.827   7.981  11.867
37171SOL    HW211538   6.901   7.866  11.956
37172SOL     OW11539   7.179   7.669  12.054
37172SOL    HW111540   7.095   7.668  12.108
37172SOL    HW211541   7.181   7.752  11.998
37173SOL     OW11542   5.625   8.525  11.472
37173SOL    HW111543   5.724   8.514  11.463
37173SOL    HW211544   5.585   8.439  11.504
37174SOL     OW11545   6.461   9.094  11.509
37174SOL    HW111546   6.384   9.059  11.455
37174SOL    HW211547   6.429   9.165  11.571
37175SOL     OW11548   5.816   9.938   0.113
37175SOL    HW111549   5.723   9.936   0.150
37175SOL    HW211550   5.817   9.899   0.021
37176SOL     OW11551   5.811   9.585   0.996
37176SOL    HW111552   5.846   9.568   1.088
37176SOL    HW211553   5.723   9.540   0.984
37177SOL     OW11554   5.605   9.678   0.647
37177SOL    HW111555   5.523   9.721   0.686
37177SOL    HW211556   5.577   9.605   0.584
37178SOL     OW11557   6.155  10.585   1.165
37178SOL    HW111558   6.062  10.578   1.128
37178SOL    HW211559   6.166  10.674   1.209
37179SOL     OW11560   7.141  10.821   0.703
37179SOL    HW111561   7.084  10.805   0.784
37179SOL    HW211562   7.082  10.831   0.623
37180SOL     OW11563   6.721  10.013   0.717
37180SOL    HW111564   6.778  10.091   0.692
37180SOL    HW211565   6.661  10.039   0.793
37181SOL     OW11566   7.341   9.917   0.231
37181SOL    HW111567   7.329   9.904   0.132
37181SOL    HW211568   7.311   9.836   0.280
37182SOL     OW11569   6.354  10.454   1.023
37182SOL    HW111570   6.276  10.471   1.083
37182SOL    HW211571   6.388  10.541   0.987
37183SOL     OW11572   6.436  10.108   1.823
37183SOL    HW111573   6.432  10.184   1.888
37183SOL    HW211574   6.458  10.144   1.732
37184SOL     OW11575   6.271  10.322   0.665
37184SOL    HW111576   6.340  10.306   0.735
37184SOL    HW211577   6.198  10.379   0.703
37185SOL     OW11578   6.272  10.471   1.803
37185SOL    HW111579   6.332  10.550   1.817
37185SOL    HW211580   6.186  10.502   1.762
37186SOL     OW11581   5.921  10.745   1.061
37186SOL    HW111582   5.843  10.714   1.008
37186SOL    HW211583   5.979  10.803   1.004
37187SOL     OW11584   7.046  10.815   1.339
37187SOL    HW111585   7.070  10.909   1.365
37187SOL    HW211586   7.030  10.761   1.421
37188SOL     OW11587   6.024   9.702   1.499
37188SOL    HW111588   6.106   9.646   1.508
37188SOL    HW211589   5.943   9.644   1.503
37189SOL     OW11590   7.189   9.757   0.737
37189SOL    HW111591   7.115   9.803   0.687
37189SOL    HW211592   7.240   9.825   0.790
37190SOL     OW11593   5.817  11.023   0.483
37190SOL    HW111594   5.851  11.100   0.537
37190SOL    HW211595   5.861  11.023   0.393
37191SOL     OW11596   6.713  10.651   1.690
37191SOL    HW111597   6.760  10.651   1.778
37191SOL    HW211598   6.665  10.564   1.679
37192SOL     OW11599   5.816  10.744   0.538
37192SOL    HW111600   5.790  10.840   0.538
37192SOL    HW211601   5.745  10.690   0.583
37193SOL     OW11602   5.826  10.401   0.886
37193SOL    HW111603   5.840  10.317   0.938
37193SOL    HW211604   5.771  10.465   0.941
37194SOL     OW11605   6.206  11.096   1.439
37194SOL    HW111606   6.114  11.079   1.474
37194SOL    HW211607   6.234  11.188   1.465
37195SOL     OW11608   6.192  10.274   0.123
37195SOL    HW111609   6.199  10.358   0.069
37195SOL    HW211610   6.238  10.287   0.211
37196SOL     OW11611   7.180   9.424   1.480
37196SOL    HW111612   7.162   9.491   1.408
37196SOL    HW211613   7.177   9.470   1.569
37197SOL     OW11614   5.708   9.953   0.563
37197SOL    HW111615   5.663   9.865   0.580
37197SOL    HW211616   5.707  10.007   0.647
37198SOL     OW11617   7.428  11.077   0.359
37198SOL    HW111618   7.482  11.048   0.439
37198SOL    HW211619   7.458  11.167   0.330
37199SOL     OW11620   5.613  10.906   0.117
37199SOL    HW111621   5.594  10.810   0.138
37199SOL    HW211622   5.580  10.964   0.192
37200SOL     OW11623   7.275  10.232   0.612
37200SOL    HW111624   7.370  10.203   0.620
37200SOL    HW211625   7.267  10.297   0.537
37201SOL     OW11626   7.227  10.418   0.432
37201SOL    HW111627   7.313  10.420   0.380
37201SOL    HW211628   7.241  10.465   0.520
37202SOL     OW11629   5.699  10.047   1.597
37202SOL    HW111630   5.787  10.034   1.642
37202SOL    HW211631   5.686  10.144   1.575
37203SOL     OW11632   6.199  10.675   0.726
37203SOL    HW111633   6.150  10.588   0.735
37203SOL    HW211634   6.176  10.718   0.639
37204SOL     OW11635   6.879  10.538   1.423
37204SOL    HW111636   6.916  10.465   1.365
37204SOL    HW211637   6.931  10.543   1.508
37205SOL     OW11638   6.395   9.314   0.502
37205SOL    HW111639   6.435   9.405   0.493
37205SOL    HW211640   6.295   9.322   0.508
37206SOL     OW11641   5.783  10.286   1.264
37206SOL    HW111642   5.872  10.241   1.250
37206SOL    HW211643   5.710  10.221   1.245
37207SOL     OW11644   7.111  10.309   0.190
37207SOL    HW111645   7.048  10.233   0.203
37207SOL    HW211646   7.159  10.327   0.276
37208SOL     OW11647   6.773  11.102   1.616
37208SOL    HW111648   6.797  11.162   1.540
37208SOL    HW211649   6.780  11.007   1.586
37209SOL     OW11650   5.903   9.561   1.801
37209SOL    HW111651   5.974   9.632   1.807
37209SOL    HW211652   5.815   9.600   1.829
37210SOL     OW11653   7.052  10.727   0.953
37210SOL    HW111654   6.993  10.733   1.033
37210SOL    HW211655   7.037  10.639   0.907
37211SOL     OW11656   7.253  11.024   0.572
37211SOL    HW111657   7.212  11.001   0.484
37211SOL    HW211658   7.235  10.950   0.637
37212SOL     OW11659   6.184  10.039   0.270
37212SOL    HW111660   6.208  10.108   0.202
37212SOL    HW211661   6.106  10.072   0.324
37213SOL     OW11662   6.867   9.655   0.944
37213SOL    HW111663   6.781   9.605   0.931
37213SOL    HW211664   6.929   9.601   1.000
37214SOL     OW11665   7.162  10.972   0.307
37214SOL    HW111666   7.251  11.018   0.310
37214SOL    HW211667   7.141  10.948   0.212
37215SOL     OW11668   6.393   9.915   1.465
37215SOL    HW111669   6.346   9.912   1.554
37215SOL    HW211670   6.342   9.860   1.399
37216SOL     OW11671   6.980   9.779   1.674
37216SOL    HW111672   6.960   9.822   1.762
37216SOL    HW211673   7.058   9.717   1.683
37217SOL     OW11674   6.559  10.200   1.572
37217SOL    HW111675   6.605  10.116   1.543
37217SOL    HW211676   6.503  10.234   1.497
37218SOL     OW11677   6.577   9.720   1.242
37218SOL    HW111678   6.500   9.754   1.296
37218SOL    HW211679   6.543   9.669   1.163
37219SOL     OW11680   6.627  10.011   0.429
37219SOL    HW111681   6.653  10.007   0.525
37219SOL    HW211682   6.542   9.960   0.415
37220SOL     OW11683   5.662  10.121   0.789
37220SOL    HW111684   5.761  10.109   0.798
37220SOL    HW211685   5.638  10.216   0.810
37221SOL     OW11686   5.716  11.131   1.571
37221SOL    HW111687   5.706  11.116   1.670
37221SOL    HW211688   5.630  11.167   1.535
37222SOL     OW11689   6.451   9.658   0.195
37222SOL    HW111690   6.510   9.721   0.146
37222SOL    HW211691   6.470   9.564   0.166
37223SOL     OW11692   7.305   9.895   1.831
37223SOL    HW111693   7.279   9.984   1.795
37223SOL    HW211694   7.303   9.827   1.758
37224SOL     OW11695   6.948  10.454   0.545
37224SOL    HW111696   7.031  10.425   0.497
37224SOL    HW211697   6.899  10.521   0.489
37225SOL     OW11698   6.136   9.506   0.885
37225SOL    HW111699   6.131   9.501   0.985
37225SOL    HW211700   6.138   9.602   0.856
37226SOL     OW11701   6.594  10.766   0.477
37226SOL    HW111702   6.548  10.838   0.425
37226SOL    HW211703   6.590  10.786   0.575
37227SOL     OW11704   5.937  11.111   0.853
37227SOL    HW111705   5.987  11.025   0.859
37227SOL    HW211706   6.002  11.188   0.850
37228SOL     OW11707   7.381  10.376   0.873
37228SOL    HW111708   7.319  10.361   0.797
37228SOL    HW211709   7.329  10.387   0.958
37229SOL     OW11710   6.813  10.860   1.506
37229SOL    HW111711   6.819  10.783   1.570
37229SOL    HW211712   6.761  10.834   1.426
37230SOL     OW11713   5.907  10.253   0.242
37230SOL    HW111714   5.989  10.292   0.200
37230SOL    HW211715   5.880  10.171   0.193
37231SOL     OW11716   7.044  10.045   0.728
37231SOL    HW111717   7.039   9.980   0.803
37231SOL    HW211718   7.124  10.104   0.741
37232SOL     OW11719   6.047  10.576   1.727
37232SOL    HW111720   5.997  10.577   1.641
37232SOL    HW211721   5.984  10.558   1.803
37233SOL     OW11722   6.697  11.086   0.237
37233SOL    HW111723   6.637  11.024   0.287
37233SOL    HW211724   6.728  11.042   0.152
37234SOL     OW11725   5.788   9.595   1.498
37234SOL    HW111726   5.708   9.655   1.485
37234SOL    HW211727   5.778   9.546   1.584
37235SOL     OW11728   7.218  10.687   0.081
37235SOL    HW111729   7.186  10.781   0.071
37235SOL    HW211730   7.142  10.624   0.069
37236SOL     OW11731   6.050  11.053   0.323
37236SOL    HW111732   6.083  11.092   0.409
37236SOL    HW211733   6.126  11.046   0.258
37237SOL     OW11734   6.986   9.417   0.426
37237SOL    HW111735   6.962   9.380   0.336
37237SOL    HW211736   7.085   9.433   0.430
37238SOL     OW11737   5.835  11.095   1.241
37238SOL    HW111738   5.892  11.030   1.291
37238SOL    HW211739   5.819  11.062   1.148
37239SOL     OW11740   6.526  11.008   0.904
37239SOL    HW111741   6.606  10.951   0.925
37239SOL    HW211742   6.477  10.968   0.827
37240SOL     OW11743   5.968  10.010   0.480
37240SOL    HW111744   6.013   9.920   0.477
37240SOL    HW211745   5.874   9.999   0.513
37241SOL     OW11746   7.133   9.532   1.729
37241SOL    HW111747   7.128   9.569   1.821
37241SOL    HW211748   7.061   9.463   1.717
37242SOL     OW11749   6.200   9.432   0.117
37242SOL    HW111750   6.298   9.410   0.124
37242SOL    HW211751   6.169   9.415   0.024
37243SOL     OW11752   6.367   9.574   1.749
37243SOL    HW111753   6.434   9.513   1.792
37243SOL    HW211754   6.294   9.593   1.814
37244SOL     OW11755   6.474  10.824   1.195
37244SOL    HW111756   6.451  10.799   1.101
37244SOL    HW211757   6.535  10.755   1.234
37245SOL     OW11758   6.937   9.900   1.433
37245SOL    HW111759   6.965   9.857   1.518
37245SOL    HW211760   6.962   9.996   1.434
37246SOL     OW11761   6.389  10.712   0.924
37246SOL    HW111762   6.479  10.726   0.882
37246SOL    HW211763   6.318  10.714   0.853
37247SOL     OW11764   6.508   9.813   0.899
37247SOL    HW111765   6.483   9.804   0.803
37247SOL    HW211766   6.556   9.731   0.930
37248SOL     OW11767   6.125   9.374   0.512
37248SOL    HW111768   6.044   9.375   0.570
37248SOL    HW211769   6.128   9.457   0.457
37249SOL     OW11770   7.020  10.498   0.041
37249SOL    HW111771   7.052  10.422   0.098
37249SOL    HW211772   6.928  10.525   0.071
37250SOL     OW11773   5.883   9.345   0.171
37250SOL    HW111774   5.932   9.429   0.150
37250SOL    HW211775   5.945   9.280   0.216
37251SOL     OW11776   6.521   9.546   0.480
37251SOL    HW111777   6.473   9.587   0.402
37251SOL    HW211778   6.620   9.544   0.461
37252SOL     OW11779   6.662   9.993   1.464
37252SOL    HW111780   6.582   9.932   1.467
37252SOL    HW211781   6.743   9.940   1.440
37253SOL     OW11782   6.813  10.880   0.793
37253SOL    HW111783   6.834  10.954   0.728
37253SOL    HW211784   6.881  10.880   0.866
37254SOL     OW11785   6.045  10.462   0.741
37254SOL    HW111786   5.974  10.435   0.806
37254SOL    HW211787   6.019  10.434   0.648
37255SOL     OW11788   6.857  11.107   0.591
37255SOL    HW111789   6.901  11.171   0.527
37255SOL    HW211790   6.807  11.159   0.661
37256SOL     OW11791   6.618   9.859   0.016
37256SOL    HW111792   6.577   9.941  -0.023
37256SOL    HW211793   6.682   9.885   0.089
37257SOL     OW11794   5.664   9.866   1.386
37257SOL    HW111795   5.756   9.865   1.345
37257SOL    HW211796   5.658   9.940   1.453
37258SOL     OW11797   6.147   9.532   1.147
37258SOL    HW111798   6.185   9.448   1.184
37258SOL    HW211799   6.059   9.551   1.191
37259SOL     OW11800   6.452   9.764   0.642
37259SOL    HW111801   6.420   9.836   0.580
37259SOL    HW211802   6.476   9.683   0.589
37260SOL     OW11803   6.603   9.349   0.753
37260SOL    HW111804   6.531   9.354   0.684
37260SOL    HW211805   6.579   9.280   0.822
37261SOL     OW11806   7.015  10.483   0.867
37261SOL    HW111807   6.960  10.399   0.860
37261SOL    HW211808   7.041  10.512   0.775
37262SOL     OW11809   7.052   9.900   0.992
37262SOL    HW111810   7.022   9.805   0.999
37262SOL    HW211811   7.125   9.916   1.058
37263SOL     OW11812   7.443  10.143   0.377
37263SOL    HW111813   7.485  10.079   0.441
37263SOL    HW211814   7.405  10.092   0.299
37264SOL     OW11815   6.074  10.695   0.174
37264SOL    HW111816   5.987  10.680   0.221
37264SOL    HW211817   6.057  10.721   0.079
37265SOL     OW11818   7.250  10.590   0.657
37265SOL    HW111819   7.349  10.598   0.671
37265SOL    HW211820   7.205  10.674   0.688
37266SOL     OW11821   6.976   9.885   0.078
37266SOL    HW111822   6.922   9.864   0.159
37266SOL    HW211823   7.067   9.844   0.087
37267SOL     OW11824   6.113   9.566   0.328
37267SOL    HW111825   6.140   9.507   0.253
37267SOL    HW211826   6.113   9.661   0.297
37268SOL     OW11827   7.340  10.533   1.588
37268SOL    HW111828   7.431  10.494   1.575
37268SOL    HW211829   7.348  10.629   1.612
37269SOL     OW11830   6.650  10.657   1.340
37269SOL    HW111831   6.570  10.634   1.395
37269SOL    HW211832   6.733  10.631   1.389
37270SOL     OW11833   7.178  10.939   1.625
37270SOL    HW111834   7.205  10.973   1.535
37270SOL    HW211835   7.257  10.901   1.671
37271SOL     OW11836   6.697  10.505   1.100
37271SOL    HW111837   6.657  10.549   1.181
37271SOL    HW211838   6.656  10.542   1.017
37272SOL     OW11839   7.224  10.409   1.079
37272SOL    HW111840   7.229  10.490   1.138
37272SOL    HW211841   7.138  10.411   1.028
37273SOL     OW11842   6.501   9.399   1.402
37273SOL    HW111843   6.526   9.379   1.307
37273SOL    HW211844   6.573   9.455   1.444
37274SOL     OW11845   6.566  10.426   1.719
37274SOL    HW111846   6.467  10.432   1.729
37274SOL    HW211847   6.589  10.346   1.663
37275SOL     OW11848   6.291  10.360   0.368
37275SOL    HW111849   6.277  10.367   0.467
37275SOL    HW211850   6.375  10.309   0.350
37276SOL     OW11851   5.996  10.123   1.251
37276SOL    HW111852   6.082  10.135   1.301
37276SOL    HW211853   5.954  10.036   1.278
37277SOL     OW11854   6.860   9.696   1.262
37277SOL    HW111855   6.881   9.770   1.326
37277SOL    HW211856   6.771   9.713   1.219
37278SOL     OW11857   5.650  10.874   1.331
37278SOL    HW111858   5.604  10.956   1.297
37278SOL    HW211859   5.748  10.893   1.340
37279SOL     OW11860   5.953  10.410   0.501
37279SOL    HW111861   5.946  10.493   0.445
37279SOL    HW211862   5.957  10.330   0.441
37280SOL     OW11863   6.152   9.847   0.865
37280SOL    HW111864   6.164   9.913   0.791
37280SOL    HW211865   6.198   9.881   0.948
37281SOL     OW11866   6.838  10.658   0.388
37281SOL    HW111867   6.888  10.735   0.428
37281SOL    HW211868   6.743  10.660   0.420
37282SOL     OW11869   6.858  10.755   1.142
37282SOL    HW111870   6.905  10.768   1.229
37282SOL    HW211871   6.792  10.681   1.151
37283SOL     OW11872   7.168   9.949   0.472
37283SOL    HW111873   7.137  10.010   0.545
37283SOL    HW211874   7.218  10.001   0.403
37284SOL     OW11875   5.940  10.820   1.329
37284SOL    HW111876   5.919  10.776   1.242
37284SOL    HW211877   6.037  10.846   1.332
37285SOL     OW11878   5.988  10.061   1.598
37285SOL    HW111879   6.056  10.116   1.551
37285SOL    HW211880   6.028   9.973   1.625
37286SOL     OW11881   7.173  10.089   1.670
37286SOL    HW111882   7.081  10.127   1.665
37286SOL    HW211883   7.233  10.136   1.605
37287SOL     OW11884   6.599   9.415   1.770
37287SOL    HW111885   6.605   9.500   1.718
37287SOL    HW211886   6.631   9.339   1.713
37288SOL     OW11887   6.090   9.360   1.740
37288SOL    HW111888   6.048   9.303   1.670
37288SOL    HW211889   6.024   9.429   1.772
37289SOL     OW11890   6.159  10.180   1.029
37289SOL    HW111891   6.203  10.269   1.020
37289SOL    HW211892   6.096  10.180   1.106
37290SOL     OW11893   6.946  10.172   1.045
37290SOL    HW111894   6.871  10.172   0.979
37290SOL    HW211895   6.983  10.080   1.054
37291SOL     OW11896   6.795   9.835   0.275
37291SOL    HW111897   6.808   9.751   0.329
37291SOL    HW211898   6.766   9.909   0.335
37292SOL     OW11899   5.893   9.523   1.231
37292SOL    HW111900   5.870   9.560   1.321
37292SOL    HW211901   5.863   9.428   1.225
37293SOL     OW11902   5.623  10.620   1.282
37293SOL    HW111903   5.676  10.571   1.350
37293SOL    HW211904   5.645  10.718   1.287
37294SOL     OW11905   6.318   9.944   1.064
37294SOL    HW111906   6.377   9.918   0.988
37294SOL    HW211907   6.290  10.040   1.053
37295SOL     OW11908   7.314  10.245   1.854
37295SOL    HW111909   7.268  10.238   1.765
37295SOL    HW211910   7.252  10.289   1.920
37296SOL     OW11911   5.893   9.373   0.618
37296SOL    HW111912   5.882   9.467   0.651
37296SOL    HW211913   5.888   9.310   0.695
37297SOL     OW11914   7.208   9.677   0.374
37297SOL    HW111915   7.210   9.601   0.438
37297SOL    HW211916   7.160   9.754   0.414
37298SOL     OW11917   6.609  10.076   0.966
37298SOL    HW111918   6.624  10.097   1.062
37298SOL    HW211919   6.579   9.981   0.957
37299SOL     OW11920   6.566  10.883   1.700
37299SOL    HW111921   6.546  10.927   1.612
37299SOL    HW211922   6.605  10.792   1.684
37300SOL     OW11923   7.445  10.828   1.605
37300SOL    HW111924   7.459  10.855   1.510
37300SOL    HW211925   7.528  10.850   1.658
37301SOL     OW11926   5.936  10.208   1.804
37301SOL    HW111927   6.012  10.252   1.852
37301SOL    HW211928   5.971  10.161   1.722
37302SOL     OW11929   7.126   9.584   0.125
37302SOL    HW111930   7.065   9.509   0.148
37302SOL    HW211931   7.148   9.636   0.208
37303SOL     OW11932   6.889  10.148   0.042
37303SOL    HW111933   6.923  10.055   0.057
37303SOL    HW211934   6.907  10.175  -0.053
37304SOL     OW11935   6.654  10.643   0.849
37304SOL    HW111936   6.661  10.559   0.794
37304SOL    HW211937   6.716  10.712   0.813
37305SOL     OW11938   5.905  10.120   0.949
37305SOL    HW111939   5.998  10.156   0.954
37305SOL    HW211940   5.899  10.035   1.001
37306SOL     OW11941   5.925   9.819   1.006
37306SOL    HW111942   5.873   9.736   0.989
37306SOL    HW211943   6.002   9.824   0.942
37307SOL     OW11944   6.724   9.690   1.678
37307SOL    HW111945   6.679   9.753   1.742
37307SOL    HW211946   6.817   9.721   1.661
37308SOL     OW11947   6.746   9.517   1.477
37308SOL    HW111948   6.746   9.581   1.554
37308SOL    HW211949   6.774   9.565   1.394
37309SOL     OW11950   5.594  10.636   0.200
37309SOL    HW111951   5.501  10.657   0.169
37309SOL    HW211952   5.604  10.537   0.213
37310SOL     OW11953   5.674  11.111   0.927
37310SOL    HW111954   5.632  11.025   0.900
37310SOL    HW211955   5.768  11.114   0.893
37311SOL     OW11956   6.090  10.878   0.910
37311SOL    HW111957   6.156  10.952   0.919
37311SOL    HW211958   6.134  10.799   0.868
37312SOL     OW11959   6.588  10.106   1.238
37312SOL    HW111960   6.629  10.074   1.324
37312SOL    HW211961   6.492  10.079   1.235
37313SOL     OW11962   5.626   9.854   1.114
37313SOL    HW111963   5.711   9.821   1.073
37313SOL    HW211964   5.639   9.869   1.212
37314SOL     OW11965   5.775   9.830   1.722
37314SOL    HW111966   5.834   9.790   1.652
37314SOL    HW211967   5.717   9.901   1.681
37315SOL     OW11968   6.955  10.260   1.660
37315SOL    HW111969   6.994  10.349   1.680
37315SOL    HW211970   6.965  10.240   1.563
37316SOL     OW11971   6.401   9.882   0.325
37316SOL    HW111972   6.408   9.793   0.279
37316SOL    HW211973   6.307   9.916   0.317
37317SOL     OW11974   7.243   9.914   1.206
37317SOL    HW111975   7.205   9.845   1.268
37317SOL    HW211976   7.325   9.878   1.162
37318SOL     OW11977   5.838  10.874   1.744
37318SOL    HW111978   5.808  10.931   1.820
37318SOL    HW211979   5.831  10.777   1.770
37319SOL     OW11980   6.257   9.774   1.269
37319SOL    HW111981   6.223   9.685   1.239
37319SOL    HW211982   6.283   9.828   1.189
37320SOL     OW11983   6.516  10.988   1.465
37320SOL    HW111984   6.492  10.970   1.370
37320SOL    HW211985   6.546  11.082   1.475
37321SOL     OW11986   6.059   9.810   0.191
37321SOL    HW111987   6.120   9.890   0.195
37321SOL    HW211988   5.964   9.841   0.198
37322SOL     OW11989   5.745  10.447   1.466
37322SOL    HW111990   5.767  10.386   1.542
37322SOL    HW211991   5.755  10.398   1.380
37323SOL     OW11992   6.933  10.369   1.234
37323SOL    HW111993   6.957  10.306   1.160
37323SOL    HW211994   6.843  10.409   1.216
37324SOL     OW11995   6.888  10.165   0.309
37324SOL    HW111996   6.802  10.134   0.351
37324SOL    HW211997   6.884  10.151   0.210
37325SOL     OW11998   7.345  11.057   1.154
37325SOL    HW111999   7.406  11.087   1.081
37325SOL    HW212000   7.307  10.968   1.132
37326SOL     OW12001   6.838  11.041   1.128
37326SOL    HW112002   6.922  11.046   1.074
37326SOL    HW212003   6.815  10.945   1.146
37327SOL     OW12004   5.669  10.568   1.022
37327SOL    HW112005   5.664  10.567   1.122
37327SOL    HW212006   5.586  10.527   0.984
37328SOL     OW12007   6.274  10.972   1.716
37328SOL    HW112008   6.218  11.053   1.725
37328SOL    HW212009   6.326  10.976   1.630
37329SOL     OW12010   6.489   9.396   0.133
37329SOL    HW112011   6.540   9.397   0.047
37329SOL    HW212012   6.545   9.354   0.204
37330SOL     OW12013   7.312   9.445   0.523
37330SOL    HW112014   7.385   9.428   0.456
37330SOL    HW212015   7.281   9.358   0.561
37331SOL     OW12016   6.974  10.883   0.477
37331SOL    HW112017   7.041  10.895   0.403
37331SOL    HW212018   6.934  10.972   0.500
37332SOL     OW12019   5.716  11.104   1.851
37332SOL    HW112020   5.675  11.030   1.904
37332SOL    HW212021   5.780  11.155   1.909
37333SOL     OW12022   6.866  10.237   0.672
37333SOL    HW112023   6.926  10.156   0.674
37333SOL    HW212024   6.906  10.306   0.612
37334SOL     OW12025   6.416  10.583   1.422
37334SOL    HW112026   6.411  10.616   1.517
37334SOL    HW212027   6.330  10.602   1.376
37335SOL     OW12028   6.258  10.926   0.154
37335SOL    HW112029   6.267  10.936   0.055
37335SOL    HW212030   6.218  10.837   0.175
37336SOL     OW12031   7.236  11.030   1.394
37336SOL    HW112032   7.289  11.040   1.310
37336SOL    HW212033   7.209  11.120   1.428
37337SOL     OW12034   7.427   9.485   0.963
37337SOL    HW112035   7.466   9.400   0.927
37337SOL    HW212036   7.329   9.487   0.944
37338SOL     OW12037   5.849   9.636   0.720
37338SOL    HW112038   5.770   9.687   0.686
37338SOL    HW212039   5.840   9.621   0.818
37339SOL     OW12040   6.780  10.922   0.031
37339SOL    HW112041   6.786  10.829   0.068
37339SOL    HW212042   6.721  10.922  -0.049
37340SOL     OW12043   6.408  10.312   1.372
37340SOL    HW112044   6.448  10.311   1.280
37340SOL    HW212045   6.418  10.404   1.412
37341SOL     OW12046   6.502  10.220   0.291
37341SOL    HW112047   6.565  10.258   0.223
37341SOL    HW212048   6.542  10.137   0.330
37342SOL     OW12049   7.090  10.917   0.044
37342SOL    HW112050   6.998  10.954   0.051
37342SOL    HW212051   7.128  10.937  -0.046
37343SOL     OW12052   5.958  10.598   1.490
37343SOL    HW112053   5.945  10.691   1.456
37343SOL    HW212054   5.874  10.546   1.477
37344SOL     OW12055   7.200  10.602   1.289
37344SOL    HW112056   7.260  10.605   1.369
37344SOL    HW212057   7.125  10.666   1.302
37345SOL     OW12058   6.625  10.408   0.696
37345SOL    HW112059   6.555  10.361   0.750
37345SOL    HW212060   6.684  10.340   0.653
37346SOL     OW12061   6.600   9.546   0.971
37346SOL    HW112062   6.592   9.510   0.878
37346SOL    HW212063   6.598   9.470   1.036
37347SOL     OW12064   6.176  10.797   0.491
37347SOL    HW112065   6.218  10.739   0.421
37347SOL    HW212066   6.132  10.876   0.447
37348SOL     OW12067   7.295   9.695   1.381
37348SOL    HW112068   7.368   9.764   1.385
37348SOL    HW212069   7.323   9.620   1.322
37349SOL     OW12070   5.841  10.658   0.290
37349SOL    HW112071   5.745  10.659   0.263
37349SOL    HW212072   5.853  10.711   0.374
37350SOL     OW12073   5.691  10.323   1.726
37350SOL    HW112074   5.614  10.290   1.780
37350SOL    HW212075   5.776  10.293   1.768
37351SOL     OW12076   6.258   9.513   1.489
37351SOL    HW112077   6.348   9.497   1.449
37351SOL    HW212078   6.266   9.518   1.588
37352SOL     OW12079   5.661   9.655   0.033
37352SOL    HW112080   5.569   9.627   0.004
37352SOL    HW212081   5.692   9.732  -0.023
37353SOL     OW12082   7.026  10.166   1.398
37353SOL    HW112083   6.969  10.218   1.335
37353SOL    HW212084   7.122  10.178   1.374
37354SOL     OW12085   5.658   9.476   0.318
37354SOL    HW112086   5.641   9.559   0.264
37354SOL    HW212087   5.748   9.439   0.296
37355SOL     OW12088   6.769  10.645   0.119
37355SOL    HW112089   6.670  10.634   0.121
37355SOL    HW212090   6.803  10.660   0.212
37356SOL     OW12091   6.199  10.152   1.431
37356SOL    HW112092   6.255  10.233   1.414
37356SOL    HW212093   6.258  10.072   1.434
37357SOL     OW12094   7.079  11.077   0.959
37357SOL    HW112095   7.112  11.141   0.890
37357SOL    HW212096   7.145  11.071   1.034
37358SOL     OW12097   6.302   9.875   1.708
37358SOL    HW112098   6.321   9.940   1.782
37358SOL    HW212099   6.362   9.795   1.717
37359SOL     OW12100   7.036  10.530   1.633
37359SOL    HW112101   7.027  10.520   1.732
37359SOL    HW212102   7.132  10.523   1.607
37360SOL     OW12103   5.976  11.051   1.560
37360SOL    HW112104   5.885  11.092   1.558
37360SOL    HW212105   5.969  10.957   1.592
37361SOL     OW12106   7.260  10.193   1.254
37361SOL    HW112107   7.233  10.104   1.217
37361SOL    HW212108   7.261  10.261   1.181
37362SOL     OW12109   6.811   9.635   0.449
37362SOL    HW112110   6.876   9.561   0.438
37362SOL    HW212111   6.831   9.685   0.533
37363SOL     OW12112   6.180  10.055   0.652
37363SOL    HW112113   6.230  10.140   0.633
37363SOL    HW212114   6.092  10.057   0.604
37364SOL     OW12115   7.363   9.652   1.642
37364SOL    HW112116   7.346   9.683   1.548
37364SOL    HW212117   7.279   9.615   1.680
37365SOL     OW12118   7.316  10.244   1.517
37365SOL    HW112119   7.354  10.335   1.532
37365SOL    HW212120   7.308  10.227   1.418
37366SOL     OW12121   6.445  10.684   0.016
37366SOL    HW112122   6.399  10.699   0.104
37366SOL    HW212123   6.489  10.769  -0.014
37367SOL     OW12124   6.247  11.100   0.953
37367SOL    HW112125   6.201  11.188   0.940
37367SOL    HW212126   6.346  11.112   0.946
37368SOL     OW12127   6.445  10.266   0.861
37368SOL    HW112128   6.499  10.197   0.909
37368SOL    HW212129   6.413  10.335   0.927
37369SOL     OW12130   6.669  10.294   0.087
37369SOL    HW112131   6.646  10.347   0.005
37369SOL    HW212132   6.750  10.238   0.068
37370SOL     OW12133   7.447  10.879   0.851
37370SOL    HW112134   7.376  10.867   0.781
37370SOL    HW212135   7.448  10.800   0.911
37371SOL     OW12136   5.807  10.624   1.844
37371SOL    HW112137   5.742  10.551   1.823
37371SOL    HW212138   5.811  10.638   1.942
37372SOL     OW12139   5.665  10.550   0.653
37372SOL    HW112140   5.664  10.503   0.741
37372SOL    HW212141   5.747  10.522   0.602
37373SOL     OW12142   6.258  10.701   1.624
37373SOL    HW112143   6.180  10.651   1.662
37373SOL    HW212144   6.255  10.796   1.655
37374SOL     OW12145   7.410   9.502   1.227
37374SOL    HW112146   7.406   9.412   1.271
37374SOL    HW212147   7.413   9.491   1.128
37375SOL     OW12148   6.014   9.734   0.520
37375SOL    HW112149   6.044   9.662   0.458
37375SOL    HW212150   5.975   9.694   0.603
37376SOL     OW12151   7.291  10.797   1.104
37376SOL    HW112152   7.198  10.772   1.077
37376SOL    HW212153   7.317  10.747   1.186
37377SOL     OW12154   5.903   9.857   1.280
37377SOL    HW112155   5.941   9.798   1.352
37377SOL    HW212156   5.943   9.831   1.192
37378SOL     OW12157   6.398  10.896   0.687
37378SOL    HW112158   6.430  10.906   0.593
37378SOL    HW212159   6.319  10.834   0.689
37379SOL     OW12160   7.010   9.524   1.112
37379SOL    HW112161   7.062   9.459   1.167
37379SOL    HW212162   6.961   9.587   1.173
37380SOL     OW12163   6.587   9.344   1.154
37380SOL    HW112164   6.524   9.272   1.123
37380SOL    HW212165   6.680   9.308   1.154
37381SOL     OW12166   6.356  10.640   0.301
37381SOL    HW112167   6.310  10.553   0.318
37381SOL    HW212168   6.447  10.637   0.342
37382SOL     OW12169   6.204  10.877   1.284
37382SOL    HW112170   6.199  10.959   1.341
37382SOL    HW212171   6.293  10.874   1.239
37383SOL     OW12172   6.938   9.362   0.168
37383SOL    HW112173   6.973   9.321   0.084
37383SOL    HW212174   6.848   9.324   0.188
37384SOL     OW12175   6.886   9.763   0.691
37384SOL    HW112176   6.827   9.843   0.695
37384SOL    HW212177   6.901   9.728   0.784
37385SOL     OW12178   7.179   9.531   0.882
37385SOL    HW112179   7.095   9.530   0.936
37385SOL    HW212180   7.181   9.614   0.826
37386SOL     OW12181   5.625  10.387   0.300
37386SOL    HW112182   5.724  10.376   0.291
37386SOL    HW212183   5.585  10.301   0.332
37387SOL     OW12184   6.461  10.956   0.337
37387SOL    HW112185   6.384  10.921   0.283
37387SOL    HW212186   6.429  11.027   0.399
37388SOL     OW12187   5.816   9.938   1.975
37388SOL    HW112188   5.723   9.936   2.012
37388SOL    HW212189   5.817   9.899   1.883
37389SOL     OW12190   5.811   9.585   2.858
37389SOL    HW112191   5.846   9.568   2.950
37389SOL    HW212192   5.723   9.540   2.846
37390SOL     OW12193   5.605   9.678   2.509
37390SOL    HW112194   5.523   9.721   2.548
37390SOL    HW212195   5.577   9.605   2.446
37391SOL     OW12196   6.155  10.585   3.027
37391SOL    HW112197   6.062  10.578   2.990
37391SOL    HW212198   6.166  10.674   3.071
37392SOL     OW12199   7.141  10.821   2.565
37392SOL    HW112200   7.084  10.805   2.646
37392SOL    HW212201   7.082  10.831   2.485
37393SOL     OW12202   6.721  10.013   2.579
37393SOL    HW112203   6.778  10.091   2.554
37393SOL    HW212204   6.661  10.039   2.655
37394SOL     OW12205   7.341   9.917   2.093
37394SOL    HW112206   7.329   9.904   1.994
37394SOL    HW212207   7.311   9.836   2.142
37395SOL     OW12208   6.354  10.454   2.885
37395SOL    HW112209   6.276  10.471   2.945
37395SOL    HW212210   6.388  10.541   2.849
37396SOL     OW12211   6.436  10.108   3.685
37396SOL    HW112212   6.432  10.184   3.750
37396SOL    HW212213   6.458  10.144   3.594
37397SOL     OW12214   6.271  10.322   2.527
37397SOL    HW112215   6.340  10.306   2.597
37397SOL    HW212216   6.198  10.379   2.565
37398SOL     OW12217   6.272  10.471   3.665
37398SOL    HW112218   6.332  10.550   3.679
37398SOL    HW212219   6.186  10.502   3.624
37399SOL     OW12220   5.921  10.745   2.923
37399SOL    HW112221   5.843  10.714   2.870
37399SOL    HW212222   5.979  10.803   2.866
37400SOL     OW12223   7.046  10.815   3.201
37400SOL    HW112224   7.070  10.909   3.227
37400SOL    HW212225   7.030  10.761   3.283
37401SOL     OW12226   6.024   9.702   3.361
37401SOL    HW112227   6.106   9.646   3.370
37401SOL    HW212228   5.943   9.644   3.365
37402SOL     OW12229   7.189   9.757   2.599
37402SOL    HW112230   7.115   9.803   2.549
37402SOL    HW212231   7.240   9.825   2.652
37403SOL     OW12232   5.817  11.023   2.345
37403SOL    HW112233   5.851  11.100   2.399
37403SOL    HW212234   5.861  11.023   2.255
37404SOL     OW12235   6.713  10.651   3.552
37404SOL    HW112236   6.760  10.651   3.640
37404SOL    HW212237   6.665  10.564   3.541
37405SOL     OW12238   5.816  10.744   2.400
37405SOL    HW112239   5.790  10.840   2.400
37405SOL    HW212240   5.745  10.690   2.445
37406SOL     OW12241   5.826  10.401   2.748
37406SOL    HW112242   5.840  10.317   2.800
37406SOL    HW212243   5.771  10.465   2.803
37407SOL     OW12244   6.206  11.096   3.301
37407SOL    HW112245   6.114  11.079   3.336
37407SOL    HW212246   6.234  11.188   3.327
37408SOL     OW12247   6.192  10.274   1.985
37408SOL    HW112248   6.199  10.358   1.931
37408SOL    HW212249   6.238  10.287   2.073
37409SOL     OW12250   7.180   9.424   3.342
37409SOL    HW112251   7.162   9.491   3.270
37409SOL    HW212252   7.177   9.470   3.431
37410SOL     OW12253   5.708   9.953   2.425
37410SOL    HW112254   5.663   9.865   2.442
37410SOL    HW212255   5.707  10.007   2.509
37411SOL     OW12256   7.428  11.077   2.221
37411SOL    HW112257   7.482  11.048   2.301
37411SOL    HW212258   7.458  11.167   2.192
37412SOL     OW12259   5.613  10.906   1.979
37412SOL    HW112260   5.594  10.810   2.000
37412SOL    HW212261   5.580  10.964   2.054
37413SOL     OW12262   7.275  10.232   2.474
37413SOL    HW112263   7.370  10.203   2.482
37413SOL    HW212264   7.267  10.297   2.399
37414SOL     OW12265   7.227  10.418   2.294
37414SOL    HW112266   7.313  10.420   2.242
37414SOL    HW212267   7.241  10.465   2.382
37415SOL     OW12268   5.699  10.047   3.459
37415SOL    HW112269   5.787  10.034   3.504
37415SOL    HW212270   5.686  10.144   3.437
37416SOL     OW12271   6.199  10.675   2.588
37416SOL    HW112272   6.150  10.588   2.597
37416SOL    HW212273   6.176  10.718   2.501
37417SOL     OW12274   6.879  10.538   3.285
37417SOL    HW112275   6.916  10.465   3.227
37417SOL    HW212276   6.931  10.543   3.370
37418SOL     OW12277   6.395   9.314   2.364
37418SOL    HW112278   6.435   9.405   2.355
37418SOL    HW212279   6.295   9.322   2.370
37419SOL     OW12280   5.783  10.286   3.126
37419SOL    HW112281   5.872  10.241   3.112
37419SOL    HW212282   5.710  10.221   3.107
37420SOL     OW12283   7.111  10.309   2.052
37420SOL    HW112284   7.048  10.233   2.065
37420SOL    HW212285   7.159  10.327   2.138
37421SOL     OW12286   6.773  11.102   3.478
37421SOL    HW112287   6.797  11.162   3.402
37421SOL    HW212288   6.780  11.007   3.448
37422SOL     OW12289   5.903   9.561   3.663
37422SOL    HW112290   5.974   9.632   3.669
37422SOL    HW212291   5.815   9.600   3.691
37423SOL     OW12292   7.052  10.727   2.815
37423SOL    HW112293   6.993  10.733   2.895
37423SOL    HW212294   7.037  10.639   2.769
37424SOL     OW12295   7.253  11.024   2.434
37424SOL    HW112296   7.212  11.001   2.346
37424SOL    HW212297   7.235  10.950   2.499
37425SOL     OW12298   6.184  10.039   2.132
37425SOL    HW112299   6.208  10.108   2.064
37425SOL    HW212300   6.106  10.072   2.186
37426SOL     OW12301   6.867   9.655   2.806
37426SOL    HW112302   6.781   9.605   2.793
37426SOL    HW212303   6.929   9.601   2.862
37427SOL     OW12304   7.162  10.972   2.169
37427SOL    HW112305   7.251  11.018   2.172
37427SOL    HW212306   7.141  10.948   2.074
37428SOL     OW12307   6.393   9.915   3.327
37428SOL    HW112308   6.346   9.912   3.416
37428SOL    HW212309   6.342   9.860   3.261
37429SOL     OW12310   6.980   9.779   3.536
37429SOL    HW112311   6.960   9.822   3.624
37429SOL    HW212312   7.058   9.717   3.545
37430SOL     OW12313   6.559  10.200   3.434
37430SOL    HW112314   6.605  10.116   3.405
37430SOL    HW212315   6.503  10.234   3.359
37431SOL     OW12316   6.577   9.720   3.104
37431SOL    HW112317   6.500   9.754   3.158
37431SOL    HW212318   6.543   9.669   3.025
37432SOL     OW12319   6.627  10.011   2.291
37432SOL    HW112320   6.653  10.007   2.387
37432SOL    HW212321   6.542   9.960   2.277
37433SOL     OW12322   5.662  10.121   2.651
37433SOL    HW112323   5.761  10.109   2.660
37433SOL    HW212324   5.638  10.216   2.672
37434SOL     OW12325   5.716  11.131   3.433
37434SOL    HW112326   5.706  11.116   3.532
37434SOL    HW212327   5.630  11.167   3.397
37435SOL     OW12328   6.451   9.658   2.057
37435SOL    HW112329   6.510   9.721   2.008
37435SOL    HW212330   6.470   9.564   2.028
37436SOL     OW12331   7.305   9.895   3.693
37436SOL    HW112332   7.279   9.984   3.657
37436SOL    HW212333   7.303   9.827   3.620
37437SOL     OW12334   6.948  10.454   2.407
37437SOL    HW112335   7.031  10.425   2.359
37437SOL    HW212336   6.899  10.521   2.351
37438SOL     OW12337   6.136   9.506   2.747
37438SOL    HW112338   6.131   9.501   2.847
37438SOL    HW212339   6.138   9.602   2.718
37439SOL     OW12340   6.594  10.766   2.339
37439SOL    HW112341   6.548  10.838   2.287
37439SOL    HW212342   6.590  10.786   2.437
37440SOL     OW12343   5.937  11.111   2.715
37440SOL    HW112344   5.987  11.025   2.721
37440SOL    HW212345   6.002  11.188   2.712
37441SOL     OW12346   7.381  10.376   2.735
37441SOL    HW112347   7.319  10.361   2.659
37441SOL    HW212348   7.329  10.387   2.820
37442SOL     OW12349   6.813  10.860   3.368
37442SOL    HW112350   6.819  10.783   3.432
37442SOL    HW212351   6.761  10.834   3.288
37443SOL     OW12352   5.907  10.253   2.104
37443SOL    HW112353   5.989  10.292   2.062
37443SOL    HW212354   5.880  10.171   2.055
37444SOL     OW12355   7.044  10.045   2.590
37444SOL    HW112356   7.039   9.980   2.665
37444SOL    HW212357   7.124  10.104   2.603
37445SOL     OW12358   6.047  10.576   3.589
37445SOL    HW112359   5.997  10.577   3.503
37445SOL    HW212360   5.984  10.558   3.665
37446SOL     OW12361   6.697  11.086   2.099
37446SOL    HW112362   6.637  11.024   2.149
37446SOL    HW212363   6.728  11.042   2.014
37447SOL     OW12364   5.788   9.595   3.360
37447SOL    HW112365   5.708   9.655   3.347
37447SOL    HW212366   5.778   9.546   3.446
37448SOL     OW12367   7.218  10.687   1.943
37448SOL    HW112368   7.186  10.781   1.933
37448SOL    HW212369   7.142  10.624   1.931
37449SOL     OW12370   6.050  11.053   2.185
37449SOL    HW112371   6.083  11.092   2.271
37449SOL    HW212372   6.126  11.046   2.120
37450SOL     OW12373   6.986   9.417   2.288
37450SOL    HW112374   6.962   9.380   2.198
37450SOL    HW212375   7.085   9.433   2.292
37451SOL     OW12376   5.835  11.095   3.103
37451SOL    HW112377   5.892  11.030   3.153
37451SOL    HW212378   5.819  11.062   3.010
37452SOL     OW12379   6.526  11.008   2.766
37452SOL    HW112380   6.606  10.951   2.787
37452SOL    HW212381   6.477  10.968   2.689
37453SOL     OW12382   5.968  10.010   2.342
37453SOL    HW112383   6.013   9.920   2.339
37453SOL    HW212384   5.874   9.999   2.375
37454SOL     OW12385   7.133   9.532   3.591
37454SOL    HW112386   7.128   9.569   3.683
37454SOL    HW212387   7.061   9.463   3.579
37455SOL     OW12388   6.200   9.432   1.979
37455SOL    HW112389   6.298   9.410   1.986
37455SOL    HW212390   6.169   9.415   1.886
37456SOL     OW12391   6.367   9.574   3.611
37456SOL    HW112392   6.434   9.513   3.654
37456SOL    HW212393   6.294   9.593   3.676
37457SOL     OW12394   6.474  10.824   3.057
37457SOL    HW112395   6.451  10.799   2.963
37457SOL    HW212396   6.535  10.755   3.096
37458SOL     OW12397   6.937   9.900   3.295
37458SOL    HW112398   6.965   9.857   3.380
37458SOL    HW212399   6.962   9.996   3.296
37459SOL     OW12400   6.389  10.712   2.786
37459SOL    HW112401   6.479  10.726   2.744
37459SOL    HW212402   6.318  10.714   2.715
37460SOL     OW12403   6.508   9.813   2.761
37460SOL    HW112404   6.483   9.804   2.665
37460SOL    HW212405   6.556   9.731   2.792
37461SOL     OW12406   6.125   9.374   2.374
37461SOL    HW112407   6.044   9.375   2.432
37461SOL    HW212408   6.128   9.457   2.319
37462SOL     OW12409   7.020  10.498   1.903
37462SOL    HW112410   7.052  10.422   1.960
37462SOL    HW212411   6.928  10.525   1.933
37463SOL     OW12412   5.883   9.345   2.033
37463SOL    HW112413   5.932   9.429   2.012
37463SOL    HW212414   5.945   9.280   2.078
37464SOL     OW12415   6.521   9.546   2.342
37464SOL    HW112416   6.473   9.587   2.264
37464SOL    HW212417   6.620   9.544   2.323
37465SOL     OW12418   6.662   9.993   3.326
37465SOL    HW112419   6.582   9.932   3.329
37465SOL    HW212420   6.743   9.940   3.302
37466SOL     OW12421   6.813  10.880   2.655
37466SOL    HW112422   6.834  10.954   2.590
37466SOL    HW212423   6.881  10.880   2.728
37467SOL     OW12424   6.045  10.462   2.603
37467SOL    HW112425   5.974  10.435   2.668
37467SOL    HW212426   6.019  10.434   2.510
37468SOL     OW12427   6.857  11.107   2.453
37468SOL    HW112428   6.901  11.171   2.389
37468SOL    HW212429   6.807  11.159   2.523
37469SOL     OW12430   6.618   9.859   1.878
37469SOL    HW112431   6.577   9.941   1.839
37469SOL    HW212432   6.682   9.885   1.951
37470SOL     OW12433   5.664   9.866   3.248
37470SOL    HW112434   5.756   9.865   3.207
37470SOL    HW212435   5.658   9.940   3.315
37471SOL     OW12436   6.147   9.532   3.009
37471SOL    HW112437   6.185   9.448   3.046
37471SOL    HW212438   6.059   9.551   3.053
37472SOL     OW12439   6.452   9.764   2.504
37472SOL    HW112440   6.420   9.836   2.442
37472SOL    HW212441   6.476   9.683   2.451
37473SOL     OW12442   7.015  10.483   2.729
37473SOL    HW112443   6.960  10.399   2.722
37473SOL    HW212444   7.041  10.512   2.637
37474SOL     OW12445   7.052   9.900   2.854
37474SOL    HW112446   7.022   9.805   2.861
37474SOL    HW212447   7.125   9.916   2.920
37475SOL     OW12448   7.443  10.143   2.239
37475SOL    HW112449   7.485  10.079   2.303
37475SOL    HW212450   7.405  10.092   2.161
37476SOL     OW12451   6.074  10.695   2.036
37476SOL    HW112452   5.987  10.680   2.083
37476SOL    HW212453   6.057  10.721   1.941
37477SOL     OW12454   7.250  10.590   2.519
37477SOL    HW112455   7.349  10.598   2.533
37477SOL    HW212456   7.205  10.674   2.550
37478SOL     OW12457   6.976   9.885   1.940
37478SOL    HW112458   6.922   9.864   2.021
37478SOL    HW212459   7.067   9.844   1.949
37479SOL     OW12460   6.113   9.566   2.190
37479SOL    HW112461   6.140   9.507   2.115
37479SOL    HW212462   6.113   9.661   2.159
37480SOL     OW12463   7.340  10.533   3.450
37480SOL    HW112464   7.431  10.494   3.437
37480SOL    HW212465   7.348  10.629   3.474
37481SOL     OW12466   6.650  10.657   3.202
37481SOL    HW112467   6.570  10.634   3.257
37481SOL    HW212468   6.733  10.631   3.251
37482SOL     OW12469   7.178  10.939   3.487
37482SOL    HW112470   7.205  10.973   3.397
37482SOL    HW212471   7.257  10.901   3.533
37483SOL     OW12472   6.697  10.505   2.962
37483SOL    HW112473   6.657  10.549   3.043
37483SOL    HW212474   6.656  10.542   2.879
37484SOL     OW12475   7.224  10.409   2.941
37484SOL    HW112476   7.229  10.490   3.000
37484SOL    HW212477   7.138  10.411   2.890
37485SOL     OW12478   6.501   9.399   3.264
37485SOL    HW112479   6.526   9.379   3.169
37485SOL    HW212480   6.573   9.455   3.306
37486SOL     OW12481   6.566  10.426   3.581
37486SOL    HW112482   6.467  10.432   3.591
37486SOL    HW212483   6.589  10.346   3.525
37487SOL     OW12484   6.291  10.360   2.230
37487SOL    HW112485   6.277  10.367   2.329
37487SOL    HW212486   6.375  10.309   2.212
37488SOL     OW12487   5.996  10.123   3.113
37488SOL    HW112488   6.082  10.135   3.163
37488SOL    HW212489   5.954  10.036   3.140
37489SOL     OW12490   6.860   9.696   3.124
37489SOL    HW112491   6.881   9.770   3.188
37489SOL    HW212492   6.771   9.713   3.081
37490SOL     OW12493   5.650  10.874   3.193
37490SOL    HW112494   5.604  10.956   3.159
37490SOL    HW212495   5.748  10.893   3.202
37491SOL     OW12496   5.953  10.410   2.363
37491SOL    HW112497   5.946  10.493   2.307
37491SOL    HW212498   5.957  10.330   2.303
37492SOL     OW12499   6.152   9.847   2.727
37492SOL    HW112500   6.164   9.913   2.653
37492SOL    HW212501   6.198   9.881   2.810
37493SOL     OW12502   6.838  10.658   2.250
37493SOL    HW112503   6.888  10.735   2.290
37493SOL    HW212504   6.743  10.660   2.282
37494SOL     OW12505   6.858  10.755   3.004
37494SOL    HW112506   6.905  10.768   3.091
37494SOL    HW212507   6.792  10.681   3.013
37495SOL     OW12508   7.168   9.949   2.334
37495SOL    HW112509   7.137  10.010   2.407
37495SOL    HW212510   7.218  10.001   2.265
37496SOL     OW12511   5.940  10.820   3.191
37496SOL    HW112512   5.919  10.776   3.104
37496SOL    HW212513   6.037  10.846   3.194
37497SOL     OW12514   5.988  10.061   3.460
37497SOL    HW112515   6.056  10.116   3.413
37497SOL    HW212516   6.028   9.973   3.487
37498SOL     OW12517   7.173  10.089   3.532
37498SOL    HW112518   7.081  10.127   3.527
37498SOL    HW212519   7.233  10.136   3.467
37499SOL     OW12520   6.599   9.415   3.632
37499SOL    HW112521   6.605   9.500   3.580
37499SOL    HW212522   6.631   9.339   3.575
37500SOL     OW12523   6.090   9.360   3.602
37500SOL    HW112524   6.048   9.303   3.532
37500SOL    HW212525   6.024   9.429   3.634
37501SOL     OW12526   6.159  10.180   2.891
37501SOL    HW112527   6.203  10.269   2.882
37501SOL    HW212528   6.096  10.180   2.968
37502SOL     OW12529   6.946  10.172   2.907
37502SOL    HW112530   6.871  10.172   2.841
37502SOL    HW212531   6.983  10.080   2.916
37503SOL     OW12532   6.795   9.835   2.137
37503SOL    HW112533   6.808   9.751   2.191
37503SOL    HW212534   6.766   9.909   2.197
37504SOL     OW12535   5.893   9.523   3.093
37504SOL    HW112536   5.870   9.560   3.183
37504SOL    HW212537   5.863   9.428   3.087
37505SOL     OW12538   5.623  10.620   3.144
37505SOL    HW112539   5.676  10.571   3.212
37505SOL    HW212540   5.645  10.718   3.149
37506SOL     OW12541   6.318   9.944   2.926
37506SOL    HW112542   6.377   9.918   2.850
37506SOL    HW212543   6.290  10.040   2.915
37507SOL     OW12544   7.314  10.245   3.716
37507SOL    HW112545   7.268  10.238   3.627
37507SOL    HW212546   7.252  10.289   3.782
37508SOL     OW12547   5.893   9.373   2.480
37508SOL    HW112548   5.882   9.467   2.513
37508SOL    HW212549   5.888   9.310   2.557
37509SOL     OW12550   7.208   9.677   2.236
37509SOL    HW112551   7.210   9.601   2.300
37509SOL    HW212552   7.160   9.754   2.276
37510SOL     OW12553   6.609  10.076   2.828
37510SOL    HW112554   6.624  10.097   2.924
37510SOL    HW212555   6.579   9.981   2.819
37511SOL     OW12556   6.566  10.883   3.562
37511SOL    HW112557   6.546  10.927   3.474
37511SOL    HW212558   6.605  10.792   3.546
37512SOL     OW12559   7.445  10.828   3.467
37512SOL    HW112560   7.459  10.855   3.372
37512SOL    HW212561   7.528  10.850   3.520
37513SOL     OW12562   5.936  10.208   3.666
37513SOL    HW112563   6.012  10.252   3.714
37513SOL    HW212564   5.971  10.161   3.584
37514SOL     OW12565   7.126   9.584   1.987
37514SOL    HW112566   7.065   9.509   2.010
37514SOL    HW212567   7.148   9.636   2.070
37515SOL     OW12568   6.889  10.148   1.904
37515SOL    HW112569   6.923  10.055   1.919
37515SOL    HW212570   6.907  10.175   1.809
37516SOL     OW12571   6.654  10.643   2.711
37516SOL    HW112572   6.661  10.559   2.656
37516SOL    HW212573   6.716  10.712   2.675
37517SOL     OW12574   5.905  10.120   2.811
37517SOL    HW112575   5.998  10.156   2.816
37517SOL    HW212576   5.899  10.035   2.863
37518SOL     OW12577   5.925   9.819   2.868
37518SOL    HW112578   5.873   9.736   2.851
37518SOL    HW212579   6.002   9.824   2.804
37519SOL     OW12580   6.724   9.690   3.540
37519SOL    HW112581   6.679   9.753   3.604
37519SOL    HW212582   6.817   9.721   3.523
37520SOL     OW12583   6.746   9.517   3.339
37520SOL    HW112584   6.746   9.581   3.416
37520SOL    HW212585   6.774   9.565   3.256
37521SOL     OW12586   5.594  10.636   2.062
37521SOL    HW112587   5.501  10.657   2.031
37521SOL    HW212588   5.604  10.537   2.075
37522SOL     OW12589   5.674  11.111   2.789
37522SOL    HW112590   5.632  11.025   2.762
37522SOL    HW212591   5.768  11.114   2.755
37523SOL     OW12592   6.090  10.878   2.772
37523SOL    HW112593   6.156  10.952   2.781
37523SOL    HW212594   6.134  10.799   2.730
37524SOL     OW12595   6.588  10.106   3.100
37524SOL    HW112596   6.629  10.074   3.186
37524SOL    HW212597   6.492  10.079   3.097
37525SOL     OW12598   5.626   9.854   2.976
37525SOL    HW112599   5.711   9.821   2.935
37525SOL    HW212600   5.639   9.869   3.074
37526SOL     OW12601   5.775   9.830   3.584
37526SOL    HW112602   5.834   9.790   3.514
37526SOL    HW212603   5.717   9.901   3.543
37527SOL     OW12604   6.955  10.260   3.522
37527SOL    HW112605   6.994  10.349   3.542
37527SOL    HW212606   6.965  10.240   3.425
37528SOL     OW12607   6.401   9.882   2.187
37528SOL    HW112608   6.408   9.793   2.141
37528SOL    HW212609   6.307   9.916   2.179
37529SOL     OW12610   7.243   9.914   3.068
37529SOL    HW112611   7.205   9.845   3.130
37529SOL    HW212612   7.325   9.878   3.024
37530SOL     OW12613   5.838  10.874   3.606
37530SOL    HW112614   5.808  10.931   3.682
37530SOL    HW212615   5.831  10.777   3.632
37531SOL     OW12616   6.257   9.774   3.131
37531SOL    HW112617   6.223   9.685   3.101
37531SOL    HW212618   6.283   9.828   3.051
37532SOL     OW12619   6.516  10.988   3.327
37532SOL    HW112620   6.492  10.970   3.232
37532SOL    HW212621   6.546  11.082   3.337
37533SOL     OW12622   6.059   9.810   2.053
37533SOL    HW112623   6.120   9.890   2.057
37533SOL    HW212624   5.964   9.841   2.060
37534SOL     OW12625   5.745  10.447   3.328
37534SOL    HW112626   5.767  10.386   3.404
37534SOL    HW212627   5.755  10.398   3.242
37535SOL     OW12628   6.933  10.369   3.096
37535SOL    HW112629   6.957  10.306   3.022
37535SOL    HW212630   6.843  10.409   3.078
37536SOL     OW12631   6.888  10.165   2.171
37536SOL    HW112632   6.802  10.134   2.213
37536SOL    HW212633   6.884  10.151   2.072
37537SOL     OW12634   7.345  11.057   3.016
37537SOL    HW112635   7.406  11.087   2.943
37537SOL    HW212636   7.307  10.968   2.994
37538SOL     OW12637   6.838  11.041   2.990
37538SOL    HW112638   6.922  11.046   2.936
37538SOL    HW212639   6.815  10.945   3.008
37539SOL     OW12640   5.669  10.568   2.884
37539SOL    HW112641   5.664  10.567   2.984
37539SOL    HW212642   5.586  10.527   2.846
37540SOL     OW12643   6.274  10.972   3.578
37540SOL    HW112644   6.218  11.053   3.587
37540SOL    HW212645   6.326  10.976   3.492
37541SOL     OW12646   7.312   9.445   2.385
37541SOL    HW112647   7.385   9.428   2.318
37541SOL    HW212648   7.281   9.358   2.423
37542SOL     OW12649   6.974  10.883   2.339
37542SOL    HW112650   7.041  10.895   2.265
37542SOL    HW212651   6.934  10.972   2.362
37543SOL     OW12652   5.716  11.104   3.713
37543SOL    HW112653   5.675  11.030   3.766
37543SOL    HW212654   5.780  11.155   3.771
37544SOL     OW12655   6.866  10.237   2.534
37544SOL    HW112656   6.926  10.156   2.536
37544SOL    HW212657   6.906  10.306   2.474
37545SOL     OW12658   6.416  10.583   3.284
37545SOL    HW112659   6.411  10.616   3.379
37545SOL    HW212660   6.330  10.602   3.238
37546SOL     OW12661   6.258  10.926   2.016
37546SOL    HW112662   6.267  10.936   1.917
37546SOL    HW212663   6.218  10.837   2.037
37547SOL     OW12664   7.236  11.030   3.256
37547SOL    HW112665   7.289  11.040   3.172
37547SOL    HW212666   7.209  11.120   3.290
37548SOL     OW12667   7.427   9.485   2.825
37548SOL    HW112668   7.466   9.400   2.789
37548SOL    HW212669   7.329   9.487   2.806
37549SOL     OW12670   5.849   9.636   2.582
37549SOL    HW112671   5.770   9.687   2.548
37549SOL    HW212672   5.840   9.621   2.680
37550SOL     OW12673   6.780  10.922   1.893
37550SOL    HW112674   6.786  10.829   1.930
37550SOL    HW212675   6.721  10.922   1.813
37551SOL     OW12676   6.408  10.312   3.234
37551SOL    HW112677   6.448  10.311   3.142
37551SOL    HW212678   6.418  10.404   3.274
37552SOL     OW12679   6.502  10.220   2.153
37552SOL    HW112680   6.565  10.258   2.085
37552SOL    HW212681   6.542  10.137   2.192
37553SOL     OW12682   7.090  10.917   1.906
37553SOL    HW112683   6.998  10.954   1.913
37553SOL    HW212684   7.128  10.937   1.816
37554SOL     OW12685   5.958  10.598   3.352
37554SOL    HW112686   5.945  10.691   3.318
37554SOL    HW212687   5.874  10.546   3.339
37555SOL     OW12688   7.200  10.602   3.151
37555SOL    HW112689   7.260  10.605   3.231
37555SOL    HW212690   7.125  10.666   3.164
37556SOL     OW12691   6.625  10.408   2.558
37556SOL    HW112692   6.555  10.361   2.612
37556SOL    HW212693   6.684  10.340   2.515
37557SOL     OW12694   6.600   9.546   2.833
37557SOL    HW112695   6.592   9.510   2.740
37557SOL    HW212696   6.598   9.470   2.898
37558SOL     OW12697   6.176  10.797   2.353
37558SOL    HW112698   6.218  10.739   2.283
37558SOL    HW212699   6.132  10.876   2.309
37559SOL     OW12700   7.295   9.695   3.243
37559SOL    HW112701   7.368   9.764   3.247
37559SOL    HW212702   7.323   9.620   3.184
37560SOL     OW12703   5.841  10.658   2.152
37560SOL    HW112704   5.745  10.659   2.125
37560SOL    HW212705   5.853  10.711   2.236
37561SOL     OW12706   5.691  10.323   3.588
37561SOL    HW112707   5.614  10.290   3.642
37561SOL    HW212708   5.776  10.293   3.630
37562SOL     OW12709   6.258   9.513   3.351
37562SOL    HW112710   6.348   9.497   3.311
37562SOL    HW212711   6.266   9.518   3.450
37563SOL     OW12712   5.661   9.655   1.895
37563SOL    HW112713   5.569   9.627   1.866
37563SOL    HW212714   5.692   9.732   1.839
37564SOL     OW12715   7.026  10.166   3.260
37564SOL    HW112716   6.969  10.218   3.197
37564SOL    HW212717   7.122  10.178   3.236
37565SOL     OW12718   5.658   9.476   2.180
37565SOL    HW112719   5.641   9.559   2.126
37565SOL    HW212720   5.748   9.439   2.158
37566SOL     OW12721   6.769  10.645   1.981
37566SOL    HW112722   6.670  10.634   1.983
37566SOL    HW212723   6.803  10.660   2.074
37567SOL     OW12724   6.199  10.152   3.293
37567SOL    HW112725   6.255  10.233   3.276
37567SOL    HW212726   6.258  10.072   3.296
37568SOL     OW12727   7.079  11.077   2.821
37568SOL    HW112728   7.112  11.141   2.752
37568SOL    HW212729   7.145  11.071   2.896
37569SOL     OW12730   6.302   9.875   3.570
37569SOL    HW112731   6.321   9.940   3.644
37569SOL    HW212732   6.362   9.795   3.579
37570SOL     OW12733   7.036  10.530   3.495
37570SOL    HW112734   7.027  10.520   3.594
37570SOL    HW212735   7.132  10.523   3.469
37571SOL     OW12736   5.976  11.051   3.422
37571SOL    HW112737   5.885  11.092   3.420
37571SOL    HW212738   5.969  10.957   3.454
37572SOL     OW12739   7.260  10.193   3.116
37572SOL    HW112740   7.233  10.104   3.079
37572SOL    HW212741   7.261  10.261   3.043
37573SOL     OW12742   6.811   9.635   2.311
37573SOL    HW112743   6.876   9.561   2.300
37573SOL    HW212744   6.831   9.685   2.395
37574SOL     OW12745   6.180  10.055   2.514
37574SOL    HW112746   6.230  10.140   2.495
37574SOL    HW212747   6.092  10.057   2.466
37575SOL     OW12748   7.363   9.652   3.504
37575SOL    HW112749   7.346   9.683   3.410
37575SOL    HW212750   7.279   9.615   3.542
37576SOL     OW12751   7.316  10.244   3.379
37576SOL    HW112752   7.354  10.335   3.394
37576SOL    HW212753   7.308  10.227   3.280
37577SOL     OW12754   6.445  10.684   1.878
37577SOL    HW112755   6.399  10.699   1.966
37577SOL    HW212756   6.489  10.769   1.848
37578SOL     OW12757   6.247  11.100   2.815
37578SOL    HW112758   6.201  11.188   2.802
37578SOL    HW212759   6.346  11.112   2.808
37579SOL     OW12760   6.445  10.266   2.723
37579SOL    HW112761   6.499  10.197   2.771
37579SOL    HW212762   6.413  10.335   2.789
37580SOL     OW12763   6.669  10.294   1.949
37580SOL    HW112764   6.646  10.347   1.867
37580SOL    HW212765   6.750  10.238   1.930
37581SOL     OW12766   7.447  10.879   2.713
37581SOL    HW112767   7.376  10.867   2.643
37581SOL    HW212768   7.448  10.800   2.773
37582SOL     OW12769   5.807  10.624   3.706
37582SOL    HW112770   5.742  10.551   3.685
37582SOL    HW212771   5.811  10.638   3.804
37583SOL     OW12772   5.665  10.550   2.515
37583SOL    HW112773   5.664  10.503   2.603
37583SOL    HW212774   5.747  10.522   2.464
37584SOL     OW12775   6.258  10.701   3.486
37584SOL    HW112776   6.180  10.651   3.524
37584SOL    HW212777   6.255  10.796   3.517
37585SOL     OW12778   7.410   9.502   3.089
37585SOL    HW112779   7.406   9.412   3.133
37585SOL    HW212780   7.413   9.491   2.990
37586SOL     OW12781   6.014   9.734   2.382
37586SOL    HW112782   6.044   9.662   2.320
37586SOL    HW212783   5.975   9.694   2.465
37587SOL     OW12784   7.291  10.797   2.966
37587SOL    HW112785   7.198  10.772   2.939
37587SOL    HW212786   7.317  10.747   3.048
37588SOL     OW12787   5.903   9.857   3.142
37588SOL    HW112788   5.941   9.798   3.214
37588SOL    HW212789   5.943   9.831   3.054
37589SOL     OW12790   6.398  10.896   2.549
37589SOL    HW112791   6.430  10.906   2.455
37589SOL    HW212792   6.319  10.834   2.551
37590SOL     OW12793   7.010   9.524   2.974
37590SOL    HW112794   7.062   9.459   3.029
37590SOL    HW212795   6.961   9.587   3.035
37591SOL     OW12796   6.587   9.344   3.016
37591SOL    HW112797   6.524   9.272   2.985
37591SOL    HW212798   6.680   9.308   3.016
37592SOL     OW12799   6.356  10.640   2.163
37592SOL    HW112800   6.310  10.553   2.180
37592SOL    HW212801   6.447  10.637   2.204
37593SOL     OW12802   6.204  10.877   3.146
37593SOL    HW112803   6.199  10.959   3.203
37593SOL    HW212804   6.293  10.874   3.101
37594SOL     OW12805   6.938   9.362   2.030
37594SOL    HW112806   6.973   9.321   1.946
37594SOL    HW212807   6.848   9.324   2.050
37595SOL     OW12808   6.886   9.763   2.553
37595SOL    HW112809   6.827   9.843   2.557
37595SOL    HW212810   6.901   9.728   2.646
37596SOL     OW12811   7.179   9.531   2.744
37596SOL    HW112812   7.095   9.530   2.798
37596SOL    HW212813   7.181   9.614   2.688
37597SOL     OW12814   5.625  10.387   2.162
37597SOL    HW112815   5.724  10.376   2.153
37597SOL    HW212816   5.585  10.301   2.194
37598SOL     OW12817   6.461  10.956   2.199
37598SOL    HW112818   6.384  10.921   2.145
37598SOL    HW212819   6.429  11.027   2.261
37599SOL     OW12820   5.816   9.938   3.837
37599SOL    HW112821   5.723   9.936   3.874
37599SOL    HW212822   5.817   9.899   3.745
37600SOL     OW12823   5.811   9.585   4.720
37600SOL    HW112824   5.846   9.568   4.812
37600SOL    HW212825   5.723   9.540   4.708
37601SOL     OW12826   5.605   9.678   4.371
37601SOL    HW112827   5.523   9.721   4.410
37601SOL    HW212828   5.577   9.605   4.308
37602SOL     OW12829   6.155  10.585   4.889
37602SOL    HW112830   6.062  10.578   4.852
37602SOL    HW212831   6.166  10.674   4.933
37603SOL     OW12832   7.141  10.821   4.427
37603SOL    HW112833   7.084  10.805   4.508
37603SOL    HW212834   7.082  10.831   4.347
37604SOL     OW12835   6.721  10.013   4.441
37604SOL    HW112836   6.778  10.091   4.416
37604SOL    HW212837   6.661  10.039   4.517
37605SOL     OW12838   7.341   9.917   3.955
37605SOL    HW112839   7.329   9.904   3.856
37605SOL    HW212840   7.311   9.836   4.004
37606SOL     OW12841   6.354  10.454   4.747
37606SOL    HW112842   6.276  10.471   4.807
37606SOL    HW212843   6.388  10.541   4.711
37607SOL     OW12844   6.436  10.108   5.547
37607SOL    HW112845   6.432  10.184   5.612
37607SOL    HW212846   6.458  10.144   5.456
37608SOL     OW12847   6.271  10.322   4.389
37608SOL    HW112848   6.340  10.306   4.459
37608SOL    HW212849   6.198  10.379   4.427
37609SOL     OW12850   6.272  10.471   5.527
37609SOL    HW112851   6.332  10.550   5.541
37609SOL    HW212852   6.186  10.502   5.486
37610SOL     OW12853   5.921  10.745   4.785
37610SOL    HW112854   5.843  10.714   4.732
37610SOL    HW212855   5.979  10.803   4.728
37611SOL     OW12856   7.046  10.815   5.063
37611SOL    HW112857   7.070  10.909   5.089
37611SOL    HW212858   7.030  10.761   5.145
37612SOL     OW12859   6.024   9.702   5.223
37612SOL    HW112860   6.106   9.646   5.232
37612SOL    HW212861   5.943   9.644   5.227
37613SOL     OW12862   7.189   9.757   4.461
37613SOL    HW112863   7.115   9.803   4.411
37613SOL    HW212864   7.240   9.825   4.514
37614SOL     OW12865   5.817  11.023   4.207
37614SOL    HW112866   5.851  11.100   4.261
37614SOL    HW212867   5.861  11.023   4.117
37615SOL     OW12868   6.713  10.651   5.414
37615SOL    HW112869   6.760  10.651   5.502
37615SOL    HW212870   6.665  10.564   5.403
37616SOL     OW12871   5.816  10.744   4.262
37616SOL    HW112872   5.790  10.840   4.262
37616SOL    HW212873   5.745  10.690   4.307
37617SOL     OW12874   5.826  10.401   4.610
37617SOL    HW112875   5.840  10.317   4.662
37617SOL    HW212876   5.771  10.465   4.665
37618SOL     OW12877   6.206  11.096   5.163
37618SOL    HW112878   6.114  11.079   5.198
37618SOL    HW212879   6.234  11.188   5.189
37619SOL     OW12880   6.192  10.274   3.847
37619SOL    HW112881   6.199  10.358   3.793
37619SOL    HW212882   6.238  10.287   3.935
37620SOL     OW12883   7.180   9.424   5.204
37620SOL    HW112884   7.162   9.491   5.132
37620SOL    HW212885   7.177   9.470   5.293
37621SOL     OW12886   5.708   9.953   4.287
37621SOL    HW112887   5.663   9.865   4.304
37621SOL    HW212888   5.707  10.007   4.371
37622SOL     OW12889   7.428  11.077   4.083
37622SOL    HW112890   7.482  11.048   4.163
37622SOL    HW212891   7.458  11.167   4.054
37623SOL     OW12892   5.613  10.906   3.841
37623SOL    HW112893   5.594  10.810   3.862
37623SOL    HW212894   5.580  10.964   3.916
37624SOL     OW12895   7.227  10.418   4.156
37624SOL    HW112896   7.313  10.420   4.104
37624SOL    HW212897   7.241  10.465   4.244
37625SOL     OW12898   5.699  10.047   5.321
37625SOL    HW112899   5.787  10.034   5.366
37625SOL    HW212900   5.686  10.144   5.299
37626SOL     OW12901   6.199  10.675   4.450
37626SOL    HW112902   6.150  10.588   4.459
37626SOL    HW212903   6.176  10.718   4.363
37627SOL     OW12904   6.879  10.538   5.147
37627SOL    HW112905   6.916  10.465   5.089
37627SOL    HW212906   6.931  10.543   5.232
37628SOL     OW12907   6.395   9.314   4.226
37628SOL    HW112908   6.435   9.405   4.217
37628SOL    HW212909   6.295   9.322   4.232
37629SOL     OW12910   5.783  10.286   4.988
37629SOL    HW112911   5.872  10.241   4.974
37629SOL    HW212912   5.710  10.221   4.969
37630SOL     OW12913   7.111  10.309   3.914
37630SOL    HW112914   7.048  10.233   3.927
37630SOL    HW212915   7.159  10.327   4.000
37631SOL     OW12916   6.773  11.102   5.340
37631SOL    HW112917   6.797  11.162   5.264
37631SOL    HW212918   6.780  11.007   5.310
37632SOL     OW12919   5.903   9.561   5.525
37632SOL    HW112920   5.974   9.632   5.531
37632SOL    HW212921   5.815   9.600   5.553
37633SOL     OW12922   7.052  10.727   4.677
37633SOL    HW112923   6.993  10.733   4.757
37633SOL    HW212924   7.037  10.639   4.631
37634SOL     OW12925   7.253  11.024   4.296
37634SOL    HW112926   7.212  11.001   4.208
37634SOL    HW212927   7.235  10.950   4.361
37635SOL     OW12928   6.184  10.039   3.994
37635SOL    HW112929   6.208  10.108   3.926
37635SOL    HW212930   6.106  10.072   4.048
37636SOL     OW12931   6.867   9.655   4.668
37636SOL    HW112932   6.781   9.605   4.655
37636SOL    HW212933   6.929   9.601   4.724
37637SOL     OW12934   7.162  10.972   4.031
37637SOL    HW112935   7.251  11.018   4.034
37637SOL    HW212936   7.141  10.948   3.936
37638SOL     OW12937   6.393   9.915   5.189
37638SOL    HW112938   6.346   9.912   5.278
37638SOL    HW212939   6.342   9.860   5.123
37639SOL     OW12940   6.980   9.779   5.398
37639SOL    HW112941   6.960   9.822   5.486
37639SOL    HW212942   7.058   9.717   5.407
37640SOL     OW12943   6.559  10.200   5.296
37640SOL    HW112944   6.605  10.116   5.267
37640SOL    HW212945   6.503  10.234   5.221
37641SOL     OW12946   6.577   9.720   4.966
37641SOL    HW112947   6.500   9.754   5.020
37641SOL    HW212948   6.543   9.669   4.887
37642SOL     OW12949   6.627  10.011   4.153
37642SOL    HW112950   6.653  10.007   4.249
37642SOL    HW212951   6.542   9.960   4.139
37643SOL     OW12952   5.662  10.121   4.513
37643SOL    HW112953   5.761  10.109   4.522
37643SOL    HW212954   5.638  10.216   4.534
37644SOL     OW12955   5.716  11.131   5.295
37644SOL    HW112956   5.706  11.116   5.394
37644SOL    HW212957   5.630  11.167   5.259
37645SOL     OW12958   6.451   9.658   3.919
37645SOL    HW112959   6.510   9.721   3.870
37645SOL    HW212960   6.470   9.564   3.890
37646SOL     OW12961   7.305   9.895   5.555
37646SOL    HW112962   7.279   9.984   5.519
37646SOL    HW212963   7.303   9.827   5.482
37647SOL     OW12964   6.948  10.454   4.269
37647SOL    HW112965   7.031  10.425   4.221
37647SOL    HW212966   6.899  10.521   4.213
37648SOL     OW12967   6.136   9.506   4.609
37648SOL    HW112968   6.131   9.501   4.709
37648SOL    HW212969   6.138   9.602   4.580
37649SOL     OW12970   6.594  10.766   4.201
37649SOL    HW112971   6.548  10.838   4.149
37649SOL    HW212972   6.590  10.786   4.299
37650SOL     OW12973   5.937  11.111   4.577
37650SOL    HW112974   5.987  11.025   4.583
37650SOL    HW212975   6.002  11.188   4.574
37651SOL     OW12976   7.381  10.376   4.597
37651SOL    HW112977   7.319  10.361   4.521
37651SOL    HW212978   7.329  10.387   4.682
37652SOL     OW12979   6.813  10.860   5.230
37652SOL    HW112980   6.819  10.783   5.294
37652SOL    HW212981   6.761  10.834   5.150
37653SOL     OW12982   5.907  10.253   3.966
37653SOL    HW112983   5.989  10.292   3.924
37653SOL    HW212984   5.880  10.171   3.917
37654SOL     OW12985   7.044  10.045   4.452
37654SOL    HW112986   7.039   9.980   4.527
37654SOL    HW212987   7.124  10.104   4.465
37655SOL     OW12988   6.047  10.576   5.451
37655SOL    HW112989   5.997  10.577   5.365
37655SOL    HW212990   5.984  10.558   5.527
37656SOL     OW12991   6.697  11.086   3.961
37656SOL    HW112992   6.637  11.024   4.011
37656SOL    HW212993   6.728  11.042   3.876
37657SOL     OW12994   5.788   9.595   5.222
37657SOL    HW112995   5.708   9.655   5.209
37657SOL    HW212996   5.778   9.546   5.308
37658SOL     OW12997   7.218  10.687   3.805
37658SOL    HW112998   7.186  10.781   3.795
37658SOL    HW212999   7.142  10.624   3.793
37659SOL     OW13000   6.050  11.053   4.047
37659SOL    HW113001   6.083  11.092   4.133
37659SOL    HW213002   6.126  11.046   3.982
37660SOL     OW13003   6.986   9.417   4.150
37660SOL    HW113004   6.962   9.380   4.060
37660SOL    HW213005   7.085   9.433   4.154
37661SOL     OW13006   5.835  11.095   4.965
37661SOL    HW113007   5.892  11.030   5.015
37661SOL    HW213008   5.819  11.062   4.872
37662SOL     OW13009   6.526  11.008   4.628
37662SOL    HW113010   6.606  10.951   4.649
37662SOL    HW213011   6.477  10.968   4.551
37663SOL     OW13012   5.968  10.010   4.204
37663SOL    HW113013   6.013   9.920   4.201
37663SOL    HW213014   5.874   9.999   4.237
37664SOL     OW13015   7.133   9.532   5.453
37664SOL    HW113016   7.128   9.569   5.545
37664SOL    HW213017   7.061   9.463   5.441
37665SOL     OW13018   6.200   9.432   3.841
37665SOL    HW113019   6.298   9.410   3.848
37665SOL    HW213020   6.169   9.415   3.748
37666SOL     OW13021   6.367   9.574   5.473
37666SOL    HW113022   6.434   9.513   5.516
37666SOL    HW213023   6.294   9.593   5.538
37667SOL     OW13024   6.474  10.824   4.919
37667SOL    HW113025   6.451  10.799   4.825
37667SOL    HW213026   6.535  10.755   4.958
37668SOL     OW13027   6.937   9.900   5.157
37668SOL    HW113028   6.965   9.857   5.242
37668SOL    HW213029   6.962   9.996   5.158
37669SOL     OW13030   6.389  10.712   4.648
37669SOL    HW113031   6.479  10.726   4.606
37669SOL    HW213032   6.318  10.714   4.577
37670SOL     OW13033   6.508   9.813   4.623
37670SOL    HW113034   6.483   9.804   4.527
37670SOL    HW213035   6.556   9.731   4.654
37671SOL     OW13036   6.125   9.374   4.236
37671SOL    HW113037   6.044   9.375   4.294
37671SOL    HW213038   6.128   9.457   4.181
37672SOL     OW13039   7.020  10.498   3.765
37672SOL    HW113040   7.052  10.422   3.822
37672SOL    HW213041   6.928  10.525   3.795
37673SOL     OW13042   5.883   9.345   3.895
37673SOL    HW113043   5.932   9.429   3.874
37673SOL    HW213044   5.945   9.280   3.940
37674SOL     OW13045   6.521   9.546   4.204
37674SOL    HW113046   6.473   9.587   4.126
37674SOL    HW213047   6.620   9.544   4.185
37675SOL     OW13048   6.662   9.993   5.188
37675SOL    HW113049   6.582   9.932   5.191
37675SOL    HW213050   6.743   9.940   5.164
37676SOL     OW13051   6.813  10.880   4.517
37676SOL    HW113052   6.834  10.954   4.452
37676SOL    HW213053   6.881  10.880   4.590
37677SOL     OW13054   6.045  10.462   4.465
37677SOL    HW113055   5.974  10.435   4.530
37677SOL    HW213056   6.019  10.434   4.372
37678SOL     OW13057   6.857  11.107   4.315
37678SOL    HW113058   6.901  11.171   4.251
37678SOL    HW213059   6.807  11.159   4.385
37679SOL     OW13060   6.618   9.859   3.740
37679SOL    HW113061   6.577   9.941   3.701
37679SOL    HW213062   6.682   9.885   3.813
37680SOL     OW13063   5.664   9.866   5.110
37680SOL    HW113064   5.756   9.865   5.069
37680SOL    HW213065   5.658   9.940   5.177
37681SOL     OW13066   6.147   9.532   4.871
37681SOL    HW113067   6.185   9.448   4.908
37681SOL    HW213068   6.059   9.551   4.915
37682SOL     OW13069   6.452   9.764   4.366
37682SOL    HW113070   6.420   9.836   4.304
37682SOL    HW213071   6.476   9.683   4.313
37683SOL     OW13072   6.603   9.349   4.477
37683SOL    HW113073   6.531   9.354   4.408
37683SOL    HW213074   6.579   9.280   4.546
37684SOL     OW13075   7.015  10.483   4.591
37684SOL    HW113076   6.960  10.399   4.584
37684SOL    HW213077   7.041  10.512   4.499
37685SOL     OW13078   7.052   9.900   4.716
37685SOL    HW113079   7.022   9.805   4.723
37685SOL    HW213080   7.125   9.916   4.782
37686SOL     OW13081   7.443  10.143   4.101
37686SOL    HW113082   7.485  10.079   4.165
37686SOL    HW213083   7.405  10.092   4.023
37687SOL     OW13084   6.074  10.695   3.898
37687SOL    HW113085   5.987  10.680   3.945
37687SOL    HW213086   6.057  10.721   3.803
37688SOL     OW13087   7.250  10.590   4.381
37688SOL    HW113088   7.349  10.598   4.395
37688SOL    HW213089   7.205  10.674   4.412
37689SOL     OW13090   6.976   9.885   3.802
37689SOL    HW113091   6.922   9.864   3.883
37689SOL    HW213092   7.067   9.844   3.811
37690SOL     OW13093   6.113   9.566   4.052
37690SOL    HW113094   6.140   9.507   3.977
37690SOL    HW213095   6.113   9.661   4.021
37691SOL     OW13096   7.340  10.533   5.312
37691SOL    HW113097   7.431  10.494   5.299
37691SOL    HW213098   7.348  10.629   5.336
37692SOL     OW13099   6.650  10.657   5.064
37692SOL    HW113100   6.570  10.634   5.119
37692SOL    HW213101   6.733  10.631   5.113
37693SOL     OW13102   7.178  10.939   5.349
37693SOL    HW113103   7.205  10.973   5.259
37693SOL    HW213104   7.257  10.901   5.395
37694SOL     OW13105   7.224  10.409   4.803
37694SOL    HW113106   7.229  10.490   4.862
37694SOL    HW213107   7.138  10.411   4.752
37695SOL     OW13108   6.501   9.399   5.126
37695SOL    HW113109   6.526   9.379   5.031
37695SOL    HW213110   6.573   9.455   5.168
37696SOL     OW13111   6.566  10.426   5.443
37696SOL    HW113112   6.467  10.432   5.453
37696SOL    HW213113   6.589  10.346   5.387
37697SOL     OW13114   6.291  10.360   4.092
37697SOL    HW113115   6.277  10.367   4.191
37697SOL    HW213116   6.375  10.309   4.074
37698SOL     OW13117   5.996  10.123   4.975
37698SOL    HW113118   6.082  10.135   5.025
37698SOL    HW213119   5.954  10.036   5.002
37699SOL     OW13120   6.860   9.696   4.986
37699SOL    HW113121   6.881   9.770   5.050
37699SOL    HW213122   6.771   9.713   4.943
37700SOL     OW13123   5.650  10.874   5.055
37700SOL    HW113124   5.604  10.956   5.021
37700SOL    HW213125   5.748  10.893   5.064
37701SOL     OW13126   5.953  10.410   4.225
37701SOL    HW113127   5.946  10.493   4.169
37701SOL    HW213128   5.957  10.330   4.165
37702SOL     OW13129   6.152   9.847   4.589
37702SOL    HW113130   6.164   9.913   4.515
37702SOL    HW213131   6.198   9.881   4.672
37703SOL     OW13132   6.838  10.658   4.112
37703SOL    HW113133   6.888  10.735   4.152
37703SOL    HW213134   6.743  10.660   4.144
37704SOL     OW13135   6.858  10.755   4.866
37704SOL    HW113136   6.905  10.768   4.953
37704SOL    HW213137   6.792  10.681   4.875
37705SOL     OW13138   7.168   9.949   4.196
37705SOL    HW113139   7.137  10.010   4.269
37705SOL    HW213140   7.218  10.001   4.127
37706SOL     OW13141   5.940  10.820   5.053
37706SOL    HW113142   5.919  10.776   4.966
37706SOL    HW213143   6.037  10.846   5.056
37707SOL     OW13144   5.988  10.061   5.322
37707SOL    HW113145   6.056  10.116   5.275
37707SOL    HW213146   6.028   9.973   5.349
37708SOL     OW13147   7.173  10.089   5.394
37708SOL    HW113148   7.081  10.127   5.389
37708SOL    HW213149   7.233  10.136   5.329
37709SOL     OW13150   6.599   9.415   5.494
37709SOL    HW113151   6.605   9.500   5.442
37709SOL    HW213152   6.631   9.339   5.437
37710SOL     OW13153   6.090   9.360   5.464
37710SOL    HW113154   6.048   9.303   5.394
37710SOL    HW213155   6.024   9.429   5.496
37711SOL     OW13156   6.159  10.180   4.753
37711SOL    HW113157   6.203  10.269   4.744
37711SOL    HW213158   6.096  10.180   4.830
37712SOL     OW13159   6.946  10.172   4.769
37712SOL    HW113160   6.871  10.172   4.703
37712SOL    HW213161   6.983  10.080   4.778
37713SOL     OW13162   6.795   9.835   3.999
37713SOL    HW113163   6.808   9.751   4.053
37713SOL    HW213164   6.766   9.909   4.059
37714SOL     OW13165   5.893   9.523   4.955
37714SOL    HW113166   5.870   9.560   5.045
37714SOL    HW213167   5.863   9.428   4.949
37715SOL     OW13168   5.623  10.620   5.006
37715SOL    HW113169   5.676  10.571   5.074
37715SOL    HW213170   5.645  10.718   5.011
37716SOL     OW13171   6.318   9.944   4.788
37716SOL    HW113172   6.377   9.918   4.712
37716SOL    HW213173   6.290  10.040   4.777
37717SOL     OW13174   7.314  10.245   5.578
37717SOL    HW113175   7.268  10.238   5.489
37717SOL    HW213176   7.252  10.289   5.644
37718SOL     OW13177   5.893   9.373   4.342
37718SOL    HW113178   5.882   9.467   4.375
37718SOL    HW213179   5.888   9.310   4.419
37719SOL     OW13180   7.208   9.677   4.098
37719SOL    HW113181   7.210   9.601   4.162
37719SOL    HW213182   7.160   9.754   4.138
37720SOL     OW13183   6.609  10.076   4.690
37720SOL    HW113184   6.624  10.097   4.786
37720SOL    HW213185   6.579   9.981   4.681
37721SOL     OW13186   6.566  10.883   5.424
37721SOL    HW113187   6.546  10.927   5.336
37721SOL    HW213188   6.605  10.792   5.408
37722SOL     OW13189   7.445  10.828   5.329
37722SOL    HW113190   7.459  10.855   5.234
37722SOL    HW213191   7.528  10.850   5.382
37723SOL     OW13192   5.936  10.208   5.528
37723SOL    HW113193   6.012  10.252   5.576
37723SOL    HW213194   5.971  10.161   5.446
37724SOL     OW13195   7.126   9.584   3.849
37724SOL    HW113196   7.065   9.509   3.872
37724SOL    HW213197   7.148   9.636   3.932
37725SOL     OW13198   6.889  10.148   3.766
37725SOL    HW113199   6.923  10.055   3.781
37725SOL    HW213200   6.907  10.175   3.671
37726SOL     OW13201   6.654  10.643   4.573
37726SOL    HW113202   6.661  10.559   4.518
37726SOL    HW213203   6.716  10.712   4.537
37727SOL     OW13204   5.905  10.120   4.673
37727SOL    HW113205   5.998  10.156   4.678
37727SOL    HW213206   5.899  10.035   4.725
37728SOL     OW13207   5.925   9.819   4.730
37728SOL    HW113208   5.873   9.736   4.713
37728SOL    HW213209   6.002   9.824   4.666
37729SOL     OW13210   6.724   9.690   5.402
37729SOL    HW113211   6.679   9.753   5.466
37729SOL    HW213212   6.817   9.721   5.385
37730SOL     OW13213   6.746   9.517   5.201
37730SOL    HW113214   6.746   9.581   5.278
37730SOL    HW213215   6.774   9.565   5.118
37731SOL     OW13216   5.594  10.636   3.924
37731SOL    HW113217   5.501  10.657   3.893
37731SOL    HW213218   5.604  10.537   3.937
37732SOL     OW13219   5.674  11.111   4.651
37732SOL    HW113220   5.632  11.025   4.624
37732SOL    HW213221   5.768  11.114   4.617
37733SOL     OW13222   6.090  10.878   4.634
37733SOL    HW113223   6.156  10.952   4.643
37733SOL    HW213224   6.134  10.799   4.592
37734SOL     OW13225   6.588  10.106   4.962
37734SOL    HW113226   6.629  10.074   5.048
37734SOL    HW213227   6.492  10.079   4.959
37735SOL     OW13228   5.626   9.854   4.838
37735SOL    HW113229   5.711   9.821   4.797
37735SOL    HW213230   5.639   9.869   4.936
37736SOL     OW13231   5.775   9.830   5.446
37736SOL    HW113232   5.834   9.790   5.376
37736SOL    HW213233   5.717   9.901   5.405
37737SOL     OW13234   6.955  10.260   5.384
37737SOL    HW113235   6.994  10.349   5.404
37737SOL    HW213236   6.965  10.240   5.287
37738SOL     OW13237   6.401   9.882   4.049
37738SOL    HW113238   6.408   9.793   4.003
37738SOL    HW213239   6.307   9.916   4.041
37739SOL     OW13240   7.243   9.914   4.930
37739SOL    HW113241   7.205   9.845   4.992
37739SOL    HW213242   7.325   9.878   4.886
37740SOL     OW13243   5.838  10.874   5.468
37740SOL    HW113244   5.808  10.931   5.544
37740SOL    HW213245   5.831  10.777   5.494
37741SOL     OW13246   6.257   9.774   4.993
37741SOL    HW113247   6.223   9.685   4.963
37741SOL    HW213248   6.283   9.828   4.913
37742SOL     OW13249   6.516  10.988   5.189
37742SOL    HW113250   6.492  10.970   5.094
37742SOL    HW213251   6.546  11.082   5.199
37743SOL     OW13252   6.059   9.810   3.915
37743SOL    HW113253   6.120   9.890   3.919
37743SOL    HW213254   5.964   9.841   3.922
37744SOL     OW13255   5.745  10.447   5.190
37744SOL    HW113256   5.767  10.386   5.266
37744SOL    HW213257   5.755  10.398   5.104
37745SOL     OW13258   6.933  10.369   4.958
37745SOL    HW113259   6.957  10.306   4.884
37745SOL    HW213260   6.843  10.409   4.940
37746SOL     OW13261   6.888  10.165   4.033
37746SOL    HW113262   6.802  10.134   4.075
37746SOL    HW213263   6.884  10.151   3.934
37747SOL     OW13264   7.345  11.057   4.878
37747SOL    HW113265   7.406  11.087   4.805
37747SOL    HW213266   7.307  10.968   4.856
37748SOL     OW13267   6.838  11.041   4.852
37748SOL    HW113268   6.922  11.046   4.798
37748SOL    HW213269   6.815  10.945   4.870
37749SOL     OW13270   5.669  10.568   4.746
37749SOL    HW113271   5.664  10.567   4.846
37749SOL    HW213272   5.586  10.527   4.708
37750SOL     OW13273   6.274  10.972   5.440
37750SOL    HW113274   6.218  11.053   5.449
37750SOL    HW213275   6.326  10.976   5.354
37751SOL     OW13276   7.312   9.445   4.247
37751SOL    HW113277   7.385   9.428   4.180
37751SOL    HW213278   7.281   9.358   4.285
37752SOL     OW13279   6.974  10.883   4.201
37752SOL    HW113280   7.041  10.895   4.127
37752SOL    HW213281   6.934  10.972   4.224
37753SOL     OW13282   5.716  11.104   5.575
37753SOL    HW113283   5.675  11.030   5.628
37753SOL    HW213284   5.780  11.155   5.633
37754SOL     OW13285   6.866  10.237   4.396
37754SOL    HW113286   6.926  10.156   4.398
37754SOL    HW213287   6.906  10.306   4.336
37755SOL     OW13288   6.416  10.583   5.146
37755SOL    HW113289   6.411  10.616   5.241
37755SOL    HW213290   6.330  10.602   5.100
37756SOL     OW13291   6.258  10.926   3.878
37756SOL    HW113292   6.267  10.936   3.779
37756SOL    HW213293   6.218  10.837   3.899
37757SOL     OW13294   7.236  11.030   5.118
37757SOL    HW113295   7.289  11.040   5.034
37757SOL    HW213296   7.209  11.120   5.152
37758SOL     OW13297   7.427   9.485   4.687
37758SOL    HW113298   7.466   9.400   4.651
37758SOL    HW213299   7.329   9.487   4.668
37759SOL     OW13300   5.849   9.636   4.444
37759SOL    HW113301   5.770   9.687   4.410
37759SOL    HW213302   5.840   9.621   4.542
37760SOL     OW13303   6.780  10.922   3.755
37760SOL    HW113304   6.786  10.829   3.792
37760SOL    HW213305   6.721  10.922   3.675
37761SOL     OW13306   6.408  10.312   5.096
37761SOL    HW113307   6.448  10.311   5.004
37761SOL    HW213308   6.418  10.404   5.136
37762SOL     OW13309   6.502  10.220   4.015
37762SOL    HW113310   6.565  10.258   3.947
37762SOL    HW213311   6.542  10.137   4.054
37763SOL     OW13312   7.090  10.917   3.768
37763SOL    HW113313   6.998  10.954   3.775
37763SOL    HW213314   7.128  10.937   3.678
37764SOL     OW13315   5.958  10.598   5.214
37764SOL    HW113316   5.945  10.691   5.180
37764SOL    HW213317   5.874  10.546   5.201
37765SOL     OW13318   7.200  10.602   5.013
37765SOL    HW113319   7.260  10.605   5.093
37765SOL    HW213320   7.125  10.666   5.026
37766SOL     OW13321   6.625  10.408   4.420
37766SOL    HW113322   6.555  10.361   4.474
37766SOL    HW213323   6.684  10.340   4.377
37767SOL     OW13324   6.600   9.546   4.695
37767SOL    HW113325   6.592   9.510   4.602
37767SOL    HW213326   6.598   9.470   4.760
37768SOL     OW13327   6.176  10.797   4.215
37768SOL    HW113328   6.218  10.739   4.145
37768SOL    HW213329   6.132  10.876   4.171
37769SOL     OW13330   7.295   9.695   5.105
37769SOL    HW113331   7.368   9.764   5.109
37769SOL    HW213332   7.323   9.620   5.046
37770SOL     OW13333   5.841  10.658   4.014
37770SOL    HW113334   5.745  10.659   3.987
37770SOL    HW213335   5.853  10.711   4.098
37771SOL     OW13336   5.691  10.323   5.450
37771SOL    HW113337   5.614  10.290   5.504
37771SOL    HW213338   5.776  10.293   5.492
37772SOL     OW13339   6.258   9.513   5.213
37772SOL    HW113340   6.348   9.497   5.173
37772SOL    HW213341   6.266   9.518   5.312
37773SOL     OW13342   5.661   9.655   3.757
37773SOL    HW113343   5.569   9.627   3.728
37773SOL    HW213344   5.692   9.732   3.701
37774SOL     OW13345   7.026  10.166   5.122
37774SOL    HW113346   6.969  10.218   5.059
37774SOL    HW213347   7.122  10.178   5.098
37775SOL     OW13348   5.658   9.476   4.042
37775SOL    HW113349   5.641   9.559   3.988
37775SOL    HW213350   5.748   9.439   4.020
37776SOL     OW13351   6.769  10.645   3.843
37776SOL    HW113352   6.670  10.634   3.845
37776SOL    HW213353   6.803  10.660   3.936
37777SOL     OW13354   6.199  10.152   5.155
37777SOL    HW113355   6.255  10.233   5.138
37777SOL    HW213356   6.258  10.072   5.158
37778SOL     OW13357   7.079  11.077   4.683
37778SOL    HW113358   7.112  11.141   4.614
37778SOL    HW213359   7.145  11.071   4.758
37779SOL     OW13360   6.302   9.875   5.432
37779SOL    HW113361   6.321   9.940   5.506
37779SOL    HW213362   6.362   9.795   5.441
37780SOL     OW13363   7.036  10.530   5.357
37780SOL    HW113364   7.027  10.520   5.456
37780SOL    HW213365   7.132  10.523   5.331
37781SOL     OW13366   5.976  11.051   5.284
37781SOL    HW113367   5.885  11.092   5.282
37781SOL    HW213368   5.969  10.957   5.316
37782SOL     OW13369   7.260  10.193   4.978
37782SOL    HW113370   7.233  10.104   4.941
37782SOL    HW213371   7.261  10.261   4.905
37783SOL     OW13372   6.811   9.635   4.173
37783SOL    HW113373   6.876   9.561   4.162
37783SOL    HW213374   6.831   9.685   4.257
37784SOL     OW13375   6.180  10.055   4.376
37784SOL    HW113376   6.230  10.140   4.357
37784SOL    HW213377   6.092  10.057   4.328
37785SOL     OW13378   7.363   9.652   5.366
37785SOL    HW113379   7.346   9.683   5.272
37785SOL    HW213380   7.279   9.615   5.404
37786SOL     OW13381   7.316  10.244   5.241
37786SOL    HW113382   7.354  10.335   5.256
37786SOL    HW213383   7.308  10.227   5.142
37787SOL     OW13384   6.445  10.684   3.740
37787SOL    HW113385   6.399  10.699   3.828
37787SOL    HW213386   6.489  10.769   3.710
37788SOL     OW13387   6.247  11.100   4.677
37788SOL    HW113388   6.201  11.188   4.664
37788SOL    HW213389   6.346  11.112   4.670
37789SOL     OW13390   6.445  10.266   4.585
37789SOL    HW113391   6.499  10.197   4.633
37789SOL    HW213392   6.413  10.335   4.651
37790SOL     OW13393   6.669  10.294   3.811
37790SOL    HW113394   6.646  10.347   3.729
37790SOL    HW213395   6.750  10.238   3.792
37791SOL     OW13396   7.447  10.879   4.575
37791SOL    HW113397   7.376  10.867   4.505
37791SOL    HW213398   7.448  10.800   4.635
37792SOL     OW13399   5.807  10.624   5.568
37792SOL    HW113400   5.742  10.551   5.547
37792SOL    HW213401   5.811  10.638   5.666
37793SOL     OW13402   5.665  10.550   4.377
37793SOL    HW113403   5.664  10.503   4.465
37793SOL    HW213404   5.747  10.522   4.326
37794SOL     OW13405   6.258  10.701   5.348
37794SOL    HW113406   6.180  10.651   5.386
37794SOL    HW213407   6.255  10.796   5.379
37795SOL     OW13408   7.410   9.502   4.951
37795SOL    HW113409   7.406   9.412   4.995
37795SOL    HW213410   7.413   9.491   4.852
37796SOL     OW13411   6.014   9.734   4.244
37796SOL    HW113412   6.044   9.662   4.182
37796SOL    HW213413   5.975   9.694   4.327
37797SOL     OW13414   7.291  10.797   4.828
37797SOL    HW113415   7.198  10.772   4.801
37797SOL    HW213416   7.317  10.747   4.910
37798SOL     OW13417   5.903   9.857   5.004
37798SOL    HW113418   5.941   9.798   5.076
37798SOL    HW213419   5.943   9.831   4.916
37799SOL     OW13420   6.398  10.896   4.411
37799SOL    HW113421   6.430  10.906   4.317
37799SOL    HW213422   6.319  10.834   4.413
37800SOL     OW13423   7.010   9.524   4.836
37800SOL    HW113424   7.062   9.459   4.891
37800SOL    HW213425   6.961   9.587   4.897
37801SOL     OW13426   6.587   9.344   4.878
37801SOL    HW113427   6.524   9.272   4.847
37801SOL    HW213428   6.680   9.308   4.878
37802SOL     OW13429   6.356  10.640   4.025
37802SOL    HW113430   6.310  10.553   4.042
37802SOL    HW213431   6.447  10.637   4.066
37803SOL     OW13432   6.204  10.877   5.008
37803SOL    HW113433   6.199  10.959   5.065
37803SOL    HW213434   6.293  10.874   4.963
37804SOL     OW13435   6.938   9.362   3.892
37804SOL    HW113436   6.973   9.321   3.808
37804SOL    HW213437   6.848   9.324   3.912
37805SOL     OW13438   6.886   9.763   4.415
37805SOL    HW113439   6.827   9.843   4.419
37805SOL    HW213440   6.901   9.728   4.508
37806SOL     OW13441   7.179   9.531   4.606
37806SOL    HW113442   7.095   9.530   4.660
37806SOL    HW213443   7.181   9.614   4.550
37807SOL     OW13444   5.625  10.387   4.024
37807SOL    HW113445   5.724  10.376   4.015
37807SOL    HW213446   5.585  10.301   4.056
37808SOL     OW13447   6.461  10.956   4.061
37808SOL    HW113448   6.384  10.921   4.007
37808SOL    HW213449   6.429  11.027   4.123
37809SOL     OW13450   5.816   9.938   5.699
37809SOL    HW113451   5.723   9.936   5.736
37809SOL    HW213452   5.817   9.899   5.607
37810SOL     OW13453   5.811   9.585   6.582
37810SOL    HW113454   5.846   9.568   6.674
37810SOL    HW213455   5.723   9.540   6.570
37811SOL     OW13456   5.605   9.678   6.233
37811SOL    HW113457   5.523   9.721   6.272
37811SOL    HW213458   5.577   9.605   6.170
37812SOL     OW13459   6.155  10.585   6.751
37812SOL    HW113460   6.062  10.578   6.714
37812SOL    HW213461   6.166  10.674   6.795
37813SOL     OW13462   7.141  10.821   6.289
37813SOL    HW113463   7.084  10.805   6.370
37813SOL    HW213464   7.082  10.831   6.209
37814SOL     OW13465   6.721  10.013   6.303
37814SOL    HW113466   6.778  10.091   6.278
37814SOL    HW213467   6.661  10.039   6.379
37815SOL     OW13468   7.341   9.917   5.817
37815SOL    HW113469   7.329   9.904   5.718
37815SOL    HW213470   7.311   9.836   5.866
37816SOL     OW13471   6.354  10.454   6.609
37816SOL    HW113472   6.276  10.471   6.669
37816SOL    HW213473   6.388  10.541   6.573
37817SOL     OW13474   6.436  10.108   7.409
37817SOL    HW113475   6.432  10.184   7.474
37817SOL    HW213476   6.458  10.144   7.318
37818SOL     OW13477   6.271  10.322   6.251
37818SOL    HW113478   6.340  10.306   6.321
37818SOL    HW213479   6.198  10.379   6.289
37819SOL     OW13480   6.272  10.471   7.389
37819SOL    HW113481   6.332  10.550   7.403
37819SOL    HW213482   6.186  10.502   7.348
37820SOL     OW13483   5.921  10.745   6.647
37820SOL    HW113484   5.843  10.714   6.594
37820SOL    HW213485   5.979  10.803   6.590
37821SOL     OW13486   7.046  10.815   6.925
37821SOL    HW113487   7.070  10.909   6.951
37821SOL    HW213488   7.030  10.761   7.007
37822SOL     OW13489   6.024   9.702   7.085
37822SOL    HW113490   6.106   9.646   7.094
37822SOL    HW213491   5.943   9.644   7.089
37823SOL     OW13492   7.189   9.757   6.323
37823SOL    HW113493   7.115   9.803   6.273
37823SOL    HW213494   7.240   9.825   6.376
37824SOL     OW13495   5.817  11.023   6.069
37824SOL    HW113496   5.851  11.100   6.123
37824SOL    HW213497   5.861  11.023   5.979
37825SOL     OW13498   6.713  10.651   7.276
37825SOL    HW113499   6.760  10.651   7.364
37825SOL    HW213500   6.665  10.564   7.265
37826SOL     OW13501   5.816  10.744   6.124
37826SOL    HW113502   5.790  10.840   6.124
37826SOL    HW213503   5.745  10.690   6.169
37827SOL     OW13504   5.826  10.401   6.472
37827SOL    HW113505   5.840  10.317   6.524
37827SOL    HW213506   5.771  10.465   6.527
37828SOL     OW13507   6.206  11.096   7.025
37828SOL    HW113508   6.114  11.079   7.060
37828SOL    HW213509   6.234  11.188   7.051
37829SOL     OW13510   6.192  10.274   5.709
37829SOL    HW113511   6.199  10.358   5.655
37829SOL    HW213512   6.238  10.287   5.797
37830SOL     OW13513   7.180   9.424   7.066
37830SOL    HW113514   7.162   9.491   6.994
37830SOL    HW213515   7.177   9.470   7.155
37831SOL     OW13516   5.708   9.953   6.149
37831SOL    HW113517   5.663   9.865   6.166
37831SOL    HW213518   5.707  10.007   6.233
37832SOL     OW13519   7.428  11.077   5.945
37832SOL    HW113520   7.482  11.048   6.025
37832SOL    HW213521   7.458  11.167   5.916
37833SOL     OW13522   5.613  10.906   5.703
37833SOL    HW113523   5.594  10.810   5.724
37833SOL    HW213524   5.580  10.964   5.778
37834SOL     OW13525   7.275  10.232   6.198
37834SOL    HW113526   7.370  10.203   6.206
37834SOL    HW213527   7.267  10.297   6.123
37835SOL     OW13528   7.227  10.418   6.018
37835SOL    HW113529   7.313  10.420   5.966
37835SOL    HW213530   7.241  10.465   6.106
37836SOL     OW13531   5.699  10.047   7.183
37836SOL    HW113532   5.787  10.034   7.228
37836SOL    HW213533   5.686  10.144   7.161
37837SOL     OW13534   6.199  10.675   6.312
37837SOL    HW113535   6.150  10.588   6.321
37837SOL    HW213536   6.176  10.718   6.225
37838SOL     OW13537   6.879  10.538   7.009
37838SOL    HW113538   6.916  10.465   6.951
37838SOL    HW213539   6.931  10.543   7.094
37839SOL     OW13540   6.395   9.314   6.088
37839SOL    HW113541   6.435   9.405   6.079
37839SOL    HW213542   6.295   9.322   6.094
37840SOL     OW13543   5.783  10.286   6.850
37840SOL    HW113544   5.872  10.241   6.836
37840SOL    HW213545   5.710  10.221   6.831
37841SOL     OW13546   7.111  10.309   5.776
37841SOL    HW113547   7.048  10.233   5.789
37841SOL    HW213548   7.159  10.327   5.862
37842SOL     OW13549   6.773  11.102   7.202
37842SOL    HW113550   6.797  11.162   7.126
37842SOL    HW213551   6.780  11.007   7.172
37843SOL     OW13552   5.903   9.561   7.387
37843SOL    HW113553   5.974   9.632   7.393
37843SOL    HW213554   5.815   9.600   7.415
37844SOL     OW13555   7.052  10.727   6.539
37844SOL    HW113556   6.993  10.733   6.619
37844SOL    HW213557   7.037  10.639   6.493
37845SOL     OW13558   7.253  11.024   6.158
37845SOL    HW113559   7.212  11.001   6.070
37845SOL    HW213560   7.235  10.950   6.223
37846SOL     OW13561   6.184  10.039   5.856
37846SOL    HW113562   6.208  10.108   5.788
37846SOL    HW213563   6.106  10.072   5.910
37847SOL     OW13564   6.867   9.655   6.530
37847SOL    HW113565   6.781   9.605   6.517
37847SOL    HW213566   6.929   9.601   6.586
37848SOL     OW13567   7.162  10.972   5.893
37848SOL    HW113568   7.251  11.018   5.896
37848SOL    HW213569   7.141  10.948   5.798
37849SOL     OW13570   6.393   9.915   7.051
37849SOL    HW113571   6.346   9.912   7.140
37849SOL    HW213572   6.342   9.860   6.985
37850SOL     OW13573   6.980   9.779   7.260
37850SOL    HW113574   6.960   9.822   7.348
37850SOL    HW213575   7.058   9.717   7.269
37851SOL     OW13576   6.559  10.200   7.158
37851SOL    HW113577   6.605  10.116   7.129
37851SOL    HW213578   6.503  10.234   7.083
37852SOL     OW13579   6.577   9.720   6.828
37852SOL    HW113580   6.500   9.754   6.882
37852SOL    HW213581   6.543   9.669   6.749
37853SOL     OW13582   6.627  10.011   6.015
37853SOL    HW113583   6.653  10.007   6.111
37853SOL    HW213584   6.542   9.960   6.001
37854SOL     OW13585   5.662  10.121   6.375
37854SOL    HW113586   5.761  10.109   6.384
37854SOL    HW213587   5.638  10.216   6.396
37855SOL     OW13588   5.716  11.131   7.157
37855SOL    HW113589   5.706  11.116   7.256
37855SOL    HW213590   5.630  11.167   7.121
37856SOL     OW13591   6.451   9.658   5.781
37856SOL    HW113592   6.510   9.721   5.732
37856SOL    HW213593   6.470   9.564   5.752
37857SOL     OW13594   7.305   9.895   7.417
37857SOL    HW113595   7.279   9.984   7.381
37857SOL    HW213596   7.303   9.827   7.344
37858SOL     OW13597   6.948  10.454   6.131
37858SOL    HW113598   7.031  10.425   6.083
37858SOL    HW213599   6.899  10.521   6.075
37859SOL     OW13600   6.136   9.506   6.471
37859SOL    HW113601   6.131   9.501   6.571
37859SOL    HW213602   6.138   9.602   6.442
37860SOL     OW13603   6.594  10.766   6.063
37860SOL    HW113604   6.548  10.838   6.011
37860SOL    HW213605   6.590  10.786   6.161
37861SOL     OW13606   5.937  11.111   6.439
37861SOL    HW113607   5.987  11.025   6.445
37861SOL    HW213608   6.002  11.188   6.436
37862SOL     OW13609   7.381  10.376   6.459
37862SOL    HW113610   7.319  10.361   6.383
37862SOL    HW213611   7.329  10.387   6.544
37863SOL     OW13612   6.813  10.860   7.092
37863SOL    HW113613   6.819  10.783   7.156
37863SOL    HW213614   6.761  10.834   7.012
37864SOL     OW13615   5.907  10.253   5.828
37864SOL    HW113616   5.989  10.292   5.786
37864SOL    HW213617   5.880  10.171   5.779
37865SOL     OW13618   7.044  10.045   6.314
37865SOL    HW113619   7.039   9.980   6.389
37865SOL    HW213620   7.124  10.104   6.327
37866SOL     OW13621   6.047  10.576   7.313
37866SOL    HW113622   5.997  10.577   7.227
37866SOL    HW213623   5.984  10.558   7.389
37867SOL     OW13624   6.697  11.086   5.823
37867SOL    HW113625   6.637  11.024   5.873
37867SOL    HW213626   6.728  11.042   5.738
37868SOL     OW13627   5.788   9.595   7.084
37868SOL    HW113628   5.708   9.655   7.071
37868SOL    HW213629   5.778   9.546   7.170
37869SOL     OW13630   7.218  10.687   5.667
37869SOL    HW113631   7.186  10.781   5.657
37869SOL    HW213632   7.142  10.624   5.655
37870SOL     OW13633   6.050  11.053   5.909
37870SOL    HW113634   6.083  11.092   5.995
37870SOL    HW213635   6.126  11.046   5.844
37871SOL     OW13636   5.835  11.095   6.827
37871SOL    HW113637   5.892  11.030   6.877
37871SOL    HW213638   5.819  11.062   6.734
37872SOL     OW13639   6.526  11.008   6.490
37872SOL    HW113640   6.606  10.951   6.511
37872SOL    HW213641   6.477  10.968   6.413
37873SOL     OW13642   5.968  10.010   6.066
37873SOL    HW113643   6.013   9.920   6.063
37873SOL    HW213644   5.874   9.999   6.099
37874SOL     OW13645   7.133   9.532   7.315
37874SOL    HW113646   7.128   9.569   7.407
37874SOL    HW213647   7.061   9.463   7.303
37875SOL     OW13648   6.200   9.432   5.703
37875SOL    HW113649   6.298   9.410   5.710
37875SOL    HW213650   6.169   9.415   5.610
37876SOL     OW13651   6.367   9.574   7.335
37876SOL    HW113652   6.434   9.513   7.378
37876SOL    HW213653   6.294   9.593   7.400
37877SOL     OW13654   6.474  10.824   6.781
37877SOL    HW113655   6.451  10.799   6.687
37877SOL    HW213656   6.535  10.755   6.820
37878SOL     OW13657   6.937   9.900   7.019
37878SOL    HW113658   6.965   9.857   7.104
37878SOL    HW213659   6.962   9.996   7.020
37879SOL     OW13660   6.389  10.712   6.510
37879SOL    HW113661   6.479  10.726   6.468
37879SOL    HW213662   6.318  10.714   6.439
37880SOL     OW13663   6.508   9.813   6.485
37880SOL    HW113664   6.483   9.804   6.389
37880SOL    HW213665   6.556   9.731   6.516
37881SOL     OW13666   6.125   9.374   6.098
37881SOL    HW113667   6.044   9.375   6.156
37881SOL    HW213668   6.128   9.457   6.043
37882SOL     OW13669   7.020  10.498   5.627
37882SOL    HW113670   7.052  10.422   5.684
37882SOL    HW213671   6.928  10.525   5.657
37883SOL     OW13672   5.883   9.345   5.757
37883SOL    HW113673   5.932   9.429   5.736
37883SOL    HW213674   5.945   9.280   5.802
37884SOL     OW13675   6.521   9.546   6.066
37884SOL    HW113676   6.473   9.587   5.988
37884SOL    HW213677   6.620   9.544   6.047
37885SOL     OW13678   6.662   9.993   7.050
37885SOL    HW113679   6.582   9.932   7.053
37885SOL    HW213680   6.743   9.940   7.026
37886SOL     OW13681   6.813  10.880   6.379
37886SOL    HW113682   6.834  10.954   6.314
37886SOL    HW213683   6.881  10.880   6.452
37887SOL     OW13684   6.045  10.462   6.327
37887SOL    HW113685   5.974  10.435   6.392
37887SOL    HW213686   6.019  10.434   6.234
37888SOL     OW13687   6.857  11.107   6.177
37888SOL    HW113688   6.901  11.171   6.113
37888SOL    HW213689   6.807  11.159   6.247
37889SOL     OW13690   6.618   9.859   5.602
37889SOL    HW113691   6.577   9.941   5.563
37889SOL    HW213692   6.682   9.885   5.675
37890SOL     OW13693   5.664   9.866   6.972
37890SOL    HW113694   5.756   9.865   6.931
37890SOL    HW213695   5.658   9.940   7.039
37891SOL     OW13696   6.147   9.532   6.733
37891SOL    HW113697   6.185   9.448   6.770
37891SOL    HW213698   6.059   9.551   6.777
37892SOL     OW13699   6.452   9.764   6.228
37892SOL    HW113700   6.420   9.836   6.166
37892SOL    HW213701   6.476   9.683   6.175
37893SOL     OW13702   6.603   9.349   6.339
37893SOL    HW113703   6.531   9.354   6.270
37893SOL    HW213704   6.579   9.280   6.408
37894SOL     OW13705   7.015  10.483   6.453
37894SOL    HW113706   6.960  10.399   6.446
37894SOL    HW213707   7.041  10.512   6.361
37895SOL     OW13708   7.052   9.900   6.578
37895SOL    HW113709   7.022   9.805   6.585
37895SOL    HW213710   7.125   9.916   6.644
37896SOL     OW13711   7.443  10.143   5.963
37896SOL    HW113712   7.485  10.079   6.027
37896SOL    HW213713   7.405  10.092   5.885
37897SOL     OW13714   6.074  10.695   5.760
37897SOL    HW113715   5.987  10.680   5.807
37897SOL    HW213716   6.057  10.721   5.665
37898SOL     OW13717   7.250  10.590   6.243
37898SOL    HW113718   7.349  10.598   6.257
37898SOL    HW213719   7.205  10.674   6.274
37899SOL     OW13720   6.976   9.885   5.664
37899SOL    HW113721   6.922   9.864   5.745
37899SOL    HW213722   7.067   9.844   5.673
37900SOL     OW13723   6.113   9.566   5.914
37900SOL    HW113724   6.140   9.507   5.839
37900SOL    HW213725   6.113   9.661   5.883
37901SOL     OW13726   7.340  10.533   7.174
37901SOL    HW113727   7.431  10.494   7.161
37901SOL    HW213728   7.348  10.629   7.198
37902SOL     OW13729   6.650  10.657   6.926
37902SOL    HW113730   6.570  10.634   6.981
37902SOL    HW213731   6.733  10.631   6.975
37903SOL     OW13732   7.178  10.939   7.211
37903SOL    HW113733   7.205  10.973   7.121
37903SOL    HW213734   7.257  10.901   7.257
37904SOL     OW13735   6.697  10.505   6.686
37904SOL    HW113736   6.657  10.549   6.767
37904SOL    HW213737   6.656  10.542   6.603
37905SOL     OW13738   7.224  10.409   6.665
37905SOL    HW113739   7.229  10.490   6.724
37905SOL    HW213740   7.138  10.411   6.614
37906SOL     OW13741   6.501   9.399   6.988
37906SOL    HW113742   6.526   9.379   6.893
37906SOL    HW213743   6.573   9.455   7.030
37907SOL     OW13744   6.566  10.426   7.305
37907SOL    HW113745   6.467  10.432   7.315
37907SOL    HW213746   6.589  10.346   7.249
37908SOL     OW13747   5.996  10.123   6.837
37908SOL    HW113748   6.082  10.135   6.887
37908SOL    HW213749   5.954  10.036   6.864
37909SOL     OW13750   6.860   9.696   6.848
37909SOL    HW113751   6.881   9.770   6.912
37909SOL    HW213752   6.771   9.713   6.805
37910SOL     OW13753   5.650  10.874   6.917
37910SOL    HW113754   5.604  10.956   6.883
37910SOL    HW213755   5.748  10.893   6.926
37911SOL     OW13756   5.953  10.410   6.087
37911SOL    HW113757   5.946  10.493   6.031
37911SOL    HW213758   5.957  10.330   6.027
37912SOL     OW13759   6.152   9.847   6.451
37912SOL    HW113760   6.164   9.913   6.377
37912SOL    HW213761   6.198   9.881   6.534
37913SOL     OW13762   6.838  10.658   5.974
37913SOL    HW113763   6.888  10.735   6.014
37913SOL    HW213764   6.743  10.660   6.006
37914SOL     OW13765   6.858  10.755   6.728
37914SOL    HW113766   6.905  10.768   6.815
37914SOL    HW213767   6.792  10.681   6.737
37915SOL     OW13768   7.168   9.949   6.058
37915SOL    HW113769   7.137  10.010   6.131
37915SOL    HW213770   7.218  10.001   5.989
37916SOL     OW13771   5.940  10.820   6.915
37916SOL    HW113772   5.919  10.776   6.828
37916SOL    HW213773   6.037  10.846   6.918
37917SOL     OW13774   5.988  10.061   7.184
37917SOL    HW113775   6.056  10.116   7.137
37917SOL    HW213776   6.028   9.973   7.211
37918SOL     OW13777   7.173  10.089   7.256
37918SOL    HW113778   7.081  10.127   7.251
37918SOL    HW213779   7.233  10.136   7.191
37919SOL     OW13780   6.599   9.415   7.356
37919SOL    HW113781   6.605   9.500   7.304
37919SOL    HW213782   6.631   9.339   7.299
37920SOL     OW13783   6.090   9.360   7.326
37920SOL    HW113784   6.048   9.303   7.256
37920SOL    HW213785   6.024   9.429   7.358
37921SOL     OW13786   6.159  10.180   6.615
37921SOL    HW113787   6.203  10.269   6.606
37921SOL    HW213788   6.096  10.180   6.692
37922SOL     OW13789   6.946  10.172   6.631
37922SOL    HW113790   6.871  10.172   6.565
37922SOL    HW213791   6.983  10.080   6.640
37923SOL     OW13792   6.795   9.835   5.861
37923SOL    HW113793   6.808   9.751   5.915
37923SOL    HW213794   6.766   9.909   5.921
37924SOL     OW13795   5.893   9.523   6.817
37924SOL    HW113796   5.870   9.560   6.907
37924SOL    HW213797   5.863   9.428   6.811
37925SOL     OW13798   5.623  10.620   6.868
37925SOL    HW113799   5.676  10.571   6.936
37925SOL    HW213800   5.645  10.718   6.873
37926SOL     OW13801   6.318   9.944   6.650
37926SOL    HW113802   6.377   9.918   6.574
37926SOL    HW213803   6.290  10.040   6.639
37927SOL     OW13804   7.314  10.245   7.440
37927SOL    HW113805   7.268  10.238   7.351
37927SOL    HW213806   7.252  10.289   7.506
37928SOL     OW13807   5.893   9.373   6.204
37928SOL    HW113808   5.882   9.467   6.237
37928SOL    HW213809   5.888   9.310   6.281
37929SOL     OW13810   7.208   9.677   5.960
37929SOL    HW113811   7.210   9.601   6.024
37929SOL    HW213812   7.160   9.754   6.000
37930SOL     OW13813   6.609  10.076   6.552
37930SOL    HW113814   6.624  10.097   6.648
37930SOL    HW213815   6.579   9.981   6.543
37931SOL     OW13816   6.566  10.883   7.286
37931SOL    HW113817   6.546  10.927   7.198
37931SOL    HW213818   6.605  10.792   7.270
37932SOL     OW13819   7.445  10.828   7.191
37932SOL    HW113820   7.459  10.855   7.096
37932SOL    HW213821   7.528  10.850   7.244
37933SOL     OW13822   5.936  10.208   7.390
37933SOL    HW113823   6.012  10.252   7.438
37933SOL    HW213824   5.971  10.161   7.308
37934SOL     OW13825   7.126   9.584   5.711
37934SOL    HW113826   7.065   9.509   5.734
37934SOL    HW213827   7.148   9.636   5.794
37935SOL     OW13828   6.889  10.148   5.628
37935SOL    HW113829   6.923  10.055   5.643
37935SOL    HW213830   6.907  10.175   5.533
37936SOL     OW13831   6.654  10.643   6.435
37936SOL    HW113832   6.661  10.559   6.380
37936SOL    HW213833   6.716  10.712   6.399
37937SOL     OW13834   5.905  10.120   6.535
37937SOL    HW113835   5.998  10.156   6.540
37937SOL    HW213836   5.899  10.035   6.587
37938SOL     OW13837   5.925   9.819   6.592
37938SOL    HW113838   5.873   9.736   6.575
37938SOL    HW213839   6.002   9.824   6.528
37939SOL     OW13840   6.724   9.690   7.264
37939SOL    HW113841   6.679   9.753   7.328
37939SOL    HW213842   6.817   9.721   7.247
37940SOL     OW13843   6.746   9.517   7.063
37940SOL    HW113844   6.746   9.581   7.140
37940SOL    HW213845   6.774   9.565   6.980
37941SOL     OW13846   5.594  10.636   5.786
37941SOL    HW113847   5.501  10.657   5.755
37941SOL    HW213848   5.604  10.537   5.799
37942SOL     OW13849   5.674  11.111   6.513
37942SOL    HW113850   5.632  11.025   6.486
37942SOL    HW213851   5.768  11.114   6.479
37943SOL     OW13852   6.090  10.878   6.496
37943SOL    HW113853   6.156  10.952   6.505
37943SOL    HW213854   6.134  10.799   6.454
37944SOL     OW13855   6.588  10.106   6.824
37944SOL    HW113856   6.629  10.074   6.910
37944SOL    HW213857   6.492  10.079   6.821
37945SOL     OW13858   5.626   9.854   6.700
37945SOL    HW113859   5.711   9.821   6.659
37945SOL    HW213860   5.639   9.869   6.798
37946SOL     OW13861   5.775   9.830   7.308
37946SOL    HW113862   5.834   9.790   7.238
37946SOL    HW213863   5.717   9.901   7.267
37947SOL     OW13864   6.955  10.260   7.246
37947SOL    HW113865   6.994  10.349   7.266
37947SOL    HW213866   6.965  10.240   7.149
37948SOL     OW13867   6.401   9.882   5.911
37948SOL    HW113868   6.408   9.793   5.865
37948SOL    HW213869   6.307   9.916   5.903
37949SOL     OW13870   7.243   9.914   6.792
37949SOL    HW113871   7.205   9.845   6.854
37949SOL    HW213872   7.325   9.878   6.748
37950SOL     OW13873   5.838  10.874   7.330
37950SOL    HW113874   5.808  10.931   7.406
37950SOL    HW213875   5.831  10.777   7.356
37951SOL     OW13876   6.257   9.774   6.855
37951SOL    HW113877   6.223   9.685   6.825
37951SOL    HW213878   6.283   9.828   6.775
37952SOL     OW13879   6.516  10.988   7.051
37952SOL    HW113880   6.492  10.970   6.956
37952SOL    HW213881   6.546  11.082   7.061
37953SOL     OW13882   6.059   9.810   5.777
37953SOL    HW113883   6.120   9.890   5.781
37953SOL    HW213884   5.964   9.841   5.784
37954SOL     OW13885   5.745  10.447   7.052
37954SOL    HW113886   5.767  10.386   7.128
37954SOL    HW213887   5.755  10.398   6.966
37955SOL     OW13888   6.933  10.369   6.820
37955SOL    HW113889   6.957  10.306   6.746
37955SOL    HW213890   6.843  10.409   6.802
37956SOL     OW13891   6.888  10.165   5.895
37956SOL    HW113892   6.802  10.134   5.937
37956SOL    HW213893   6.884  10.151   5.796
37957SOL     OW13894   7.345  11.057   6.740
37957SOL    HW113895   7.406  11.087   6.667
37957SOL    HW213896   7.307  10.968   6.718
37958SOL     OW13897   6.838  11.041   6.714
37958SOL    HW113898   6.922  11.046   6.660
37958SOL    HW213899   6.815  10.945   6.732
37959SOL     OW13900   5.669  10.568   6.608
37959SOL    HW113901   5.664  10.567   6.708
37959SOL    HW213902   5.586  10.527   6.570
37960SOL     OW13903   6.274  10.972   7.302
37960SOL    HW113904   6.218  11.053   7.311
37960SOL    HW213905   6.326  10.976   7.216
37961SOL     OW13906   7.312   9.445   6.109
37961SOL    HW113907   7.385   9.428   6.042
37961SOL    HW213908   7.281   9.358   6.147
37962SOL     OW13909   6.974  10.883   6.063
37962SOL    HW113910   7.041  10.895   5.989
37962SOL    HW213911   6.934  10.972   6.086
37963SOL     OW13912   5.716  11.104   7.437
37963SOL    HW113913   5.675  11.030   7.490
37963SOL    HW213914   5.780  11.155   7.495
37964SOL     OW13915   6.866  10.237   6.258
37964SOL    HW113916   6.926  10.156   6.260
37964SOL    HW213917   6.906  10.306   6.198
37965SOL     OW13918   6.416  10.583   7.008
37965SOL    HW113919   6.411  10.616   7.103
37965SOL    HW213920   6.330  10.602   6.962
37966SOL     OW13921   6.258  10.926   5.740
37966SOL    HW113922   6.267  10.936   5.641
37966SOL    HW213923   6.218  10.837   5.761
37967SOL     OW13924   7.236  11.030   6.980
37967SOL    HW113925   7.289  11.040   6.896
37967SOL    HW213926   7.209  11.120   7.014
37968SOL     OW13927   7.427   9.485   6.549
37968SOL    HW113928   7.466   9.400   6.513
37968SOL    HW213929   7.329   9.487   6.530
37969SOL     OW13930   5.849   9.636   6.306
37969SOL    HW113931   5.770   9.687   6.272
37969SOL    HW213932   5.840   9.621   6.404
37970SOL     OW13933   6.780  10.922   5.617
37970SOL    HW113934   6.786  10.829   5.654
37970SOL    HW213935   6.721  10.922   5.537
37971SOL     OW13936   6.408  10.312   6.958
37971SOL    HW113937   6.448  10.311   6.866
37971SOL    HW213938   6.418  10.404   6.998
37972SOL     OW13939   6.502  10.220   5.877
37972SOL    HW113940   6.565  10.258   5.809
37972SOL    HW213941   6.542  10.137   5.916
37973SOL     OW13942   7.090  10.917   5.630
37973SOL    HW113943   6.998  10.954   5.637
37973SOL    HW213944   7.128  10.937   5.540
37974SOL     OW13945   5.958  10.598   7.076
37974SOL    HW113946   5.945  10.691   7.042
37974SOL    HW213947   5.874  10.546   7.063
37975SOL     OW13948   7.200  10.602   6.875
37975SOL    HW113949   7.260  10.605   6.955
37975SOL    HW213950   7.125  10.666   6.888
37976SOL     OW13951   6.625  10.408   6.282
37976SOL    HW113952   6.555  10.361   6.336
37976SOL    HW213953   6.684  10.340   6.239
37977SOL     OW13954   6.600   9.546   6.557
37977SOL    HW113955   6.592   9.510   6.464
37977SOL    HW213956   6.598   9.470   6.622
37978SOL     OW13957   6.176  10.797   6.077
37978SOL    HW113958   6.218  10.739   6.007
37978SOL    HW213959   6.132  10.876   6.033
37979SOL     OW13960   7.295   9.695   6.967
37979SOL    HW113961   7.368   9.764   6.971
37979SOL    HW213962   7.323   9.620   6.908
37980SOL     OW13963   5.841  10.658   5.876
37980SOL    HW113964   5.745  10.659   5.849
37980SOL    HW213965   5.853  10.711   5.960
37981SOL     OW13966   5.691  10.323   7.312
37981SOL    HW113967   5.614  10.290   7.366
37981SOL    HW213968   5.776  10.293   7.354
37982SOL     OW13969   6.258   9.513   7.075
37982SOL    HW113970   6.348   9.497   7.035
37982SOL    HW213971   6.266   9.518   7.174
37983SOL     OW13972   5.661   9.655   5.619
37983SOL    HW113973   5.569   9.627   5.590
37983SOL    HW213974   5.692   9.732   5.563
37984SOL     OW13975   7.026  10.166   6.984
37984SOL    HW113976   6.969  10.218   6.921
37984SOL    HW213977   7.122  10.178   6.960
37985SOL     OW13978   5.658   9.476   5.904
37985SOL    HW113979   5.641   9.559   5.850
37985SOL    HW213980   5.748   9.439   5.882
37986SOL     OW13981   6.769  10.645   5.705
37986SOL    HW113982   6.670  10.634   5.707
37986SOL    HW213983   6.803  10.660   5.798
37987SOL     OW13984   6.199  10.152   7.017
37987SOL    HW113985   6.255  10.233   7.000
37987SOL    HW213986   6.258  10.072   7.020
37988SOL     OW13987   7.079  11.077   6.545
37988SOL    HW113988   7.112  11.141   6.476
37988SOL    HW213989   7.145  11.071   6.620
37989SOL     OW13990   6.302   9.875   7.294
37989SOL    HW113991   6.321   9.940   7.368
37989SOL    HW213992   6.362   9.795   7.303
37990SOL     OW13993   7.036  10.530   7.219
37990SOL    HW113994   7.027  10.520   7.318
37990SOL    HW213995   7.132  10.523   7.193
37991SOL     OW13996   5.976  11.051   7.146
37991SOL    HW113997   5.885  11.092   7.144
37991SOL    HW213998   5.969  10.957   7.178
37992SOL     OW13999   7.260  10.193   6.840
37992SOL    HW114000   7.233  10.104   6.803
37992SOL    HW214001   7.261  10.261   6.767
37993SOL     OW14002   6.811   9.635   6.035
37993SOL    HW114003   6.876   9.561   6.024
37993SOL    HW214004   6.831   9.685   6.119
37994SOL     OW14005   6.180  10.055   6.238
37994SOL    HW114006   6.230  10.140   6.219
37994SOL    HW214007   6.092  10.057   6.190
37995SOL     OW14008   7.363   9.652   7.228
37995SOL    HW114009   7.346   9.683   7.134
37995SOL    HW214010   7.279   9.615   7.266
37996SOL     OW14011   7.316  10.244   7.103
37996SOL    HW114012   7.354  10.335   7.118
37996SOL    HW214013   7.308  10.227   7.004
37997SOL     OW14014   6.445  10.684   5.602
37997SOL    HW114015   6.399  10.699   5.690
37997SOL    HW214016   6.489  10.769   5.572
37998SOL     OW14017   6.247  11.100   6.539
37998SOL    HW114018   6.201  11.188   6.526
37998SOL    HW214019   6.346  11.112   6.532
37999SOL     OW14020   6.445  10.266   6.447
37999SOL    HW114021   6.499  10.197   6.495
37999SOL    HW214022   6.413  10.335   6.513
38000SOL     OW14023   6.669  10.294   5.673
38000SOL    HW114024   6.646  10.347   5.591
38000SOL    HW214025   6.750  10.238   5.654
38001SOL     OW14026   7.447  10.879   6.437
38001SOL    HW114027   7.376  10.867   6.367
38001SOL    HW214028   7.448  10.800   6.497
38002SOL     OW14029   5.807  10.624   7.430
38002SOL    HW114030   5.742  10.551   7.409
38002SOL    HW214031   5.811  10.638   7.528
38003SOL     OW14032   5.665  10.550   6.239
38003SOL    HW114033   5.664  10.503   6.327
38003SOL    HW214034   5.747  10.522   6.188
38004SOL     OW14035   6.258  10.701   7.210
38004SOL    HW114036   6.180  10.651   7.248
38004SOL    HW214037   6.255  10.796   7.241
38005SOL     OW14038   7.410   9.502   6.813
38005SOL    HW114039   7.406   9.412   6.857
38005SOL    HW214040   7.413   9.491   6.714
38006SOL     OW14041   6.014   9.734   6.106
38006SOL    HW114042   6.044   9.662   6.044
38006SOL    HW214043   5.975   9.694   6.189
38007SOL     OW14044   7.291  10.797   6.690
38007SOL    HW114045   7.198  10.772   6.663
38007SOL    HW214046   7.317  10.747   6.772
38008SOL     OW14047   5.903   9.857   6.866
38008SOL    HW114048   5.941   9.798   6.938
38008SOL    HW214049   5.943   9.831   6.778
38009SOL     OW14050   6.398  10.896   6.273
38009SOL    HW114051   6.430  10.906   6.179
38009SOL    HW214052   6.319  10.834   6.275
38010SOL     OW14053   7.010   9.524   6.698
38010SOL    HW114054   7.062   9.459   6.753
38010SOL    HW214055   6.961   9.587   6.759
38011SOL     OW14056   6.587   9.344   6.740
38011SOL    HW114057   6.524   9.272   6.709
38011SOL    HW214058   6.680   9.308   6.740
38012SOL     OW14059   6.356  10.640   5.887
38012SOL    HW114060   6.310  10.553   5.904
38012SOL    HW214061   6.447  10.637   5.928
38013SOL     OW14062   6.204  10.877   6.870
38013SOL    HW114063   6.199  10.959   6.927
38013SOL    HW214064   6.293  10.874   6.825
38014SOL     OW14065   6.938   9.362   5.754
38014SOL    HW114066   6.973   9.321   5.670
38014SOL    HW214067   6.848   9.324   5.774
38015SOL     OW14068   6.886   9.763   6.277
38015SOL    HW114069   6.827   9.843   6.281
38015SOL    HW214070   6.901   9.728   6.370
38016SOL     OW14071   7.179   9.531   6.468
38016SOL    HW114072   7.095   9.530   6.522
38016SOL    HW214073   7.181   9.614   6.412
38017SOL     OW14074   5.625  10.387   5.886
38017SOL    HW114075   5.724  10.376   5.877
38017SOL    HW214076   5.585  10.301   5.918
38018SOL     OW14077   6.461  10.956   5.923
38018SOL    HW114078   6.384  10.921   5.869
38018SOL    HW214079   6.429  11.027   5.985
38019SOL     OW14080   5.816   9.938   7.561
38019SOL    HW114081   5.723   9.936   7.598
38019SOL    HW214082   5.817   9.899   7.469
38020SOL     OW14083   5.811   9.585   8.444
38020SOL    HW114084   5.846   9.568   8.536
38020SOL    HW214085   5.723   9.540   8.432
38021SOL     OW14086   5.605   9.678   8.095
38021SOL    HW114087   5.523   9.721   8.134
38021SOL    HW214088   5.577   9.605   8.032
38022SOL     OW14089   6.155  10.585   8.613
38022SOL    HW114090   6.062  10.578   8.576
38022SOL    HW214091   6.166  10.674   8.657
38023SOL     OW14092   7.141  10.821   8.151
38023SOL    HW114093   7.084  10.805   8.232
38023SOL    HW214094   7.082  10.831   8.071
38024SOL     OW14095   6.721  10.013   8.165
38024SOL    HW114096   6.778  10.091   8.140
38024SOL    HW214097   6.661  10.039   8.241
38025SOL     OW14098   7.341   9.917   7.679
38025SOL    HW114099   7.329   9.904   7.580
38025SOL    HW214100   7.311   9.836   7.728
38026SOL     OW14101   6.354  10.454   8.471
38026SOL    HW114102   6.276  10.471   8.531
38026SOL    HW214103   6.388  10.541   8.435
38027SOL     OW14104   6.436  10.108   9.271
38027SOL    HW114105   6.432  10.184   9.336
38027SOL    HW214106   6.458  10.144   9.180
38028SOL     OW14107   6.271  10.322   8.113
38028SOL    HW114108   6.340  10.306   8.183
38028SOL    HW214109   6.198  10.379   8.151
38029SOL     OW14110   6.272  10.471   9.251
38029SOL    HW114111   6.332  10.550   9.265
38029SOL    HW214112   6.186  10.502   9.210
38030SOL     OW14113   5.921  10.745   8.509
38030SOL    HW114114   5.843  10.714   8.456
38030SOL    HW214115   5.979  10.803   8.452
38031SOL     OW14116   7.046  10.815   8.787
38031SOL    HW114117   7.070  10.909   8.813
38031SOL    HW214118   7.030  10.761   8.869
38032SOL     OW14119   6.024   9.702   8.947
38032SOL    HW114120   6.106   9.646   8.956
38032SOL    HW214121   5.943   9.644   8.951
38033SOL     OW14122   7.189   9.757   8.185
38033SOL    HW114123   7.115   9.803   8.135
38033SOL    HW214124   7.240   9.825   8.238
38034SOL     OW14125   5.817  11.023   7.931
38034SOL    HW114126   5.851  11.100   7.985
38034SOL    HW214127   5.861  11.023   7.841
38035SOL     OW14128   6.713  10.651   9.138
38035SOL    HW114129   6.760  10.651   9.226
38035SOL    HW214130   6.665  10.564   9.127
38036SOL     OW14131   5.816  10.744   7.986
38036SOL    HW114132   5.790  10.840   7.986
38036SOL    HW214133   5.745  10.690   8.031
38037SOL     OW14134   5.826  10.401   8.334
38037SOL    HW114135   5.840  10.317   8.386
38037SOL    HW214136   5.771  10.465   8.389
38038SOL     OW14137   6.206  11.096   8.887
38038SOL    HW114138   6.114  11.079   8.922
38038SOL    HW214139   6.234  11.188   8.913
38039SOL     OW14140   6.192  10.274   7.571
38039SOL    HW114141   6.199  10.358   7.517
38039SOL    HW214142   6.238  10.287   7.659
38040SOL     OW14143   7.180   9.424   8.928
38040SOL    HW114144   7.162   9.491   8.856
38040SOL    HW214145   7.177   9.470   9.017
38041SOL     OW14146   5.708   9.953   8.011
38041SOL    HW114147   5.663   9.865   8.028
38041SOL    HW214148   5.707  10.007   8.095
38042SOL     OW14149   7.428  11.077   7.807
38042SOL    HW114150   7.482  11.048   7.887
38042SOL    HW214151   7.458  11.167   7.778
38043SOL     OW14152   5.613  10.906   7.565
38043SOL    HW114153   5.594  10.810   7.586
38043SOL    HW214154   5.580  10.964   7.640
38044SOL     OW14155   7.275  10.232   8.060
38044SOL    HW114156   7.370  10.203   8.068
38044SOL    HW214157   7.267  10.297   7.985
38045SOL     OW14158   7.227  10.418   7.880
38045SOL    HW114159   7.313  10.420   7.828
38045SOL    HW214160   7.241  10.465   7.968
38046SOL     OW14161   5.699  10.047   9.045
38046SOL    HW114162   5.787  10.034   9.090
38046SOL    HW214163   5.686  10.144   9.023
38047SOL     OW14164   6.199  10.675   8.174
38047SOL    HW114165   6.150  10.588   8.183
38047SOL    HW214166   6.176  10.718   8.087
38048SOL     OW14167   6.879  10.538   8.871
38048SOL    HW114168   6.916  10.465   8.813
38048SOL    HW214169   6.931  10.543   8.956
38049SOL     OW14170   6.395   9.314   7.950
38049SOL    HW114171   6.435   9.405   7.941
38049SOL    HW214172   6.295   9.322   7.956
38050SOL     OW14173   5.783  10.286   8.712
38050SOL    HW114174   5.872  10.241   8.698
38050SOL    HW214175   5.710  10.221   8.693
38051SOL     OW14176   7.111  10.309   7.638
38051SOL    HW114177   7.048  10.233   7.651
38051SOL    HW214178   7.159  10.327   7.724
38052SOL     OW14179   6.773  11.102   9.064
38052SOL    HW114180   6.797  11.162   8.988
38052SOL    HW214181   6.780  11.007   9.034
38053SOL     OW14182   5.903   9.561   9.249
38053SOL    HW114183   5.974   9.632   9.255
38053SOL    HW214184   5.815   9.600   9.277
38054SOL     OW14185   7.052  10.727   8.401
38054SOL    HW114186   6.993  10.733   8.481
38054SOL    HW214187   7.037  10.639   8.355
38055SOL     OW14188   7.253  11.024   8.020
38055SOL    HW114189   7.212  11.001   7.932
38055SOL    HW214190   7.235  10.950   8.085
38056SOL     OW14191   6.184  10.039   7.718
38056SOL    HW114192   6.208  10.108   7.650
38056SOL    HW214193   6.106  10.072   7.772
38057SOL     OW14194   6.867   9.655   8.392
38057SOL    HW114195   6.781   9.605   8.379
38057SOL    HW214196   6.929   9.601   8.448
38058SOL     OW14197   7.162  10.972   7.755
38058SOL    HW114198   7.251  11.018   7.758
38058SOL    HW214199   7.141  10.948   7.660
38059SOL     OW14200   6.393   9.915   8.913
38059SOL    HW114201   6.346   9.912   9.002
38059SOL    HW214202   6.342   9.860   8.847
38060SOL     OW14203   6.980   9.779   9.122
38060SOL    HW114204   6.960   9.822   9.210
38060SOL    HW214205   7.058   9.717   9.131
38061SOL     OW14206   6.559  10.200   9.020
38061SOL    HW114207   6.605  10.116   8.991
38061SOL    HW214208   6.503  10.234   8.945
38062SOL     OW14209   6.577   9.720   8.690
38062SOL    HW114210   6.500   9.754   8.744
38062SOL    HW214211   6.543   9.669   8.611
38063SOL     OW14212   6.627  10.011   7.877
38063SOL    HW114213   6.653  10.007   7.973
38063SOL    HW214214   6.542   9.960   7.863
38064SOL     OW14215   5.662  10.121   8.237
38064SOL    HW114216   5.761  10.109   8.246
38064SOL    HW214217   5.638  10.216   8.258
38065SOL     OW14218   5.716  11.131   9.019
38065SOL    HW114219   5.706  11.116   9.118
38065SOL    HW214220   5.630  11.167   8.983
38066SOL     OW14221   6.451   9.658   7.643
38066SOL    HW114222   6.510   9.721   7.594
38066SOL    HW214223   6.470   9.564   7.614
38067SOL     OW14224   7.305   9.895   9.279
38067SOL    HW114225   7.279   9.984   9.243
38067SOL    HW214226   7.303   9.827   9.206
38068SOL     OW14227   6.948  10.454   7.993
38068SOL    HW114228   7.031  10.425   7.945
38068SOL    HW214229   6.899  10.521   7.937
38069SOL     OW14230   6.136   9.506   8.333
38069SOL    HW114231   6.131   9.501   8.433
38069SOL    HW214232   6.138   9.602   8.304
38070SOL     OW14233   6.594  10.766   7.925
38070SOL    HW114234   6.548  10.838   7.873
38070SOL    HW214235   6.590  10.786   8.023
38071SOL     OW14236   5.937  11.111   8.301
38071SOL    HW114237   5.987  11.025   8.307
38071SOL    HW214238   6.002  11.188   8.298
38072SOL     OW14239   7.381  10.376   8.321
38072SOL    HW114240   7.319  10.361   8.245
38072SOL    HW214241   7.329  10.387   8.406
38073SOL     OW14242   6.813  10.860   8.954
38073SOL    HW114243   6.819  10.783   9.018
38073SOL    HW214244   6.761  10.834   8.874
38074SOL     OW14245   5.907  10.253   7.690
38074SOL    HW114246   5.989  10.292   7.648
38074SOL    HW214247   5.880  10.171   7.641
38075SOL     OW14248   7.044  10.045   8.176
38075SOL    HW114249   7.039   9.980   8.251
38075SOL    HW214250   7.124  10.104   8.189
38076SOL     OW14251   6.047  10.576   9.175
38076SOL    HW114252   5.997  10.577   9.089
38076SOL    HW214253   5.984  10.558   9.251
38077SOL     OW14254   6.697  11.086   7.685
38077SOL    HW114255   6.637  11.024   7.735
38077SOL    HW214256   6.728  11.042   7.600
38078SOL     OW14257   5.788   9.595   8.946
38078SOL    HW114258   5.708   9.655   8.933
38078SOL    HW214259   5.778   9.546   9.032
38079SOL     OW14260   7.218  10.687   7.529
38079SOL    HW114261   7.186  10.781   7.519
38079SOL    HW214262   7.142  10.624   7.517
38080SOL     OW14263   6.050  11.053   7.771
38080SOL    HW114264   6.083  11.092   7.857
38080SOL    HW214265   6.126  11.046   7.706
38081SOL     OW14266   6.986   9.417   7.874
38081SOL    HW114267   6.962   9.380   7.784
38081SOL    HW214268   7.085   9.433   7.878
38082SOL     OW14269   5.835  11.095   8.689
38082SOL    HW114270   5.892  11.030   8.739
38082SOL    HW214271   5.819  11.062   8.596
38083SOL     OW14272   6.526  11.008   8.352
38083SOL    HW114273   6.606  10.951   8.373
38083SOL    HW214274   6.477  10.968   8.275
38084SOL     OW14275   5.968  10.010   7.928
38084SOL    HW114276   6.013   9.920   7.925
38084SOL    HW214277   5.874   9.999   7.961
38085SOL     OW14278   7.133   9.532   9.177
38085SOL    HW114279   7.128   9.569   9.269
38085SOL    HW214280   7.061   9.463   9.165
38086SOL     OW14281   6.200   9.432   7.565
38086SOL    HW114282   6.298   9.410   7.572
38086SOL    HW214283   6.169   9.415   7.472
38087SOL     OW14284   6.367   9.574   9.197
38087SOL    HW114285   6.434   9.513   9.240
38087SOL    HW214286   6.294   9.593   9.262
38088SOL     OW14287   6.474  10.824   8.643
38088SOL    HW114288   6.451  10.799   8.549
38088SOL    HW214289   6.535  10.755   8.682
38089SOL     OW14290   6.937   9.900   8.881
38089SOL    HW114291   6.965   9.857   8.966
38089SOL    HW214292   6.962   9.996   8.882
38090SOL     OW14293   6.389  10.712   8.372
38090SOL    HW114294   6.479  10.726   8.330
38090SOL    HW214295   6.318  10.714   8.301
38091SOL     OW14296   6.508   9.813   8.347
38091SOL    HW114297   6.483   9.804   8.251
38091SOL    HW214298   6.556   9.731   8.378
38092SOL     OW14299   6.125   9.374   7.960
38092SOL    HW114300   6.044   9.375   8.018
38092SOL    HW214301   6.128   9.457   7.905
38093SOL     OW14302   7.020  10.498   7.489
38093SOL    HW114303   7.052  10.422   7.546
38093SOL    HW214304   6.928  10.525   7.519
38094SOL     OW14305   5.883   9.345   7.619
38094SOL    HW114306   5.932   9.429   7.598
38094SOL    HW214307   5.945   9.280   7.664
38095SOL     OW14308   6.521   9.546   7.928
38095SOL    HW114309   6.473   9.587   7.850
38095SOL    HW214310   6.620   9.544   7.909
38096SOL     OW14311   6.662   9.993   8.912
38096SOL    HW114312   6.582   9.932   8.915
38096SOL    HW214313   6.743   9.940   8.888
38097SOL     OW14314   6.813  10.880   8.241
38097SOL    HW114315   6.834  10.954   8.176
38097SOL    HW214316   6.881  10.880   8.314
38098SOL     OW14317   6.045  10.462   8.189
38098SOL    HW114318   5.974  10.435   8.254
38098SOL    HW214319   6.019  10.434   8.096
38099SOL     OW14320   6.857  11.107   8.039
38099SOL    HW114321   6.901  11.171   7.975
38099SOL    HW214322   6.807  11.159   8.109
38100SOL     OW14323   6.618   9.859   7.464
38100SOL    HW114324   6.577   9.941   7.425
38100SOL    HW214325   6.682   9.885   7.537
38101SOL     OW14326   5.664   9.866   8.834
38101SOL    HW114327   5.756   9.865   8.793
38101SOL    HW214328   5.658   9.940   8.901
38102SOL     OW14329   6.147   9.532   8.595
38102SOL    HW114330   6.185   9.448   8.632
38102SOL    HW214331   6.059   9.551   8.639
38103SOL     OW14332   6.452   9.764   8.090
38103SOL    HW114333   6.420   9.836   8.028
38103SOL    HW214334   6.476   9.683   8.037
38104SOL     OW14335   6.603   9.349   8.201
38104SOL    HW114336   6.531   9.354   8.132
38104SOL    HW214337   6.579   9.280   8.270
38105SOL     OW14338   7.015  10.483   8.315
38105SOL    HW114339   6.960  10.399   8.308
38105SOL    HW214340   7.041  10.512   8.223
38106SOL     OW14341   7.052   9.900   8.440
38106SOL    HW114342   7.022   9.805   8.447
38106SOL    HW214343   7.125   9.916   8.506
38107SOL     OW14344   7.443  10.143   7.825
38107SOL    HW114345   7.485  10.079   7.889
38107SOL    HW214346   7.405  10.092   7.747
38108SOL     OW14347   6.074  10.695   7.622
38108SOL    HW114348   5.987  10.680   7.669
38108SOL    HW214349   6.057  10.721   7.527
38109SOL     OW14350   7.250  10.590   8.105
38109SOL    HW114351   7.349  10.598   8.119
38109SOL    HW214352   7.205  10.674   8.136
38110SOL     OW14353   6.976   9.885   7.526
38110SOL    HW114354   6.922   9.864   7.607
38110SOL    HW214355   7.067   9.844   7.535
38111SOL     OW14356   6.113   9.566   7.776
38111SOL    HW114357   6.140   9.507   7.701
38111SOL    HW214358   6.113   9.661   7.745
38112SOL     OW14359   7.340  10.533   9.036
38112SOL    HW114360   7.431  10.494   9.023
38112SOL    HW214361   7.348  10.629   9.060
38113SOL     OW14362   6.650  10.657   8.788
38113SOL    HW114363   6.570  10.634   8.843
38113SOL    HW214364   6.733  10.631   8.837
38114SOL     OW14365   7.178  10.939   9.073
38114SOL    HW114366   7.205  10.973   8.983
38114SOL    HW214367   7.257  10.901   9.119
38115SOL     OW14368   6.697  10.505   8.548
38115SOL    HW114369   6.657  10.549   8.629
38115SOL    HW214370   6.656  10.542   8.465
38116SOL     OW14371   7.224  10.409   8.527
38116SOL    HW114372   7.229  10.490   8.586
38116SOL    HW214373   7.138  10.411   8.476
38117SOL     OW14374   6.501   9.399   8.850
38117SOL    HW114375   6.526   9.379   8.755
38117SOL    HW214376   6.573   9.455   8.892
38118SOL     OW14377   6.566  10.426   9.167
38118SOL    HW114378   6.467  10.432   9.177
38118SOL    HW214379   6.589  10.346   9.111
38119SOL     OW14380   6.291  10.360   7.816
38119SOL    HW114381   6.277  10.367   7.915
38119SOL    HW214382   6.375  10.309   7.798
38120SOL     OW14383   5.996  10.123   8.699
38120SOL    HW114384   6.082  10.135   8.749
38120SOL    HW214385   5.954  10.036   8.726
38121SOL     OW14386   6.860   9.696   8.710
38121SOL    HW114387   6.881   9.770   8.774
38121SOL    HW214388   6.771   9.713   8.667
38122SOL     OW14389   5.650  10.874   8.779
38122SOL    HW114390   5.604  10.956   8.745
38122SOL    HW214391   5.748  10.893   8.788
38123SOL     OW14392   5.953  10.410   7.949
38123SOL    HW114393   5.946  10.493   7.893
38123SOL    HW214394   5.957  10.330   7.889
38124SOL     OW14395   6.152   9.847   8.313
38124SOL    HW114396   6.164   9.913   8.239
38124SOL    HW214397   6.198   9.881   8.396
38125SOL     OW14398   6.838  10.658   7.836
38125SOL    HW114399   6.888  10.735   7.876
38125SOL    HW214400   6.743  10.660   7.868
38126SOL     OW14401   6.858  10.755   8.590
38126SOL    HW114402   6.905  10.768   8.677
38126SOL    HW214403   6.792  10.681   8.599
38127SOL     OW14404   7.168   9.949   7.920
38127SOL    HW114405   7.137  10.010   7.993
38127SOL    HW214406   7.218  10.001   7.851
38128SOL     OW14407   5.940  10.820   8.777
38128SOL    HW114408   5.919  10.776   8.690
38128SOL    HW214409   6.037  10.846   8.780
38129SOL     OW14410   5.988  10.061   9.046
38129SOL    HW114411   6.056  10.116   8.999
38129SOL    HW214412   6.028   9.973   9.073
38130SOL     OW14413   7.173  10.089   9.118
38130SOL    HW114414   7.081  10.127   9.113
38130SOL    HW214415   7.233  10.136   9.053
38131SOL     OW14416   6.599   9.415   9.218
38131SOL    HW114417   6.605   9.500   9.166
38131SOL    HW214418   6.631   9.339   9.161
38132SOL     OW14419   6.090   9.360   9.188
38132SOL    HW114420   6.048   9.303   9.118
38132SOL    HW214421   6.024   9.429   9.220
38133SOL     OW14422   6.159  10.180   8.477
38133SOL    HW114423   6.203  10.269   8.468
38133SOL    HW214424   6.096  10.180   8.554
38134SOL     OW14425   6.946  10.172   8.493
38134SOL    HW114426   6.871  10.172   8.427
38134SOL    HW214427   6.983  10.080   8.502
38135SOL     OW14428   6.795   9.835   7.723
38135SOL    HW114429   6.808   9.751   7.777
38135SOL    HW214430   6.766   9.909   7.783
38136SOL     OW14431   5.893   9.523   8.679
38136SOL    HW114432   5.870   9.560   8.769
38136SOL    HW214433   5.863   9.428   8.673
38137SOL     OW14434   5.623  10.620   8.730
38137SOL    HW114435   5.676  10.571   8.798
38137SOL    HW214436   5.645  10.718   8.735
38138SOL     OW14437   6.318   9.944   8.512
38138SOL    HW114438   6.377   9.918   8.436
38138SOL    HW214439   6.290  10.040   8.501
38139SOL     OW14440   7.314  10.245   9.302
38139SOL    HW114441   7.268  10.238   9.213
38139SOL    HW214442   7.252  10.289   9.368
38140SOL     OW14443   5.893   9.373   8.066
38140SOL    HW114444   5.882   9.467   8.099
38140SOL    HW214445   5.888   9.310   8.143
38141SOL     OW14446   7.208   9.677   7.822
38141SOL    HW114447   7.210   9.601   7.886
38141SOL    HW214448   7.160   9.754   7.862
38142SOL     OW14449   6.609  10.076   8.414
38142SOL    HW114450   6.624  10.097   8.510
38142SOL    HW214451   6.579   9.981   8.405
38143SOL     OW14452   6.566  10.883   9.148
38143SOL    HW114453   6.546  10.927   9.060
38143SOL    HW214454   6.605  10.792   9.132
38144SOL     OW14455   7.445  10.828   9.053
38144SOL    HW114456   7.459  10.855   8.958
38144SOL    HW214457   7.528  10.850   9.106
38145SOL     OW14458   5.936  10.208   9.252
38145SOL    HW114459   6.012  10.252   9.300
38145SOL    HW214460   5.971  10.161   9.170
38146SOL     OW14461   7.126   9.584   7.573
38146SOL    HW114462   7.065   9.509   7.596
38146SOL    HW214463   7.148   9.636   7.656
38147SOL     OW14464   6.889  10.148   7.490
38147SOL    HW114465   6.923  10.055   7.505
38147SOL    HW214466   6.907  10.175   7.395
38148SOL     OW14467   6.654  10.643   8.297
38148SOL    HW114468   6.661  10.559   8.242
38148SOL    HW214469   6.716  10.712   8.261
38149SOL     OW14470   5.905  10.120   8.397
38149SOL    HW114471   5.998  10.156   8.402
38149SOL    HW214472   5.899  10.035   8.449
38150SOL     OW14473   5.925   9.819   8.454
38150SOL    HW114474   5.873   9.736   8.437
38150SOL    HW214475   6.002   9.824   8.390
38151SOL     OW14476   6.724   9.690   9.126
38151SOL    HW114477   6.679   9.753   9.190
38151SOL    HW214478   6.817   9.721   9.109
38152SOL     OW14479   6.746   9.517   8.925
38152SOL    HW114480   6.746   9.581   9.002
38152SOL    HW214481   6.774   9.565   8.842
38153SOL     OW14482   5.594  10.636   7.648
38153SOL    HW114483   5.501  10.657   7.617
38153SOL    HW214484   5.604  10.537   7.661
38154SOL     OW14485   5.674  11.111   8.375
38154SOL    HW114486   5.632  11.025   8.348
38154SOL    HW214487   5.768  11.114   8.341
38155SOL     OW14488   6.090  10.878   8.358
38155SOL    HW114489   6.156  10.952   8.367
38155SOL    HW214490   6.134  10.799   8.316
38156SOL     OW14491   6.588  10.106   8.686
38156SOL    HW114492   6.629  10.074   8.772
38156SOL    HW214493   6.492  10.079   8.683
38157SOL     OW14494   5.626   9.854   8.562
38157SOL    HW114495   5.711   9.821   8.521
38157SOL    HW214496   5.639   9.869   8.660
38158SOL     OW14497   5.775   9.830   9.170
38158SOL    HW114498   5.834   9.790   9.100
38158SOL    HW214499   5.717   9.901   9.129
38159SOL     OW14500   6.955  10.260   9.108
38159SOL    HW114501   6.994  10.349   9.128
38159SOL    HW214502   6.965  10.240   9.011
38160SOL     OW14503   6.401   9.882   7.773
38160SOL    HW114504   6.408   9.793   7.727
38160SOL    HW214505   6.307   9.916   7.765
38161SOL     OW14506   7.243   9.914   8.654
38161SOL    HW114507   7.205   9.845   8.716
38161SOL    HW214508   7.325   9.878   8.610
38162SOL     OW14509   5.838  10.874   9.192
38162SOL    HW114510   5.808  10.931   9.268
38162SOL    HW214511   5.831  10.777   9.218
38163SOL     OW14512   6.257   9.774   8.717
38163SOL    HW114513   6.223   9.685   8.687
38163SOL    HW214514   6.283   9.828   8.637
38164SOL     OW14515   6.516  10.988   8.913
38164SOL    HW114516   6.492  10.970   8.818
38164SOL    HW214517   6.546  11.082   8.923
38165SOL     OW14518   6.059   9.810   7.639
38165SOL    HW114519   6.120   9.890   7.643
38165SOL    HW214520   5.964   9.841   7.646
38166SOL     OW14521   5.745  10.447   8.914
38166SOL    HW114522   5.767  10.386   8.990
38166SOL    HW214523   5.755  10.398   8.828
38167SOL     OW14524   6.933  10.369   8.682
38167SOL    HW114525   6.957  10.306   8.608
38167SOL    HW214526   6.843  10.409   8.664
38168SOL     OW14527   6.888  10.165   7.757
38168SOL    HW114528   6.802  10.134   7.799
38168SOL    HW214529   6.884  10.151   7.658
38169SOL     OW14530   7.345  11.057   8.602
38169SOL    HW114531   7.406  11.087   8.529
38169SOL    HW214532   7.307  10.968   8.580
38170SOL     OW14533   6.838  11.041   8.576
38170SOL    HW114534   6.922  11.046   8.522
38170SOL    HW214535   6.815  10.945   8.594
38171SOL     OW14536   5.669  10.568   8.470
38171SOL    HW114537   5.664  10.567   8.570
38171SOL    HW214538   5.586  10.527   8.432
38172SOL     OW14539   6.274  10.972   9.164
38172SOL    HW114540   6.218  11.053   9.173
38172SOL    HW214541   6.326  10.976   9.078
38173SOL     OW14542   7.312   9.445   7.971
38173SOL    HW114543   7.385   9.428   7.904
38173SOL    HW214544   7.281   9.358   8.009
38174SOL     OW14545   6.974  10.883   7.925
38174SOL    HW114546   7.041  10.895   7.851
38174SOL    HW214547   6.934  10.972   7.948
38175SOL     OW14548   5.716  11.104   9.299
38175SOL    HW114549   5.675  11.030   9.352
38175SOL    HW214550   5.780  11.155   9.357
38176SOL     OW14551   6.866  10.237   8.120
38176SOL    HW114552   6.926  10.156   8.122
38176SOL    HW214553   6.906  10.306   8.060
38177SOL     OW14554   6.416  10.583   8.870
38177SOL    HW114555   6.411  10.616   8.965
38177SOL    HW214556   6.330  10.602   8.824
38178SOL     OW14557   6.258  10.926   7.602
38178SOL    HW114558   6.267  10.936   7.503
38178SOL    HW214559   6.218  10.837   7.623
38179SOL     OW14560   7.236  11.030   8.842
38179SOL    HW114561   7.289  11.040   8.758
38179SOL    HW214562   7.209  11.120   8.876
38180SOL     OW14563   7.427   9.485   8.411
38180SOL    HW114564   7.466   9.400   8.375
38180SOL    HW214565   7.329   9.487   8.392
38181SOL     OW14566   5.849   9.636   8.168
38181SOL    HW114567   5.770   9.687   8.134
38181SOL    HW214568   5.840   9.621   8.266
38182SOL     OW14569   6.780  10.922   7.479
38182SOL    HW114570   6.786  10.829   7.516
38182SOL    HW214571   6.721  10.922   7.399
38183SOL     OW14572   6.408  10.312   8.820
38183SOL    HW114573   6.448  10.311   8.728
38183SOL    HW214574   6.418  10.404   8.860
38184SOL     OW14575   6.502  10.220   7.739
38184SOL    HW114576   6.565  10.258   7.671
38184SOL    HW214577   6.542  10.137   7.778
38185SOL     OW14578   7.090  10.917   7.492
38185SOL    HW114579   6.998  10.954   7.499
38185SOL    HW214580   7.128  10.937   7.402
38186SOL     OW14581   5.958  10.598   8.938
38186SOL    HW114582   5.945  10.691   8.904
38186SOL    HW214583   5.874  10.546   8.925
38187SOL     OW14584   7.200  10.602   8.737
38187SOL    HW114585   7.260  10.605   8.817
38187SOL    HW214586   7.125  10.666   8.750
38188SOL     OW14587   6.625  10.408   8.144
38188SOL    HW114588   6.555  10.361   8.198
38188SOL    HW214589   6.684  10.340   8.101
38189SOL     OW14590   6.600   9.546   8.419
38189SOL    HW114591   6.592   9.510   8.326
38189SOL    HW214592   6.598   9.470   8.484
38190SOL     OW14593   6.176  10.797   7.939
38190SOL    HW114594   6.218  10.739   7.869
38190SOL    HW214595   6.132  10.876   7.895
38191SOL     OW14596   7.295   9.695   8.829
38191SOL    HW114597   7.368   9.764   8.833
38191SOL    HW214598   7.323   9.620   8.770
38192SOL     OW14599   5.841  10.658   7.738
38192SOL    HW114600   5.745  10.659   7.711
38192SOL    HW214601   5.853  10.711   7.822
38193SOL     OW14602   5.691  10.323   9.174
38193SOL    HW114603   5.614  10.290   9.228
38193SOL    HW214604   5.776  10.293   9.216
38194SOL     OW14605   6.258   9.513   8.937
38194SOL    HW114606   6.348   9.497   8.897
38194SOL    HW214607   6.266   9.518   9.036
38195SOL     OW14608   5.661   9.655   7.481
38195SOL    HW114609   5.569   9.627   7.452
38195SOL    HW214610   5.692   9.732   7.425
38196SOL     OW14611   7.026  10.166   8.846
38196SOL    HW114612   6.969  10.218   8.783
38196SOL    HW214613   7.122  10.178   8.822
38197SOL     OW14614   5.658   9.476   7.766
38197SOL    HW114615   5.641   9.559   7.712
38197SOL    HW214616   5.748   9.439   7.744
38198SOL     OW14617   6.769  10.645   7.567
38198SOL    HW114618   6.670  10.634   7.569
38198SOL    HW214619   6.803  10.660   7.660
38199SOL     OW14620   6.199  10.152   8.879
38199SOL    HW114621   6.255  10.233   8.862
38199SOL    HW214622   6.258  10.072   8.882
38200SOL     OW14623   7.079  11.077   8.407
38200SOL    HW114624   7.112  11.141   8.338
38200SOL    HW214625   7.145  11.071   8.482
38201SOL     OW14626   6.302   9.875   9.156
38201SOL    HW114627   6.321   9.940   9.230
38201SOL    HW214628   6.362   9.795   9.165
38202SOL     OW14629   7.036  10.530   9.081
38202SOL    HW114630   7.027  10.520   9.180
38202SOL    HW214631   7.132  10.523   9.055
38203SOL     OW14632   5.976  11.051   9.008
38203SOL    HW114633   5.885  11.092   9.006
38203SOL    HW214634   5.969  10.957   9.040
38204SOL     OW14635   7.260  10.193   8.702
38204SOL    HW114636   7.233  10.104   8.665
38204SOL    HW214637   7.261  10.261   8.629
38205SOL     OW14638   6.811   9.635   7.897
38205SOL    HW114639   6.876   9.561   7.886
38205SOL    HW214640   6.831   9.685   7.981
38206SOL     OW14641   6.180  10.055   8.100
38206SOL    HW114642   6.230  10.140   8.081
38206SOL    HW214643   6.092  10.057   8.052
38207SOL     OW14644   7.363   9.652   9.090
38207SOL    HW114645   7.346   9.683   8.996
38207SOL    HW214646   7.279   9.615   9.128
38208SOL     OW14647   7.316  10.244   8.965
38208SOL    HW114648   7.354  10.335   8.980
38208SOL    HW214649   7.308  10.227   8.866
38209SOL     OW14650   6.445  10.684   7.464
38209SOL    HW114651   6.399  10.699   7.552
38209SOL    HW214652   6.489  10.769   7.434
38210SOL     OW14653   6.247  11.100   8.401
38210SOL    HW114654   6.201  11.188   8.388
38210SOL    HW214655   6.346  11.112   8.394
38211SOL     OW14656   6.445  10.266   8.309
38211SOL    HW114657   6.499  10.197   8.357
38211SOL    HW214658   6.413  10.335   8.375
38212SOL     OW14659   6.669  10.294   7.535
38212SOL    HW114660   6.646  10.347   7.453
38212SOL    HW214661   6.750  10.238   7.516
38213SOL     OW14662   7.447  10.879   8.299
38213SOL    HW114663   7.376  10.867   8.229
38213SOL    HW214664   7.448  10.800   8.359
38214SOL     OW14665   5.807  10.624   9.292
38214SOL    HW114666   5.742  10.551   9.271
38214SOL    HW214667   5.811  10.638   9.390
38215SOL     OW14668   5.665  10.550   8.101
38215SOL    HW114669   5.664  10.503   8.189
38215SOL    HW214670   5.747  10.522   8.050
38216SOL     OW14671   6.258  10.701   9.072
38216SOL    HW114672   6.180  10.651   9.110
38216SOL    HW214673   6.255  10.796   9.103
38217SOL     OW14674   7.410   9.502   8.675
38217SOL    HW114675   7.406   9.412   8.719
38217SOL    HW214676   7.413   9.491   8.576
38218SOL     OW14677   6.014   9.734   7.968
38218SOL    HW114678   6.044   9.662   7.906
38218SOL    HW214679   5.975   9.694   8.051
38219SOL     OW14680   7.291  10.797   8.552
38219SOL    HW114681   7.198  10.772   8.525
38219SOL    HW214682   7.317  10.747   8.634
38220SOL     OW14683   5.903   9.857   8.728
38220SOL    HW114684   5.941   9.798   8.800
38220SOL    HW214685   5.943   9.831   8.640
38221SOL     OW14686   6.398  10.896   8.135
38221SOL    HW114687   6.430  10.906   8.041
38221SOL    HW214688   6.319  10.834   8.137
38222SOL     OW14689   7.010   9.524   8.560
38222SOL    HW114690   7.062   9.459   8.615
38222SOL    HW214691   6.961   9.587   8.621
38223SOL     OW14692   6.587   9.344   8.602
38223SOL    HW114693   6.524   9.272   8.571
38223SOL    HW214694   6.680   9.308   8.602
38224SOL     OW14695   6.356  10.640   7.749
38224SOL    HW114696   6.310  10.553   7.766
38224SOL    HW214697   6.447  10.637   7.790
38225SOL     OW14698   6.204  10.877   8.732
38225SOL    HW114699   6.199  10.959   8.789
38225SOL    HW214700   6.293  10.874   8.687
38226SOL     OW14701   6.938   9.362   7.616
38226SOL    HW114702   6.973   9.321   7.532
38226SOL    HW214703   6.848   9.324   7.636
38227SOL     OW14704   6.886   9.763   8.139
38227SOL    HW114705   6.827   9.843   8.143
38227SOL    HW214706   6.901   9.728   8.232
38228SOL     OW14707   7.179   9.531   8.330
38228SOL    HW114708   7.095   9.530   8.384
38228SOL    HW214709   7.181   9.614   8.274
38229SOL     OW14710   5.625  10.387   7.748
38229SOL    HW114711   5.724  10.376   7.739
38229SOL    HW214712   5.585  10.301   7.780
38230SOL     OW14713   6.461  10.956   7.785
38230SOL    HW114714   6.384  10.921   7.731
38230SOL    HW214715   6.429  11.027   7.847
38231SOL     OW14716   5.816   9.938   9.423
38231SOL    HW114717   5.723   9.936   9.460
38231SOL    HW214718   5.817   9.899   9.331
38232SOL     OW14719   5.811   9.585  10.306
38232SOL    HW114720   5.846   9.568  10.398
38232SOL    HW214721   5.723   9.540  10.294
38233SOL     OW14722   5.605   9.678   9.957
38233SOL    HW114723   5.523   9.721   9.996
38233SOL    HW214724   5.577   9.605   9.894
38234SOL     OW14725   6.155  10.585  10.475
38234SOL    HW114726   6.062  10.578  10.438
38234SOL    HW214727   6.166  10.674  10.519
38235SOL     OW14728   7.141  10.821  10.013
38235SOL    HW114729   7.084  10.805  10.094
38235SOL    HW214730   7.082  10.831   9.933
38236SOL     OW14731   6.721  10.013  10.027
38236SOL    HW114732   6.778  10.091  10.002
38236SOL    HW214733   6.661  10.039  10.103
38237SOL     OW14734   7.341   9.917   9.541
38237SOL    HW114735   7.329   9.904   9.442
38237SOL    HW214736   7.311   9.836   9.590
38238SOL     OW14737   6.354  10.454  10.333
38238SOL    HW114738   6.276  10.471  10.393
38238SOL    HW214739   6.388  10.541  10.297
38239SOL     OW14740   6.436  10.108  11.133
38239SOL    HW114741   6.432  10.184  11.198
38239SOL    HW214742   6.458  10.144  11.042
38240SOL     OW14743   6.271  10.322   9.975
38240SOL    HW114744   6.340  10.306  10.045
38240SOL    HW214745   6.198  10.379  10.013
38241SOL     OW14746   6.272  10.471  11.113
38241SOL    HW114747   6.332  10.550  11.127
38241SOL    HW214748   6.186  10.502  11.072
38242SOL     OW14749   5.921  10.745  10.371
38242SOL    HW114750   5.843  10.714  10.318
38242SOL    HW214751   5.979  10.803  10.314
38243SOL     OW14752   7.046  10.815  10.649
38243SOL    HW114753   7.070  10.909  10.675
38243SOL    HW214754   7.030  10.761  10.731
38244SOL     OW14755   6.024   9.702  10.809
38244SOL    HW114756   6.106   9.646  10.818
38244SOL    HW214757   5.943   9.644  10.813
38245SOL     OW14758   7.189   9.757  10.047
38245SOL    HW114759   7.115   9.803   9.997
38245SOL    HW214760   7.240   9.825  10.100
38246SOL     OW14761   5.817  11.023   9.793
38246SOL    HW114762   5.851  11.100   9.847
38246SOL    HW214763   5.861  11.023   9.703
38247SOL     OW14764   6.713  10.651  11.000
38247SOL    HW114765   6.760  10.651  11.088
38247SOL    HW214766   6.665  10.564  10.989
38248SOL     OW14767   5.816  10.744   9.848
38248SOL    HW114768   5.790  10.840   9.848
38248SOL    HW214769   5.745  10.690   9.893
38249SOL     OW14770   5.826  10.401  10.196
38249SOL    HW114771   5.840  10.317  10.248
38249SOL    HW214772   5.771  10.465  10.251
38250SOL     OW14773   6.206  11.096  10.749
38250SOL    HW114774   6.114  11.079  10.784
38250SOL    HW214775   6.234  11.188  10.775
38251SOL     OW14776   6.192  10.274   9.433
38251SOL    HW114777   6.199  10.358   9.379
38251SOL    HW214778   6.238  10.287   9.521
38252SOL     OW14779   7.180   9.424  10.790
38252SOL    HW114780   7.162   9.491  10.718
38252SOL    HW214781   7.177   9.470  10.879
38253SOL     OW14782   5.708   9.953   9.873
38253SOL    HW114783   5.663   9.865   9.890
38253SOL    HW214784   5.707  10.007   9.957
38254SOL     OW14785   7.428  11.077   9.669
38254SOL    HW114786   7.482  11.048   9.749
38254SOL    HW214787   7.458  11.167   9.640
38255SOL     OW14788   5.613  10.906   9.427
38255SOL    HW114789   5.594  10.810   9.448
38255SOL    HW214790   5.580  10.964   9.502
38256SOL     OW14791   7.275  10.232   9.922
38256SOL    HW114792   7.370  10.203   9.930
38256SOL    HW214793   7.267  10.297   9.847
38257SOL     OW14794   7.227  10.418   9.742
38257SOL    HW114795   7.313  10.420   9.690
38257SOL    HW214796   7.241  10.465   9.830
38258SOL     OW14797   5.699  10.047  10.907
38258SOL    HW114798   5.787  10.034  10.952
38258SOL    HW214799   5.686  10.144  10.885
38259SOL     OW14800   6.199  10.675  10.036
38259SOL    HW114801   6.150  10.588  10.045
38259SOL    HW214802   6.176  10.718   9.949
38260SOL     OW14803   6.879  10.538  10.733
38260SOL    HW114804   6.916  10.465  10.675
38260SOL    HW214805   6.931  10.543  10.818
38261SOL     OW14806   6.395   9.314   9.812
38261SOL    HW114807   6.435   9.405   9.803
38261SOL    HW214808   6.295   9.322   9.818
38262SOL     OW14809   5.783  10.286  10.574
38262SOL    HW114810   5.872  10.241  10.560
38262SOL    HW214811   5.710  10.221  10.555
38263SOL     OW14812   7.111  10.309   9.500
38263SOL    HW114813   7.048  10.233   9.513
38263SOL    HW214814   7.159  10.327   9.586
38264SOL     OW14815   6.773  11.102  10.926
38264SOL    HW114816   6.797  11.162  10.850
38264SOL    HW214817   6.780  11.007  10.896
38265SOL     OW14818   5.903   9.561  11.111
38265SOL    HW114819   5.974   9.632  11.117
38265SOL    HW214820   5.815   9.600  11.139
38266SOL     OW14821   7.052  10.727  10.263
38266SOL    HW114822   6.993  10.733  10.343
38266SOL    HW214823   7.037  10.639  10.217
38267SOL     OW14824   7.253  11.024   9.882
38267SOL    HW114825   7.212  11.001   9.794
38267SOL    HW214826   7.235  10.950   9.947
38268SOL     OW14827   6.184  10.039   9.580
38268SOL    HW114828   6.208  10.108   9.512
38268SOL    HW214829   6.106  10.072   9.634
38269SOL     OW14830   6.867   9.655  10.254
38269SOL    HW114831   6.781   9.605  10.241
38269SOL    HW214832   6.929   9.601  10.310
38270SOL     OW14833   7.162  10.972   9.617
38270SOL    HW114834   7.251  11.018   9.620
38270SOL    HW214835   7.141  10.948   9.522
38271SOL     OW14836   6.393   9.915  10.775
38271SOL    HW114837   6.346   9.912  10.864
38271SOL    HW214838   6.342   9.860  10.709
38272SOL     OW14839   6.980   9.779  10.984
38272SOL    HW114840   6.960   9.822  11.072
38272SOL    HW214841   7.058   9.717  10.993
38273SOL     OW14842   6.559  10.200  10.882
38273SOL    HW114843   6.605  10.116  10.853
38273SOL    HW214844   6.503  10.234  10.807
38274SOL     OW14845   6.577   9.720  10.552
38274SOL    HW114846   6.500   9.754  10.606
38274SOL    HW214847   6.543   9.669  10.473
38275SOL     OW14848   6.627  10.011   9.739
38275SOL    HW114849   6.653  10.007   9.835
38275SOL    HW214850   6.542   9.960   9.725
38276SOL     OW14851   5.662  10.121  10.099
38276SOL    HW114852   5.761  10.109  10.108
38276SOL    HW214853   5.638  10.216  10.120
38277SOL     OW14854   5.716  11.131  10.881
38277SOL    HW114855   5.706  11.116  10.980
38277SOL    HW214856   5.630  11.167  10.845
38278SOL     OW14857   6.451   9.658   9.505
38278SOL    HW114858   6.510   9.721   9.456
38278SOL    HW214859   6.470   9.564   9.476
38279SOL     OW14860   7.305   9.895  11.141
38279SOL    HW114861   7.279   9.984  11.105
38279SOL    HW214862   7.303   9.827  11.068
38280SOL     OW14863   6.948  10.454   9.855
38280SOL    HW114864   7.031  10.425   9.807
38280SOL    HW214865   6.899  10.521   9.799
38281SOL     OW14866   6.136   9.506  10.195
38281SOL    HW114867   6.131   9.501  10.295
38281SOL    HW214868   6.138   9.602  10.166
38282SOL     OW14869   5.937  11.111  10.163
38282SOL    HW114870   5.987  11.025  10.169
38282SOL    HW214871   6.002  11.188  10.160
38283SOL     OW14872   7.381  10.376  10.183
38283SOL    HW114873   7.319  10.361  10.107
38283SOL    HW214874   7.329  10.387  10.268
38284SOL     OW14875   6.813  10.860  10.816
38284SOL    HW114876   6.819  10.783  10.880
38284SOL    HW214877   6.761  10.834  10.736
38285SOL     OW14878   5.907  10.253   9.552
38285SOL    HW114879   5.989  10.292   9.510
38285SOL    HW214880   5.880  10.171   9.503
38286SOL     OW14881   7.044  10.045  10.038
38286SOL    HW114882   7.039   9.980  10.113
38286SOL    HW214883   7.124  10.104  10.051
38287SOL     OW14884   6.047  10.576  11.037
38287SOL    HW114885   5.997  10.577  10.951
38287SOL    HW214886   5.984  10.558  11.113
38288SOL     OW14887   6.697  11.086   9.547
38288SOL    HW114888   6.637  11.024   9.597
38288SOL    HW214889   6.728  11.042   9.462
38289SOL     OW14890   5.788   9.595  10.808
38289SOL    HW114891   5.708   9.655  10.795
38289SOL    HW214892   5.778   9.546  10.894
38290SOL     OW14893   7.218  10.687   9.391
38290SOL    HW114894   7.186  10.781   9.381
38290SOL    HW214895   7.142  10.624   9.379
38291SOL     OW14896   6.050  11.053   9.633
38291SOL    HW114897   6.083  11.092   9.719
38291SOL    HW214898   6.126  11.046   9.568
38292SOL     OW14899   6.986   9.417   9.736
38292SOL    HW114900   6.962   9.380   9.646
38292SOL    HW214901   7.085   9.433   9.740
38293SOL     OW14902   5.835  11.095  10.551
38293SOL    HW114903   5.892  11.030  10.601
38293SOL    HW214904   5.819  11.062  10.458
38294SOL     OW14905   6.526  11.008  10.214
38294SOL    HW114906   6.606  10.951  10.235
38294SOL    HW214907   6.477  10.968  10.137
38295SOL     OW14908   5.968  10.010   9.790
38295SOL    HW114909   6.013   9.920   9.787
38295SOL    HW214910   5.874   9.999   9.823
38296SOL     OW14911   7.133   9.532  11.039
38296SOL    HW114912   7.128   9.569  11.131
38296SOL    HW214913   7.061   9.463  11.027
38297SOL     OW14914   6.200   9.432   9.427
38297SOL    HW114915   6.298   9.410   9.434
38297SOL    HW214916   6.169   9.415   9.334
38298SOL     OW14917   6.367   9.574  11.059
38298SOL    HW114918   6.434   9.513  11.102
38298SOL    HW214919   6.294   9.593  11.124
38299SOL     OW14920   6.474  10.824  10.505
38299SOL    HW114921   6.451  10.799  10.411
38299SOL    HW214922   6.535  10.755  10.544
38300SOL     OW14923   6.937   9.900  10.743
38300SOL    HW114924   6.965   9.857  10.828
38300SOL    HW214925   6.962   9.996  10.744
38301SOL     OW14926   6.389  10.712  10.234
38301SOL    HW114927   6.479  10.726  10.192
38301SOL    HW214928   6.318  10.714  10.163
38302SOL     OW14929   6.508   9.813  10.209
38302SOL    HW114930   6.483   9.804  10.113
38302SOL    HW214931   6.556   9.731  10.240
38303SOL     OW14932   6.125   9.374   9.822
38303SOL    HW114933   6.044   9.375   9.880
38303SOL    HW214934   6.128   9.457   9.767
38304SOL     OW14935   7.020  10.498   9.351
38304SOL    HW114936   7.052  10.422   9.408
38304SOL    HW214937   6.928  10.525   9.381
38305SOL     OW14938   5.883   9.345   9.481
38305SOL    HW114939   5.932   9.429   9.460
38305SOL    HW214940   5.945   9.280   9.526
38306SOL     OW14941   6.521   9.546   9.790
38306SOL    HW114942   6.473   9.587   9.712
38306SOL    HW214943   6.620   9.544   9.771
38307SOL     OW14944   6.662   9.993  10.774
38307SOL    HW114945   6.582   9.932  10.777
38307SOL    HW214946   6.743   9.940  10.750
38308SOL     OW14947   6.813  10.880  10.103
38308SOL    HW114948   6.834  10.954  10.038
38308SOL    HW214949   6.881  10.880  10.176
38309SOL     OW14950   6.045  10.462  10.051
38309SOL    HW114951   5.974  10.435  10.116
38309SOL    HW214952   6.019  10.434   9.958
38310SOL     OW14953   6.857  11.107   9.901
38310SOL    HW114954   6.901  11.171   9.837
38310SOL    HW214955   6.807  11.159   9.971
38311SOL     OW14956   6.618   9.859   9.326
38311SOL    HW114957   6.577   9.941   9.287
38311SOL    HW214958   6.682   9.885   9.399
38312SOL     OW14959   5.664   9.866  10.696
38312SOL    HW114960   5.756   9.865  10.655
38312SOL    HW214961   5.658   9.940  10.763
38313SOL     OW14962   6.147   9.532  10.457
38313SOL    HW114963   6.185   9.448  10.494
38313SOL    HW214964   6.059   9.551  10.501
38314SOL     OW14965   6.452   9.764   9.952
38314SOL    HW114966   6.420   9.836   9.890
38314SOL    HW214967   6.476   9.683   9.899
38315SOL     OW14968   6.603   9.349  10.063
38315SOL    HW114969   6.531   9.354   9.994
38315SOL    HW214970   6.579   9.280  10.132
38316SOL     OW14971   7.015  10.483  10.177
38316SOL    HW114972   6.960  10.399  10.170
38316SOL    HW214973   7.041  10.512  10.085
38317SOL     OW14974   7.052   9.900  10.302
38317SOL    HW114975   7.022   9.805  10.309
38317SOL    HW214976   7.125   9.916  10.368
38318SOL     OW14977   7.443  10.143   9.687
38318SOL    HW114978   7.485  10.079   9.751
38318SOL    HW214979   7.405  10.092   9.609
38319SOL     OW14980   6.074  10.695   9.484
38319SOL    HW114981   5.987  10.680   9.531
38319SOL    HW214982   6.057  10.721   9.389
38320SOL     OW14983   7.250  10.590   9.967
38320SOL    HW114984   7.349  10.598   9.981
38320SOL    HW214985   7.205  10.674   9.998
38321SOL     OW14986   6.976   9.885   9.388
38321SOL    HW114987   6.922   9.864   9.469
38321SOL    HW214988   7.067   9.844   9.397
38322SOL     OW14989   6.113   9.566   9.638
38322SOL    HW114990   6.140   9.507   9.563
38322SOL    HW214991   6.113   9.661   9.607
38323SOL     OW14992   7.340  10.533  10.898
38323SOL    HW114993   7.431  10.494  10.885
38323SOL    HW214994   7.348  10.629  10.922
38324SOL     OW14995   6.650  10.657  10.650
38324SOL    HW114996   6.570  10.634  10.705
38324SOL    HW214997   6.733  10.631  10.699
38325SOL     OW14998   7.178  10.939  10.935
38325SOL    HW114999   7.205  10.973  10.845
38325SOL    HW215000   7.257  10.901  10.981
38326SOL     OW15001   6.697  10.505  10.410
38326SOL    HW115002   6.657  10.549  10.491
38326SOL    HW215003   6.656  10.542  10.327
38327SOL     OW15004   7.224  10.409  10.389
38327SOL    HW115005   7.229  10.490  10.448
38327SOL    HW215006   7.138  10.411  10.338
38328SOL     OW15007   6.501   9.399  10.712
38328SOL    HW115008   6.526   9.379  10.617
38328SOL    HW215009   6.573   9.455  10.754
38329SOL     OW15010   6.566  10.426  11.029
38329SOL    HW115011   6.467  10.432  11.039
38329SOL    HW215012   6.589  10.346  10.973
38330SOL     OW15013   6.291  10.360   9.678
38330SOL    HW115014   6.277  10.367   9.777
38330SOL    HW215015   6.375  10.309   9.660
38331SOL     OW15016   5.996  10.123  10.561
38331SOL    HW115017   6.082  10.135  10.611
38331SOL    HW215018   5.954  10.036  10.588
38332SOL     OW15019   6.860   9.696  10.572
38332SOL    HW115020   6.881   9.770  10.636
38332SOL    HW215021   6.771   9.713  10.529
38333SOL     OW15022   5.650  10.874  10.641
38333SOL    HW115023   5.604  10.956  10.607
38333SOL    HW215024   5.748  10.893  10.650
38334SOL     OW15025   5.953  10.410   9.811
38334SOL    HW115026   5.946  10.493   9.755
38334SOL    HW215027   5.957  10.330   9.751
38335SOL     OW15028   6.152   9.847  10.175
38335SOL    HW115029   6.164   9.913  10.101
38335SOL    HW215030   6.198   9.881  10.258
38336SOL     OW15031   6.838  10.658   9.698
38336SOL    HW115032   6.888  10.735   9.738
38336SOL    HW215033   6.743  10.660   9.730
38337SOL     OW15034   6.858  10.755  10.452
38337SOL    HW115035   6.905  10.768  10.539
38337SOL    HW215036   6.792  10.681  10.461
38338SOL     OW15037   7.168   9.949   9.782
38338SOL    HW115038   7.137  10.010   9.855
38338SOL    HW215039   7.218  10.001   9.713
38339SOL     OW15040   5.940  10.820  10.639
38339SOL    HW115041   5.919  10.776  10.552
38339SOL    HW215042   6.037  10.846  10.642
38340SOL     OW15043   5.988  10.061  10.908
38340SOL    HW115044   6.056  10.116  10.861
38340SOL    HW215045   6.028   9.973  10.935
38341SOL     OW15046   7.173  10.089  10.980
38341SOL    HW115047   7.081  10.127  10.975
38341SOL    HW215048   7.233  10.136  10.915
38342SOL     OW15049   6.599   9.415  11.080
38342SOL    HW115050   6.605   9.500  11.028
38342SOL    HW215051   6.631   9.339  11.023
38343SOL     OW15052   6.090   9.360  11.050
38343SOL    HW115053   6.048   9.303  10.980
38343SOL    HW215054   6.024   9.429  11.082
38344SOL     OW15055   6.159  10.180  10.339
38344SOL    HW115056   6.203  10.269  10.330
38344SOL    HW215057   6.096  10.180  10.416
38345SOL     OW15058   6.946  10.172  10.355
38345SOL    HW115059   6.871  10.172  10.289
38345SOL    HW215060   6.983  10.080  10.364
38346SOL     OW15061   6.795   9.835   9.585
38346SOL    HW115062   6.808   9.751   9.639
38346SOL    HW215063   6.766   9.909   9.645
38347SOL     OW15064   5.893   9.523  10.541
38347SOL    HW115065   5.870   9.560  10.631
38347SOL    HW215066   5.863   9.428  10.535
38348SOL     OW15067   5.623  10.620  10.592
38348SOL    HW115068   5.676  10.571  10.660
38348SOL    HW215069   5.645  10.718  10.597
38349SOL     OW15070   6.318   9.944  10.374
38349SOL    HW115071   6.377   9.918  10.298
38349SOL    HW215072   6.290  10.040  10.363
38350SOL     OW15073   7.314  10.245  11.164
38350SOL    HW115074   7.268  10.238  11.075
38350SOL    HW215075   7.252  10.289  11.230
38351SOL     OW15076   5.893   9.373   9.928
38351SOL    HW115077   5.882   9.467   9.961
38351SOL    HW215078   5.888   9.310  10.005
38352SOL     OW15079   7.208   9.677   9.684
38352SOL    HW115080   7.210   9.601   9.748
38352SOL    HW215081   7.160   9.754   9.724
38353SOL     OW15082   6.609  10.076  10.276
38353SOL    HW115083   6.624  10.097  10.372
38353SOL    HW215084   6.579   9.981  10.267
38354SOL     OW15085   6.566  10.883  11.010
38354SOL    HW115086   6.546  10.927  10.922
38354SOL    HW215087   6.605  10.792  10.994
38355SOL     OW15088   7.445  10.828  10.915
38355SOL    HW115089   7.459  10.855  10.820
38355SOL    HW215090   7.528  10.850  10.968
38356SOL     OW15091   5.936  10.208  11.114
38356SOL    HW115092   6.012  10.252  11.162
38356SOL    HW215093   5.971  10.161  11.032
38357SOL     OW15094   7.126   9.584   9.435
38357SOL    HW115095   7.065   9.509   9.458
38357SOL    HW215096   7.148   9.636   9.518
38358SOL     OW15097   6.889  10.148   9.352
38358SOL    HW115098   6.923  10.055   9.367
38358SOL    HW215099   6.907  10.175   9.257
38359SOL     OW15100   6.654  10.643  10.159
38359SOL    HW115101   6.661  10.559  10.104
38359SOL    HW215102   6.716  10.712  10.123
38360SOL     OW15103   5.905  10.120  10.259
38360SOL    HW115104   5.998  10.156  10.264
38360SOL    HW215105   5.899  10.035  10.311
38361SOL     OW15106   5.925   9.819  10.316
38361SOL    HW115107   5.873   9.736  10.299
38361SOL    HW215108   6.002   9.824  10.252
38362SOL     OW15109   6.724   9.690  10.988
38362SOL    HW115110   6.679   9.753  11.052
38362SOL    HW215111   6.817   9.721  10.971
38363SOL     OW15112   6.746   9.517  10.787
38363SOL    HW115113   6.746   9.581  10.864
38363SOL    HW215114   6.774   9.565  10.704
38364SOL     OW15115   5.594  10.636   9.510
38364SOL    HW115116   5.501  10.657   9.479
38364SOL    HW215117   5.604  10.537   9.523
38365SOL     OW15118   5.674  11.111  10.237
38365SOL    HW115119   5.632  11.025  10.210
38365SOL    HW215120   5.768  11.114  10.203
38366SOL     OW15121   6.090  10.878  10.220
38366SOL    HW115122   6.156  10.952  10.229
38366SOL    HW215123   6.134  10.799  10.178
38367SOL     OW15124   5.626   9.854  10.424
38367SOL    HW115125   5.711   9.821  10.383
38367SOL    HW215126   5.639   9.869  10.522
38368SOL     OW15127   5.775   9.830  11.032
38368SOL    HW115128   5.834   9.790  10.962
38368SOL    HW215129   5.717   9.901  10.991
38369SOL     OW15130   6.955  10.260  10.970
38369SOL    HW115131   6.994  10.349  10.990
38369SOL    HW215132   6.965  10.240  10.873
38370SOL     OW15133   6.401   9.882   9.635
38370SOL    HW115134   6.408   9.793   9.589
38370SOL    HW215135   6.307   9.916   9.627
38371SOL     OW15136   7.243   9.914  10.516
38371SOL    HW115137   7.205   9.845  10.578
38371SOL    HW215138   7.325   9.878  10.472
38372SOL     OW15139   5.838  10.874  11.054
38372SOL    HW115140   5.808  10.931  11.130
38372SOL    HW215141   5.831  10.777  11.080
38373SOL     OW15142   6.257   9.774  10.579
38373SOL    HW115143   6.223   9.685  10.549
38373SOL    HW215144   6.283   9.828  10.499
38374SOL     OW15145   6.516  10.988  10.775
38374SOL    HW115146   6.492  10.970  10.680
38374SOL    HW215147   6.546  11.082  10.785
38375SOL     OW15148   6.059   9.810   9.501
38375SOL    HW115149   6.120   9.890   9.505
38375SOL    HW215150   5.964   9.841   9.508
38376SOL     OW15151   5.745  10.447  10.776
38376SOL    HW115152   5.767  10.386  10.852
38376SOL    HW215153   5.755  10.398  10.690
38377SOL     OW15154   6.933  10.369  10.544
38377SOL    HW115155   6.957  10.306  10.470
38377SOL    HW215156   6.843  10.409  10.526
38378SOL     OW15157   6.888  10.165   9.619
38378SOL    HW115158   6.802  10.134   9.661
38378SOL    HW215159   6.884  10.151   9.520
38379SOL     OW15160   7.345  11.057  10.464
38379SOL    HW115161   7.406  11.087  10.391
38379SOL    HW215162   7.307  10.968  10.442
38380SOL     OW15163   6.838  11.041  10.438
38380SOL    HW115164   6.922  11.046  10.384
38380SOL    HW215165   6.815  10.945  10.456
38381SOL     OW15166   5.669  10.568  10.332
38381SOL    HW115167   5.664  10.567  10.432
38381SOL    HW215168   5.586  10.527  10.294
38382SOL     OW15169   6.274  10.972  11.026
38382SOL    HW115170   6.218  11.053  11.035
38382SOL    HW215171   6.326  10.976  10.940
38383SOL     OW15172   7.312   9.445   9.833
38383SOL    HW115173   7.385   9.428   9.766
38383SOL    HW215174   7.281   9.358   9.871
38384SOL     OW15175   6.974  10.883   9.787
38384SOL    HW115176   7.041  10.895   9.713
38384SOL    HW215177   6.934  10.972   9.810
38385SOL     OW15178   5.716  11.104  11.161
38385SOL    HW115179   5.675  11.030  11.214
38385SOL    HW215180   5.780  11.155  11.219
38386SOL     OW15181   6.866  10.237   9.982
38386SOL    HW115182   6.926  10.156   9.984
38386SOL    HW215183   6.906  10.306   9.922
38387SOL     OW15184   6.416  10.583  10.732
38387SOL    HW115185   6.411  10.616  10.827
38387SOL    HW215186   6.330  10.602  10.686
38388SOL     OW15187   6.258  10.926   9.464
38388SOL    HW115188   6.267  10.936   9.365
38388SOL    HW215189   6.218  10.837   9.485
38389SOL     OW15190   7.236  11.030  10.704
38389SOL    HW115191   7.289  11.040  10.620
38389SOL    HW215192   7.209  11.120  10.738
38390SOL     OW15193   7.427   9.485  10.273
38390SOL    HW115194   7.466   9.400  10.237
38390SOL    HW215195   7.329   9.487  10.254
38391SOL     OW15196   5.849   9.636  10.030
38391SOL    HW115197   5.770   9.687   9.996
38391SOL    HW215198   5.840   9.621  10.128
38392SOL     OW15199   6.780  10.922   9.341
38392SOL    HW115200   6.786  10.829   9.378
38392SOL    HW215201   6.721  10.922   9.261
38393SOL     OW15202   6.408  10.312  10.682
38393SOL    HW115203   6.448  10.311  10.590
38393SOL    HW215204   6.418  10.404  10.722
38394SOL     OW15205   6.502  10.220   9.601
38394SOL    HW115206   6.565  10.258   9.533
38394SOL    HW215207   6.542  10.137   9.640
38395SOL     OW15208   7.090  10.917   9.354
38395SOL    HW115209   6.998  10.954   9.361
38395SOL    HW215210   7.128  10.937   9.264
38396SOL     OW15211   5.958  10.598  10.800
38396SOL    HW115212   5.945  10.691  10.766
38396SOL    HW215213   5.874  10.546  10.787
38397SOL     OW15214   7.200  10.602  10.599
38397SOL    HW115215   7.260  10.605  10.679
38397SOL    HW215216   7.125  10.666  10.612
38398SOL     OW15217   6.625  10.408  10.006
38398SOL    HW115218   6.555  10.361  10.060
38398SOL    HW215219   6.684  10.340   9.963
38399SOL     OW15220   6.600   9.546  10.281
38399SOL    HW115221   6.592   9.510  10.188
38399SOL    HW215222   6.598   9.470  10.346
38400SOL     OW15223   6.176  10.797   9.801
38400SOL    HW115224   6.218  10.739   9.731
38400SOL    HW215225   6.132  10.876   9.757
38401SOL     OW15226   7.295   9.695  10.691
38401SOL    HW115227   7.368   9.764  10.695
38401SOL    HW215228   7.323   9.620  10.632
38402SOL     OW15229   5.841  10.658   9.600
38402SOL    HW115230   5.745  10.659   9.573
38402SOL    HW215231   5.853  10.711   9.684
38403SOL     OW15232   5.691  10.323  11.036
38403SOL    HW115233   5.614  10.290  11.090
38403SOL    HW215234   5.776  10.293  11.078
38404SOL     OW15235   6.258   9.513  10.799
38404SOL    HW115236   6.348   9.497  10.759
38404SOL    HW215237   6.266   9.518  10.898
38405SOL     OW15238   5.661   9.655   9.343
38405SOL    HW115239   5.569   9.627   9.314
38405SOL    HW215240   5.692   9.732   9.287
38406SOL     OW15241   7.026  10.166  10.708
38406SOL    HW115242   6.969  10.218  10.645
38406SOL    HW215243   7.122  10.178  10.684
38407SOL     OW15244   5.658   9.476   9.628
38407SOL    HW115245   5.641   9.559   9.574
38407SOL    HW215246   5.748   9.439   9.606
38408SOL     OW15247   6.769  10.645   9.429
38408SOL    HW115248   6.670  10.634   9.431
38408SOL    HW215249   6.803  10.660   9.522
38409SOL     OW15250   6.199  10.152  10.741
38409SOL    HW115251   6.255  10.233  10.724
38409SOL    HW215252   6.258  10.072  10.744
38410SOL     OW15253   7.079  11.077  10.269
38410SOL    HW115254   7.112  11.141  10.200
38410SOL    HW215255   7.145  11.071  10.344
38411SOL     OW15256   6.302   9.875  11.018
38411SOL    HW115257   6.321   9.940  11.092
38411SOL    HW215258   6.362   9.795  11.027
38412SOL     OW15259   7.036  10.530  10.943
38412SOL    HW115260   7.027  10.520  11.042
38412SOL    HW215261   7.132  10.523  10.917
38413SOL     OW15262   5.976  11.051  10.870
38413SOL    HW115263   5.885  11.092  10.868
38413SOL    HW215264   5.969  10.957  10.902
38414SOL     OW15265   7.260  10.193  10.564
38414SOL    HW115266   7.233  10.104  10.527
38414SOL    HW215267   7.261  10.261  10.491
38415SOL     OW15268   6.811   9.635   9.759
38415SOL    HW115269   6.876   9.561   9.748
38415SOL    HW215270   6.831   9.685   9.843
38416SOL     OW15271   6.180  10.055   9.962
38416SOL    HW115272   6.230  10.140   9.943
38416SOL    HW215273   6.092  10.057   9.914
38417SOL     OW15274   7.363   9.652  10.952
38417SOL    HW115275   7.346   9.683  10.858
38417SOL    HW215276   7.279   9.615  10.990
38418SOL     OW15277   7.316  10.244  10.827
38418SOL    HW115278   7.354  10.335  10.842
38418SOL    HW215279   7.308  10.227  10.728
38419SOL     OW15280   6.445  10.684   9.326
38419SOL    HW115281   6.399  10.699   9.414
38419SOL    HW215282   6.489  10.769   9.296
38420SOL     OW15283   6.247  11.100  10.263
38420SOL    HW115284   6.201  11.188  10.250
38420SOL    HW215285   6.346  11.112  10.256
38421SOL     OW15286   6.445  10.266  10.171
38421SOL    HW115287   6.499  10.197  10.219
38421SOL    HW215288   6.413  10.335  10.237
38422SOL     OW15289   6.669  10.294   9.397
38422SOL    HW115290   6.646  10.347   9.315
38422SOL    HW215291   6.750  10.238   9.378
38423SOL     OW15292   7.447  10.879  10.161
38423SOL    HW115293   7.376  10.867  10.091
38423SOL    HW215294   7.448  10.800  10.221
38424SOL     OW15295   5.807  10.624  11.154
38424SOL    HW115296   5.742  10.551  11.133
38424SOL    HW215297   5.811  10.638  11.252
38425SOL     OW15298   5.665  10.550   9.963
38425SOL    HW115299   5.664  10.503  10.051
38425SOL    HW215300   5.747  10.522   9.912
38426SOL     OW15301   6.258  10.701  10.934
38426SOL    HW115302   6.180  10.651  10.972
38426SOL    HW215303   6.255  10.796  10.965
38427SOL     OW15304   7.410   9.502  10.537
38427SOL    HW115305   7.406   9.412  10.581
38427SOL    HW215306   7.413   9.491  10.438
38428SOL     OW15307   6.014   9.734   9.830
38428SOL    HW115308   6.044   9.662   9.768
38428SOL    HW215309   5.975   9.694   9.913
38429SOL     OW15310   7.291  10.797  10.414
38429SOL    HW115311   7.198  10.772  10.387
38429SOL    HW215312   7.317  10.747  10.496
38430SOL     OW15313   5.903   9.857  10.590
38430SOL    HW115314   5.941   9.798  10.662
38430SOL    HW215315   5.943   9.831  10.502
38431SOL     OW15316   6.398  10.896   9.997
38431SOL    HW115317   6.430  10.906   9.903
38431SOL    HW215318   6.319  10.834   9.999
38432SOL     OW15319   7.010   9.524  10.422
38432SOL    HW115320   7.062   9.459  10.477
38432SOL    HW215321   6.961   9.587  10.483
38433SOL     OW15322   6.587   9.344  10.464
38433SOL    HW115323   6.524   9.272  10.433
38433SOL    HW215324   6.680   9.308  10.464
38434SOL     OW15325   6.356  10.640   9.611
38434SOL    HW115326   6.310  10.553   9.628
38434SOL    HW215327   6.447  10.637   9.652
38435SOL     OW15328   6.204  10.877  10.594
38435SOL    HW115329   6.199  10.959  10.651
38435SOL    HW215330   6.293  10.874  10.549
38436SOL     OW15331   6.938   9.362   9.478
38436SOL    HW115332   6.973   9.321   9.394
38436SOL    HW215333   6.848   9.324   9.498
38437SOL     OW15334   7.179   9.531  10.192
38437SOL    HW115335   7.095   9.530  10.246
38437SOL    HW215336   7.181   9.614  10.136
38438SOL     OW15337   5.625  10.387   9.610
38438SOL    HW115338   5.724  10.376   9.601
38438SOL    HW215339   5.585  10.301   9.642
38439SOL     OW15340   6.461  10.956   9.647
38439SOL    HW115341   6.384  10.921   9.593
38439SOL    HW215342   6.429  11.027   9.709
38440SOL     OW15343   5.816   9.938  11.285
38440SOL    HW115344   5.723   9.936  11.322
38440SOL    HW215345   5.817   9.899  11.193
38441SOL     OW15346   5.811   9.585  12.168
38441SOL    HW115347   5.846   9.568  12.260
38441SOL    HW215348   5.723   9.540  12.156
38442SOL     OW15349   5.605   9.678  11.819
38442SOL    HW115350   5.523   9.721  11.858
38442SOL    HW215351   5.577   9.605  11.756
38443SOL     OW15352   6.155  10.585  12.337
38443SOL    HW115353   6.062  10.578  12.300
38443SOL    HW215354   6.166  10.674  12.381
38444SOL     OW15355   7.141  10.821  11.875
38444SOL    HW115356   7.084  10.805  11.956
38444SOL    HW215357   7.082  10.831  11.795
38445SOL     OW15358   6.721  10.013  11.889
38445SOL    HW115359   6.778  10.091  11.864
38445SOL    HW215360   6.661  10.039  11.965
38446SOL     OW15361   7.341   9.917  11.403
38446SOL    HW115362   7.329   9.904  11.304
38446SOL    HW215363   7.311   9.836  11.452
38447SOL     OW15364   6.354  10.454  12.195
38447SOL    HW115365   6.276  10.471  12.255
38447SOL    HW215366   6.388  10.541  12.159
38448SOL     OW15367   5.921  10.745  12.233
38448SOL    HW115368   5.843  10.714  12.180
38448SOL    HW215369   5.979  10.803  12.176
38449SOL     OW15370   7.046  10.815  12.511
38449SOL    HW115371   7.070  10.909  12.537
38449SOL    HW215372   7.030  10.761  12.593
38450SOL     OW15373   6.024   9.702  12.671
38450SOL    HW115374   6.106   9.646  12.680
38450SOL    HW215375   5.943   9.644  12.675
38451SOL     OW15376   7.189   9.757  11.909
38451SOL    HW115377   7.115   9.803  11.859
38451SOL    HW215378   7.240   9.825  11.962
38452SOL     OW15379   5.817  11.023  11.655
38452SOL    HW115380   5.851  11.100  11.709
38452SOL    HW215381   5.861  11.023  11.565
38453SOL     OW15382   5.816  10.744  11.710
38453SOL    HW115383   5.790  10.840  11.710
38453SOL    HW215384   5.745  10.690  11.755
38454SOL     OW15385   5.826  10.401  12.058
38454SOL    HW115386   5.840  10.317  12.110
38454SOL    HW215387   5.771  10.465  12.113
38455SOL     OW15388   6.206  11.096  12.611
38455SOL    HW115389   6.114  11.079  12.646
38455SOL    HW215390   6.234  11.188  12.637
38456SOL     OW15391   6.192  10.274  11.295
38456SOL    HW115392   6.199  10.358  11.241
38456SOL    HW215393   6.238  10.287  11.383
38457SOL     OW15394   7.180   9.424  12.652
38457SOL    HW115395   7.162   9.491  12.580
38457SOL    HW215396   7.177   9.470  12.741
38458SOL     OW15397   5.708   9.953  11.735
38458SOL    HW115398   5.663   9.865  11.752
38458SOL    HW215399   5.707  10.007  11.819
38459SOL     OW15400   7.428  11.077  11.531
38459SOL    HW115401   7.482  11.048  11.611
38459SOL    HW215402   7.458  11.167  11.502
38460SOL     OW15403   5.613  10.906  11.289
38460SOL    HW115404   5.594  10.810  11.310
38460SOL    HW215405   5.580  10.964  11.364
38461SOL     OW15406   7.275  10.232  11.784
38461SOL    HW115407   7.370  10.203  11.792
38461SOL    HW215408   7.267  10.297  11.709
38462SOL     OW15409   7.227  10.418  11.604
38462SOL    HW115410   7.313  10.420  11.552
38462SOL    HW215411   7.241  10.465  11.692
38463SOL     OW15412   5.699  10.047  12.769
38463SOL    HW115413   5.787  10.034  12.814
38463SOL    HW215414   5.686  10.144  12.747
38464SOL     OW15415   6.199  10.675  11.898
38464SOL    HW115416   6.150  10.588  11.907
38464SOL    HW215417   6.176  10.718  11.811
38465SOL     OW15418   6.879  10.538  12.595
38465SOL    HW115419   6.916  10.465  12.537
38465SOL    HW215420   6.931  10.543  12.680
38466SOL     OW15421   6.395   9.314  11.674
38466SOL    HW115422   6.435   9.405  11.665
38466SOL    HW215423   6.295   9.322  11.680
38467SOL     OW15424   5.783  10.286  12.436
38467SOL    HW115425   5.872  10.241  12.422
38467SOL    HW215426   5.710  10.221  12.417
38468SOL     OW15427   7.111  10.309  11.362
38468SOL    HW115428   7.048  10.233  11.375
38468SOL    HW215429   7.159  10.327  11.448
38469SOL     OW15430   7.052  10.727  12.125
38469SOL    HW115431   6.993  10.733  12.205
38469SOL    HW215432   7.037  10.639  12.079
38470SOL     OW15433   7.253  11.024  11.744
38470SOL    HW115434   7.212  11.001  11.656
38470SOL    HW215435   7.235  10.950  11.809
38471SOL     OW15436   6.184  10.039  11.442
38471SOL    HW115437   6.208  10.108  11.374
38471SOL    HW215438   6.106  10.072  11.496
38472SOL     OW15439   6.867   9.655  12.116
38472SOL    HW115440   6.781   9.605  12.103
38472SOL    HW215441   6.929   9.601  12.172
38473SOL     OW15442   7.162  10.972  11.479
38473SOL    HW115443   7.251  11.018  11.482
38473SOL    HW215444   7.141  10.948  11.384
38474SOL     OW15445   6.393   9.915  12.637
38474SOL    HW115446   6.346   9.912  12.726
38474SOL    HW215447   6.342   9.860  12.571
38475SOL     OW15448   6.559  10.200  12.744
38475SOL    HW115449   6.605  10.116  12.715
38475SOL    HW215450   6.503  10.234  12.669
38476SOL     OW15451   6.577   9.720  12.414
38476SOL    HW115452   6.500   9.754  12.468
38476SOL    HW215453   6.543   9.669  12.335
38477SOL     OW15454   6.627  10.011  11.601
38477SOL    HW115455   6.653  10.007  11.697
38477SOL    HW215456   6.542   9.960  11.587
38478SOL     OW15457   5.662  10.121  11.961
38478SOL    HW115458   5.761  10.109  11.970
38478SOL    HW215459   5.638  10.216  11.982
38479SOL     OW15460   5.716  11.131  12.743
38479SOL    HW115461   5.706  11.116  12.842
38479SOL    HW215462   5.630  11.167  12.707
38480SOL     OW15463   6.451   9.658  11.367
38480SOL    HW115464   6.510   9.721  11.318
38480SOL    HW215465   6.470   9.564  11.338
38481SOL     OW15466   6.948  10.454  11.717
38481SOL    HW115467   7.031  10.425  11.669
38481SOL    HW215468   6.899  10.521  11.661
38482SOL     OW15469   6.136   9.506  12.057
38482SOL    HW115470   6.131   9.501  12.157
38482SOL    HW215471   6.138   9.602  12.028
38483SOL     OW15472   6.594  10.766  11.649
38483SOL    HW115473   6.548  10.838  11.597
38483SOL    HW215474   6.590  10.786  11.747
38484SOL     OW15475   5.937  11.111  12.025
38484SOL    HW115476   5.987  11.025  12.031
38484SOL    HW215477   6.002  11.188  12.022
38485SOL     OW15478   7.381  10.376  12.045
38485SOL    HW115479   7.319  10.361  11.969
38485SOL    HW215480   7.329  10.387  12.130
38486SOL     OW15481   6.813  10.860  12.678
38486SOL    HW115482   6.819  10.783  12.742
38486SOL    HW215483   6.761  10.834  12.598
38487SOL     OW15484   5.907  10.253  11.414
38487SOL    HW115485   5.989  10.292  11.372
38487SOL    HW215486   5.880  10.171  11.365
38488SOL     OW15487   7.044  10.045  11.900
38488SOL    HW115488   7.039   9.980  11.975
38488SOL    HW215489   7.124  10.104  11.913
38489SOL     OW15490   6.697  11.086  11.409
38489SOL    HW115491   6.637  11.024  11.459
38489SOL    HW215492   6.728  11.042  11.324
38490SOL     OW15493   5.788   9.595  12.670
38490SOL    HW115494   5.708   9.655  12.657
38490SOL    HW215495   5.778   9.546  12.756
38491SOL     OW15496   7.218  10.687  11.253
38491SOL    HW115497   7.186  10.781  11.243
38491SOL    HW215498   7.142  10.624  11.241
38492SOL     OW15499   6.050  11.053  11.495
38492SOL    HW115500   6.083  11.092  11.581
38492SOL    HW215501   6.126  11.046  11.430
38493SOL     OW15502   6.986   9.417  11.598
38493SOL    HW115503   6.962   9.380  11.508
38493SOL    HW215504   7.085   9.433  11.602
38494SOL     OW15505   5.835  11.095  12.413
38494SOL    HW115506   5.892  11.030  12.463
38494SOL    HW215507   5.819  11.062  12.320
38495SOL     OW15508   6.526  11.008  12.076
38495SOL    HW115509   6.606  10.951  12.097
38495SOL    HW215510   6.477  10.968  11.999
38496SOL     OW15511   5.968  10.010  11.652
38496SOL    HW115512   6.013   9.920  11.649
38496SOL    HW215513   5.874   9.999  11.685
38497SOL     OW15514   6.200   9.432  11.289
38497SOL    HW115515   6.298   9.410  11.296
38497SOL    HW215516   6.169   9.415  11.196
38498SOL     OW15517   6.474  10.824  12.367
38498SOL    HW115518   6.451  10.799  12.273
38498SOL    HW215519   6.535  10.755  12.406
38499SOL     OW15520   6.937   9.900  12.605
38499SOL    HW115521   6.965   9.857  12.690
38499SOL    HW215522   6.962   9.996  12.606
38500SOL     OW15523   6.389  10.712  12.096
38500SOL    HW115524   6.479  10.726  12.054
38500SOL    HW215525   6.318  10.714  12.025
38501SOL     OW15526   6.508   9.813  12.071
38501SOL    HW115527   6.483   9.804  11.975
38501SOL    HW215528   6.556   9.731  12.102
38502SOL     OW15529   6.125   9.374  11.684
38502SOL    HW115530   6.044   9.375  11.742
38502SOL    HW215531   6.128   9.457  11.629
38503SOL     OW15532   7.020  10.498  11.213
38503SOL    HW115533   7.052  10.422  11.270
38503SOL    HW215534   6.928  10.525  11.243
38504SOL     OW15535   5.883   9.345  11.343
38504SOL    HW115536   5.932   9.429  11.322
38504SOL    HW215537   5.945   9.280  11.388
38505SOL     OW15538   6.521   9.546  11.652
38505SOL    HW115539   6.473   9.587  11.574
38505SOL    HW215540   6.620   9.544  11.633
38506SOL     OW15541   6.662   9.993  12.636
38506SOL    HW115542   6.582   9.932  12.639
38506SOL    HW215543   6.743   9.940  12.612
38507SOL     OW15544   6.813  10.880  11.965
38507SOL    HW115545   6.834  10.954  11.900
38507SOL    HW215546   6.881  10.880  12.038
38508SOL     OW15547   6.045  10.462  11.913
38508SOL    HW115548   5.974  10.435  11.978
38508SOL    HW215549   6.019  10.434  11.820
38509SOL     OW15550   6.857  11.107  11.763
38509SOL    HW115551   6.901  11.171  11.699
38509SOL    HW215552   6.807  11.159  11.833
38510SOL     OW15553   6.618   9.859  11.188
38510SOL    HW115554   6.577   9.941  11.149
38510SOL    HW215555   6.682   9.885  11.261
38511SOL     OW15556   5.664   9.866  12.558
38511SOL    HW115557   5.756   9.865  12.517
38511SOL    HW215558   5.658   9.940  12.625
38512SOL     OW15559   6.147   9.532  12.319
38512SOL    HW115560   6.185   9.448  12.356
38512SOL    HW215561   6.059   9.551  12.363
38513SOL     OW15562   6.452   9.764  11.814
38513SOL    HW115563   6.420   9.836  11.752
38513SOL    HW215564   6.476   9.683  11.761
38514SOL     OW15565   6.603   9.349  11.925
38514SOL    HW115566   6.531   9.354  11.856
38514SOL    HW215567   6.579   9.280  11.994
38515SOL     OW15568   7.015  10.483  12.039
38515SOL    HW115569   6.960  10.399  12.032
38515SOL    HW215570   7.041  10.512  11.947
38516SOL     OW15571   7.052   9.900  12.164
38516SOL    HW115572   7.022   9.805  12.171
38516SOL    HW215573   7.125   9.916  12.230
38517SOL     OW15574   7.443  10.143  11.549
38517SOL    HW115575   7.485  10.079  11.613
38517SOL    HW215576   7.405  10.092  11.471
38518SOL     OW15577   6.074  10.695  11.346
38518SOL    HW115578   5.987  10.680  11.393
38518SOL    HW215579   6.057  10.721  11.251
38519SOL     OW15580   7.250  10.590  11.829
38519SOL    HW115581   7.349  10.598  11.843
38519SOL    HW215582   7.205  10.674  11.860
38520SOL     OW15583   6.976   9.885  11.250
38520SOL    HW115584   6.922   9.864  11.331
38520SOL    HW215585   7.067   9.844  11.259
38521SOL     OW15586   6.113   9.566  11.500
38521SOL    HW115587   6.140   9.507  11.425
38521SOL    HW215588   6.113   9.661  11.469
38522SOL     OW15589   7.340  10.533  12.760
38522SOL    HW115590   7.431  10.494  12.747
38522SOL    HW215591   7.348  10.629  12.784
38523SOL     OW15592   6.650  10.657  12.512
38523SOL    HW115593   6.570  10.634  12.567
38523SOL    HW215594   6.733  10.631  12.561
38524SOL     OW15595   6.697  10.505  12.272
38524SOL    HW115596   6.657  10.549  12.353
38524SOL    HW215597   6.656  10.542  12.189
38525SOL     OW15598   7.224  10.409  12.251
38525SOL    HW115599   7.229  10.490  12.310
38525SOL    HW215600   7.138  10.411  12.200
38526SOL     OW15601   6.501   9.399  12.574
38526SOL    HW115602   6.526   9.379  12.479
38526SOL    HW215603   6.573   9.455  12.616
38527SOL     OW15604   6.291  10.360  11.540
38527SOL    HW115605   6.277  10.367  11.639
38527SOL    HW215606   6.375  10.309  11.522
38528SOL     OW15607   5.996  10.123  12.423
38528SOL    HW115608   6.082  10.135  12.473
38528SOL    HW215609   5.954  10.036  12.450
38529SOL     OW15610   6.860   9.696  12.434
38529SOL    HW115611   6.881   9.770  12.498
38529SOL    HW215612   6.771   9.713  12.391
38530SOL     OW15613   5.650  10.874  12.503
38530SOL    HW115614   5.604  10.956  12.469
38530SOL    HW215615   5.748  10.893  12.512
38531SOL     OW15616   5.953  10.410  11.673
38531SOL    HW115617   5.946  10.493  11.617
38531SOL    HW215618   5.957  10.330  11.613
38532SOL     OW15619   6.152   9.847  12.037
38532SOL    HW115620   6.164   9.913  11.963
38532SOL    HW215621   6.198   9.881  12.120
38533SOL     OW15622   6.838  10.658  11.560
38533SOL    HW115623   6.888  10.735  11.600
38533SOL    HW215624   6.743  10.660  11.592
38534SOL     OW15625   6.858  10.755  12.314
38534SOL    HW115626   6.905  10.768  12.401
38534SOL    HW215627   6.792  10.681  12.323
38535SOL     OW15628   7.168   9.949  11.644
38535SOL    HW115629   7.137  10.010  11.717
38535SOL    HW215630   7.218  10.001  11.575
38536SOL     OW15631   5.940  10.820  12.501
38536SOL    HW115632   5.919  10.776  12.414
38536SOL    HW215633   6.037  10.846  12.504
38537SOL     OW15634   5.988  10.061  12.770
38537SOL    HW115635   6.056  10.116  12.723
38537SOL    HW215636   6.028   9.973  12.797
38538SOL     OW15637   7.173  10.089  12.842
38538SOL    HW115638   7.081  10.127  12.837
38538SOL    HW215639   7.233  10.136  12.777
38539SOL     OW15640   6.159  10.180  12.201
38539SOL    HW115641   6.203  10.269  12.192
38539SOL    HW215642   6.096  10.180  12.278
38540SOL     OW15643   6.946  10.172  12.217
38540SOL    HW115644   6.871  10.172  12.151
38540SOL    HW215645   6.983  10.080  12.226
38541SOL     OW15646   6.795   9.835  11.447
38541SOL    HW115647   6.808   9.751  11.501
38541SOL    HW215648   6.766   9.909  11.507
38542SOL     OW15649   5.893   9.523  12.403
38542SOL    HW115650   5.870   9.560  12.493
38542SOL    HW215651   5.863   9.428  12.397
38543SOL     OW15652   5.623  10.620  12.454
38543SOL    HW115653   5.676  10.571  12.522
38543SOL    HW215654   5.645  10.718  12.459
38544SOL     OW15655   6.318   9.944  12.236
38544SOL    HW115656   6.377   9.918  12.160
38544SOL    HW215657   6.290  10.040  12.225
38545SOL     OW15658   5.893   9.373  11.790
38545SOL    HW115659   5.882   9.467  11.823
38545SOL    HW215660   5.888   9.310  11.867
38546SOL     OW15661   7.208   9.677  11.546
38546SOL    HW115662   7.210   9.601  11.610
38546SOL    HW215663   7.160   9.754  11.586
38547SOL     OW15664   6.609  10.076  12.138
38547SOL    HW115665   6.624  10.097  12.234
38547SOL    HW215666   6.579   9.981  12.129
38548SOL     OW15667   7.126   9.584  11.297
38548SOL    HW115668   7.065   9.509  11.320
38548SOL    HW215669   7.148   9.636  11.380
38549SOL     OW15670   6.889  10.148  11.214
38549SOL    HW115671   6.923  10.055  11.229
38549SOL    HW215672   6.907  10.175  11.119
38550SOL     OW15673   6.654  10.643  12.021
38550SOL    HW115674   6.661  10.559  11.966
38550SOL    HW215675   6.716  10.712  11.985
38551SOL     OW15676   5.905  10.120  12.121
38551SOL    HW115677   5.998  10.156  12.126
38551SOL    HW215678   5.899  10.035  12.173
38552SOL     OW15679   5.925   9.819  12.178
38552SOL    HW115680   5.873   9.736  12.161
38552SOL    HW215681   6.002   9.824  12.114
38553SOL     OW15682   6.746   9.517  12.649
38553SOL    HW115683   6.746   9.581  12.726
38553SOL    HW215684   6.774   9.565  12.566
38554SOL     OW15685   5.594  10.636  11.372
38554SOL    HW115686   5.501  10.657  11.341
38554SOL    HW215687   5.604  10.537  11.385
38555SOL     OW15688   5.674  11.111  12.099
38555SOL    HW115689   5.632  11.025  12.072
38555SOL    HW215690   5.768  11.114  12.065
38556SOL     OW15691   6.090  10.878  12.082
38556SOL    HW115692   6.156  10.952  12.091
38556SOL    HW215693   6.134  10.799  12.040
38557SOL     OW15694   6.588  10.106  12.410
38557SOL    HW115695   6.629  10.074  12.496
38557SOL    HW215696   6.492  10.079  12.407
38558SOL     OW15697   5.626   9.854  12.286
38558SOL    HW115698   5.711   9.821  12.245
38558SOL    HW215699   5.639   9.869  12.384
38559SOL     OW15700   6.401   9.882  11.497
38559SOL    HW115701   6.408   9.793  11.451
38559SOL    HW215702   6.307   9.916  11.489
38560SOL     OW15703   7.243   9.914  12.378
38560SOL    HW115704   7.205   9.845  12.440
38560SOL    HW215705   7.325   9.878  12.334
38561SOL     OW15706   5.838  10.874  12.916
38561SOL    HW115707   5.808  10.931  12.992
38561SOL    HW215708   5.831  10.777  12.942
38562SOL     OW15709   6.257   9.774  12.441
38562SOL    HW115710   6.223   9.685  12.411
38562SOL    HW215711   6.283   9.828  12.361
38563SOL     OW15712   6.516  10.988  12.637
38563SOL    HW115713   6.492  10.970  12.542
38563SOL    HW215714   6.546  11.082  12.647
38564SOL     OW15715   6.059   9.810  11.363
38564SOL    HW115716   6.120   9.890  11.367
38564SOL    HW215717   5.964   9.841  11.370
38565SOL     OW15718   5.745  10.447  12.638
38565SOL    HW115719   5.767  10.386  12.714
38565SOL    HW215720   5.755  10.398  12.552
38566SOL     OW15721   6.933  10.369  12.406
38566SOL    HW115722   6.957  10.306  12.332
38566SOL    HW215723   6.843  10.409  12.388
38567SOL     OW15724   6.888  10.165  11.481
38567SOL    HW115725   6.802  10.134  11.523
38567SOL    HW215726   6.884  10.151  11.382
38568SOL     OW15727   7.345  11.057  12.326
38568SOL    HW115728   7.406  11.087  12.253
38568SOL    HW215729   7.307  10.968  12.304
38569SOL     OW15730   6.838  11.041  12.300
38569SOL    HW115731   6.922  11.046  12.246
38569SOL    HW215732   6.815  10.945  12.318
38570SOL     OW15733   5.669  10.568  12.194
38570SOL    HW115734   5.664  10.567  12.294
38570SOL    HW215735   5.586  10.527  12.156
38571SOL     OW15736   7.312   9.445  11.695
38571SOL    HW115737   7.385   9.428  11.628
38571SOL    HW215738   7.281   9.358  11.733
38572SOL     OW15739   6.974  10.883  11.649
38572SOL    HW115740   7.041  10.895  11.575
38572SOL    HW215741   6.934  10.972  11.672
38573SOL     OW15742   6.866  10.237  11.844
38573SOL    HW115743   6.926  10.156  11.846
38573SOL    HW215744   6.906  10.306  11.784
38574SOL     OW15745   6.416  10.583  12.594
38574SOL    HW115746   6.411  10.616  12.689
38574SOL    HW215747   6.330  10.602  12.548
38575SOL     OW15748   6.258  10.926  11.326
38575SOL    HW115749   6.267  10.936  11.227
38575SOL    HW215750   6.218  10.837  11.347
38576SOL     OW15751   7.236  11.030  12.566
38576SOL    HW115752   7.289  11.040  12.482
38576SOL    HW215753   7.209  11.120  12.600
38577SOL     OW15754   7.427   9.485  12.135
38577SOL    HW115755   7.466   9.400  12.099
38577SOL    HW215756   7.329   9.487  12.116
38578SOL     OW15757   5.849   9.636  11.892
38578SOL    HW115758   5.770   9.687  11.858
38578SOL    HW215759   5.840   9.621  11.990
38579SOL     OW15760   6.780  10.922  11.203
38579SOL    HW115761   6.786  10.829  11.240
38579SOL    HW215762   6.721  10.922  11.123
38580SOL     OW15763   6.408  10.312  12.544
38580SOL    HW115764   6.448  10.311  12.452
38580SOL    HW215765   6.418  10.404  12.584
38581SOL     OW15766   6.502  10.220  11.463
38581SOL    HW115767   6.565  10.258  11.395
38581SOL    HW215768   6.542  10.137  11.502
38582SOL     OW15769   7.090  10.917  11.216
38582SOL    HW115770   6.998  10.954  11.223
38582SOL    HW215771   7.128  10.937  11.126
38583SOL     OW15772   5.958  10.598  12.662
38583SOL    HW115773   5.945  10.691  12.628
38583SOL    HW215774   5.874  10.546  12.649
38584SOL     OW15775   7.200  10.602  12.461
38584SOL    HW115776   7.260  10.605  12.541
38584SOL    HW215777   7.125  10.666  12.474
38585SOL     OW15778   6.625  10.408  11.868
38585SOL    HW115779   6.555  10.361  11.922
38585SOL    HW215780   6.684  10.340  11.825
38586SOL     OW15781   6.600   9.546  12.143
38586SOL    HW115782   6.592   9.510  12.050
38586SOL    HW215783   6.598   9.470  12.208
38587SOL     OW15784   6.176  10.797  11.663
38587SOL    HW115785   6.218  10.739  11.593
38587SOL    HW215786   6.132  10.876  11.619
38588SOL     OW15787   7.295   9.695  12.553
38588SOL    HW115788   7.368   9.764  12.557
38588SOL    HW215789   7.323   9.620  12.494
38589SOL     OW15790   5.841  10.658  11.462
38589SOL    HW115791   5.745  10.659  11.435
38589SOL    HW215792   5.853  10.711  11.546
38590SOL     OW15793   5.691  10.323  12.898
38590SOL    HW115794   5.614  10.290  12.952
38590SOL    HW215795   5.776  10.293  12.940
38591SOL     OW15796   6.258   9.513  12.661
38591SOL    HW115797   6.348   9.497  12.621
38591SOL    HW215798   6.266   9.518  12.760
38592SOL     OW15799   5.661   9.655  11.205
38592SOL    HW115800   5.569   9.627  11.176
38592SOL    HW215801   5.692   9.732  11.149
38593SOL     OW15802   7.026  10.166  12.570
38593SOL    HW115803   6.969  10.218  12.507
38593SOL    HW215804   7.122  10.178  12.546
38594SOL     OW15805   5.658   9.476  11.490
38594SOL    HW115806   5.641   9.559  11.436
38594SOL    HW215807   5.748   9.439  11.468
38595SOL     OW15808   6.769  10.645  11.291
38595SOL    HW115809   6.670  10.634  11.293
38595SOL    HW215810   6.803  10.660  11.384
38596SOL     OW15811   6.199  10.152  12.603
38596SOL    HW115812   6.255  10.233  12.586
38596SOL    HW215813   6.258  10.072  12.606
38597SOL     OW15814   7.079  11.077  12.131
38597SOL    HW115815   7.112  11.141  12.062
38597SOL    HW215816   7.145  11.071  12.206
38598SOL     OW15817   6.302   9.875  12.880
38598SOL    HW115818   6.321   9.940  12.954
38598SOL    HW215819   6.362   9.795  12.889
38599SOL     OW15820   5.976  11.051  12.732
38599SOL    HW115821   5.885  11.092  12.730
38599SOL    HW215822   5.969  10.957  12.764
38600SOL     OW15823   7.260  10.193  12.426
38600SOL    HW115824   7.233  10.104  12.389
38600SOL    HW215825   7.261  10.261  12.353
38601SOL     OW15826   6.811   9.635  11.621
38601SOL    HW115827   6.876   9.561  11.610
38601SOL    HW215828   6.831   9.685  11.705
38602SOL     OW15829   6.180  10.055  11.824
38602SOL    HW115830   6.230  10.140  11.805
38602SOL    HW215831   6.092  10.057  11.776
38603SOL     OW15832   7.316  10.244  12.689
38603SOL    HW115833   7.354  10.335  12.704
38603SOL    HW215834   7.308  10.227  12.590
38604SOL     OW15835   6.445  10.684  11.188
38604SOL    HW115836   6.399  10.699  11.276
38604SOL    HW215837   6.489  10.769  11.158
38605SOL     OW15838   6.247  11.100  12.125
38605SOL    HW115839   6.201  11.188  12.112
38605SOL    HW215840   6.346  11.112  12.118
38606SOL     OW15841   6.445  10.266  12.033
38606SOL    HW115842   6.499  10.197  12.081
38606SOL    HW215843   6.413  10.335  12.099
38607SOL     OW15844   6.669  10.294  11.259
38607SOL    HW115845   6.646  10.347  11.177
38607SOL    HW215846   6.750  10.238  11.240
38608SOL     OW15847   7.447  10.879  12.023
38608SOL    HW115848   7.376  10.867  11.953
38608SOL    HW215849   7.448  10.800  12.083
38609SOL     OW15850   5.665  10.550  11.825
38609SOL    HW115851   5.664  10.503  11.913
38609SOL    HW215852   5.747  10.522  11.774
38610SOL     OW15853   6.258  10.701  12.796
38610SOL    HW115854   6.180  10.651  12.834
38610SOL    HW215855   6.255  10.796  12.827
38611SOL     OW15856   7.410   9.502  12.399
38611SOL    HW115857   7.406   9.412  12.443
38611SOL    HW215858   7.413   9.491  12.300
38612SOL     OW15859   6.014   9.734  11.692
38612SOL    HW115860   6.044   9.662  11.630
38612SOL    HW215861   5.975   9.694  11.775
38613SOL     OW15862   7.291  10.797  12.276
38613SOL    HW115863   7.198  10.772  12.249
38613SOL    HW215864   7.317  10.747  12.358
38614SOL     OW15865   5.903   9.857  12.452
38614SOL    HW115866   5.941   9.798  12.524
38614SOL    HW215867   5.943   9.831  12.364
38615SOL     OW15868   6.398  10.896  11.859
38615SOL    HW115869   6.430  10.906  11.765
38615SOL    HW215870   6.319  10.834  11.861
38616SOL     OW15871   7.010   9.524  12.284
38616SOL    HW115872   7.062   9.459  12.339
38616SOL    HW215873   6.961   9.587  12.345
38617SOL     OW15874   6.587   9.344  12.326
38617SOL    HW115875   6.524   9.272  12.295
38617SOL    HW215876   6.680   9.308  12.326
38618SOL     OW15877   6.356  10.640  11.473
38618SOL    HW115878   6.310  10.553  11.490
38618SOL    HW215879   6.447  10.637  11.514
38619SOL     OW15880   6.204  10.877  12.456
38619SOL    HW115881   6.199  10.959  12.513
38619SOL    HW215882   6.293  10.874  12.411
38620SOL     OW15883   6.938   9.362  11.340
38620SOL    HW115884   6.973   9.321  11.256
38620SOL    HW215885   6.848   9.324  11.360
38621SOL     OW15886   6.886   9.763  11.863
38621SOL    HW115887   6.827   9.843  11.867
38621SOL    HW215888   6.901   9.728  11.956
38622SOL     OW15889   7.179   9.531  12.054
38622SOL    HW115890   7.095   9.530  12.108
38622SOL    HW215891   7.181   9.614  11.998
38623SOL     OW15892   5.625  10.387  11.472
38623SOL    HW115893   5.724  10.376  11.463
38623SOL    HW215894   5.585  10.301  11.504
38624SOL     OW15895   6.461  10.956  11.509
38624SOL    HW115896   6.384  10.921  11.455
38624SOL    HW215897   6.429  11.027  11.571
38625SOL     OW15898   5.816  11.800   0.113
38625SOL    HW115899   5.723  11.798   0.150
38625SOL    HW215900   5.817  11.761   0.021
38626SOL     OW15901   5.811  11.447   0.996
38626SOL    HW115902   5.846  11.430   1.088
38626SOL    HW215903   5.723  11.402   0.984
38627SOL     OW15904   5.605  11.540   0.647
38627SOL    HW115905   5.523  11.583   0.686
38627SOL    HW215906   5.577  11.467   0.584
38628SOL     OW15907   6.155  12.447   1.165
38628SOL    HW115908   6.062  12.440   1.128
38628SOL    HW215909   6.166  12.536   1.209
38629SOL     OW15910   7.141  12.683   0.703
38629SOL    HW115911   7.084  12.667   0.784
38629SOL    HW215912   7.082  12.693   0.623
38630SOL     OW15913   6.721  11.875   0.717
38630SOL    HW115914   6.778  11.953   0.692
38630SOL    HW215915   6.661  11.901   0.793
38631SOL     OW15916   7.341  11.779   0.231
38631SOL    HW115917   7.329  11.766   0.132
38631SOL    HW215918   7.311  11.698   0.280
38632SOL     OW15919   6.354  12.316   1.023
38632SOL    HW115920   6.276  12.333   1.083
38632SOL    HW215921   6.388  12.403   0.987
38633SOL     OW15922   6.436  11.970   1.823
38633SOL    HW115923   6.432  12.046   1.888
38633SOL    HW215924   6.458  12.006   1.732
38634SOL     OW15925   6.271  12.184   0.665
38634SOL    HW115926   6.340  12.168   0.735
38634SOL    HW215927   6.198  12.241   0.703
38635SOL     OW15928   6.272  12.333   1.803
38635SOL    HW115929   6.332  12.412   1.817
38635SOL    HW215930   6.186  12.364   1.762
38636SOL     OW15931   5.921  12.607   1.061
38636SOL    HW115932   5.843  12.576   1.008
38636SOL    HW215933   5.979  12.665   1.004
38637SOL     OW15934   7.046  12.677   1.339
38637SOL    HW115935   7.070  12.771   1.365
38637SOL    HW215936   7.030  12.623   1.421
38638SOL     OW15937   6.024  11.564   1.499
38638SOL    HW115938   6.106  11.508   1.508
38638SOL    HW215939   5.943  11.506   1.503
38639SOL     OW15940   7.189  11.619   0.737
38639SOL    HW115941   7.115  11.665   0.687
38639SOL    HW215942   7.240  11.687   0.790
38640SOL     OW15943   6.713  12.513   1.690
38640SOL    HW115944   6.760  12.513   1.778
38640SOL    HW215945   6.665  12.426   1.679
38641SOL     OW15946   5.816  12.606   0.538
38641SOL    HW115947   5.790  12.702   0.538
38641SOL    HW215948   5.745  12.552   0.583
38642SOL     OW15949   5.826  12.263   0.886
38642SOL    HW115950   5.840  12.179   0.938
38642SOL    HW215951   5.771  12.327   0.941
38643SOL     OW15952   6.192  12.136   0.123
38643SOL    HW115953   6.199  12.220   0.069
38643SOL    HW215954   6.238  12.149   0.211
38644SOL     OW15955   7.180  11.286   1.480
38644SOL    HW115956   7.162  11.353   1.408
38644SOL    HW215957   7.177  11.332   1.569
38645SOL     OW15958   5.708  11.815   0.563
38645SOL    HW115959   5.663  11.727   0.580
38645SOL    HW215960   5.707  11.869   0.647
38646SOL     OW15961   5.613  12.768   0.117
38646SOL    HW115962   5.594  12.672   0.138
38646SOL    HW215963   5.580  12.826   0.192
38647SOL     OW15964   7.275  12.094   0.612
38647SOL    HW115965   7.370  12.065   0.620
38647SOL    HW215966   7.267  12.159   0.537
38648SOL     OW15967   7.227  12.280   0.432
38648SOL    HW115968   7.313  12.282   0.380
38648SOL    HW215969   7.241  12.327   0.520
38649SOL     OW15970   5.699  11.909   1.597
38649SOL    HW115971   5.787  11.896   1.642
38649SOL    HW215972   5.686  12.006   1.575
38650SOL     OW15973   6.199  12.537   0.726
38650SOL    HW115974   6.150  12.450   0.735
38650SOL    HW215975   6.176  12.580   0.639
38651SOL     OW15976   6.879  12.400   1.423
38651SOL    HW115977   6.916  12.327   1.365
38651SOL    HW215978   6.931  12.405   1.508
38652SOL     OW15979   6.395  11.176   0.502
38652SOL    HW115980   6.435  11.267   0.493
38652SOL    HW215981   6.295  11.184   0.508
38653SOL     OW15982   5.783  12.148   1.264
38653SOL    HW115983   5.872  12.103   1.250
38653SOL    HW215984   5.710  12.083   1.245
38654SOL     OW15985   7.111  12.171   0.190
38654SOL    HW115986   7.048  12.095   0.203
38654SOL    HW215987   7.159  12.189   0.276
38655SOL     OW15988   5.903  11.423   1.801
38655SOL    HW115989   5.974  11.494   1.807
38655SOL    HW215990   5.815  11.462   1.829
38656SOL     OW15991   7.052  12.589   0.953
38656SOL    HW115992   6.993  12.595   1.033
38656SOL    HW215993   7.037  12.501   0.907
38657SOL     OW15994   6.184  11.901   0.270
38657SOL    HW115995   6.208  11.970   0.202
38657SOL    HW215996   6.106  11.934   0.324
38658SOL     OW15997   6.867  11.517   0.944
38658SOL    HW115998   6.781  11.467   0.931
38658SOL    HW215999   6.929  11.463   1.000
38659SOL     OW16000   7.162  12.834   0.307
38659SOL    HW116001   7.251  12.880   0.310
38659SOL    HW216002   7.141  12.810   0.212
38660SOL     OW16003   6.393  11.777   1.465
38660SOL    HW116004   6.346  11.774   1.554
38660SOL    HW216005   6.342  11.722   1.399
38661SOL     OW16006   6.980  11.641   1.674
38661SOL    HW116007   6.960  11.684   1.762
38661SOL    HW216008   7.058  11.579   1.683
38662SOL     OW16009   6.559  12.062   1.572
38662SOL    HW116010   6.605  11.978   1.543
38662SOL    HW216011   6.503  12.096   1.497
38663SOL     OW16012   6.577  11.582   1.242
38663SOL    HW116013   6.500  11.616   1.296
38663SOL    HW216014   6.543  11.531   1.163
38664SOL     OW16015   6.627  11.873   0.429
38664SOL    HW116016   6.653  11.869   0.525
38664SOL    HW216017   6.542  11.822   0.415
38665SOL     OW16018   5.662  11.983   0.789
38665SOL    HW116019   5.761  11.971   0.798
38665SOL    HW216020   5.638  12.078   0.810
38666SOL     OW16021   6.451  11.520   0.195
38666SOL    HW116022   6.510  11.583   0.146
38666SOL    HW216023   6.470  11.426   0.166
38667SOL     OW16024   7.305  11.757   1.831
38667SOL    HW116025   7.279  11.846   1.795
38667SOL    HW216026   7.303  11.689   1.758
38668SOL     OW16027   6.948  12.316   0.545
38668SOL    HW116028   7.031  12.287   0.497
38668SOL    HW216029   6.899  12.383   0.489
38669SOL     OW16030   6.136  11.368   0.885
38669SOL    HW116031   6.131  11.363   0.985
38669SOL    HW216032   6.138  11.464   0.856
38670SOL     OW16033   6.594  12.628   0.477
38670SOL    HW116034   6.548  12.700   0.425
38670SOL    HW216035   6.590  12.648   0.575
38671SOL     OW16036   7.381  12.238   0.873
38671SOL    HW116037   7.319  12.223   0.797
38671SOL    HW216038   7.329  12.249   0.958
38672SOL     OW16039   6.813  12.722   1.506
38672SOL    HW116040   6.819  12.645   1.570
38672SOL    HW216041   6.761  12.696   1.426
38673SOL     OW16042   5.907  12.115   0.242
38673SOL    HW116043   5.989  12.154   0.200
38673SOL    HW216044   5.880  12.033   0.193
38674SOL     OW16045   7.044  11.907   0.728
38674SOL    HW116046   7.039  11.842   0.803
38674SOL    HW216047   7.124  11.966   0.741
38675SOL     OW16048   6.047  12.438   1.727
38675SOL    HW116049   5.997  12.439   1.641
38675SOL    HW216050   5.984  12.420   1.803
38676SOL     OW16051   5.788  11.457   1.498
38676SOL    HW116052   5.708  11.517   1.485
38676SOL    HW216053   5.778  11.408   1.584
38677SOL     OW16054   7.218  12.549   0.081
38677SOL    HW116055   7.186  12.643   0.071
38677SOL    HW216056   7.142  12.486   0.069
38678SOL     OW16057   6.986  11.279   0.426
38678SOL    HW116058   6.962  11.242   0.336
38678SOL    HW216059   7.085  11.295   0.430
38679SOL     OW16060   5.968  11.872   0.480
38679SOL    HW116061   6.013  11.782   0.477
38679SOL    HW216062   5.874  11.861   0.513
38680SOL     OW16063   7.133  11.394   1.729
38680SOL    HW116064   7.128  11.431   1.821
38680SOL    HW216065   7.061  11.325   1.717
38681SOL     OW16066   6.200  11.294   0.117
38681SOL    HW116067   6.298  11.272   0.124
38681SOL    HW216068   6.169  11.277   0.024
38682SOL     OW16069   6.367  11.436   1.749
38682SOL    HW116070   6.434  11.375   1.792
38682SOL    HW216071   6.294  11.455   1.814
38683SOL     OW16072   6.937  11.762   1.433
38683SOL    HW116073   6.965  11.719   1.518
38683SOL    HW216074   6.962  11.858   1.434
38684SOL     OW16075   6.389  12.574   0.924
38684SOL    HW116076   6.479  12.588   0.882
38684SOL    HW216077   6.318  12.576   0.853
38685SOL     OW16078   6.508  11.675   0.899
38685SOL    HW116079   6.483  11.666   0.803
38685SOL    HW216080   6.556  11.593   0.930
38686SOL     OW16081   6.125  11.236   0.512
38686SOL    HW116082   6.044  11.237   0.570
38686SOL    HW216083   6.128  11.319   0.457
38687SOL     OW16084   7.020  12.360   0.041
38687SOL    HW116085   7.052  12.284   0.098
38687SOL    HW216086   6.928  12.387   0.071
38688SOL     OW16087   5.883  11.207   0.171
38688SOL    HW116088   5.932  11.291   0.150
38688SOL    HW216089   5.945  11.142   0.216
38689SOL     OW16090   6.521  11.408   0.480
38689SOL    HW116091   6.473  11.449   0.402
38689SOL    HW216092   6.620  11.406   0.461
38690SOL     OW16093   6.662  11.855   1.464
38690SOL    HW116094   6.582  11.794   1.467
38690SOL    HW216095   6.743  11.802   1.440
38691SOL     OW16096   6.813  12.742   0.793
38691SOL    HW116097   6.834  12.816   0.728
38691SOL    HW216098   6.881  12.742   0.866
38692SOL     OW16099   6.045  12.324   0.741
38692SOL    HW116100   5.974  12.297   0.806
38692SOL    HW216101   6.019  12.296   0.648
38693SOL     OW16102   6.618  11.721   0.016
38693SOL    HW116103   6.577  11.803  -0.023
38693SOL    HW216104   6.682  11.747   0.089
38694SOL     OW16105   5.664  11.728   1.386
38694SOL    HW116106   5.756  11.727   1.345
38694SOL    HW216107   5.658  11.802   1.453
38695SOL     OW16108   6.147  11.394   1.147
38695SOL    HW116109   6.185  11.310   1.184
38695SOL    HW216110   6.059  11.413   1.191
38696SOL     OW16111   6.452  11.626   0.642
38696SOL    HW116112   6.420  11.698   0.580
38696SOL    HW216113   6.476  11.545   0.589
38697SOL     OW16114   6.603  11.211   0.753
38697SOL    HW116115   6.531  11.216   0.684
38697SOL    HW216116   6.579  11.142   0.822
38698SOL     OW16117   7.015  12.345   0.867
38698SOL    HW116118   6.960  12.261   0.860
38698SOL    HW216119   7.041  12.374   0.775
38699SOL     OW16120   7.052  11.762   0.992
38699SOL    HW116121   7.022  11.667   0.999
38699SOL    HW216122   7.125  11.778   1.058
38700SOL     OW16123   7.443  12.005   0.377
38700SOL    HW116124   7.485  11.941   0.441
38700SOL    HW216125   7.405  11.954   0.299
38701SOL     OW16126   6.074  12.557   0.174
38701SOL    HW116127   5.987  12.542   0.221
38701SOL    HW216128   6.057  12.583   0.079
38702SOL     OW16129   7.250  12.452   0.657
38702SOL    HW116130   7.349  12.460   0.671
38702SOL    HW216131   7.205  12.536   0.688
38703SOL     OW16132   6.976  11.747   0.078
38703SOL    HW116133   6.922  11.726   0.159
38703SOL    HW216134   7.067  11.706   0.087
38704SOL     OW16135   6.113  11.428   0.328
38704SOL    HW116136   6.140  11.369   0.253
38704SOL    HW216137   6.113  11.523   0.297
38705SOL     OW16138   7.340  12.395   1.588
38705SOL    HW116139   7.431  12.356   1.575
38705SOL    HW216140   7.348  12.491   1.612
38706SOL     OW16141   6.650  12.519   1.340
38706SOL    HW116142   6.570  12.496   1.395
38706SOL    HW216143   6.733  12.493   1.389
38707SOL     OW16144   6.697  12.367   1.100
38707SOL    HW116145   6.657  12.411   1.181
38707SOL    HW216146   6.656  12.404   1.017
38708SOL     OW16147   7.224  12.271   1.079
38708SOL    HW116148   7.229  12.352   1.138
38708SOL    HW216149   7.138  12.273   1.028
38709SOL     OW16150   6.501  11.261   1.402
38709SOL    HW116151   6.526  11.241   1.307
38709SOL    HW216152   6.573  11.317   1.444
38710SOL     OW16153   6.566  12.288   1.719
38710SOL    HW116154   6.467  12.294   1.729
38710SOL    HW216155   6.589  12.208   1.663
38711SOL     OW16156   6.291  12.222   0.368
38711SOL    HW116157   6.277  12.229   0.467
38711SOL    HW216158   6.375  12.171   0.350
38712SOL     OW16159   5.996  11.985   1.251
38712SOL    HW116160   6.082  11.997   1.301
38712SOL    HW216161   5.954  11.898   1.278
38713SOL     OW16162   6.860  11.558   1.262
38713SOL    HW116163   6.881  11.632   1.326
38713SOL    HW216164   6.771  11.575   1.219
38714SOL     OW16165   5.650  12.736   1.331
38714SOL    HW116166   5.604  12.818   1.297
38714SOL    HW216167   5.748  12.755   1.340
38715SOL     OW16168   5.953  12.272   0.501
38715SOL    HW116169   5.946  12.355   0.445
38715SOL    HW216170   5.957  12.192   0.441
38716SOL     OW16171   6.152  11.709   0.865
38716SOL    HW116172   6.164  11.775   0.791
38716SOL    HW216173   6.198  11.743   0.948
38717SOL     OW16174   6.838  12.520   0.388
38717SOL    HW116175   6.888  12.597   0.428
38717SOL    HW216176   6.743  12.522   0.420
38718SOL     OW16177   6.858  12.617   1.142
38718SOL    HW116178   6.905  12.630   1.229
38718SOL    HW216179   6.792  12.543   1.151
38719SOL     OW16180   7.168  11.811   0.472
38719SOL    HW116181   7.137  11.872   0.545
38719SOL    HW216182   7.218  11.863   0.403
38720SOL     OW16183   5.940  12.682   1.329
38720SOL    HW116184   5.919  12.638   1.242
38720SOL    HW216185   6.037  12.708   1.332
38721SOL     OW16186   5.988  11.923   1.598
38721SOL    HW116187   6.056  11.978   1.551
38721SOL    HW216188   6.028  11.835   1.625
38722SOL     OW16189   7.173  11.951   1.670
38722SOL    HW116190   7.081  11.989   1.665
38722SOL    HW216191   7.233  11.998   1.605
38723SOL     OW16192   6.599  11.277   1.770
38723SOL    HW116193   6.605  11.362   1.718
38723SOL    HW216194   6.631  11.201   1.713
38724SOL     OW16195   6.090  11.222   1.740
38724SOL    HW116196   6.048  11.165   1.670
38724SOL    HW216197   6.024  11.291   1.772
38725SOL     OW16198   6.159  12.042   1.029
38725SOL    HW116199   6.203  12.131   1.020
38725SOL    HW216200   6.096  12.042   1.106
38726SOL     OW16201   6.946  12.034   1.045
38726SOL    HW116202   6.871  12.034   0.979
38726SOL    HW216203   6.983  11.942   1.054
38727SOL     OW16204   6.795  11.697   0.275
38727SOL    HW116205   6.808  11.613   0.329
38727SOL    HW216206   6.766  11.771   0.335
38728SOL     OW16207   5.893  11.385   1.231
38728SOL    HW116208   5.870  11.422   1.321
38728SOL    HW216209   5.863  11.290   1.225
38729SOL     OW16210   5.623  12.482   1.282
38729SOL    HW116211   5.676  12.433   1.350
38729SOL    HW216212   5.645  12.580   1.287
38730SOL     OW16213   6.318  11.806   1.064
38730SOL    HW116214   6.377  11.780   0.988
38730SOL    HW216215   6.290  11.902   1.053
38731SOL     OW16216   7.314  12.107   1.854
38731SOL    HW116217   7.268  12.100   1.765
38731SOL    HW216218   7.252  12.151   1.920
38732SOL     OW16219   5.893  11.235   0.618
38732SOL    HW116220   5.882  11.329   0.651
38732SOL    HW216221   5.888  11.172   0.695
38733SOL     OW16222   7.208  11.539   0.374
38733SOL    HW116223   7.210  11.463   0.438
38733SOL    HW216224   7.160  11.616   0.414
38734SOL     OW16225   6.609  11.938   0.966
38734SOL    HW116226   6.624  11.959   1.062
38734SOL    HW216227   6.579  11.843   0.957
38735SOL     OW16228   7.445  12.690   1.605
38735SOL    HW116229   7.459  12.717   1.510
38735SOL    HW216230   7.528  12.712   1.658
38736SOL     OW16231   5.936  12.070   1.804
38736SOL    HW116232   6.012  12.114   1.852
38736SOL    HW216233   5.971  12.023   1.722
38737SOL     OW16234   7.126  11.446   0.125
38737SOL    HW116235   7.065  11.371   0.148
38737SOL    HW216236   7.148  11.498   0.208
38738SOL     OW16237   6.889  12.010   0.042
38738SOL    HW116238   6.923  11.917   0.057
38738SOL    HW216239   6.907  12.037  -0.053
38739SOL     OW16240   6.654  12.505   0.849
38739SOL    HW116241   6.661  12.421   0.794
38739SOL    HW216242   6.716  12.574   0.813
38740SOL     OW16243   5.905  11.982   0.949
38740SOL    HW116244   5.998  12.018   0.954
38740SOL    HW216245   5.899  11.897   1.001
38741SOL     OW16246   5.925  11.681   1.006
38741SOL    HW116247   5.873  11.598   0.989
38741SOL    HW216248   6.002  11.686   0.942
38742SOL     OW16249   6.724  11.552   1.678
38742SOL    HW116250   6.679  11.615   1.742
38742SOL    HW216251   6.817  11.583   1.661
38743SOL     OW16252   6.746  11.379   1.477
38743SOL    HW116253   6.746  11.443   1.554
38743SOL    HW216254   6.774  11.427   1.394
38744SOL     OW16255   5.594  12.498   0.200
38744SOL    HW116256   5.501  12.519   0.169
38744SOL    HW216257   5.604  12.399   0.213
38745SOL     OW16258   6.090  12.740   0.910
38745SOL    HW116259   6.156  12.814   0.919
38745SOL    HW216260   6.134  12.661   0.868
38746SOL     OW16261   6.588  11.968   1.238
38746SOL    HW116262   6.629  11.936   1.324
38746SOL    HW216263   6.492  11.941   1.235
38747SOL     OW16264   5.626  11.716   1.114
38747SOL    HW116265   5.711  11.683   1.073
38747SOL    HW216266   5.639  11.731   1.212
38748SOL     OW16267   5.775  11.692   1.722
38748SOL    HW116268   5.834  11.652   1.652
38748SOL    HW216269   5.717  11.763   1.681
38749SOL     OW16270   6.955  12.122   1.660
38749SOL    HW116271   6.994  12.211   1.680
38749SOL    HW216272   6.965  12.102   1.563
38750SOL     OW16273   6.401  11.744   0.325
38750SOL    HW116274   6.408  11.655   0.279
38750SOL    HW216275   6.307  11.778   0.317
38751SOL     OW16276   7.243  11.776   1.206
38751SOL    HW116277   7.205  11.707   1.268
38751SOL    HW216278   7.325  11.740   1.162
38752SOL     OW16279   5.838  12.736   1.744
38752SOL    HW116280   5.808  12.793   1.820
38752SOL    HW216281   5.831  12.639   1.770
38753SOL     OW16282   6.257  11.636   1.269
38753SOL    HW116283   6.223  11.547   1.239
38753SOL    HW216284   6.283  11.690   1.189
38754SOL     OW16285   6.059  11.672   0.191
38754SOL    HW116286   6.120  11.752   0.195
38754SOL    HW216287   5.964  11.703   0.198
38755SOL     OW16288   5.745  12.309   1.466
38755SOL    HW116289   5.767  12.248   1.542
38755SOL    HW216290   5.755  12.260   1.380
38756SOL     OW16291   6.933  12.231   1.234
38756SOL    HW116292   6.957  12.168   1.160
38756SOL    HW216293   6.843  12.271   1.216
38757SOL     OW16294   6.888  12.027   0.309
38757SOL    HW116295   6.802  11.996   0.351
38757SOL    HW216296   6.884  12.013   0.210
38758SOL     OW16297   6.838  12.903   1.128
38758SOL    HW116298   6.922  12.908   1.074
38758SOL    HW216299   6.815  12.807   1.146
38759SOL     OW16300   5.669  12.430   1.022
38759SOL    HW116301   5.664  12.429   1.122
38759SOL    HW216302   5.586  12.389   0.984
38760SOL     OW16303   6.489  11.258   0.133
38760SOL    HW116304   6.540  11.259   0.047
38760SOL    HW216305   6.545  11.216   0.204
38761SOL     OW16306   7.312  11.307   0.523
38761SOL    HW116307   7.385  11.290   0.456
38761SOL    HW216308   7.281  11.220   0.561
38762SOL     OW16309   5.716  12.966   1.851
38762SOL    HW116310   5.675  12.892   1.904
38762SOL    HW216311   5.780  13.017   1.909
38763SOL     OW16312   6.866  12.099   0.672
38763SOL    HW116313   6.926  12.018   0.674
38763SOL    HW216314   6.906  12.168   0.612
38764SOL     OW16315   6.416  12.445   1.422
38764SOL    HW116316   6.411  12.478   1.517
38764SOL    HW216317   6.330  12.464   1.376
38765SOL     OW16318   6.258  12.788   0.154
38765SOL    HW116319   6.267  12.798   0.055
38765SOL    HW216320   6.218  12.699   0.175
38766SOL     OW16321   7.427  11.347   0.963
38766SOL    HW116322   7.466  11.262   0.927
38766SOL    HW216323   7.329  11.349   0.944
38767SOL     OW16324   5.849  11.498   0.720
38767SOL    HW116325   5.770  11.549   0.686
38767SOL    HW216326   5.840  11.483   0.818
38768SOL     OW16327   6.780  12.784   0.031
38768SOL    HW116328   6.786  12.691   0.068
38768SOL    HW216329   6.721  12.784  -0.049
38769SOL     OW16330   6.408  12.174   1.372
38769SOL    HW116331   6.448  12.173   1.280
38769SOL    HW216332   6.418  12.266   1.412
38770SOL     OW16333   6.502  12.082   0.291
38770SOL    HW116334   6.565  12.120   0.223
38770SOL    HW216335   6.542  11.999   0.330
38771SOL     OW16336   5.958  12.460   1.490
38771SOL    HW116337   5.945  12.553   1.456
38771SOL    HW216338   5.874  12.408   1.477
38772SOL     OW16339   7.200  12.464   1.289
38772SOL    HW116340   7.260  12.467   1.369
38772SOL    HW216341   7.125  12.528   1.302
38773SOL     OW16342   6.625  12.270   0.696
38773SOL    HW116343   6.555  12.223   0.750
38773SOL    HW216344   6.684  12.202   0.653
38774SOL     OW16345   6.600  11.408   0.971
38774SOL    HW116346   6.592  11.372   0.878
38774SOL    HW216347   6.598  11.332   1.036
38775SOL     OW16348   6.176  12.659   0.491
38775SOL    HW116349   6.218  12.601   0.421
38775SOL    HW216350   6.132  12.738   0.447
38776SOL     OW16351   7.295  11.557   1.381
38776SOL    HW116352   7.368  11.626   1.385
38776SOL    HW216353   7.323  11.482   1.322
38777SOL     OW16354   5.841  12.520   0.290
38777SOL    HW116355   5.745  12.521   0.263
38777SOL    HW216356   5.853  12.573   0.374
38778SOL     OW16357   5.691  12.185   1.726
38778SOL    HW116358   5.614  12.152   1.780
38778SOL    HW216359   5.776  12.155   1.768
38779SOL     OW16360   6.258  11.375   1.489
38779SOL    HW116361   6.348  11.359   1.449
38779SOL    HW216362   6.266  11.380   1.588
38780SOL     OW16363   7.026  12.028   1.398
38780SOL    HW116364   6.969  12.080   1.335
38780SOL    HW216365   7.122  12.040   1.374
38781SOL     OW16366   5.658  11.338   0.318
38781SOL    HW116367   5.641  11.421   0.264
38781SOL    HW216368   5.748  11.301   0.296
38782SOL     OW16369   6.769  12.507   0.119
38782SOL    HW116370   6.670  12.496   0.121
38782SOL    HW216371   6.803  12.522   0.212
38783SOL     OW16372   6.199  12.014   1.431
38783SOL    HW116373   6.255  12.095   1.414
38783SOL    HW216374   6.258  11.934   1.434
38784SOL     OW16375   6.302  11.737   1.708
38784SOL    HW116376   6.321  11.802   1.782
38784SOL    HW216377   6.362  11.657   1.717
38785SOL     OW16378   7.036  12.392   1.633
38785SOL    HW116379   7.027  12.382   1.732
38785SOL    HW216380   7.132  12.385   1.607
38786SOL     OW16381   7.260  12.055   1.254
38786SOL    HW116382   7.233  11.966   1.217
38786SOL    HW216383   7.261  12.123   1.181
38787SOL     OW16384   6.811  11.497   0.449
38787SOL    HW116385   6.876  11.423   0.438
38787SOL    HW216386   6.831  11.547   0.533
38788SOL     OW16387   6.180  11.917   0.652
38788SOL    HW116388   6.230  12.002   0.633
38788SOL    HW216389   6.092  11.919   0.604
38789SOL     OW16390   7.363  11.514   1.642
38789SOL    HW116391   7.346  11.545   1.548
38789SOL    HW216392   7.279  11.477   1.680
38790SOL     OW16393   7.316  12.106   1.517
38790SOL    HW116394   7.354  12.197   1.532
38790SOL    HW216395   7.308  12.089   1.418
38791SOL     OW16396   6.445  12.546   0.016
38791SOL    HW116397   6.399  12.561   0.104
38791SOL    HW216398   6.489  12.631  -0.014
38792SOL     OW16399   6.445  12.128   0.861
38792SOL    HW116400   6.499  12.059   0.909
38792SOL    HW216401   6.413  12.197   0.927
38793SOL     OW16402   6.669  12.156   0.087
38793SOL    HW116403   6.646  12.209   0.005
38793SOL    HW216404   6.750  12.100   0.068
38794SOL     OW16405   7.447  12.741   0.851
38794SOL    HW116406   7.376  12.729   0.781
38794SOL    HW216407   7.448  12.662   0.911
38795SOL     OW16408   5.807  12.486   1.844
38795SOL    HW116409   5.742  12.413   1.823
38795SOL    HW216410   5.811  12.500   1.942
38796SOL     OW16411   5.665  12.412   0.653
38796SOL    HW116412   5.664  12.365   0.741
38796SOL    HW216413   5.747  12.384   0.602
38797SOL     OW16414   6.258  12.563   1.624
38797SOL    HW116415   6.180  12.513   1.662
38797SOL    HW216416   6.255  12.658   1.655
38798SOL     OW16417   7.410  11.364   1.227
38798SOL    HW116418   7.406  11.274   1.271
38798SOL    HW216419   7.413  11.353   1.128
38799SOL     OW16420   6.014  11.596   0.520
38799SOL    HW116421   6.044  11.524   0.458
38799SOL    HW216422   5.975  11.556   0.603
38800SOL     OW16423   7.291  12.659   1.104
38800SOL    HW116424   7.198  12.634   1.077
38800SOL    HW216425   7.317  12.609   1.186
38801SOL     OW16426   5.903  11.719   1.280
38801SOL    HW116427   5.941  11.660   1.352
38801SOL    HW216428   5.943  11.693   1.192
38802SOL     OW16429   7.010  11.386   1.112
38802SOL    HW116430   7.062  11.321   1.167
38802SOL    HW216431   6.961  11.449   1.173
38803SOL     OW16432   6.587  11.206   1.154
38803SOL    HW116433   6.524  11.134   1.123
38803SOL    HW216434   6.680  11.170   1.154
38804SOL     OW16435   6.356  12.502   0.301
38804SOL    HW116436   6.310  12.415   0.318
38804SOL    HW216437   6.447  12.499   0.342
38805SOL     OW16438   6.204  12.739   1.284
38805SOL    HW116439   6.199  12.821   1.341
38805SOL    HW216440   6.293  12.736   1.239
38806SOL     OW16441   6.938  11.224   0.168
38806SOL    HW116442   6.973  11.183   0.084
38806SOL    HW216443   6.848  11.186   0.188
38807SOL     OW16444   6.886  11.625   0.691
38807SOL    HW116445   6.827  11.705   0.695
38807SOL    HW216446   6.901  11.590   0.784
38808SOL     OW16447   7.179  11.393   0.882
38808SOL    HW116448   7.095  11.392   0.936
38808SOL    HW216449   7.181  11.476   0.826
38809SOL     OW16450   5.625  12.249   0.300
38809SOL    HW116451   5.724  12.238   0.291
38809SOL    HW216452   5.585  12.163   0.332
38810SOL     OW16453   5.816  11.800   1.975
38810SOL    HW116454   5.723  11.798   2.012
38810SOL    HW216455   5.817  11.761   1.883
38811SOL     OW16456   5.811  11.447   2.858
38811SOL    HW116457   5.846  11.430   2.950
38811SOL    HW216458   5.723  11.402   2.846
38812SOL     OW16459   5.605  11.540   2.509
38812SOL    HW116460   5.523  11.583   2.548
38812SOL    HW216461   5.577  11.467   2.446
38813SOL     OW16462   6.155  12.447   3.027
38813SOL    HW116463   6.062  12.440   2.990
38813SOL    HW216464   6.166  12.536   3.071
38814SOL     OW16465   7.141  12.683   2.565
38814SOL    HW116466   7.084  12.667   2.646
38814SOL    HW216467   7.082  12.693   2.485
38815SOL     OW16468   6.721  11.875   2.579
38815SOL    HW116469   6.778  11.953   2.554
38815SOL    HW216470   6.661  11.901   2.655
38816SOL     OW16471   7.341  11.779   2.093
38816SOL    HW116472   7.329  11.766   1.994
38816SOL    HW216473   7.311  11.698   2.142
38817SOL     OW16474   6.354  12.316   2.885
38817SOL    HW116475   6.276  12.333   2.945
38817SOL    HW216476   6.388  12.403   2.849
38818SOL     OW16477   6.436  11.970   3.685
38818SOL    HW116478   6.432  12.046   3.750
38818SOL    HW216479   6.458  12.006   3.594
38819SOL     OW16480   6.271  12.184   2.527
38819SOL    HW116481   6.340  12.168   2.597
38819SOL    HW216482   6.198  12.241   2.565
38820SOL     OW16483   6.272  12.333   3.665
38820SOL    HW116484   6.332  12.412   3.679
38820SOL    HW216485   6.186  12.364   3.624
38821SOL     OW16486   5.921  12.607   2.923
38821SOL    HW116487   5.843  12.576   2.870
38821SOL    HW216488   5.979  12.665   2.866
38822SOL     OW16489   7.046  12.677   3.201
38822SOL    HW116490   7.070  12.771   3.227
38822SOL    HW216491   7.030  12.623   3.283
38823SOL     OW16492   6.024  11.564   3.361
38823SOL    HW116493   6.106  11.508   3.370
38823SOL    HW216494   5.943  11.506   3.365
38824SOL     OW16495   7.189  11.619   2.599
38824SOL    HW116496   7.115  11.665   2.549
38824SOL    HW216497   7.240  11.687   2.652
38825SOL     OW16498   6.713  12.513   3.552
38825SOL    HW116499   6.760  12.513   3.640
38825SOL    HW216500   6.665  12.426   3.541
38826SOL     OW16501   5.816  12.606   2.400
38826SOL    HW116502   5.790  12.702   2.400
38826SOL    HW216503   5.745  12.552   2.445
38827SOL     OW16504   5.826  12.263   2.748
38827SOL    HW116505   5.840  12.179   2.800
38827SOL    HW216506   5.771  12.327   2.803
38828SOL     OW16507   6.192  12.136   1.985
38828SOL    HW116508   6.199  12.220   1.931
38828SOL    HW216509   6.238  12.149   2.073
38829SOL     OW16510   7.180  11.286   3.342
38829SOL    HW116511   7.162  11.353   3.270
38829SOL    HW216512   7.177  11.332   3.431
38830SOL     OW16513   5.708  11.815   2.425
38830SOL    HW116514   5.663  11.727   2.442
38830SOL    HW216515   5.707  11.869   2.509
38831SOL     OW16516   5.613  12.768   1.979
38831SOL    HW116517   5.594  12.672   2.000
38831SOL    HW216518   5.580  12.826   2.054
38832SOL     OW16519   7.275  12.094   2.474
38832SOL    HW116520   7.370  12.065   2.482
38832SOL    HW216521   7.267  12.159   2.399
38833SOL     OW16522   7.227  12.280   2.294
38833SOL    HW116523   7.313  12.282   2.242
38833SOL    HW216524   7.241  12.327   2.382
38834SOL     OW16525   5.699  11.909   3.459
38834SOL    HW116526   5.787  11.896   3.504
38834SOL    HW216527   5.686  12.006   3.437
38835SOL     OW16528   6.199  12.537   2.588
38835SOL    HW116529   6.150  12.450   2.597
38835SOL    HW216530   6.176  12.580   2.501
38836SOL     OW16531   6.879  12.400   3.285
38836SOL    HW116532   6.916  12.327   3.227
38836SOL    HW216533   6.931  12.405   3.370
38837SOL     OW16534   6.395  11.176   2.364
38837SOL    HW116535   6.435  11.267   2.355
38837SOL    HW216536   6.295  11.184   2.370
38838SOL     OW16537   5.783  12.148   3.126
38838SOL    HW116538   5.872  12.103   3.112
38838SOL    HW216539   5.710  12.083   3.107
38839SOL     OW16540   7.111  12.171   2.052
38839SOL    HW116541   7.048  12.095   2.065
38839SOL    HW216542   7.159  12.189   2.138
38840SOL     OW16543   5.903  11.423   3.663
38840SOL    HW116544   5.974  11.494   3.669
38840SOL    HW216545   5.815  11.462   3.691
38841SOL     OW16546   7.052  12.589   2.815
38841SOL    HW116547   6.993  12.595   2.895
38841SOL    HW216548   7.037  12.501   2.769
38842SOL     OW16549   6.184  11.901   2.132
38842SOL    HW116550   6.208  11.970   2.064
38842SOL    HW216551   6.106  11.934   2.186
38843SOL     OW16552   6.867  11.517   2.806
38843SOL    HW116553   6.781  11.467   2.793
38843SOL    HW216554   6.929  11.463   2.862
38844SOL     OW16555   7.162  12.834   2.169
38844SOL    HW116556   7.251  12.880   2.172
38844SOL    HW216557   7.141  12.810   2.074
38845SOL     OW16558   6.393  11.777   3.327
38845SOL    HW116559   6.346  11.774   3.416
38845SOL    HW216560   6.342  11.722   3.261
38846SOL     OW16561   6.980  11.641   3.536
38846SOL    HW116562   6.960  11.684   3.624
38846SOL    HW216563   7.058  11.579   3.545
38847SOL     OW16564   6.559  12.062   3.434
38847SOL    HW116565   6.605  11.978   3.405
38847SOL    HW216566   6.503  12.096   3.359
38848SOL     OW16567   6.577  11.582   3.104
38848SOL    HW116568   6.500  11.616   3.158
38848SOL    HW216569   6.543  11.531   3.025
38849SOL     OW16570   6.627  11.873   2.291
38849SOL    HW116571   6.653  11.869   2.387
38849SOL    HW216572   6.542  11.822   2.277
38850SOL     OW16573   5.662  11.983   2.651
38850SOL    HW116574   5.761  11.971   2.660
38850SOL    HW216575   5.638  12.078   2.672
38851SOL     OW16576   6.451  11.520   2.057
38851SOL    HW116577   6.510  11.583   2.008
38851SOL    HW216578   6.470  11.426   2.028
38852SOL     OW16579   7.305  11.757   3.693
38852SOL    HW116580   7.279  11.846   3.657
38852SOL    HW216581   7.303  11.689   3.620
38853SOL     OW16582   6.948  12.316   2.407
38853SOL    HW116583   7.031  12.287   2.359
38853SOL    HW216584   6.899  12.383   2.351
38854SOL     OW16585   6.136  11.368   2.747
38854SOL    HW116586   6.131  11.363   2.847
38854SOL    HW216587   6.138  11.464   2.718
38855SOL     OW16588   6.594  12.628   2.339
38855SOL    HW116589   6.548  12.700   2.287
38855SOL    HW216590   6.590  12.648   2.437
38856SOL     OW16591   7.381  12.238   2.735
38856SOL    HW116592   7.319  12.223   2.659
38856SOL    HW216593   7.329  12.249   2.820
38857SOL     OW16594   6.813  12.722   3.368
38857SOL    HW116595   6.819  12.645   3.432
38857SOL    HW216596   6.761  12.696   3.288
38858SOL     OW16597   5.907  12.115   2.104
38858SOL    HW116598   5.989  12.154   2.062
38858SOL    HW216599   5.880  12.033   2.055
38859SOL     OW16600   7.044  11.907   2.590
38859SOL    HW116601   7.039  11.842   2.665
38859SOL    HW216602   7.124  11.966   2.603
38860SOL     OW16603   6.047  12.438   3.589
38860SOL    HW116604   5.997  12.439   3.503
38860SOL    HW216605   5.984  12.420   3.665
38861SOL     OW16606   7.218  12.549   1.943
38861SOL    HW116607   7.186  12.643   1.933
38861SOL    HW216608   7.142  12.486   1.931
38862SOL     OW16609   6.986  11.279   2.288
38862SOL    HW116610   6.962  11.242   2.198
38862SOL    HW216611   7.085  11.295   2.292
38863SOL     OW16612   5.968  11.872   2.342
38863SOL    HW116613   6.013  11.782   2.339
38863SOL    HW216614   5.874  11.861   2.375
38864SOL     OW16615   7.133  11.394   3.591
38864SOL    HW116616   7.128  11.431   3.683
38864SOL    HW216617   7.061  11.325   3.579
38865SOL     OW16618   6.200  11.294   1.979
38865SOL    HW116619   6.298  11.272   1.986
38865SOL    HW216620   6.169  11.277   1.886
38866SOL     OW16621   6.367  11.436   3.611
38866SOL    HW116622   6.434  11.375   3.654
38866SOL    HW216623   6.294  11.455   3.676
38867SOL     OW16624   6.937  11.762   3.295
38867SOL    HW116625   6.965  11.719   3.380
38867SOL    HW216626   6.962  11.858   3.296
38868SOL     OW16627   6.389  12.574   2.786
38868SOL    HW116628   6.479  12.588   2.744
38868SOL    HW216629   6.318  12.576   2.715
38869SOL     OW16630   6.508  11.675   2.761
38869SOL    HW116631   6.483  11.666   2.665
38869SOL    HW216632   6.556  11.593   2.792
38870SOL     OW16633   6.125  11.236   2.374
38870SOL    HW116634   6.044  11.237   2.432
38870SOL    HW216635   6.128  11.319   2.319
38871SOL     OW16636   7.020  12.360   1.903
38871SOL    HW116637   7.052  12.284   1.960
38871SOL    HW216638   6.928  12.387   1.933
38872SOL     OW16639   5.883  11.207   2.033
38872SOL    HW116640   5.932  11.291   2.012
38872SOL    HW216641   5.945  11.142   2.078
38873SOL     OW16642   6.521  11.408   2.342
38873SOL    HW116643   6.473  11.449   2.264
38873SOL    HW216644   6.620  11.406   2.323
38874SOL     OW16645   6.662  11.855   3.326
38874SOL    HW116646   6.582  11.794   3.329
38874SOL    HW216647   6.743  11.802   3.302
38875SOL     OW16648   6.813  12.742   2.655
38875SOL    HW116649   6.834  12.816   2.590
38875SOL    HW216650   6.881  12.742   2.728
38876SOL     OW16651   6.045  12.324   2.603
38876SOL    HW116652   5.974  12.297   2.668
38876SOL    HW216653   6.019  12.296   2.510
38877SOL     OW16654   6.618  11.721   1.878
38877SOL    HW116655   6.577  11.803   1.839
38877SOL    HW216656   6.682  11.747   1.951
38878SOL     OW16657   5.664  11.728   3.248
38878SOL    HW116658   5.756  11.727   3.207
38878SOL    HW216659   5.658  11.802   3.315
38879SOL     OW16660   6.147  11.394   3.009
38879SOL    HW116661   6.185  11.310   3.046
38879SOL    HW216662   6.059  11.413   3.053
38880SOL     OW16663   6.452  11.626   2.504
38880SOL    HW116664   6.420  11.698   2.442
38880SOL    HW216665   6.476  11.545   2.451
38881SOL     OW16666   6.603  11.211   2.615
38881SOL    HW116667   6.531  11.216   2.546
38881SOL    HW216668   6.579  11.142   2.684
38882SOL     OW16669   7.015  12.345   2.729
38882SOL    HW116670   6.960  12.261   2.722
38882SOL    HW216671   7.041  12.374   2.637
38883SOL     OW16672   7.052  11.762   2.854
38883SOL    HW116673   7.022  11.667   2.861
38883SOL    HW216674   7.125  11.778   2.920
38884SOL     OW16675   7.443  12.005   2.239
38884SOL    HW116676   7.485  11.941   2.303
38884SOL    HW216677   7.405  11.954   2.161
38885SOL     OW16678   6.074  12.557   2.036
38885SOL    HW116679   5.987  12.542   2.083
38885SOL    HW216680   6.057  12.583   1.941
38886SOL     OW16681   7.250  12.452   2.519
38886SOL    HW116682   7.349  12.460   2.533
38886SOL    HW216683   7.205  12.536   2.550
38887SOL     OW16684   6.113  11.428   2.190
38887SOL    HW116685   6.140  11.369   2.115
38887SOL    HW216686   6.113  11.523   2.159
38888SOL     OW16687   7.340  12.395   3.450
38888SOL    HW116688   7.431  12.356   3.437
38888SOL    HW216689   7.348  12.491   3.474
38889SOL     OW16690   6.650  12.519   3.202
38889SOL    HW116691   6.570  12.496   3.257
38889SOL    HW216692   6.733  12.493   3.251
38890SOL     OW16693   6.697  12.367   2.962
38890SOL    HW116694   6.657  12.411   3.043
38890SOL    HW216695   6.656  12.404   2.879
38891SOL     OW16696   7.224  12.271   2.941
38891SOL    HW116697   7.229  12.352   3.000
38891SOL    HW216698   7.138  12.273   2.890
38892SOL     OW16699   6.501  11.261   3.264
38892SOL    HW116700   6.526  11.241   3.169
38892SOL    HW216701   6.573  11.317   3.306
38893SOL     OW16702   6.566  12.288   3.581
38893SOL    HW116703   6.467  12.294   3.591
38893SOL    HW216704   6.589  12.208   3.525
38894SOL     OW16705   6.291  12.222   2.230
38894SOL    HW116706   6.277  12.229   2.329
38894SOL    HW216707   6.375  12.171   2.212
38895SOL     OW16708   5.996  11.985   3.113
38895SOL    HW116709   6.082  11.997   3.163
38895SOL    HW216710   5.954  11.898   3.140
38896SOL     OW16711   6.860  11.558   3.124
38896SOL    HW116712   6.881  11.632   3.188
38896SOL    HW216713   6.771  11.575   3.081
38897SOL     OW16714   5.650  12.736   3.193
38897SOL    HW116715   5.604  12.818   3.159
38897SOL    HW216716   5.748  12.755   3.202
38898SOL     OW16717   5.953  12.272   2.363
38898SOL    HW116718   5.946  12.355   2.307
38898SOL    HW216719   5.957  12.192   2.303
38899SOL     OW16720   6.152  11.709   2.727
38899SOL    HW116721   6.164  11.775   2.653
38899SOL    HW216722   6.198  11.743   2.810
38900SOL     OW16723   6.838  12.520   2.250
38900SOL    HW116724   6.888  12.597   2.290
38900SOL    HW216725   6.743  12.522   2.282
38901SOL     OW16726   6.858  12.617   3.004
38901SOL    HW116727   6.905  12.630   3.091
38901SOL    HW216728   6.792  12.543   3.013
38902SOL     OW16729   7.168  11.811   2.334
38902SOL    HW116730   7.137  11.872   2.407
38902SOL    HW216731   7.218  11.863   2.265
38903SOL     OW16732   5.940  12.682   3.191
38903SOL    HW116733   5.919  12.638   3.104
38903SOL    HW216734   6.037  12.708   3.194
38904SOL     OW16735   5.988  11.923   3.460
38904SOL    HW116736   6.056  11.978   3.413
38904SOL    HW216737   6.028  11.835   3.487
38905SOL     OW16738   7.173  11.951   3.532
38905SOL    HW116739   7.081  11.989   3.527
38905SOL    HW216740   7.233  11.998   3.467
38906SOL     OW16741   6.599  11.277   3.632
38906SOL    HW116742   6.605  11.362   3.580
38906SOL    HW216743   6.631  11.201   3.575
38907SOL     OW16744   6.090  11.222   3.602
38907SOL    HW116745   6.048  11.165   3.532
38907SOL    HW216746   6.024  11.291   3.634
38908SOL     OW16747   6.159  12.042   2.891
38908SOL    HW116748   6.203  12.131   2.882
38908SOL    HW216749   6.096  12.042   2.968
38909SOL     OW16750   6.946  12.034   2.907
38909SOL    HW116751   6.871  12.034   2.841
38909SOL    HW216752   6.983  11.942   2.916
38910SOL     OW16753   6.795  11.697   2.137
38910SOL    HW116754   6.808  11.613   2.191
38910SOL    HW216755   6.766  11.771   2.197
38911SOL     OW16756   5.893  11.385   3.093
38911SOL    HW116757   5.870  11.422   3.183
38911SOL    HW216758   5.863  11.290   3.087
38912SOL     OW16759   5.623  12.482   3.144
38912SOL    HW116760   5.676  12.433   3.212
38912SOL    HW216761   5.645  12.580   3.149
38913SOL     OW16762   6.318  11.806   2.926
38913SOL    HW116763   6.377  11.780   2.850
38913SOL    HW216764   6.290  11.902   2.915
38914SOL     OW16765   7.314  12.107   3.716
38914SOL    HW116766   7.268  12.100   3.627
38914SOL    HW216767   7.252  12.151   3.782
38915SOL     OW16768   5.893  11.235   2.480
38915SOL    HW116769   5.882  11.329   2.513
38915SOL    HW216770   5.888  11.172   2.557
38916SOL     OW16771   7.208  11.539   2.236
38916SOL    HW116772   7.210  11.463   2.300
38916SOL    HW216773   7.160  11.616   2.276
38917SOL     OW16774   6.609  11.938   2.828
38917SOL    HW116775   6.624  11.959   2.924
38917SOL    HW216776   6.579  11.843   2.819
38918SOL     OW16777   7.445  12.690   3.467
38918SOL    HW116778   7.459  12.717   3.372
38918SOL    HW216779   7.528  12.712   3.520
38919SOL     OW16780   5.936  12.070   3.666
38919SOL    HW116781   6.012  12.114   3.714
38919SOL    HW216782   5.971  12.023   3.584
38920SOL     OW16783   7.126  11.446   1.987
38920SOL    HW116784   7.065  11.371   2.010
38920SOL    HW216785   7.148  11.498   2.070
38921SOL     OW16786   6.889  12.010   1.904
38921SOL    HW116787   6.923  11.917   1.919
38921SOL    HW216788   6.907  12.037   1.809
38922SOL     OW16789   6.654  12.505   2.711
38922SOL    HW116790   6.661  12.421   2.656
38922SOL    HW216791   6.716  12.574   2.675
38923SOL     OW16792   5.905  11.982   2.811
38923SOL    HW116793   5.998  12.018   2.816
38923SOL    HW216794   5.899  11.897   2.863
38924SOL     OW16795   5.925  11.681   2.868
38924SOL    HW116796   5.873  11.598   2.851
38924SOL    HW216797   6.002  11.686   2.804
38925SOL     OW16798   6.724  11.552   3.540
38925SOL    HW116799   6.679  11.615   3.604
38925SOL    HW216800   6.817  11.583   3.523
38926SOL     OW16801   6.746  11.379   3.339
38926SOL    HW116802   6.746  11.443   3.416
38926SOL    HW216803   6.774  11.427   3.256
38927SOL     OW16804   5.594  12.498   2.062
38927SOL    HW116805   5.501  12.519   2.031
38927SOL    HW216806   5.604  12.399   2.075
38928SOL     OW16807   6.090  12.740   2.772
38928SOL    HW116808   6.156  12.814   2.781
38928SOL    HW216809   6.134  12.661   2.730
38929SOL     OW16810   6.588  11.968   3.100
38929SOL    HW116811   6.629  11.936   3.186
38929SOL    HW216812   6.492  11.941   3.097
38930SOL     OW16813   5.626  11.716   2.976
38930SOL    HW116814   5.711  11.683   2.935
38930SOL    HW216815   5.639  11.731   3.074
38931SOL     OW16816   5.775  11.692   3.584
38931SOL    HW116817   5.834  11.652   3.514
38931SOL    HW216818   5.717  11.763   3.543
38932SOL     OW16819   6.955  12.122   3.522
38932SOL    HW116820   6.994  12.211   3.542
38932SOL    HW216821   6.965  12.102   3.425
38933SOL     OW16822   6.401  11.744   2.187
38933SOL    HW116823   6.408  11.655   2.141
38933SOL    HW216824   6.307  11.778   2.179
38934SOL     OW16825   7.243  11.776   3.068
38934SOL    HW116826   7.205  11.707   3.130
38934SOL    HW216827   7.325  11.740   3.024
38935SOL     OW16828   5.838  12.736   3.606
38935SOL    HW116829   5.808  12.793   3.682
38935SOL    HW216830   5.831  12.639   3.632
38936SOL     OW16831   6.257  11.636   3.131
38936SOL    HW116832   6.223  11.547   3.101
38936SOL    HW216833   6.283  11.690   3.051
38937SOL     OW16834   5.745  12.309   3.328
38937SOL    HW116835   5.767  12.248   3.404
38937SOL    HW216836   5.755  12.260   3.242
38938SOL     OW16837   6.933  12.231   3.096
38938SOL    HW116838   6.957  12.168   3.022
38938SOL    HW216839   6.843  12.271   3.078
38939SOL     OW16840   6.888  12.027   2.171
38939SOL    HW116841   6.802  11.996   2.213
38939SOL    HW216842   6.884  12.013   2.072
38940SOL     OW16843   6.838  12.903   2.990
38940SOL    HW116844   6.922  12.908   2.936
38940SOL    HW216845   6.815  12.807   3.008
38941SOL     OW16846   5.669  12.430   2.884
38941SOL    HW116847   5.664  12.429   2.984
38941SOL    HW216848   5.586  12.389   2.846
38942SOL     OW16849   7.312  11.307   2.385
38942SOL    HW116850   7.385  11.290   2.318
38942SOL    HW216851   7.281  11.220   2.423
38943SOL     OW16852   5.716  12.966   3.713
38943SOL    HW116853   5.675  12.892   3.766
38943SOL    HW216854   5.780  13.017   3.771
38944SOL     OW16855   6.866  12.099   2.534
38944SOL    HW116856   6.926  12.018   2.536
38944SOL    HW216857   6.906  12.168   2.474
38945SOL     OW16858   6.416  12.445   3.284
38945SOL    HW116859   6.411  12.478   3.379
38945SOL    HW216860   6.330  12.464   3.238
38946SOL     OW16861   6.258  12.788   2.016
38946SOL    HW116862   6.267  12.798   1.917
38946SOL    HW216863   6.218  12.699   2.037
38947SOL     OW16864   7.427  11.347   2.825
38947SOL    HW116865   7.466  11.262   2.789
38947SOL    HW216866   7.329  11.349   2.806
38948SOL     OW16867   5.849  11.498   2.582
38948SOL    HW116868   5.770  11.549   2.548
38948SOL    HW216869   5.840  11.483   2.680
38949SOL     OW16870   6.780  12.784   1.893
38949SOL    HW116871   6.786  12.691   1.930
38949SOL    HW216872   6.721  12.784   1.813
38950SOL     OW16873   6.408  12.174   3.234
38950SOL    HW116874   6.448  12.173   3.142
38950SOL    HW216875   6.418  12.266   3.274
38951SOL     OW16876   6.502  12.082   2.153
38951SOL    HW116877   6.565  12.120   2.085
38951SOL    HW216878   6.542  11.999   2.192
38952SOL     OW16879   5.958  12.460   3.352
38952SOL    HW116880   5.945  12.553   3.318
38952SOL    HW216881   5.874  12.408   3.339
38953SOL     OW16882   7.200  12.464   3.151
38953SOL    HW116883   7.260  12.467   3.231
38953SOL    HW216884   7.125  12.528   3.164
38954SOL     OW16885   6.600  11.408   2.833
38954SOL    HW116886   6.592  11.372   2.740
38954SOL    HW216887   6.598  11.332   2.898
38955SOL     OW16888   6.176  12.659   2.353
38955SOL    HW116889   6.218  12.601   2.283
38955SOL    HW216890   6.132  12.738   2.309
38956SOL     OW16891   7.295  11.557   3.243
38956SOL    HW116892   7.368  11.626   3.247
38956SOL    HW216893   7.323  11.482   3.184
38957SOL     OW16894   5.841  12.520   2.152
38957SOL    HW116895   5.745  12.521   2.125
38957SOL    HW216896   5.853  12.573   2.236
38958SOL     OW16897   5.691  12.185   3.588
38958SOL    HW116898   5.614  12.152   3.642
38958SOL    HW216899   5.776  12.155   3.630
38959SOL     OW16900   6.258  11.375   3.351
38959SOL    HW116901   6.348  11.359   3.311
38959SOL    HW216902   6.266  11.380   3.450
38960SOL     OW16903   5.661  11.517   1.895
38960SOL    HW116904   5.569  11.489   1.866
38960SOL    HW216905   5.692  11.594   1.839
38961SOL     OW16906   7.026  12.028   3.260
38961SOL    HW116907   6.969  12.080   3.197
38961SOL    HW216908   7.122  12.040   3.236
38962SOL     OW16909   5.658  11.338   2.180
38962SOL    HW116910   5.641  11.421   2.126
38962SOL    HW216911   5.748  11.301   2.158
38963SOL     OW16912   6.769  12.507   1.981
38963SOL    HW116913   6.670  12.496   1.983
38963SOL    HW216914   6.803  12.522   2.074
38964SOL     OW16915   6.199  12.014   3.293
38964SOL    HW116916   6.255  12.095   3.276
38964SOL    HW216917   6.258  11.934   3.296
38965SOL     OW16918   6.302  11.737   3.570
38965SOL    HW116919   6.321  11.802   3.644
38965SOL    HW216920   6.362  11.657   3.579
38966SOL     OW16921   7.036  12.392   3.495
38966SOL    HW116922   7.027  12.382   3.594
38966SOL    HW216923   7.132  12.385   3.469
38967SOL     OW16924   7.260  12.055   3.116
38967SOL    HW116925   7.233  11.966   3.079
38967SOL    HW216926   7.261  12.123   3.043
38968SOL     OW16927   6.811  11.497   2.311
38968SOL    HW116928   6.876  11.423   2.300
38968SOL    HW216929   6.831  11.547   2.395
38969SOL     OW16930   6.180  11.917   2.514
38969SOL    HW116931   6.230  12.002   2.495
38969SOL    HW216932   6.092  11.919   2.466
38970SOL     OW16933   7.363  11.514   3.504
38970SOL    HW116934   7.346  11.545   3.410
38970SOL    HW216935   7.279  11.477   3.542
38971SOL     OW16936   7.316  12.106   3.379
38971SOL    HW116937   7.354  12.197   3.394
38971SOL    HW216938   7.308  12.089   3.280
38972SOL     OW16939   6.445  12.546   1.878
38972SOL    HW116940   6.399  12.561   1.966
38972SOL    HW216941   6.489  12.631   1.848
38973SOL     OW16942   6.445  12.128   2.723
38973SOL    HW116943   6.499  12.059   2.771
38973SOL    HW216944   6.413  12.197   2.789
38974SOL     OW16945   6.669  12.156   1.949
38974SOL    HW116946   6.646  12.209   1.867
38974SOL    HW216947   6.750  12.100   1.930
38975SOL     OW16948   7.447  12.741   2.713
38975SOL    HW116949   7.376  12.729   2.643
38975SOL    HW216950   7.448  12.662   2.773
38976SOL     OW16951   5.807  12.486   3.706
38976SOL    HW116952   5.742  12.413   3.685
38976SOL    HW216953   5.811  12.500   3.804
38977SOL     OW16954   5.665  12.412   2.515
38977SOL    HW116955   5.664  12.365   2.603
38977SOL    HW216956   5.747  12.384   2.464
38978SOL     OW16957   6.258  12.563   3.486
38978SOL    HW116958   6.180  12.513   3.524
38978SOL    HW216959   6.255  12.658   3.517
38979SOL     OW16960   7.410  11.364   3.089
38979SOL    HW116961   7.406  11.274   3.133
38979SOL    HW216962   7.413  11.353   2.990
38980SOL     OW16963   6.014  11.596   2.382
38980SOL    HW116964   6.044  11.524   2.320
38980SOL    HW216965   5.975  11.556   2.465
38981SOL     OW16966   7.291  12.659   2.966
38981SOL    HW116967   7.198  12.634   2.939
38981SOL    HW216968   7.317  12.609   3.048
38982SOL     OW16969   5.903  11.719   3.142
38982SOL    HW116970   5.941  11.660   3.214
38982SOL    HW216971   5.943  11.693   3.054
38983SOL     OW16972   7.010  11.386   2.974
38983SOL    HW116973   7.062  11.321   3.029
38983SOL    HW216974   6.961  11.449   3.035
38984SOL     OW16975   6.587  11.206   3.016
38984SOL    HW116976   6.524  11.134   2.985
38984SOL    HW216977   6.680  11.170   3.016
38985SOL     OW16978   6.356  12.502   2.163
38985SOL    HW116979   6.310  12.415   2.180
38985SOL    HW216980   6.447  12.499   2.204
38986SOL     OW16981   6.204  12.739   3.146
38986SOL    HW116982   6.199  12.821   3.203
38986SOL    HW216983   6.293  12.736   3.101
38987SOL     OW16984   6.938  11.224   2.030
38987SOL    HW116985   6.973  11.183   1.946
38987SOL    HW216986   6.848  11.186   2.050
38988SOL     OW16987   6.886  11.625   2.553
38988SOL    HW116988   6.827  11.705   2.557
38988SOL    HW216989   6.901  11.590   2.646
38989SOL     OW16990   7.179  11.393   2.744
38989SOL    HW116991   7.095  11.392   2.798
38989SOL    HW216992   7.181  11.476   2.688
38990SOL     OW16993   5.625  12.249   2.162
38990SOL    HW116994   5.724  12.238   2.153
38990SOL    HW216995   5.585  12.163   2.194
38991SOL     OW16996   5.816  11.800   3.837
38991SOL    HW116997   5.723  11.798   3.874
38991SOL    HW216998   5.817  11.761   3.745
38992SOL     OW16999   5.811  11.447   4.720
38992SOL    HW117000   5.846  11.430   4.812
38992SOL    HW217001   5.723  11.402   4.708
38993SOL     OW17002   5.605  11.540   4.371
38993SOL    HW117003   5.523  11.583   4.410
38993SOL    HW217004   5.577  11.467   4.308
38994SOL     OW17005   6.155  12.447   4.889
38994SOL    HW117006   6.062  12.440   4.852
38994SOL    HW217007   6.166  12.536   4.933
38995SOL     OW17008   7.141  12.683   4.427
38995SOL    HW117009   7.084  12.667   4.508
38995SOL    HW217010   7.082  12.693   4.347
38996SOL     OW17011   6.721  11.875   4.441
38996SOL    HW117012   6.778  11.953   4.416
38996SOL    HW217013   6.661  11.901   4.517
38997SOL     OW17014   7.341  11.779   3.955
38997SOL    HW117015   7.329  11.766   3.856
38997SOL    HW217016   7.311  11.698   4.004
38998SOL     OW17017   6.354  12.316   4.747
38998SOL    HW117018   6.276  12.333   4.807
38998SOL    HW217019   6.388  12.403   4.711
38999SOL     OW17020   6.436  11.970   5.547
38999SOL    HW117021   6.432  12.046   5.612
38999SOL    HW217022   6.458  12.006   5.456
39000SOL     OW17023   6.271  12.184   4.389
39000SOL    HW117024   6.340  12.168   4.459
39000SOL    HW217025   6.198  12.241   4.427
39001SOL     OW17026   6.272  12.333   5.527
39001SOL    HW117027   6.332  12.412   5.541
39001SOL    HW217028   6.186  12.364   5.486
39002SOL     OW17029   5.921  12.607   4.785
39002SOL    HW117030   5.843  12.576   4.732
39002SOL    HW217031   5.979  12.665   4.728
39003SOL     OW17032   7.046  12.677   5.063
39003SOL    HW117033   7.070  12.771   5.089
39003SOL    HW217034   7.030  12.623   5.145
39004SOL     OW17035   6.024  11.564   5.223
39004SOL    HW117036   6.106  11.508   5.232
39004SOL    HW217037   5.943  11.506   5.227
39005SOL     OW17038   7.189  11.619   4.461
39005SOL    HW117039   7.115  11.665   4.411
39005SOL    HW217040   7.240  11.687   4.514
39006SOL     OW17041   6.713  12.513   5.414
39006SOL    HW117042   6.760  12.513   5.502
39006SOL    HW217043   6.665  12.426   5.403
39007SOL     OW17044   5.816  12.606   4.262
39007SOL    HW117045   5.790  12.702   4.262
39007SOL    HW217046   5.745  12.552   4.307
39008SOL     OW17047   5.826  12.263   4.610
39008SOL    HW117048   5.840  12.179   4.662
39008SOL    HW217049   5.771  12.327   4.665
39009SOL     OW17050   6.192  12.136   3.847
39009SOL    HW117051   6.199  12.220   3.793
39009SOL    HW217052   6.238  12.149   3.935
39010SOL     OW17053   7.180  11.286   5.204
39010SOL    HW117054   7.162  11.353   5.132
39010SOL    HW217055   7.177  11.332   5.293
39011SOL     OW17056   5.708  11.815   4.287
39011SOL    HW117057   5.663  11.727   4.304
39011SOL    HW217058   5.707  11.869   4.371
39012SOL     OW17059   5.613  12.768   3.841
39012SOL    HW117060   5.594  12.672   3.862
39012SOL    HW217061   5.580  12.826   3.916
39013SOL     OW17062   7.275  12.094   4.336
39013SOL    HW117063   7.370  12.065   4.344
39013SOL    HW217064   7.267  12.159   4.261
39014SOL     OW17065   7.227  12.280   4.156
39014SOL    HW117066   7.313  12.282   4.104
39014SOL    HW217067   7.241  12.327   4.244
39015SOL     OW17068   5.699  11.909   5.321
39015SOL    HW117069   5.787  11.896   5.366
39015SOL    HW217070   5.686  12.006   5.299
39016SOL     OW17071   6.199  12.537   4.450
39016SOL    HW117072   6.150  12.450   4.459
39016SOL    HW217073   6.176  12.580   4.363
39017SOL     OW17074   6.879  12.400   5.147
39017SOL    HW117075   6.916  12.327   5.089
39017SOL    HW217076   6.931  12.405   5.232
39018SOL     OW17077   6.395  11.176   4.226
39018SOL    HW117078   6.435  11.267   4.217
39018SOL    HW217079   6.295  11.184   4.232
39019SOL     OW17080   5.783  12.148   4.988
39019SOL    HW117081   5.872  12.103   4.974
39019SOL    HW217082   5.710  12.083   4.969
39020SOL     OW17083   7.111  12.171   3.914
39020SOL    HW117084   7.048  12.095   3.927
39020SOL    HW217085   7.159  12.189   4.000
39021SOL     OW17086   5.903  11.423   5.525
39021SOL    HW117087   5.974  11.494   5.531
39021SOL    HW217088   5.815  11.462   5.553
39022SOL     OW17089   7.052  12.589   4.677
39022SOL    HW117090   6.993  12.595   4.757
39022SOL    HW217091   7.037  12.501   4.631
39023SOL     OW17092   6.184  11.901   3.994
39023SOL    HW117093   6.208  11.970   3.926
39023SOL    HW217094   6.106  11.934   4.048
39024SOL     OW17095   6.867  11.517   4.668
39024SOL    HW117096   6.781  11.467   4.655
39024SOL    HW217097   6.929  11.463   4.724
39025SOL     OW17098   7.162  12.834   4.031
39025SOL    HW117099   7.251  12.880   4.034
39025SOL    HW217100   7.141  12.810   3.936
39026SOL     OW17101   6.393  11.777   5.189
39026SOL    HW117102   6.346  11.774   5.278
39026SOL    HW217103   6.342  11.722   5.123
39027SOL     OW17104   6.980  11.641   5.398
39027SOL    HW117105   6.960  11.684   5.486
39027SOL    HW217106   7.058  11.579   5.407
39028SOL     OW17107   6.559  12.062   5.296
39028SOL    HW117108   6.605  11.978   5.267
39028SOL    HW217109   6.503  12.096   5.221
39029SOL     OW17110   6.577  11.582   4.966
39029SOL    HW117111   6.500  11.616   5.020
39029SOL    HW217112   6.543  11.531   4.887
39030SOL     OW17113   6.627  11.873   4.153
39030SOL    HW117114   6.653  11.869   4.249
39030SOL    HW217115   6.542  11.822   4.139
39031SOL     OW17116   5.662  11.983   4.513
39031SOL    HW117117   5.761  11.971   4.522
39031SOL    HW217118   5.638  12.078   4.534
39032SOL     OW17119   6.451  11.520   3.919
39032SOL    HW117120   6.510  11.583   3.870
39032SOL    HW217121   6.470  11.426   3.890
39033SOL     OW17122   7.305  11.757   5.555
39033SOL    HW117123   7.279  11.846   5.519
39033SOL    HW217124   7.303  11.689   5.482
39034SOL     OW17125   6.948  12.316   4.269
39034SOL    HW117126   7.031  12.287   4.221
39034SOL    HW217127   6.899  12.383   4.213
39035SOL     OW17128   6.136  11.368   4.609
39035SOL    HW117129   6.131  11.363   4.709
39035SOL    HW217130   6.138  11.464   4.580
39036SOL     OW17131   6.594  12.628   4.201
39036SOL    HW117132   6.548  12.700   4.149
39036SOL    HW217133   6.590  12.648   4.299
39037SOL     OW17134   7.381  12.238   4.597
39037SOL    HW117135   7.319  12.223   4.521
39037SOL    HW217136   7.329  12.249   4.682
39038SOL     OW17137   6.813  12.722   5.230
39038SOL    HW117138   6.819  12.645   5.294
39038SOL    HW217139   6.761  12.696   5.150
39039SOL     OW17140   5.907  12.115   3.966
39039SOL    HW117141   5.989  12.154   3.924
39039SOL    HW217142   5.880  12.033   3.917
39040SOL     OW17143   7.044  11.907   4.452
39040SOL    HW117144   7.039  11.842   4.527
39040SOL    HW217145   7.124  11.966   4.465
39041SOL     OW17146   6.047  12.438   5.451
39041SOL    HW117147   5.997  12.439   5.365
39041SOL    HW217148   5.984  12.420   5.527
39042SOL     OW17149   5.788  11.457   5.222
39042SOL    HW117150   5.708  11.517   5.209
39042SOL    HW217151   5.778  11.408   5.308
39043SOL     OW17152   7.218  12.549   3.805
39043SOL    HW117153   7.186  12.643   3.795
39043SOL    HW217154   7.142  12.486   3.793
39044SOL     OW17155   6.986  11.279   4.150
39044SOL    HW117156   6.962  11.242   4.060
39044SOL    HW217157   7.085  11.295   4.154
39045SOL     OW17158   5.968  11.872   4.204
39045SOL    HW117159   6.013  11.782   4.201
39045SOL    HW217160   5.874  11.861   4.237
39046SOL     OW17161   7.133  11.394   5.453
39046SOL    HW117162   7.128  11.431   5.545
39046SOL    HW217163   7.061  11.325   5.441
39047SOL     OW17164   6.200  11.294   3.841
39047SOL    HW117165   6.298  11.272   3.848
39047SOL    HW217166   6.169  11.277   3.748
39048SOL     OW17167   6.367  11.436   5.473
39048SOL    HW117168   6.434  11.375   5.516
39048SOL    HW217169   6.294  11.455   5.538
39049SOL     OW17170   6.937  11.762   5.157
39049SOL    HW117171   6.965  11.719   5.242
39049SOL    HW217172   6.962  11.858   5.158
39050SOL     OW17173   6.389  12.574   4.648
39050SOL    HW117174   6.479  12.588   4.606
39050SOL    HW217175   6.318  12.576   4.577
39051SOL     OW17176   6.508  11.675   4.623
39051SOL    HW117177   6.483  11.666   4.527
39051SOL    HW217178   6.556  11.593   4.654
39052SOL     OW17179   6.125  11.236   4.236
39052SOL    HW117180   6.044  11.237   4.294
39052SOL    HW217181   6.128  11.319   4.181
39053SOL     OW17182   7.020  12.360   3.765
39053SOL    HW117183   7.052  12.284   3.822
39053SOL    HW217184   6.928  12.387   3.795
39054SOL     OW17185   5.883  11.207   3.895
39054SOL    HW117186   5.932  11.291   3.874
39054SOL    HW217187   5.945  11.142   3.940
39055SOL     OW17188   6.521  11.408   4.204
39055SOL    HW117189   6.473  11.449   4.126
39055SOL    HW217190   6.620  11.406   4.185
39056SOL     OW17191   6.662  11.855   5.188
39056SOL    HW117192   6.582  11.794   5.191
39056SOL    HW217193   6.743  11.802   5.164
39057SOL     OW17194   6.813  12.742   4.517
39057SOL    HW117195   6.834  12.816   4.452
39057SOL    HW217196   6.881  12.742   4.590
39058SOL     OW17197   6.045  12.324   4.465
39058SOL    HW117198   5.974  12.297   4.530
39058SOL    HW217199   6.019  12.296   4.372
39059SOL     OW17200   6.618  11.721   3.740
39059SOL    HW117201   6.577  11.803   3.701
39059SOL    HW217202   6.682  11.747   3.813
39060SOL     OW17203   5.664  11.728   5.110
39060SOL    HW117204   5.756  11.727   5.069
39060SOL    HW217205   5.658  11.802   5.177
39061SOL     OW17206   6.147  11.394   4.871
39061SOL    HW117207   6.185  11.310   4.908
39061SOL    HW217208   6.059  11.413   4.915
39062SOL     OW17209   6.452  11.626   4.366
39062SOL    HW117210   6.420  11.698   4.304
39062SOL    HW217211   6.476  11.545   4.313
39063SOL     OW17212   6.603  11.211   4.477
39063SOL    HW117213   6.531  11.216   4.408
39063SOL    HW217214   6.579  11.142   4.546
39064SOL     OW17215   7.015  12.345   4.591
39064SOL    HW117216   6.960  12.261   4.584
39064SOL    HW217217   7.041  12.374   4.499
39065SOL     OW17218   7.052  11.762   4.716
39065SOL    HW117219   7.022  11.667   4.723
39065SOL    HW217220   7.125  11.778   4.782
39066SOL     OW17221   7.443  12.005   4.101
39066SOL    HW117222   7.485  11.941   4.165
39066SOL    HW217223   7.405  11.954   4.023
39067SOL     OW17224   6.074  12.557   3.898
39067SOL    HW117225   5.987  12.542   3.945
39067SOL    HW217226   6.057  12.583   3.803
39068SOL     OW17227   7.250  12.452   4.381
39068SOL    HW117228   7.349  12.460   4.395
39068SOL    HW217229   7.205  12.536   4.412
39069SOL     OW17230   6.976  11.747   3.802
39069SOL    HW117231   6.922  11.726   3.883
39069SOL    HW217232   7.067  11.706   3.811
39070SOL     OW17233   6.113  11.428   4.052
39070SOL    HW117234   6.140  11.369   3.977
39070SOL    HW217235   6.113  11.523   4.021
39071SOL     OW17236   7.340  12.395   5.312
39071SOL    HW117237   7.431  12.356   5.299
39071SOL    HW217238   7.348  12.491   5.336
39072SOL     OW17239   6.650  12.519   5.064
39072SOL    HW117240   6.570  12.496   5.119
39072SOL    HW217241   6.733  12.493   5.113
39073SOL     OW17242   6.697  12.367   4.824
39073SOL    HW117243   6.657  12.411   4.905
39073SOL    HW217244   6.656  12.404   4.741
39074SOL     OW17245   7.224  12.271   4.803
39074SOL    HW117246   7.229  12.352   4.862
39074SOL    HW217247   7.138  12.273   4.752
39075SOL     OW17248   6.501  11.261   5.126
39075SOL    HW117249   6.526  11.241   5.031
39075SOL    HW217250   6.573  11.317   5.168
39076SOL     OW17251   6.566  12.288   5.443
39076SOL    HW117252   6.467  12.294   5.453
39076SOL    HW217253   6.589  12.208   5.387
39077SOL     OW17254   6.291  12.222   4.092
39077SOL    HW117255   6.277  12.229   4.191
39077SOL    HW217256   6.375  12.171   4.074
39078SOL     OW17257   5.996  11.985   4.975
39078SOL    HW117258   6.082  11.997   5.025
39078SOL    HW217259   5.954  11.898   5.002
39079SOL     OW17260   6.860  11.558   4.986
39079SOL    HW117261   6.881  11.632   5.050
39079SOL    HW217262   6.771  11.575   4.943
39080SOL     OW17263   5.650  12.736   5.055
39080SOL    HW117264   5.604  12.818   5.021
39080SOL    HW217265   5.748  12.755   5.064
39081SOL     OW17266   5.953  12.272   4.225
39081SOL    HW117267   5.946  12.355   4.169
39081SOL    HW217268   5.957  12.192   4.165
39082SOL     OW17269   6.152  11.709   4.589
39082SOL    HW117270   6.164  11.775   4.515
39082SOL    HW217271   6.198  11.743   4.672
39083SOL     OW17272   6.838  12.520   4.112
39083SOL    HW117273   6.888  12.597   4.152
39083SOL    HW217274   6.743  12.522   4.144
39084SOL     OW17275   6.858  12.617   4.866
39084SOL    HW117276   6.905  12.630   4.953
39084SOL    HW217277   6.792  12.543   4.875
39085SOL     OW17278   7.168  11.811   4.196
39085SOL    HW117279   7.137  11.872   4.269
39085SOL    HW217280   7.218  11.863   4.127
39086SOL     OW17281   5.940  12.682   5.053
39086SOL    HW117282   5.919  12.638   4.966
39086SOL    HW217283   6.037  12.708   5.056
39087SOL     OW17284   5.988  11.923   5.322
39087SOL    HW117285   6.056  11.978   5.275
39087SOL    HW217286   6.028  11.835   5.349
39088SOL     OW17287   7.173  11.951   5.394
39088SOL    HW117288   7.081  11.989   5.389
39088SOL    HW217289   7.233  11.998   5.329
39089SOL     OW17290   6.599  11.277   5.494
39089SOL    HW117291   6.605  11.362   5.442
39089SOL    HW217292   6.631  11.201   5.437
39090SOL     OW17293   6.090  11.222   5.464
39090SOL    HW117294   6.048  11.165   5.394
39090SOL    HW217295   6.024  11.291   5.496
39091SOL     OW17296   6.159  12.042   4.753
39091SOL    HW117297   6.203  12.131   4.744
39091SOL    HW217298   6.096  12.042   4.830
39092SOL     OW17299   6.946  12.034   4.769
39092SOL    HW117300   6.871  12.034   4.703
39092SOL    HW217301   6.983  11.942   4.778
39093SOL     OW17302   6.795  11.697   3.999
39093SOL    HW117303   6.808  11.613   4.053
39093SOL    HW217304   6.766  11.771   4.059
39094SOL     OW17305   5.893  11.385   4.955
39094SOL    HW117306   5.870  11.422   5.045
39094SOL    HW217307   5.863  11.290   4.949
39095SOL     OW17308   5.623  12.482   5.006
39095SOL    HW117309   5.676  12.433   5.074
39095SOL    HW217310   5.645  12.580   5.011
39096SOL     OW17311   6.318  11.806   4.788
39096SOL    HW117312   6.377  11.780   4.712
39096SOL    HW217313   6.290  11.902   4.777
39097SOL     OW17314   7.314  12.107   5.578
39097SOL    HW117315   7.268  12.100   5.489
39097SOL    HW217316   7.252  12.151   5.644
39098SOL     OW17317   5.893  11.235   4.342
39098SOL    HW117318   5.882  11.329   4.375
39098SOL    HW217319   5.888  11.172   4.419
39099SOL     OW17320   7.208  11.539   4.098
39099SOL    HW117321   7.210  11.463   4.162
39099SOL    HW217322   7.160  11.616   4.138
39100SOL     OW17323   6.609  11.938   4.690
39100SOL    HW117324   6.624  11.959   4.786
39100SOL    HW217325   6.579  11.843   4.681
39101SOL     OW17326   7.445  12.690   5.329
39101SOL    HW117327   7.459  12.717   5.234
39101SOL    HW217328   7.528  12.712   5.382
39102SOL     OW17329   5.936  12.070   5.528
39102SOL    HW117330   6.012  12.114   5.576
39102SOL    HW217331   5.971  12.023   5.446
39103SOL     OW17332   7.126  11.446   3.849
39103SOL    HW117333   7.065  11.371   3.872
39103SOL    HW217334   7.148  11.498   3.932
39104SOL     OW17335   6.889  12.010   3.766
39104SOL    HW117336   6.923  11.917   3.781
39104SOL    HW217337   6.907  12.037   3.671
39105SOL     OW17338   6.654  12.505   4.573
39105SOL    HW117339   6.661  12.421   4.518
39105SOL    HW217340   6.716  12.574   4.537
39106SOL     OW17341   5.905  11.982   4.673
39106SOL    HW117342   5.998  12.018   4.678
39106SOL    HW217343   5.899  11.897   4.725
39107SOL     OW17344   5.925  11.681   4.730
39107SOL    HW117345   5.873  11.598   4.713
39107SOL    HW217346   6.002  11.686   4.666
39108SOL     OW17347   6.724  11.552   5.402
39108SOL    HW117348   6.679  11.615   5.466
39108SOL    HW217349   6.817  11.583   5.385
39109SOL     OW17350   6.746  11.379   5.201
39109SOL    HW117351   6.746  11.443   5.278
39109SOL    HW217352   6.774  11.427   5.118
39110SOL     OW17353   5.594  12.498   3.924
39110SOL    HW117354   5.501  12.519   3.893
39110SOL    HW217355   5.604  12.399   3.937
39111SOL     OW17356   6.090  12.740   4.634
39111SOL    HW117357   6.156  12.814   4.643
39111SOL    HW217358   6.134  12.661   4.592
39112SOL     OW17359   6.588  11.968   4.962
39112SOL    HW117360   6.629  11.936   5.048
39112SOL    HW217361   6.492  11.941   4.959
39113SOL     OW17362   5.626  11.716   4.838
39113SOL    HW117363   5.711  11.683   4.797
39113SOL    HW217364   5.639  11.731   4.936
39114SOL     OW17365   5.775  11.692   5.446
39114SOL    HW117366   5.834  11.652   5.376
39114SOL    HW217367   5.717  11.763   5.405
39115SOL     OW17368   6.955  12.122   5.384
39115SOL    HW117369   6.994  12.211   5.404
39115SOL    HW217370   6.965  12.102   5.287
39116SOL     OW17371   6.401  11.744   4.049
39116SOL    HW117372   6.408  11.655   4.003
39116SOL    HW217373   6.307  11.778   4.041
39117SOL     OW17374   7.243  11.776   4.930
39117SOL    HW117375   7.205  11.707   4.992
39117SOL    HW217376   7.325  11.740   4.886
39118SOL     OW17377   5.838  12.736   5.468
39118SOL    HW117378   5.808  12.793   5.544
39118SOL    HW217379   5.831  12.639   5.494
39119SOL     OW17380   6.257  11.636   4.993
39119SOL    HW117381   6.223  11.547   4.963
39119SOL    HW217382   6.283  11.690   4.913
39120SOL     OW17383   6.059  11.672   3.915
39120SOL    HW117384   6.120  11.752   3.919
39120SOL    HW217385   5.964  11.703   3.922
39121SOL     OW17386   5.745  12.309   5.190
39121SOL    HW117387   5.767  12.248   5.266
39121SOL    HW217388   5.755  12.260   5.104
39122SOL     OW17389   6.933  12.231   4.958
39122SOL    HW117390   6.957  12.168   4.884
39122SOL    HW217391   6.843  12.271   4.940
39123SOL     OW17392   6.888  12.027   4.033
39123SOL    HW117393   6.802  11.996   4.075
39123SOL    HW217394   6.884  12.013   3.934
39124SOL     OW17395   6.838  12.903   4.852
39124SOL    HW117396   6.922  12.908   4.798
39124SOL    HW217397   6.815  12.807   4.870
39125SOL     OW17398   5.669  12.430   4.746
39125SOL    HW117399   5.664  12.429   4.846
39125SOL    HW217400   5.586  12.389   4.708
39126SOL     OW17401   7.312  11.307   4.247
39126SOL    HW117402   7.385  11.290   4.180
39126SOL    HW217403   7.281  11.220   4.285
39127SOL     OW17404   5.716  12.966   5.575
39127SOL    HW117405   5.675  12.892   5.628
39127SOL    HW217406   5.780  13.017   5.633
39128SOL     OW17407   6.866  12.099   4.396
39128SOL    HW117408   6.926  12.018   4.398
39128SOL    HW217409   6.906  12.168   4.336
39129SOL     OW17410   6.416  12.445   5.146
39129SOL    HW117411   6.411  12.478   5.241
39129SOL    HW217412   6.330  12.464   5.100
39130SOL     OW17413   6.258  12.788   3.878
39130SOL    HW117414   6.267  12.798   3.779
39130SOL    HW217415   6.218  12.699   3.899
39131SOL     OW17416   7.427  11.347   4.687
39131SOL    HW117417   7.466  11.262   4.651
39131SOL    HW217418   7.329  11.349   4.668
39132SOL     OW17419   5.849  11.498   4.444
39132SOL    HW117420   5.770  11.549   4.410
39132SOL    HW217421   5.840  11.483   4.542
39133SOL     OW17422   6.780  12.784   3.755
39133SOL    HW117423   6.786  12.691   3.792
39133SOL    HW217424   6.721  12.784   3.675
39134SOL     OW17425   6.408  12.174   5.096
39134SOL    HW117426   6.448  12.173   5.004
39134SOL    HW217427   6.418  12.266   5.136
39135SOL     OW17428   6.502  12.082   4.015
39135SOL    HW117429   6.565  12.120   3.947
39135SOL    HW217430   6.542  11.999   4.054
39136SOL     OW17431   5.958  12.460   5.214
39136SOL    HW117432   5.945  12.553   5.180
39136SOL    HW217433   5.874  12.408   5.201
39137SOL     OW17434   7.200  12.464   5.013
39137SOL    HW117435   7.260  12.467   5.093
39137SOL    HW217436   7.125  12.528   5.026
39138SOL     OW17437   6.625  12.270   4.420
39138SOL    HW117438   6.555  12.223   4.474
39138SOL    HW217439   6.684  12.202   4.377
39139SOL     OW17440   6.600  11.408   4.695
39139SOL    HW117441   6.592  11.372   4.602
39139SOL    HW217442   6.598  11.332   4.760
39140SOL     OW17443   6.176  12.659   4.215
39140SOL    HW117444   6.218  12.601   4.145
39140SOL    HW217445   6.132  12.738   4.171
39141SOL     OW17446   7.295  11.557   5.105
39141SOL    HW117447   7.368  11.626   5.109
39141SOL    HW217448   7.323  11.482   5.046
39142SOL     OW17449   5.841  12.520   4.014
39142SOL    HW117450   5.745  12.521   3.987
39142SOL    HW217451   5.853  12.573   4.098
39143SOL     OW17452   5.691  12.185   5.450
39143SOL    HW117453   5.614  12.152   5.504
39143SOL    HW217454   5.776  12.155   5.492
39144SOL     OW17455   6.258  11.375   5.213
39144SOL    HW117456   6.348  11.359   5.173
39144SOL    HW217457   6.266  11.380   5.312
39145SOL     OW17458   5.661  11.517   3.757
39145SOL    HW117459   5.569  11.489   3.728
39145SOL    HW217460   5.692  11.594   3.701
39146SOL     OW17461   7.026  12.028   5.122
39146SOL    HW117462   6.969  12.080   5.059
39146SOL    HW217463   7.122  12.040   5.098
39147SOL     OW17464   5.658  11.338   4.042
39147SOL    HW117465   5.641  11.421   3.988
39147SOL    HW217466   5.748  11.301   4.020
39148SOL     OW17467   6.769  12.507   3.843
39148SOL    HW117468   6.670  12.496   3.845
39148SOL    HW217469   6.803  12.522   3.936
39149SOL     OW17470   6.199  12.014   5.155
39149SOL    HW117471   6.255  12.095   5.138
39149SOL    HW217472   6.258  11.934   5.158
39150SOL     OW17473   6.302  11.737   5.432
39150SOL    HW117474   6.321  11.802   5.506
39150SOL    HW217475   6.362  11.657   5.441
39151SOL     OW17476   7.036  12.392   5.357
39151SOL    HW117477   7.027  12.382   5.456
39151SOL    HW217478   7.132  12.385   5.331
39152SOL     OW17479   7.260  12.055   4.978
39152SOL    HW117480   7.233  11.966   4.941
39152SOL    HW217481   7.261  12.123   4.905
39153SOL     OW17482   6.811  11.497   4.173
39153SOL    HW117483   6.876  11.423   4.162
39153SOL    HW217484   6.831  11.547   4.257
39154SOL     OW17485   6.180  11.917   4.376
39154SOL    HW117486   6.230  12.002   4.357
39154SOL    HW217487   6.092  11.919   4.328
39155SOL     OW17488   7.363  11.514   5.366
39155SOL    HW117489   7.346  11.545   5.272
39155SOL    HW217490   7.279  11.477   5.404
39156SOL     OW17491   7.316  12.106   5.241
39156SOL    HW117492   7.354  12.197   5.256
39156SOL    HW217493   7.308  12.089   5.142
39157SOL     OW17494   6.445  12.546   3.740
39157SOL    HW117495   6.399  12.561   3.828
39157SOL    HW217496   6.489  12.631   3.710
39158SOL     OW17497   6.445  12.128   4.585
39158SOL    HW117498   6.499  12.059   4.633
39158SOL    HW217499   6.413  12.197   4.651
39159SOL     OW17500   6.669  12.156   3.811
39159SOL    HW117501   6.646  12.209   3.729
39159SOL    HW217502   6.750  12.100   3.792
39160SOL     OW17503   7.447  12.741   4.575
39160SOL    HW117504   7.376  12.729   4.505
39160SOL    HW217505   7.448  12.662   4.635
39161SOL     OW17506   5.807  12.486   5.568
39161SOL    HW117507   5.742  12.413   5.547
39161SOL    HW217508   5.811  12.500   5.666
39162SOL     OW17509   5.665  12.412   4.377
39162SOL    HW117510   5.664  12.365   4.465
39162SOL    HW217511   5.747  12.384   4.326
39163SOL     OW17512   6.258  12.563   5.348
39163SOL    HW117513   6.180  12.513   5.386
39163SOL    HW217514   6.255  12.658   5.379
39164SOL     OW17515   7.410  11.364   4.951
39164SOL    HW117516   7.406  11.274   4.995
39164SOL    HW217517   7.413  11.353   4.852
39165SOL     OW17518   6.014  11.596   4.244
39165SOL    HW117519   6.044  11.524   4.182
39165SOL    HW217520   5.975  11.556   4.327
39166SOL     OW17521   7.291  12.659   4.828
39166SOL    HW117522   7.198  12.634   4.801
39166SOL    HW217523   7.317  12.609   4.910
39167SOL     OW17524   5.903  11.719   5.004
39167SOL    HW117525   5.941  11.660   5.076
39167SOL    HW217526   5.943  11.693   4.916
39168SOL     OW17527   7.010  11.386   4.836
39168SOL    HW117528   7.062  11.321   4.891
39168SOL    HW217529   6.961  11.449   4.897
39169SOL     OW17530   6.587  11.206   4.878
39169SOL    HW117531   6.524  11.134   4.847
39169SOL    HW217532   6.680  11.170   4.878
39170SOL     OW17533   6.356  12.502   4.025
39170SOL    HW117534   6.310  12.415   4.042
39170SOL    HW217535   6.447  12.499   4.066
39171SOL     OW17536   6.204  12.739   5.008
39171SOL    HW117537   6.199  12.821   5.065
39171SOL    HW217538   6.293  12.736   4.963
39172SOL     OW17539   6.938  11.224   3.892
39172SOL    HW117540   6.973  11.183   3.808
39172SOL    HW217541   6.848  11.186   3.912
39173SOL     OW17542   6.886  11.625   4.415
39173SOL    HW117543   6.827  11.705   4.419
39173SOL    HW217544   6.901  11.590   4.508
39174SOL     OW17545   7.179  11.393   4.606
39174SOL    HW117546   7.095  11.392   4.660
39174SOL    HW217547   7.181  11.476   4.550
39175SOL     OW17548   5.625  12.249   4.024
39175SOL    HW117549   5.724  12.238   4.015
39175SOL    HW217550   5.585  12.163   4.056
39176SOL     OW17551   5.816  11.800   5.699
39176SOL    HW117552   5.723  11.798   5.736
39176SOL    HW217553   5.817  11.761   5.607
39177SOL     OW17554   5.811  11.447   6.582
39177SOL    HW117555   5.846  11.430   6.674
39177SOL    HW217556   5.723  11.402   6.570
39178SOL     OW17557   5.605  11.540   6.233
39178SOL    HW117558   5.523  11.583   6.272
39178SOL    HW217559   5.577  11.467   6.170
39179SOL     OW17560   6.155  12.447   6.751
39179SOL    HW117561   6.062  12.440   6.714
39179SOL    HW217562   6.166  12.536   6.795
39180SOL     OW17563   7.141  12.683   6.289
39180SOL    HW117564   7.084  12.667   6.370
39180SOL    HW217565   7.082  12.693   6.209
39181SOL     OW17566   6.721  11.875   6.303
39181SOL    HW117567   6.778  11.953   6.278
39181SOL    HW217568   6.661  11.901   6.379
39182SOL     OW17569   7.341  11.779   5.817
39182SOL    HW117570   7.329  11.766   5.718
39182SOL    HW217571   7.311  11.698   5.866
39183SOL     OW17572   6.354  12.316   6.609
39183SOL    HW117573   6.276  12.333   6.669
39183SOL    HW217574   6.388  12.403   6.573
39184SOL     OW17575   6.436  11.970   7.409
39184SOL    HW117576   6.432  12.046   7.474
39184SOL    HW217577   6.458  12.006   7.318
39185SOL     OW17578   6.271  12.184   6.251
39185SOL    HW117579   6.340  12.168   6.321
39185SOL    HW217580   6.198  12.241   6.289
39186SOL     OW17581   6.272  12.333   7.389
39186SOL    HW117582   6.332  12.412   7.403
39186SOL    HW217583   6.186  12.364   7.348
39187SOL     OW17584   5.921  12.607   6.647
39187SOL    HW117585   5.843  12.576   6.594
39187SOL    HW217586   5.979  12.665   6.590
39188SOL     OW17587   7.046  12.677   6.925
39188SOL    HW117588   7.070  12.771   6.951
39188SOL    HW217589   7.030  12.623   7.007
39189SOL     OW17590   6.024  11.564   7.085
39189SOL    HW117591   6.106  11.508   7.094
39189SOL    HW217592   5.943  11.506   7.089
39190SOL     OW17593   7.189  11.619   6.323
39190SOL    HW117594   7.115  11.665   6.273
39190SOL    HW217595   7.240  11.687   6.376
39191SOL     OW17596   6.713  12.513   7.276
39191SOL    HW117597   6.760  12.513   7.364
39191SOL    HW217598   6.665  12.426   7.265
39192SOL     OW17599   5.816  12.606   6.124
39192SOL    HW117600   5.790  12.702   6.124
39192SOL    HW217601   5.745  12.552   6.169
39193SOL     OW17602   5.826  12.263   6.472
39193SOL    HW117603   5.840  12.179   6.524
39193SOL    HW217604   5.771  12.327   6.527
39194SOL     OW17605   6.192  12.136   5.709
39194SOL    HW117606   6.199  12.220   5.655
39194SOL    HW217607   6.238  12.149   5.797
39195SOL     OW17608   7.180  11.286   7.066
39195SOL    HW117609   7.162  11.353   6.994
39195SOL    HW217610   7.177  11.332   7.155
39196SOL     OW17611   5.708  11.815   6.149
39196SOL    HW117612   5.663  11.727   6.166
39196SOL    HW217613   5.707  11.869   6.233
39197SOL     OW17614   5.613  12.768   5.703
39197SOL    HW117615   5.594  12.672   5.724
39197SOL    HW217616   5.580  12.826   5.778
39198SOL     OW17617   7.275  12.094   6.198
39198SOL    HW117618   7.370  12.065   6.206
39198SOL    HW217619   7.267  12.159   6.123
39199SOL     OW17620   7.227  12.280   6.018
39199SOL    HW117621   7.313  12.282   5.966
39199SOL    HW217622   7.241  12.327   6.106
39200SOL     OW17623   5.699  11.909   7.183
39200SOL    HW117624   5.787  11.896   7.228
39200SOL    HW217625   5.686  12.006   7.161
39201SOL     OW17626   6.199  12.537   6.312
39201SOL    HW117627   6.150  12.450   6.321
39201SOL    HW217628   6.176  12.580   6.225
39202SOL     OW17629   6.879  12.400   7.009
39202SOL    HW117630   6.916  12.327   6.951
39202SOL    HW217631   6.931  12.405   7.094
39203SOL     OW17632   6.395  11.176   6.088
39203SOL    HW117633   6.435  11.267   6.079
39203SOL    HW217634   6.295  11.184   6.094
39204SOL     OW17635   5.783  12.148   6.850
39204SOL    HW117636   5.872  12.103   6.836
39204SOL    HW217637   5.710  12.083   6.831
39205SOL     OW17638   7.111  12.171   5.776
39205SOL    HW117639   7.048  12.095   5.789
39205SOL    HW217640   7.159  12.189   5.862
39206SOL     OW17641   5.903  11.423   7.387
39206SOL    HW117642   5.974  11.494   7.393
39206SOL    HW217643   5.815  11.462   7.415
39207SOL     OW17644   7.052  12.589   6.539
39207SOL    HW117645   6.993  12.595   6.619
39207SOL    HW217646   7.037  12.501   6.493
39208SOL     OW17647   6.184  11.901   5.856
39208SOL    HW117648   6.208  11.970   5.788
39208SOL    HW217649   6.106  11.934   5.910
39209SOL     OW17650   6.867  11.517   6.530
39209SOL    HW117651   6.781  11.467   6.517
39209SOL    HW217652   6.929  11.463   6.586
39210SOL     OW17653   7.162  12.834   5.893
39210SOL    HW117654   7.251  12.880   5.896
39210SOL    HW217655   7.141  12.810   5.798
39211SOL     OW17656   6.393  11.777   7.051
39211SOL    HW117657   6.346  11.774   7.140
39211SOL    HW217658   6.342  11.722   6.985
39212SOL     OW17659   6.980  11.641   7.260
39212SOL    HW117660   6.960  11.684   7.348
39212SOL    HW217661   7.058  11.579   7.269
39213SOL     OW17662   6.559  12.062   7.158
39213SOL    HW117663   6.605  11.978   7.129
39213SOL    HW217664   6.503  12.096   7.083
39214SOL     OW17665   6.577  11.582   6.828
39214SOL    HW117666   6.500  11.616   6.882
39214SOL    HW217667   6.543  11.531   6.749
39215SOL     OW17668   6.627  11.873   6.015
39215SOL    HW117669   6.653  11.869   6.111
39215SOL    HW217670   6.542  11.822   6.001
39216SOL     OW17671   5.662  11.983   6.375
39216SOL    HW117672   5.761  11.971   6.384
39216SOL    HW217673   5.638  12.078   6.396
39217SOL     OW17674   6.451  11.520   5.781
39217SOL    HW117675   6.510  11.583   5.732
39217SOL    HW217676   6.470  11.426   5.752
39218SOL     OW17677   7.305  11.757   7.417
39218SOL    HW117678   7.279  11.846   7.381
39218SOL    HW217679   7.303  11.689   7.344
39219SOL     OW17680   6.948  12.316   6.131
39219SOL    HW117681   7.031  12.287   6.083
39219SOL    HW217682   6.899  12.383   6.075
39220SOL     OW17683   6.136  11.368   6.471
39220SOL    HW117684   6.131  11.363   6.571
39220SOL    HW217685   6.138  11.464   6.442
39221SOL     OW17686   6.594  12.628   6.063
39221SOL    HW117687   6.548  12.700   6.011
39221SOL    HW217688   6.590  12.648   6.161
39222SOL     OW17689   7.381  12.238   6.459
39222SOL    HW117690   7.319  12.223   6.383
39222SOL    HW217691   7.329  12.249   6.544
39223SOL     OW17692   6.813  12.722   7.092
39223SOL    HW117693   6.819  12.645   7.156
39223SOL    HW217694   6.761  12.696   7.012
39224SOL     OW17695   5.907  12.115   5.828
39224SOL    HW117696   5.989  12.154   5.786
39224SOL    HW217697   5.880  12.033   5.779
39225SOL     OW17698   7.044  11.907   6.314
39225SOL    HW117699   7.039  11.842   6.389
39225SOL    HW217700   7.124  11.966   6.327
39226SOL     OW17701   6.047  12.438   7.313
39226SOL    HW117702   5.997  12.439   7.227
39226SOL    HW217703   5.984  12.420   7.389
39227SOL     OW17704   5.788  11.457   7.084
39227SOL    HW117705   5.708  11.517   7.071
39227SOL    HW217706   5.778  11.408   7.170
39228SOL     OW17707   7.218  12.549   5.667
39228SOL    HW117708   7.186  12.643   5.657
39228SOL    HW217709   7.142  12.486   5.655
39229SOL     OW17710   6.986  11.279   6.012
39229SOL    HW117711   6.962  11.242   5.922
39229SOL    HW217712   7.085  11.295   6.016
39230SOL     OW17713   5.968  11.872   6.066
39230SOL    HW117714   6.013  11.782   6.063
39230SOL    HW217715   5.874  11.861   6.099
39231SOL     OW17716   7.133  11.394   7.315
39231SOL    HW117717   7.128  11.431   7.407
39231SOL    HW217718   7.061  11.325   7.303
39232SOL     OW17719   6.200  11.294   5.703
39232SOL    HW117720   6.298  11.272   5.710
39232SOL    HW217721   6.169  11.277   5.610
39233SOL     OW17722   6.367  11.436   7.335
39233SOL    HW117723   6.434  11.375   7.378
39233SOL    HW217724   6.294  11.455   7.400
39234SOL     OW17725   6.937  11.762   7.019
39234SOL    HW117726   6.965  11.719   7.104
39234SOL    HW217727   6.962  11.858   7.020
39235SOL     OW17728   6.389  12.574   6.510
39235SOL    HW117729   6.479  12.588   6.468
39235SOL    HW217730   6.318  12.576   6.439
39236SOL     OW17731   6.508  11.675   6.485
39236SOL    HW117732   6.483  11.666   6.389
39236SOL    HW217733   6.556  11.593   6.516
39237SOL     OW17734   6.125  11.236   6.098
39237SOL    HW117735   6.044  11.237   6.156
39237SOL    HW217736   6.128  11.319   6.043
39238SOL     OW17737   7.020  12.360   5.627
39238SOL    HW117738   7.052  12.284   5.684
39238SOL    HW217739   6.928  12.387   5.657
39239SOL     OW17740   5.883  11.207   5.757
39239SOL    HW117741   5.932  11.291   5.736
39239SOL    HW217742   5.945  11.142   5.802
39240SOL     OW17743   6.521  11.408   6.066
39240SOL    HW117744   6.473  11.449   5.988
39240SOL    HW217745   6.620  11.406   6.047
39241SOL     OW17746   6.662  11.855   7.050
39241SOL    HW117747   6.582  11.794   7.053
39241SOL    HW217748   6.743  11.802   7.026
39242SOL     OW17749   6.813  12.742   6.379
39242SOL    HW117750   6.834  12.816   6.314
39242SOL    HW217751   6.881  12.742   6.452
39243SOL     OW17752   6.045  12.324   6.327
39243SOL    HW117753   5.974  12.297   6.392
39243SOL    HW217754   6.019  12.296   6.234
39244SOL     OW17755   6.618  11.721   5.602
39244SOL    HW117756   6.577  11.803   5.563
39244SOL    HW217757   6.682  11.747   5.675
39245SOL     OW17758   5.664  11.728   6.972
39245SOL    HW117759   5.756  11.727   6.931
39245SOL    HW217760   5.658  11.802   7.039
39246SOL     OW17761   6.147  11.394   6.733
39246SOL    HW117762   6.185  11.310   6.770
39246SOL    HW217763   6.059  11.413   6.777
39247SOL     OW17764   6.452  11.626   6.228
39247SOL    HW117765   6.420  11.698   6.166
39247SOL    HW217766   6.476  11.545   6.175
39248SOL     OW17767   6.603  11.211   6.339
39248SOL    HW117768   6.531  11.216   6.270
39248SOL    HW217769   6.579  11.142   6.408
39249SOL     OW17770   7.015  12.345   6.453
39249SOL    HW117771   6.960  12.261   6.446
39249SOL    HW217772   7.041  12.374   6.361
39250SOL     OW17773   7.052  11.762   6.578
39250SOL    HW117774   7.022  11.667   6.585
39250SOL    HW217775   7.125  11.778   6.644
39251SOL     OW17776   7.443  12.005   5.963
39251SOL    HW117777   7.485  11.941   6.027
39251SOL    HW217778   7.405  11.954   5.885
39252SOL     OW17779   6.074  12.557   5.760
39252SOL    HW117780   5.987  12.542   5.807
39252SOL    HW217781   6.057  12.583   5.665
39253SOL     OW17782   7.250  12.452   6.243
39253SOL    HW117783   7.349  12.460   6.257
39253SOL    HW217784   7.205  12.536   6.274
39254SOL     OW17785   6.976  11.747   5.664
39254SOL    HW117786   6.922  11.726   5.745
39254SOL    HW217787   7.067  11.706   5.673
39255SOL     OW17788   6.113  11.428   5.914
39255SOL    HW117789   6.140  11.369   5.839
39255SOL    HW217790   6.113  11.523   5.883
39256SOL     OW17791   7.340  12.395   7.174
39256SOL    HW117792   7.431  12.356   7.161
39256SOL    HW217793   7.348  12.491   7.198
39257SOL     OW17794   6.650  12.519   6.926
39257SOL    HW117795   6.570  12.496   6.981
39257SOL    HW217796   6.733  12.493   6.975
39258SOL     OW17797   6.697  12.367   6.686
39258SOL    HW117798   6.657  12.411   6.767
39258SOL    HW217799   6.656  12.404   6.603
39259SOL     OW17800   7.224  12.271   6.665
39259SOL    HW117801   7.229  12.352   6.724
39259SOL    HW217802   7.138  12.273   6.614
39260SOL     OW17803   6.501  11.261   6.988
39260SOL    HW117804   6.526  11.241   6.893
39260SOL    HW217805   6.573  11.317   7.030
39261SOL     OW17806   6.566  12.288   7.305
39261SOL    HW117807   6.467  12.294   7.315
39261SOL    HW217808   6.589  12.208   7.249
39262SOL     OW17809   6.291  12.222   5.954
39262SOL    HW117810   6.277  12.229   6.053
39262SOL    HW217811   6.375  12.171   5.936
39263SOL     OW17812   5.996  11.985   6.837
39263SOL    HW117813   6.082  11.997   6.887
39263SOL    HW217814   5.954  11.898   6.864
39264SOL     OW17815   6.860  11.558   6.848
39264SOL    HW117816   6.881  11.632   6.912
39264SOL    HW217817   6.771  11.575   6.805
39265SOL     OW17818   5.650  12.736   6.917
39265SOL    HW117819   5.604  12.818   6.883
39265SOL    HW217820   5.748  12.755   6.926
39266SOL     OW17821   5.953  12.272   6.087
39266SOL    HW117822   5.946  12.355   6.031
39266SOL    HW217823   5.957  12.192   6.027
39267SOL     OW17824   6.152  11.709   6.451
39267SOL    HW117825   6.164  11.775   6.377
39267SOL    HW217826   6.198  11.743   6.534
39268SOL     OW17827   6.838  12.520   5.974
39268SOL    HW117828   6.888  12.597   6.014
39268SOL    HW217829   6.743  12.522   6.006
39269SOL     OW17830   6.858  12.617   6.728
39269SOL    HW117831   6.905  12.630   6.815
39269SOL    HW217832   6.792  12.543   6.737
39270SOL     OW17833   7.168  11.811   6.058
39270SOL    HW117834   7.137  11.872   6.131
39270SOL    HW217835   7.218  11.863   5.989
39271SOL     OW17836   5.940  12.682   6.915
39271SOL    HW117837   5.919  12.638   6.828
39271SOL    HW217838   6.037  12.708   6.918
39272SOL     OW17839   5.988  11.923   7.184
39272SOL    HW117840   6.056  11.978   7.137
39272SOL    HW217841   6.028  11.835   7.211
39273SOL     OW17842   7.173  11.951   7.256
39273SOL    HW117843   7.081  11.989   7.251
39273SOL    HW217844   7.233  11.998   7.191
39274SOL     OW17845   6.599  11.277   7.356
39274SOL    HW117846   6.605  11.362   7.304
39274SOL    HW217847   6.631  11.201   7.299
39275SOL     OW17848   6.090  11.222   7.326
39275SOL    HW117849   6.048  11.165   7.256
39275SOL    HW217850   6.024  11.291   7.358
39276SOL     OW17851   6.159  12.042   6.615
39276SOL    HW117852   6.203  12.131   6.606
39276SOL    HW217853   6.096  12.042   6.692
39277SOL     OW17854   6.946  12.034   6.631
39277SOL    HW117855   6.871  12.034   6.565
39277SOL    HW217856   6.983  11.942   6.640
39278SOL     OW17857   6.795  11.697   5.861
39278SOL    HW117858   6.808  11.613   5.915
39278SOL    HW217859   6.766  11.771   5.921
39279SOL     OW17860   5.893  11.385   6.817
39279SOL    HW117861   5.870  11.422   6.907
39279SOL    HW217862   5.863  11.290   6.811
39280SOL     OW17863   5.623  12.482   6.868
39280SOL    HW117864   5.676  12.433   6.936
39280SOL    HW217865   5.645  12.580   6.873
39281SOL     OW17866   6.318  11.806   6.650
39281SOL    HW117867   6.377  11.780   6.574
39281SOL    HW217868   6.290  11.902   6.639
39282SOL     OW17869   7.314  12.107   7.440
39282SOL    HW117870   7.268  12.100   7.351
39282SOL    HW217871   7.252  12.151   7.506
39283SOL     OW17872   5.893  11.235   6.204
39283SOL    HW117873   5.882  11.329   6.237
39283SOL    HW217874   5.888  11.172   6.281
39284SOL     OW17875   7.208  11.539   5.960
39284SOL    HW117876   7.210  11.463   6.024
39284SOL    HW217877   7.160  11.616   6.000
39285SOL     OW17878   6.609  11.938   6.552
39285SOL    HW117879   6.624  11.959   6.648
39285SOL    HW217880   6.579  11.843   6.543
39286SOL     OW17881   7.445  12.690   7.191
39286SOL    HW117882   7.459  12.717   7.096
39286SOL    HW217883   7.528  12.712   7.244
39287SOL     OW17884   5.936  12.070   7.390
39287SOL    HW117885   6.012  12.114   7.438
39287SOL    HW217886   5.971  12.023   7.308
39288SOL     OW17887   7.126  11.446   5.711
39288SOL    HW117888   7.065  11.371   5.734
39288SOL    HW217889   7.148  11.498   5.794
39289SOL     OW17890   6.889  12.010   5.628
39289SOL    HW117891   6.923  11.917   5.643
39289SOL    HW217892   6.907  12.037   5.533
39290SOL     OW17893   6.654  12.505   6.435
39290SOL    HW117894   6.661  12.421   6.380
39290SOL    HW217895   6.716  12.574   6.399
39291SOL     OW17896   5.905  11.982   6.535
39291SOL    HW117897   5.998  12.018   6.540
39291SOL    HW217898   5.899  11.897   6.587
39292SOL     OW17899   5.925  11.681   6.592
39292SOL    HW117900   5.873  11.598   6.575
39292SOL    HW217901   6.002  11.686   6.528
39293SOL     OW17902   6.724  11.552   7.264
39293SOL    HW117903   6.679  11.615   7.328
39293SOL    HW217904   6.817  11.583   7.247
39294SOL     OW17905   6.746  11.379   7.063
39294SOL    HW117906   6.746  11.443   7.140
39294SOL    HW217907   6.774  11.427   6.980
39295SOL     OW17908   5.594  12.498   5.786
39295SOL    HW117909   5.501  12.519   5.755
39295SOL    HW217910   5.604  12.399   5.799
39296SOL     OW17911   6.090  12.740   6.496
39296SOL    HW117912   6.156  12.814   6.505
39296SOL    HW217913   6.134  12.661   6.454
39297SOL     OW17914   6.588  11.968   6.824
39297SOL    HW117915   6.629  11.936   6.910
39297SOL    HW217916   6.492  11.941   6.821
39298SOL     OW17917   5.626  11.716   6.700
39298SOL    HW117918   5.711  11.683   6.659
39298SOL    HW217919   5.639  11.731   6.798
39299SOL     OW17920   5.775  11.692   7.308
39299SOL    HW117921   5.834  11.652   7.238
39299SOL    HW217922   5.717  11.763   7.267
39300SOL     OW17923   6.955  12.122   7.246
39300SOL    HW117924   6.994  12.211   7.266
39300SOL    HW217925   6.965  12.102   7.149
39301SOL     OW17926   6.401  11.744   5.911
39301SOL    HW117927   6.408  11.655   5.865
39301SOL    HW217928   6.307  11.778   5.903
39302SOL     OW17929   7.243  11.776   6.792
39302SOL    HW117930   7.205  11.707   6.854
39302SOL    HW217931   7.325  11.740   6.748
39303SOL     OW17932   5.838  12.736   7.330
39303SOL    HW117933   5.808  12.793   7.406
39303SOL    HW217934   5.831  12.639   7.356
39304SOL     OW17935   6.257  11.636   6.855
39304SOL    HW117936   6.223  11.547   6.825
39304SOL    HW217937   6.283  11.690   6.775
39305SOL     OW17938   6.059  11.672   5.777
39305SOL    HW117939   6.120  11.752   5.781
39305SOL    HW217940   5.964  11.703   5.784
39306SOL     OW17941   5.745  12.309   7.052
39306SOL    HW117942   5.767  12.248   7.128
39306SOL    HW217943   5.755  12.260   6.966
39307SOL     OW17944   6.933  12.231   6.820
39307SOL    HW117945   6.957  12.168   6.746
39307SOL    HW217946   6.843  12.271   6.802
39308SOL     OW17947   6.888  12.027   5.895
39308SOL    HW117948   6.802  11.996   5.937
39308SOL    HW217949   6.884  12.013   5.796
39309SOL     OW17950   6.838  12.903   6.714
39309SOL    HW117951   6.922  12.908   6.660
39309SOL    HW217952   6.815  12.807   6.732
39310SOL     OW17953   5.669  12.430   6.608
39310SOL    HW117954   5.664  12.429   6.708
39310SOL    HW217955   5.586  12.389   6.570
39311SOL     OW17956   7.312  11.307   6.109
39311SOL    HW117957   7.385  11.290   6.042
39311SOL    HW217958   7.281  11.220   6.147
39312SOL     OW17959   5.716  12.966   7.437
39312SOL    HW117960   5.675  12.892   7.490
39312SOL    HW217961   5.780  13.017   7.495
39313SOL     OW17962   6.866  12.099   6.258
39313SOL    HW117963   6.926  12.018   6.260
39313SOL    HW217964   6.906  12.168   6.198
39314SOL     OW17965   6.416  12.445   7.008
39314SOL    HW117966   6.411  12.478   7.103
39314SOL    HW217967   6.330  12.464   6.962
39315SOL     OW17968   6.258  12.788   5.740
39315SOL    HW117969   6.267  12.798   5.641
39315SOL    HW217970   6.218  12.699   5.761
39316SOL     OW17971   7.427  11.347   6.549
39316SOL    HW117972   7.466  11.262   6.513
39316SOL    HW217973   7.329  11.349   6.530
39317SOL     OW17974   5.849  11.498   6.306
39317SOL    HW117975   5.770  11.549   6.272
39317SOL    HW217976   5.840  11.483   6.404
39318SOL     OW17977   6.780  12.784   5.617
39318SOL    HW117978   6.786  12.691   5.654
39318SOL    HW217979   6.721  12.784   5.537
39319SOL     OW17980   6.408  12.174   6.958
39319SOL    HW117981   6.448  12.173   6.866
39319SOL    HW217982   6.418  12.266   6.998
39320SOL     OW17983   6.502  12.082   5.877
39320SOL    HW117984   6.565  12.120   5.809
39320SOL    HW217985   6.542  11.999   5.916
39321SOL     OW17986   5.958  12.460   7.076
39321SOL    HW117987   5.945  12.553   7.042
39321SOL    HW217988   5.874  12.408   7.063
39322SOL     OW17989   7.200  12.464   6.875
39322SOL    HW117990   7.260  12.467   6.955
39322SOL    HW217991   7.125  12.528   6.888
39323SOL     OW17992   6.625  12.270   6.282
39323SOL    HW117993   6.555  12.223   6.336
39323SOL    HW217994   6.684  12.202   6.239
39324SOL     OW17995   6.600  11.408   6.557
39324SOL    HW117996   6.592  11.372   6.464
39324SOL    HW217997   6.598  11.332   6.622
39325SOL     OW17998   6.176  12.659   6.077
39325SOL    HW117999   6.218  12.601   6.007
39325SOL    HW218000   6.132  12.738   6.033
39326SOL     OW18001   7.295  11.557   6.967
39326SOL    HW118002   7.368  11.626   6.971
39326SOL    HW218003   7.323  11.482   6.908
39327SOL     OW18004   5.841  12.520   5.876
39327SOL    HW118005   5.745  12.521   5.849
39327SOL    HW218006   5.853  12.573   5.960
39328SOL     OW18007   5.691  12.185   7.312
39328SOL    HW118008   5.614  12.152   7.366
39328SOL    HW218009   5.776  12.155   7.354
39329SOL     OW18010   6.258  11.375   7.075
39329SOL    HW118011   6.348  11.359   7.035
39329SOL    HW218012   6.266  11.380   7.174
39330SOL     OW18013   5.661  11.517   5.619
39330SOL    HW118014   5.569  11.489   5.590
39330SOL    HW218015   5.692  11.594   5.563
39331SOL     OW18016   7.026  12.028   6.984
39331SOL    HW118017   6.969  12.080   6.921
39331SOL    HW218018   7.122  12.040   6.960
39332SOL     OW18019   5.658  11.338   5.904
39332SOL    HW118020   5.641  11.421   5.850
39332SOL    HW218021   5.748  11.301   5.882
39333SOL     OW18022   6.769  12.507   5.705
39333SOL    HW118023   6.670  12.496   5.707
39333SOL    HW218024   6.803  12.522   5.798
39334SOL     OW18025   6.199  12.014   7.017
39334SOL    HW118026   6.255  12.095   7.000
39334SOL    HW218027   6.258  11.934   7.020
39335SOL     OW18028   6.302  11.737   7.294
39335SOL    HW118029   6.321  11.802   7.368
39335SOL    HW218030   6.362  11.657   7.303
39336SOL     OW18031   7.036  12.392   7.219
39336SOL    HW118032   7.027  12.382   7.318
39336SOL    HW218033   7.132  12.385   7.193
39337SOL     OW18034   7.260  12.055   6.840
39337SOL    HW118035   7.233  11.966   6.803
39337SOL    HW218036   7.261  12.123   6.767
39338SOL     OW18037   6.811  11.497   6.035
39338SOL    HW118038   6.876  11.423   6.024
39338SOL    HW218039   6.831  11.547   6.119
39339SOL     OW18040   6.180  11.917   6.238
39339SOL    HW118041   6.230  12.002   6.219
39339SOL    HW218042   6.092  11.919   6.190
39340SOL     OW18043   7.363  11.514   7.228
39340SOL    HW118044   7.346  11.545   7.134
39340SOL    HW218045   7.279  11.477   7.266
39341SOL     OW18046   7.316  12.106   7.103
39341SOL    HW118047   7.354  12.197   7.118
39341SOL    HW218048   7.308  12.089   7.004
39342SOL     OW18049   6.445  12.546   5.602
39342SOL    HW118050   6.399  12.561   5.690
39342SOL    HW218051   6.489  12.631   5.572
39343SOL     OW18052   6.445  12.128   6.447
39343SOL    HW118053   6.499  12.059   6.495
39343SOL    HW218054   6.413  12.197   6.513
39344SOL     OW18055   6.669  12.156   5.673
39344SOL    HW118056   6.646  12.209   5.591
39344SOL    HW218057   6.750  12.100   5.654
39345SOL     OW18058   7.447  12.741   6.437
39345SOL    HW118059   7.376  12.729   6.367
39345SOL    HW218060   7.448  12.662   6.497
39346SOL     OW18061   5.807  12.486   7.430
39346SOL    HW118062   5.742  12.413   7.409
39346SOL    HW218063   5.811  12.500   7.528
39347SOL     OW18064   5.665  12.412   6.239
39347SOL    HW118065   5.664  12.365   6.327
39347SOL    HW218066   5.747  12.384   6.188
39348SOL     OW18067   6.258  12.563   7.210
39348SOL    HW118068   6.180  12.513   7.248
39348SOL    HW218069   6.255  12.658   7.241
39349SOL     OW18070   7.410  11.364   6.813
39349SOL    HW118071   7.406  11.274   6.857
39349SOL    HW218072   7.413  11.353   6.714
39350SOL     OW18073   6.014  11.596   6.106
39350SOL    HW118074   6.044  11.524   6.044
39350SOL    HW218075   5.975  11.556   6.189
39351SOL     OW18076   7.291  12.659   6.690
39351SOL    HW118077   7.198  12.634   6.663
39351SOL    HW218078   7.317  12.609   6.772
39352SOL     OW18079   5.903  11.719   6.866
39352SOL    HW118080   5.941  11.660   6.938
39352SOL    HW218081   5.943  11.693   6.778
39353SOL     OW18082   7.010  11.386   6.698
39353SOL    HW118083   7.062  11.321   6.753
39353SOL    HW218084   6.961  11.449   6.759
39354SOL     OW18085   6.587  11.206   6.740
39354SOL    HW118086   6.524  11.134   6.709
39354SOL    HW218087   6.680  11.170   6.740
39355SOL     OW18088   6.356  12.502   5.887
39355SOL    HW118089   6.310  12.415   5.904
39355SOL    HW218090   6.447  12.499   5.928
39356SOL     OW18091   6.204  12.739   6.870
39356SOL    HW118092   6.199  12.821   6.927
39356SOL    HW218093   6.293  12.736   6.825
39357SOL     OW18094   6.938  11.224   5.754
39357SOL    HW118095   6.973  11.183   5.670
39357SOL    HW218096   6.848  11.186   5.774
39358SOL     OW18097   6.886  11.625   6.277
39358SOL    HW118098   6.827  11.705   6.281
39358SOL    HW218099   6.901  11.590   6.370
39359SOL     OW18100   7.179  11.393   6.468
39359SOL    HW118101   7.095  11.392   6.522
39359SOL    HW218102   7.181  11.476   6.412
39360SOL     OW18103   5.625  12.249   5.886
39360SOL    HW118104   5.724  12.238   5.877
39360SOL    HW218105   5.585  12.163   5.918
39361SOL     OW18106   5.816  11.800   7.561
39361SOL    HW118107   5.723  11.798   7.598
39361SOL    HW218108   5.817  11.761   7.469
39362SOL     OW18109   5.811  11.447   8.444
39362SOL    HW118110   5.846  11.430   8.536
39362SOL    HW218111   5.723  11.402   8.432
39363SOL     OW18112   5.605  11.540   8.095
39363SOL    HW118113   5.523  11.583   8.134
39363SOL    HW218114   5.577  11.467   8.032
39364SOL     OW18115   6.155  12.447   8.613
39364SOL    HW118116   6.062  12.440   8.576
39364SOL    HW218117   6.166  12.536   8.657
39365SOL     OW18118   7.141  12.683   8.151
39365SOL    HW118119   7.084  12.667   8.232
39365SOL    HW218120   7.082  12.693   8.071
39366SOL     OW18121   6.721  11.875   8.165
39366SOL    HW118122   6.778  11.953   8.140
39366SOL    HW218123   6.661  11.901   8.241
39367SOL     OW18124   7.341  11.779   7.679
39367SOL    HW118125   7.329  11.766   7.580
39367SOL    HW218126   7.311  11.698   7.728
39368SOL     OW18127   6.354  12.316   8.471
39368SOL    HW118128   6.276  12.333   8.531
39368SOL    HW218129   6.388  12.403   8.435
39369SOL     OW18130   6.436  11.970   9.271
39369SOL    HW118131   6.432  12.046   9.336
39369SOL    HW218132   6.458  12.006   9.180
39370SOL     OW18133   6.271  12.184   8.113
39370SOL    HW118134   6.340  12.168   8.183
39370SOL    HW218135   6.198  12.241   8.151
39371SOL     OW18136   6.272  12.333   9.251
39371SOL    HW118137   6.332  12.412   9.265
39371SOL    HW218138   6.186  12.364   9.210
39372SOL     OW18139   5.921  12.607   8.509
39372SOL    HW118140   5.843  12.576   8.456
39372SOL    HW218141   5.979  12.665   8.452
39373SOL     OW18142   7.046  12.677   8.787
39373SOL    HW118143   7.070  12.771   8.813
39373SOL    HW218144   7.030  12.623   8.869
39374SOL     OW18145   7.189  11.619   8.185
39374SOL    HW118146   7.115  11.665   8.135
39374SOL    HW218147   7.240  11.687   8.238
39375SOL     OW18148   6.713  12.513   9.138
39375SOL    HW118149   6.760  12.513   9.226
39375SOL    HW218150   6.665  12.426   9.127
39376SOL     OW18151   5.816  12.606   7.986
39376SOL    HW118152   5.790  12.702   7.986
39376SOL    HW218153   5.745  12.552   8.031
39377SOL     OW18154   5.826  12.263   8.334
39377SOL    HW118155   5.840  12.179   8.386
39377SOL    HW218156   5.771  12.327   8.389
39378SOL     OW18157   6.192  12.136   7.571
39378SOL    HW118158   6.199  12.220   7.517
39378SOL    HW218159   6.238  12.149   7.659
39379SOL     OW18160   7.180  11.286   8.928
39379SOL    HW118161   7.162  11.353   8.856
39379SOL    HW218162   7.177  11.332   9.017
39380SOL     OW18163   5.708  11.815   8.011
39380SOL    HW118164   5.663  11.727   8.028
39380SOL    HW218165   5.707  11.869   8.095
39381SOL     OW18166   5.613  12.768   7.565
39381SOL    HW118167   5.594  12.672   7.586
39381SOL    HW218168   5.580  12.826   7.640
39382SOL     OW18169   7.275  12.094   8.060
39382SOL    HW118170   7.370  12.065   8.068
39382SOL    HW218171   7.267  12.159   7.985
39383SOL     OW18172   7.227  12.280   7.880
39383SOL    HW118173   7.313  12.282   7.828
39383SOL    HW218174   7.241  12.327   7.968
39384SOL     OW18175   5.699  11.909   9.045
39384SOL    HW118176   5.787  11.896   9.090
39384SOL    HW218177   5.686  12.006   9.023
39385SOL     OW18178   6.199  12.537   8.174
39385SOL    HW118179   6.150  12.450   8.183
39385SOL    HW218180   6.176  12.580   8.087
39386SOL     OW18181   6.879  12.400   8.871
39386SOL    HW118182   6.916  12.327   8.813
39386SOL    HW218183   6.931  12.405   8.956
39387SOL     OW18184   6.395  11.176   7.950
39387SOL    HW118185   6.435  11.267   7.941
39387SOL    HW218186   6.295  11.184   7.956
39388SOL     OW18187   5.783  12.148   8.712
39388SOL    HW118188   5.872  12.103   8.698
39388SOL    HW218189   5.710  12.083   8.693
39389SOL     OW18190   7.111  12.171   7.638
39389SOL    HW118191   7.048  12.095   7.651
39389SOL    HW218192   7.159  12.189   7.724
39390SOL     OW18193   5.903  11.423   9.249
39390SOL    HW118194   5.974  11.494   9.255
39390SOL    HW218195   5.815  11.462   9.277
39391SOL     OW18196   7.052  12.589   8.401
39391SOL    HW118197   6.993  12.595   8.481
39391SOL    HW218198   7.037  12.501   8.355
39392SOL     OW18199   6.184  11.901   7.718
39392SOL    HW118200   6.208  11.970   7.650
39392SOL    HW218201   6.106  11.934   7.772
39393SOL     OW18202   6.867  11.517   8.392
39393SOL    HW118203   6.781  11.467   8.379
39393SOL    HW218204   6.929  11.463   8.448
39394SOL     OW18205   7.162  12.834   7.755
39394SOL    HW118206   7.251  12.880   7.758
39394SOL    HW218207   7.141  12.810   7.660
39395SOL     OW18208   6.393  11.777   8.913
39395SOL    HW118209   6.346  11.774   9.002
39395SOL    HW218210   6.342  11.722   8.847
39396SOL     OW18211   6.980  11.641   9.122
39396SOL    HW118212   6.960  11.684   9.210
39396SOL    HW218213   7.058  11.579   9.131
39397SOL     OW18214   6.559  12.062   9.020
39397SOL    HW118215   6.605  11.978   8.991
39397SOL    HW218216   6.503  12.096   8.945
39398SOL     OW18217   6.577  11.582   8.690
39398SOL    HW118218   6.500  11.616   8.744
39398SOL    HW218219   6.543  11.531   8.611
39399SOL     OW18220   6.627  11.873   7.877
39399SOL    HW118221   6.653  11.869   7.973
39399SOL    HW218222   6.542  11.822   7.863
39400SOL     OW18223   5.662  11.983   8.237
39400SOL    HW118224   5.761  11.971   8.246
39400SOL    HW218225   5.638  12.078   8.258
39401SOL     OW18226   6.451  11.520   7.643
39401SOL    HW118227   6.510  11.583   7.594
39401SOL    HW218228   6.470  11.426   7.614
39402SOL     OW18229   7.305  11.757   9.279
39402SOL    HW118230   7.279  11.846   9.243
39402SOL    HW218231   7.303  11.689   9.206
39403SOL     OW18232   6.948  12.316   7.993
39403SOL    HW118233   7.031  12.287   7.945
39403SOL    HW218234   6.899  12.383   7.937
39404SOL     OW18235   6.136  11.368   8.333
39404SOL    HW118236   6.131  11.363   8.433
39404SOL    HW218237   6.138  11.464   8.304
39405SOL     OW18238   6.594  12.628   7.925
39405SOL    HW118239   6.548  12.700   7.873
39405SOL    HW218240   6.590  12.648   8.023
39406SOL     OW18241   7.381  12.238   8.321
39406SOL    HW118242   7.319  12.223   8.245
39406SOL    HW218243   7.329  12.249   8.406
39407SOL     OW18244   6.813  12.722   8.954
39407SOL    HW118245   6.819  12.645   9.018
39407SOL    HW218246   6.761  12.696   8.874
39408SOL     OW18247   5.907  12.115   7.690
39408SOL    HW118248   5.989  12.154   7.648
39408SOL    HW218249   5.880  12.033   7.641
39409SOL     OW18250   7.044  11.907   8.176
39409SOL    HW118251   7.039  11.842   8.251
39409SOL    HW218252   7.124  11.966   8.189
39410SOL     OW18253   6.047  12.438   9.175
39410SOL    HW118254   5.997  12.439   9.089
39410SOL    HW218255   5.984  12.420   9.251
39411SOL     OW18256   5.788  11.457   8.946
39411SOL    HW118257   5.708  11.517   8.933
39411SOL    HW218258   5.778  11.408   9.032
39412SOL     OW18259   7.218  12.549   7.529
39412SOL    HW118260   7.186  12.643   7.519
39412SOL    HW218261   7.142  12.486   7.517
39413SOL     OW18262   6.986  11.279   7.874
39413SOL    HW118263   6.962  11.242   7.784
39413SOL    HW218264   7.085  11.295   7.878
39414SOL     OW18265   5.968  11.872   7.928
39414SOL    HW118266   6.013  11.782   7.925
39414SOL    HW218267   5.874  11.861   7.961
39415SOL     OW18268   7.133  11.394   9.177
39415SOL    HW118269   7.128  11.431   9.269
39415SOL    HW218270   7.061  11.325   9.165
39416SOL     OW18271   6.200  11.294   7.565
39416SOL    HW118272   6.298  11.272   7.572
39416SOL    HW218273   6.169  11.277   7.472
39417SOL     OW18274   6.367  11.436   9.197
39417SOL    HW118275   6.434  11.375   9.240
39417SOL    HW218276   6.294  11.455   9.262
39418SOL     OW18277   6.937  11.762   8.881
39418SOL    HW118278   6.965  11.719   8.966
39418SOL    HW218279   6.962  11.858   8.882
39419SOL     OW18280   6.389  12.574   8.372
39419SOL    HW118281   6.479  12.588   8.330
39419SOL    HW218282   6.318  12.576   8.301
39420SOL     OW18283   6.508  11.675   8.347
39420SOL    HW118284   6.483  11.666   8.251
39420SOL    HW218285   6.556  11.593   8.378
39421SOL     OW18286   6.125  11.236   7.960
39421SOL    HW118287   6.044  11.237   8.018
39421SOL    HW218288   6.128  11.319   7.905
39422SOL     OW18289   7.020  12.360   7.489
39422SOL    HW118290   7.052  12.284   7.546
39422SOL    HW218291   6.928  12.387   7.519
39423SOL     OW18292   5.883  11.207   7.619
39423SOL    HW118293   5.932  11.291   7.598
39423SOL    HW218294   5.945  11.142   7.664
39424SOL     OW18295   6.521  11.408   7.928
39424SOL    HW118296   6.473  11.449   7.850
39424SOL    HW218297   6.620  11.406   7.909
39425SOL     OW18298   6.662  11.855   8.912
39425SOL    HW118299   6.582  11.794   8.915
39425SOL    HW218300   6.743  11.802   8.888
39426SOL     OW18301   6.813  12.742   8.241
39426SOL    HW118302   6.834  12.816   8.176
39426SOL    HW218303   6.881  12.742   8.314
39427SOL     OW18304   6.045  12.324   8.189
39427SOL    HW118305   5.974  12.297   8.254
39427SOL    HW218306   6.019  12.296   8.096
39428SOL     OW18307   6.618  11.721   7.464
39428SOL    HW118308   6.577  11.803   7.425
39428SOL    HW218309   6.682  11.747   7.537
39429SOL     OW18310   5.664  11.728   8.834
39429SOL    HW118311   5.756  11.727   8.793
39429SOL    HW218312   5.658  11.802   8.901
39430SOL     OW18313   6.147  11.394   8.595
39430SOL    HW118314   6.185  11.310   8.632
39430SOL    HW218315   6.059  11.413   8.639
39431SOL     OW18316   6.452  11.626   8.090
39431SOL    HW118317   6.420  11.698   8.028
39431SOL    HW218318   6.476  11.545   8.037
39432SOL     OW18319   6.603  11.211   8.201
39432SOL    HW118320   6.531  11.216   8.132
39432SOL    HW218321   6.579  11.142   8.270
39433SOL     OW18322   7.015  12.345   8.315
39433SOL    HW118323   6.960  12.261   8.308
39433SOL    HW218324   7.041  12.374   8.223
39434SOL     OW18325   7.052  11.762   8.440
39434SOL    HW118326   7.022  11.667   8.447
39434SOL    HW218327   7.125  11.778   8.506
39435SOL     OW18328   7.443  12.005   7.825
39435SOL    HW118329   7.485  11.941   7.889
39435SOL    HW218330   7.405  11.954   7.747
39436SOL     OW18331   6.074  12.557   7.622
39436SOL    HW118332   5.987  12.542   7.669
39436SOL    HW218333   6.057  12.583   7.527
39437SOL     OW18334   7.250  12.452   8.105
39437SOL    HW118335   7.349  12.460   8.119
39437SOL    HW218336   7.205  12.536   8.136
39438SOL     OW18337   6.976  11.747   7.526
39438SOL    HW118338   6.922  11.726   7.607
39438SOL    HW218339   7.067  11.706   7.535
39439SOL     OW18340   6.113  11.428   7.776
39439SOL    HW118341   6.140  11.369   7.701
39439SOL    HW218342   6.113  11.523   7.745
39440SOL     OW18343   7.340  12.395   9.036
39440SOL    HW118344   7.431  12.356   9.023
39440SOL    HW218345   7.348  12.491   9.060
39441SOL     OW18346   6.650  12.519   8.788
39441SOL    HW118347   6.570  12.496   8.843
39441SOL    HW218348   6.733  12.493   8.837
39442SOL     OW18349   6.697  12.367   8.548
39442SOL    HW118350   6.657  12.411   8.629
39442SOL    HW218351   6.656  12.404   8.465
39443SOL     OW18352   7.224  12.271   8.527
39443SOL    HW118353   7.229  12.352   8.586
39443SOL    HW218354   7.138  12.273   8.476
39444SOL     OW18355   6.501  11.261   8.850
39444SOL    HW118356   6.526  11.241   8.755
39444SOL    HW218357   6.573  11.317   8.892
39445SOL     OW18358   6.566  12.288   9.167
39445SOL    HW118359   6.467  12.294   9.177
39445SOL    HW218360   6.589  12.208   9.111
39446SOL     OW18361   6.291  12.222   7.816
39446SOL    HW118362   6.277  12.229   7.915
39446SOL    HW218363   6.375  12.171   7.798
39447SOL     OW18364   5.996  11.985   8.699
39447SOL    HW118365   6.082  11.997   8.749
39447SOL    HW218366   5.954  11.898   8.726
39448SOL     OW18367   6.860  11.558   8.710
39448SOL    HW118368   6.881  11.632   8.774
39448SOL    HW218369   6.771  11.575   8.667
39449SOL     OW18370   5.650  12.736   8.779
39449SOL    HW118371   5.604  12.818   8.745
39449SOL    HW218372   5.748  12.755   8.788
39450SOL     OW18373   5.953  12.272   7.949
39450SOL    HW118374   5.946  12.355   7.893
39450SOL    HW218375   5.957  12.192   7.889
39451SOL     OW18376   6.152  11.709   8.313
39451SOL    HW118377   6.164  11.775   8.239
39451SOL    HW218378   6.198  11.743   8.396
39452SOL     OW18379   6.838  12.520   7.836
39452SOL    HW118380   6.888  12.597   7.876
39452SOL    HW218381   6.743  12.522   7.868
39453SOL     OW18382   6.858  12.617   8.590
39453SOL    HW118383   6.905  12.630   8.677
39453SOL    HW218384   6.792  12.543   8.599
39454SOL     OW18385   7.168  11.811   7.920
39454SOL    HW118386   7.137  11.872   7.993
39454SOL    HW218387   7.218  11.863   7.851
39455SOL     OW18388   5.940  12.682   8.777
39455SOL    HW118389   5.919  12.638   8.690
39455SOL    HW218390   6.037  12.708   8.780
39456SOL     OW18391   5.988  11.923   9.046
39456SOL    HW118392   6.056  11.978   8.999
39456SOL    HW218393   6.028  11.835   9.073
39457SOL     OW18394   7.173  11.951   9.118
39457SOL    HW118395   7.081  11.989   9.113
39457SOL    HW218396   7.233  11.998   9.053
39458SOL     OW18397   6.599  11.277   9.218
39458SOL    HW118398   6.605  11.362   9.166
39458SOL    HW218399   6.631  11.201   9.161
39459SOL     OW18400   6.090  11.222   9.188
39459SOL    HW118401   6.048  11.165   9.118
39459SOL    HW218402   6.024  11.291   9.220
39460SOL     OW18403   6.159  12.042   8.477
39460SOL    HW118404   6.203  12.131   8.468
39460SOL    HW218405   6.096  12.042   8.554
39461SOL     OW18406   6.946  12.034   8.493
39461SOL    HW118407   6.871  12.034   8.427
39461SOL    HW218408   6.983  11.942   8.502
39462SOL     OW18409   6.795  11.697   7.723
39462SOL    HW118410   6.808  11.613   7.777
39462SOL    HW218411   6.766  11.771   7.783
39463SOL     OW18412   5.893  11.385   8.679
39463SOL    HW118413   5.870  11.422   8.769
39463SOL    HW218414   5.863  11.290   8.673
39464SOL     OW18415   5.623  12.482   8.730
39464SOL    HW118416   5.676  12.433   8.798
39464SOL    HW218417   5.645  12.580   8.735
39465SOL     OW18418   6.318  11.806   8.512
39465SOL    HW118419   6.377  11.780   8.436
39465SOL    HW218420   6.290  11.902   8.501
39466SOL     OW18421   7.314  12.107   9.302
39466SOL    HW118422   7.268  12.100   9.213
39466SOL    HW218423   7.252  12.151   9.368
39467SOL     OW18424   5.893  11.235   8.066
39467SOL    HW118425   5.882  11.329   8.099
39467SOL    HW218426   5.888  11.172   8.143
39468SOL     OW18427   7.208  11.539   7.822
39468SOL    HW118428   7.210  11.463   7.886
39468SOL    HW218429   7.160  11.616   7.862
39469SOL     OW18430   6.609  11.938   8.414
39469SOL    HW118431   6.624  11.959   8.510
39469SOL    HW218432   6.579  11.843   8.405
39470SOL     OW18433   7.445  12.690   9.053
39470SOL    HW118434   7.459  12.717   8.958
39470SOL    HW218435   7.528  12.712   9.106
39471SOL     OW18436   5.936  12.070   9.252
39471SOL    HW118437   6.012  12.114   9.300
39471SOL    HW218438   5.971  12.023   9.170
39472SOL     OW18439   7.126  11.446   7.573
39472SOL    HW118440   7.065  11.371   7.596
39472SOL    HW218441   7.148  11.498   7.656
39473SOL     OW18442   6.889  12.010   7.490
39473SOL    HW118443   6.923  11.917   7.505
39473SOL    HW218444   6.907  12.037   7.395
39474SOL     OW18445   6.654  12.505   8.297
39474SOL    HW118446   6.661  12.421   8.242
39474SOL    HW218447   6.716  12.574   8.261
39475SOL     OW18448   5.905  11.982   8.397
39475SOL    HW118449   5.998  12.018   8.402
39475SOL    HW218450   5.899  11.897   8.449
39476SOL     OW18451   5.925  11.681   8.454
39476SOL    HW118452   5.873  11.598   8.437
39476SOL    HW218453   6.002  11.686   8.390
39477SOL     OW18454   6.724  11.552   9.126
39477SOL    HW118455   6.679  11.615   9.190
39477SOL    HW218456   6.817  11.583   9.109
39478SOL     OW18457   6.746  11.379   8.925
39478SOL    HW118458   6.746  11.443   9.002
39478SOL    HW218459   6.774  11.427   8.842
39479SOL     OW18460   5.594  12.498   7.648
39479SOL    HW118461   5.501  12.519   7.617
39479SOL    HW218462   5.604  12.399   7.661
39480SOL     OW18463   6.090  12.740   8.358
39480SOL    HW118464   6.156  12.814   8.367
39480SOL    HW218465   6.134  12.661   8.316
39481SOL     OW18466   6.588  11.968   8.686
39481SOL    HW118467   6.629  11.936   8.772
39481SOL    HW218468   6.492  11.941   8.683
39482SOL     OW18469   5.626  11.716   8.562
39482SOL    HW118470   5.711  11.683   8.521
39482SOL    HW218471   5.639  11.731   8.660
39483SOL     OW18472   5.775  11.692   9.170
39483SOL    HW118473   5.834  11.652   9.100
39483SOL    HW218474   5.717  11.763   9.129
39484SOL     OW18475   6.955  12.122   9.108
39484SOL    HW118476   6.994  12.211   9.128
39484SOL    HW218477   6.965  12.102   9.011
39485SOL     OW18478   6.401  11.744   7.773
39485SOL    HW118479   6.408  11.655   7.727
39485SOL    HW218480   6.307  11.778   7.765
39486SOL     OW18481   7.243  11.776   8.654
39486SOL    HW118482   7.205  11.707   8.716
39486SOL    HW218483   7.325  11.740   8.610
39487SOL     OW18484   5.838  12.736   9.192
39487SOL    HW118485   5.808  12.793   9.268
39487SOL    HW218486   5.831  12.639   9.218
39488SOL     OW18487   6.257  11.636   8.717
39488SOL    HW118488   6.223  11.547   8.687
39488SOL    HW218489   6.283  11.690   8.637
39489SOL     OW18490   6.059  11.672   7.639
39489SOL    HW118491   6.120  11.752   7.643
39489SOL    HW218492   5.964  11.703   7.646
39490SOL     OW18493   5.745  12.309   8.914
39490SOL    HW118494   5.767  12.248   8.990
39490SOL    HW218495   5.755  12.260   8.828
39491SOL     OW18496   6.933  12.231   8.682
39491SOL    HW118497   6.957  12.168   8.608
39491SOL    HW218498   6.843  12.271   8.664
39492SOL     OW18499   6.888  12.027   7.757
39492SOL    HW118500   6.802  11.996   7.799
39492SOL    HW218501   6.884  12.013   7.658
39493SOL     OW18502   6.838  12.903   8.576
39493SOL    HW118503   6.922  12.908   8.522
39493SOL    HW218504   6.815  12.807   8.594
39494SOL     OW18505   5.669  12.430   8.470
39494SOL    HW118506   5.664  12.429   8.570
39494SOL    HW218507   5.586  12.389   8.432
39495SOL     OW18508   7.312  11.307   7.971
39495SOL    HW118509   7.385  11.290   7.904
39495SOL    HW218510   7.281  11.220   8.009
39496SOL     OW18511   5.716  12.966   9.299
39496SOL    HW118512   5.675  12.892   9.352
39496SOL    HW218513   5.780  13.017   9.357
39497SOL     OW18514   6.866  12.099   8.120
39497SOL    HW118515   6.926  12.018   8.122
39497SOL    HW218516   6.906  12.168   8.060
39498SOL     OW18517   6.416  12.445   8.870
39498SOL    HW118518   6.411  12.478   8.965
39498SOL    HW218519   6.330  12.464   8.824
39499SOL     OW18520   6.258  12.788   7.602
39499SOL    HW118521   6.267  12.798   7.503
39499SOL    HW218522   6.218  12.699   7.623
39500SOL     OW18523   7.427  11.347   8.411
39500SOL    HW118524   7.466  11.262   8.375
39500SOL    HW218525   7.329  11.349   8.392
39501SOL     OW18526   5.849  11.498   8.168
39501SOL    HW118527   5.770  11.549   8.134
39501SOL    HW218528   5.840  11.483   8.266
39502SOL     OW18529   6.780  12.784   7.479
39502SOL    HW118530   6.786  12.691   7.516
39502SOL    HW218531   6.721  12.784   7.399
39503SOL     OW18532   6.408  12.174   8.820
39503SOL    HW118533   6.448  12.173   8.728
39503SOL    HW218534   6.418  12.266   8.860
39504SOL     OW18535   6.502  12.082   7.739
39504SOL    HW118536   6.565  12.120   7.671
39504SOL    HW218537   6.542  11.999   7.778
39505SOL     OW18538   5.958  12.460   8.938
39505SOL    HW118539   5.945  12.553   8.904
39505SOL    HW218540   5.874  12.408   8.925
39506SOL     OW18541   7.200  12.464   8.737
39506SOL    HW118542   7.260  12.467   8.817
39506SOL    HW218543   7.125  12.528   8.750
39507SOL     OW18544   6.625  12.270   8.144
39507SOL    HW118545   6.555  12.223   8.198
39507SOL    HW218546   6.684  12.202   8.101
39508SOL     OW18547   6.600  11.408   8.419
39508SOL    HW118548   6.592  11.372   8.326
39508SOL    HW218549   6.598  11.332   8.484
39509SOL     OW18550   6.176  12.659   7.939
39509SOL    HW118551   6.218  12.601   7.869
39509SOL    HW218552   6.132  12.738   7.895
39510SOL     OW18553   7.295  11.557   8.829
39510SOL    HW118554   7.368  11.626   8.833
39510SOL    HW218555   7.323  11.482   8.770
39511SOL     OW18556   5.841  12.520   7.738
39511SOL    HW118557   5.745  12.521   7.711
39511SOL    HW218558   5.853  12.573   7.822
39512SOL     OW18559   5.691  12.185   9.174
39512SOL    HW118560   5.614  12.152   9.228
39512SOL    HW218561   5.776  12.155   9.216
39513SOL     OW18562   6.258  11.375   8.937
39513SOL    HW118563   6.348  11.359   8.897
39513SOL    HW218564   6.266  11.380   9.036
39514SOL     OW18565   5.661  11.517   7.481
39514SOL    HW118566   5.569  11.489   7.452
39514SOL    HW218567   5.692  11.594   7.425
39515SOL     OW18568   7.026  12.028   8.846
39515SOL    HW118569   6.969  12.080   8.783
39515SOL    HW218570   7.122  12.040   8.822
39516SOL     OW18571   5.658  11.338   7.766
39516SOL    HW118572   5.641  11.421   7.712
39516SOL    HW218573   5.748  11.301   7.744
39517SOL     OW18574   6.769  12.507   7.567
39517SOL    HW118575   6.670  12.496   7.569
39517SOL    HW218576   6.803  12.522   7.660
39518SOL     OW18577   6.199  12.014   8.879
39518SOL    HW118578   6.255  12.095   8.862
39518SOL    HW218579   6.258  11.934   8.882
39519SOL     OW18580   6.302  11.737   9.156
39519SOL    HW118581   6.321  11.802   9.230
39519SOL    HW218582   6.362  11.657   9.165
39520SOL     OW18583   7.036  12.392   9.081
39520SOL    HW118584   7.027  12.382   9.180
39520SOL    HW218585   7.132  12.385   9.055
39521SOL     OW18586   7.260  12.055   8.702
39521SOL    HW118587   7.233  11.966   8.665
39521SOL    HW218588   7.261  12.123   8.629
39522SOL     OW18589   6.811  11.497   7.897
39522SOL    HW118590   6.876  11.423   7.886
39522SOL    HW218591   6.831  11.547   7.981
39523SOL     OW18592   6.180  11.917   8.100
39523SOL    HW118593   6.230  12.002   8.081
39523SOL    HW218594   6.092  11.919   8.052
39524SOL     OW18595   7.363  11.514   9.090
39524SOL    HW118596   7.346  11.545   8.996
39524SOL    HW218597   7.279  11.477   9.128
39525SOL     OW18598   7.316  12.106   8.965
39525SOL    HW118599   7.354  12.197   8.980
39525SOL    HW218600   7.308  12.089   8.866
39526SOL     OW18601   6.445  12.546   7.464
39526SOL    HW118602   6.399  12.561   7.552
39526SOL    HW218603   6.489  12.631   7.434
39527SOL     OW18604   6.445  12.128   8.309
39527SOL    HW118605   6.499  12.059   8.357
39527SOL    HW218606   6.413  12.197   8.375
39528SOL     OW18607   6.669  12.156   7.535
39528SOL    HW118608   6.646  12.209   7.453
39528SOL    HW218609   6.750  12.100   7.516
39529SOL     OW18610   7.447  12.741   8.299
39529SOL    HW118611   7.376  12.729   8.229
39529SOL    HW218612   7.448  12.662   8.359
39530SOL     OW18613   5.807  12.486   9.292
39530SOL    HW118614   5.742  12.413   9.271
39530SOL    HW218615   5.811  12.500   9.390
39531SOL     OW18616   5.665  12.412   8.101
39531SOL    HW118617   5.664  12.365   8.189
39531SOL    HW218618   5.747  12.384   8.050
39532SOL     OW18619   6.258  12.563   9.072
39532SOL    HW118620   6.180  12.513   9.110
39532SOL    HW218621   6.255  12.658   9.103
39533SOL     OW18622   7.410  11.364   8.675
39533SOL    HW118623   7.406  11.274   8.719
39533SOL    HW218624   7.413  11.353   8.576
39534SOL     OW18625   6.014  11.596   7.968
39534SOL    HW118626   6.044  11.524   7.906
39534SOL    HW218627   5.975  11.556   8.051
39535SOL     OW18628   7.291  12.659   8.552
39535SOL    HW118629   7.198  12.634   8.525
39535SOL    HW218630   7.317  12.609   8.634
39536SOL     OW18631   5.903  11.719   8.728
39536SOL    HW118632   5.941  11.660   8.800
39536SOL    HW218633   5.943  11.693   8.640
39537SOL     OW18634   7.010  11.386   8.560
39537SOL    HW118635   7.062  11.321   8.615
39537SOL    HW218636   6.961  11.449   8.621
39538SOL     OW18637   6.587  11.206   8.602
39538SOL    HW118638   6.524  11.134   8.571
39538SOL    HW218639   6.680  11.170   8.602
39539SOL     OW18640   6.356  12.502   7.749
39539SOL    HW118641   6.310  12.415   7.766
39539SOL    HW218642   6.447  12.499   7.790
39540SOL     OW18643   6.204  12.739   8.732
39540SOL    HW118644   6.199  12.821   8.789
39540SOL    HW218645   6.293  12.736   8.687
39541SOL     OW18646   6.938  11.224   7.616
39541SOL    HW118647   6.973  11.183   7.532
39541SOL    HW218648   6.848  11.186   7.636
39542SOL     OW18649   6.886  11.625   8.139
39542SOL    HW118650   6.827  11.705   8.143
39542SOL    HW218651   6.901  11.590   8.232
39543SOL     OW18652   7.179  11.393   8.330
39543SOL    HW118653   7.095  11.392   8.384
39543SOL    HW218654   7.181  11.476   8.274
39544SOL     OW18655   5.625  12.249   7.748
39544SOL    HW118656   5.724  12.238   7.739
39544SOL    HW218657   5.585  12.163   7.780
39545SOL     OW18658   5.816  11.800   9.423
39545SOL    HW118659   5.723  11.798   9.460
39545SOL    HW218660   5.817  11.761   9.331
39546SOL     OW18661   5.811  11.447  10.306
39546SOL    HW118662   5.846  11.430  10.398
39546SOL    HW218663   5.723  11.402  10.294
39547SOL     OW18664   5.605  11.540   9.957
39547SOL    HW118665   5.523  11.583   9.996
39547SOL    HW218666   5.577  11.467   9.894
39548SOL     OW18667   6.155  12.447  10.475
39548SOL    HW118668   6.062  12.440  10.438
39548SOL    HW218669   6.166  12.536  10.519
39549SOL     OW18670   7.141  12.683  10.013
39549SOL    HW118671   7.084  12.667  10.094
39549SOL    HW218672   7.082  12.693   9.933
39550SOL     OW18673   6.721  11.875  10.027
39550SOL    HW118674   6.778  11.953  10.002
39550SOL    HW218675   6.661  11.901  10.103
39551SOL     OW18676   7.341  11.779   9.541
39551SOL    HW118677   7.329  11.766   9.442
39551SOL    HW218678   7.311  11.698   9.590
39552SOL     OW18679   6.354  12.316  10.333
39552SOL    HW118680   6.276  12.333  10.393
39552SOL    HW218681   6.388  12.403  10.297
39553SOL     OW18682   6.436  11.970  11.133
39553SOL    HW118683   6.432  12.046  11.198
39553SOL    HW218684   6.458  12.006  11.042
39554SOL     OW18685   6.271  12.184   9.975
39554SOL    HW118686   6.340  12.168  10.045
39554SOL    HW218687   6.198  12.241  10.013
39555SOL     OW18688   6.272  12.333  11.113
39555SOL    HW118689   6.332  12.412  11.127
39555SOL    HW218690   6.186  12.364  11.072
39556SOL     OW18691   5.921  12.607  10.371
39556SOL    HW118692   5.843  12.576  10.318
39556SOL    HW218693   5.979  12.665  10.314
39557SOL     OW18694   7.046  12.677  10.649
39557SOL    HW118695   7.070  12.771  10.675
39557SOL    HW218696   7.030  12.623  10.731
39558SOL     OW18697   6.024  11.564  10.809
39558SOL    HW118698   6.106  11.508  10.818
39558SOL    HW218699   5.943  11.506  10.813
39559SOL     OW18700   7.189  11.619  10.047
39559SOL    HW118701   7.115  11.665   9.997
39559SOL    HW218702   7.240  11.687  10.100
39560SOL     OW18703   6.713  12.513  11.000
39560SOL    HW118704   6.760  12.513  11.088
39560SOL    HW218705   6.665  12.426  10.989
39561SOL     OW18706   5.816  12.606   9.848
39561SOL    HW118707   5.790  12.702   9.848
39561SOL    HW218708   5.745  12.552   9.893
39562SOL     OW18709   5.826  12.263  10.196
39562SOL    HW118710   5.840  12.179  10.248
39562SOL    HW218711   5.771  12.327  10.251
39563SOL     OW18712   6.192  12.136   9.433
39563SOL    HW118713   6.199  12.220   9.379
39563SOL    HW218714   6.238  12.149   9.521
39564SOL     OW18715   7.180  11.286  10.790
39564SOL    HW118716   7.162  11.353  10.718
39564SOL    HW218717   7.177  11.332  10.879
39565SOL     OW18718   5.708  11.815   9.873
39565SOL    HW118719   5.663  11.727   9.890
39565SOL    HW218720   5.707  11.869   9.957
39566SOL     OW18721   5.613  12.768   9.427
39566SOL    HW118722   5.594  12.672   9.448
39566SOL    HW218723   5.580  12.826   9.502
39567SOL     OW18724   7.275  12.094   9.922
39567SOL    HW118725   7.370  12.065   9.930
39567SOL    HW218726   7.267  12.159   9.847
39568SOL     OW18727   7.227  12.280   9.742
39568SOL    HW118728   7.313  12.282   9.690
39568SOL    HW218729   7.241  12.327   9.830
39569SOL     OW18730   5.699  11.909  10.907
39569SOL    HW118731   5.787  11.896  10.952
39569SOL    HW218732   5.686  12.006  10.885
39570SOL     OW18733   6.199  12.537  10.036
39570SOL    HW118734   6.150  12.450  10.045
39570SOL    HW218735   6.176  12.580   9.949
39571SOL     OW18736   6.879  12.400  10.733
39571SOL    HW118737   6.916  12.327  10.675
39571SOL    HW218738   6.931  12.405  10.818
39572SOL     OW18739   6.395  11.176   9.812
39572SOL    HW118740   6.435  11.267   9.803
39572SOL    HW218741   6.295  11.184   9.818
39573SOL     OW18742   5.783  12.148  10.574
39573SOL    HW118743   5.872  12.103  10.560
39573SOL    HW218744   5.710  12.083  10.555
39574SOL     OW18745   7.111  12.171   9.500
39574SOL    HW118746   7.048  12.095   9.513
39574SOL    HW218747   7.159  12.189   9.586
39575SOL     OW18748   5.903  11.423  11.111
39575SOL    HW118749   5.974  11.494  11.117
39575SOL    HW218750   5.815  11.462  11.139
39576SOL     OW18751   7.052  12.589  10.263
39576SOL    HW118752   6.993  12.595  10.343
39576SOL    HW218753   7.037  12.501  10.217
39577SOL     OW18754   6.184  11.901   9.580
39577SOL    HW118755   6.208  11.970   9.512
39577SOL    HW218756   6.106  11.934   9.634
39578SOL     OW18757   6.867  11.517  10.254
39578SOL    HW118758   6.781  11.467  10.241
39578SOL    HW218759   6.929  11.463  10.310
39579SOL     OW18760   7.162  12.834   9.617
39579SOL    HW118761   7.251  12.880   9.620
39579SOL    HW218762   7.141  12.810   9.522
39580SOL     OW18763   6.393  11.777  10.775
39580SOL    HW118764   6.346  11.774  10.864
39580SOL    HW218765   6.342  11.722  10.709
39581SOL     OW18766   6.980  11.641  10.984
39581SOL    HW118767   6.960  11.684  11.072
39581SOL    HW218768   7.058  11.579  10.993
39582SOL     OW18769   6.559  12.062  10.882
39582SOL    HW118770   6.605  11.978  10.853
39582SOL    HW218771   6.503  12.096  10.807
39583SOL     OW18772   6.577  11.582  10.552
39583SOL    HW118773   6.500  11.616  10.606
39583SOL    HW218774   6.543  11.531  10.473
39584SOL     OW18775   6.627  11.873   9.739
39584SOL    HW118776   6.653  11.869   9.835
39584SOL    HW218777   6.542  11.822   9.725
39585SOL     OW18778   5.662  11.983  10.099
39585SOL    HW118779   5.761  11.971  10.108
39585SOL    HW218780   5.638  12.078  10.120
39586SOL     OW18781   6.451  11.520   9.505
39586SOL    HW118782   6.510  11.583   9.456
39586SOL    HW218783   6.470  11.426   9.476
39587SOL     OW18784   7.305  11.757  11.141
39587SOL    HW118785   7.279  11.846  11.105
39587SOL    HW218786   7.303  11.689  11.068
39588SOL     OW18787   6.948  12.316   9.855
39588SOL    HW118788   7.031  12.287   9.807
39588SOL    HW218789   6.899  12.383   9.799
39589SOL     OW18790   6.136  11.368  10.195
39589SOL    HW118791   6.131  11.363  10.295
39589SOL    HW218792   6.138  11.464  10.166
39590SOL     OW18793   6.594  12.628   9.787
39590SOL    HW118794   6.548  12.700   9.735
39590SOL    HW218795   6.590  12.648   9.885
39591SOL     OW18796   7.381  12.238  10.183
39591SOL    HW118797   7.319  12.223  10.107
39591SOL    HW218798   7.329  12.249  10.268
39592SOL     OW18799   6.813  12.722  10.816
39592SOL    HW118800   6.819  12.645  10.880
39592SOL    HW218801   6.761  12.696  10.736
39593SOL     OW18802   5.907  12.115   9.552
39593SOL    HW118803   5.989  12.154   9.510
39593SOL    HW218804   5.880  12.033   9.503
39594SOL     OW18805   7.044  11.907  10.038
39594SOL    HW118806   7.039  11.842  10.113
39594SOL    HW218807   7.124  11.966  10.051
39595SOL     OW18808   6.047  12.438  11.037
39595SOL    HW118809   5.997  12.439  10.951
39595SOL    HW218810   5.984  12.420  11.113
39596SOL     OW18811   5.788  11.457  10.808
39596SOL    HW118812   5.708  11.517  10.795
39596SOL    HW218813   5.778  11.408  10.894
39597SOL     OW18814   7.218  12.549   9.391
39597SOL    HW118815   7.186  12.643   9.381
39597SOL    HW218816   7.142  12.486   9.379
39598SOL     OW18817   6.986  11.279   9.736
39598SOL    HW118818   6.962  11.242   9.646
39598SOL    HW218819   7.085  11.295   9.740
39599SOL     OW18820   5.968  11.872   9.790
39599SOL    HW118821   6.013  11.782   9.787
39599SOL    HW218822   5.874  11.861   9.823
39600SOL     OW18823   7.133  11.394  11.039
39600SOL    HW118824   7.128  11.431  11.131
39600SOL    HW218825   7.061  11.325  11.027
39601SOL     OW18826   6.200  11.294   9.427
39601SOL    HW118827   6.298  11.272   9.434
39601SOL    HW218828   6.169  11.277   9.334
39602SOL     OW18829   6.367  11.436  11.059
39602SOL    HW118830   6.434  11.375  11.102
39602SOL    HW218831   6.294  11.455  11.124
39603SOL     OW18832   6.937  11.762  10.743
39603SOL    HW118833   6.965  11.719  10.828
39603SOL    HW218834   6.962  11.858  10.744
39604SOL     OW18835   6.389  12.574  10.234
39604SOL    HW118836   6.479  12.588  10.192
39604SOL    HW218837   6.318  12.576  10.163
39605SOL     OW18838   6.508  11.675  10.209
39605SOL    HW118839   6.483  11.666  10.113
39605SOL    HW218840   6.556  11.593  10.240
39606SOL     OW18841   6.125  11.236   9.822
39606SOL    HW118842   6.044  11.237   9.880
39606SOL    HW218843   6.128  11.319   9.767
39607SOL     OW18844   7.020  12.360   9.351
39607SOL    HW118845   7.052  12.284   9.408
39607SOL    HW218846   6.928  12.387   9.381
39608SOL     OW18847   5.883  11.207   9.481
39608SOL    HW118848   5.932  11.291   9.460
39608SOL    HW218849   5.945  11.142   9.526
39609SOL     OW18850   6.521  11.408   9.790
39609SOL    HW118851   6.473  11.449   9.712
39609SOL    HW218852   6.620  11.406   9.771
39610SOL     OW18853   6.662  11.855  10.774
39610SOL    HW118854   6.582  11.794  10.777
39610SOL    HW218855   6.743  11.802  10.750
39611SOL     OW18856   6.813  12.742  10.103
39611SOL    HW118857   6.834  12.816  10.038
39611SOL    HW218858   6.881  12.742  10.176
39612SOL     OW18859   6.045  12.324  10.051
39612SOL    HW118860   5.974  12.297  10.116
39612SOL    HW218861   6.019  12.296   9.958
39613SOL     OW18862   6.618  11.721   9.326
39613SOL    HW118863   6.577  11.803   9.287
39613SOL    HW218864   6.682  11.747   9.399
39614SOL     OW18865   5.664  11.728  10.696
39614SOL    HW118866   5.756  11.727  10.655
39614SOL    HW218867   5.658  11.802  10.763
39615SOL     OW18868   6.147  11.394  10.457
39615SOL    HW118869   6.185  11.310  10.494
39615SOL    HW218870   6.059  11.413  10.501
39616SOL     OW18871   6.452  11.626   9.952
39616SOL    HW118872   6.420  11.698   9.890
39616SOL    HW218873   6.476  11.545   9.899
39617SOL     OW18874   6.603  11.211  10.063
39617SOL    HW118875   6.531  11.216   9.994
39617SOL    HW218876   6.579  11.142  10.132
39618SOL     OW18877   7.015  12.345  10.177
39618SOL    HW118878   6.960  12.261  10.170
39618SOL    HW218879   7.041  12.374  10.085
39619SOL     OW18880   7.052  11.762  10.302
39619SOL    HW118881   7.022  11.667  10.309
39619SOL    HW218882   7.125  11.778  10.368
39620SOL     OW18883   7.443  12.005   9.687
39620SOL    HW118884   7.485  11.941   9.751
39620SOL    HW218885   7.405  11.954   9.609
39621SOL     OW18886   6.074  12.557   9.484
39621SOL    HW118887   5.987  12.542   9.531
39621SOL    HW218888   6.057  12.583   9.389
39622SOL     OW18889   7.250  12.452   9.967
39622SOL    HW118890   7.349  12.460   9.981
39622SOL    HW218891   7.205  12.536   9.998
39623SOL     OW18892   6.976  11.747   9.388
39623SOL    HW118893   6.922  11.726   9.469
39623SOL    HW218894   7.067  11.706   9.397
39624SOL     OW18895   6.113  11.428   9.638
39624SOL    HW118896   6.140  11.369   9.563
39624SOL    HW218897   6.113  11.523   9.607
39625SOL     OW18898   7.340  12.395  10.898
39625SOL    HW118899   7.431  12.356  10.885
39625SOL    HW218900   7.348  12.491  10.922
39626SOL     OW18901   6.650  12.519  10.650
39626SOL    HW118902   6.570  12.496  10.705
39626SOL    HW218903   6.733  12.493  10.699
39627SOL     OW18904   6.697  12.367  10.410
39627SOL    HW118905   6.657  12.411  10.491
39627SOL    HW218906   6.656  12.404  10.327
39628SOL     OW18907   7.224  12.271  10.389
39628SOL    HW118908   7.229  12.352  10.448
39628SOL    HW218909   7.138  12.273  10.338
39629SOL     OW18910   6.501  11.261  10.712
39629SOL    HW118911   6.526  11.241  10.617
39629SOL    HW218912   6.573  11.317  10.754
39630SOL     OW18913   6.566  12.288  11.029
39630SOL    HW118914   6.467  12.294  11.039
39630SOL    HW218915   6.589  12.208  10.973
39631SOL     OW18916   6.291  12.222   9.678
39631SOL    HW118917   6.277  12.229   9.777
39631SOL    HW218918   6.375  12.171   9.660
39632SOL     OW18919   5.996  11.985  10.561
39632SOL    HW118920   6.082  11.997  10.611
39632SOL    HW218921   5.954  11.898  10.588
39633SOL     OW18922   6.860  11.558  10.572
39633SOL    HW118923   6.881  11.632  10.636
39633SOL    HW218924   6.771  11.575  10.529
39634SOL     OW18925   5.650  12.736  10.641
39634SOL    HW118926   5.604  12.818  10.607
39634SOL    HW218927   5.748  12.755  10.650
39635SOL     OW18928   5.953  12.272   9.811
39635SOL    HW118929   5.946  12.355   9.755
39635SOL    HW218930   5.957  12.192   9.751
39636SOL     OW18931   6.152  11.709  10.175
39636SOL    HW118932   6.164  11.775  10.101
39636SOL    HW218933   6.198  11.743  10.258
39637SOL     OW18934   6.838  12.520   9.698
39637SOL    HW118935   6.888  12.597   9.738
39637SOL    HW218936   6.743  12.522   9.730
39638SOL     OW18937   6.858  12.617  10.452
39638SOL    HW118938   6.905  12.630  10.539
39638SOL    HW218939   6.792  12.543  10.461
39639SOL     OW18940   7.168  11.811   9.782
39639SOL    HW118941   7.137  11.872   9.855
39639SOL    HW218942   7.218  11.863   9.713
39640SOL     OW18943   5.940  12.682  10.639
39640SOL    HW118944   5.919  12.638  10.552
39640SOL    HW218945   6.037  12.708  10.642
39641SOL     OW18946   5.988  11.923  10.908
39641SOL    HW118947   6.056  11.978  10.861
39641SOL    HW218948   6.028  11.835  10.935
39642SOL     OW18949   7.173  11.951  10.980
39642SOL    HW118950   7.081  11.989  10.975
39642SOL    HW218951   7.233  11.998  10.915
39643SOL     OW18952   6.599  11.277  11.080
39643SOL    HW118953   6.605  11.362  11.028
39643SOL    HW218954   6.631  11.201  11.023
39644SOL     OW18955   6.090  11.222  11.050
39644SOL    HW118956   6.048  11.165  10.980
39644SOL    HW218957   6.024  11.291  11.082
39645SOL     OW18958   6.159  12.042  10.339
39645SOL    HW118959   6.203  12.131  10.330
39645SOL    HW218960   6.096  12.042  10.416
39646SOL     OW18961   6.946  12.034  10.355
39646SOL    HW118962   6.871  12.034  10.289
39646SOL    HW218963   6.983  11.942  10.364
39647SOL     OW18964   6.795  11.697   9.585
39647SOL    HW118965   6.808  11.613   9.639
39647SOL    HW218966   6.766  11.771   9.645
39648SOL     OW18967   5.893  11.385  10.541
39648SOL    HW118968   5.870  11.422  10.631
39648SOL    HW218969   5.863  11.290  10.535
39649SOL     OW18970   5.623  12.482  10.592
39649SOL    HW118971   5.676  12.433  10.660
39649SOL    HW218972   5.645  12.580  10.597
39650SOL     OW18973   6.318  11.806  10.374
39650SOL    HW118974   6.377  11.780  10.298
39650SOL    HW218975   6.290  11.902  10.363
39651SOL     OW18976   7.314  12.107  11.164
39651SOL    HW118977   7.268  12.100  11.075
39651SOL    HW218978   7.252  12.151  11.230
39652SOL     OW18979   5.893  11.235   9.928
39652SOL    HW118980   5.882  11.329   9.961
39652SOL    HW218981   5.888  11.172  10.005
39653SOL     OW18982   7.208  11.539   9.684
39653SOL    HW118983   7.210  11.463   9.748
39653SOL    HW218984   7.160  11.616   9.724
39654SOL     OW18985   6.609  11.938  10.276
39654SOL    HW118986   6.624  11.959  10.372
39654SOL    HW218987   6.579  11.843  10.267
39655SOL     OW18988   7.445  12.690  10.915
39655SOL    HW118989   7.459  12.717  10.820
39655SOL    HW218990   7.528  12.712  10.968
39656SOL     OW18991   5.936  12.070  11.114
39656SOL    HW118992   6.012  12.114  11.162
39656SOL    HW218993   5.971  12.023  11.032
39657SOL     OW18994   7.126  11.446   9.435
39657SOL    HW118995   7.065  11.371   9.458
39657SOL    HW218996   7.148  11.498   9.518
39658SOL     OW18997   6.889  12.010   9.352
39658SOL    HW118998   6.923  11.917   9.367
39658SOL    HW218999   6.907  12.037   9.257
39659SOL     OW19000   6.654  12.505  10.159
39659SOL    HW119001   6.661  12.421  10.104
39659SOL    HW219002   6.716  12.574  10.123
39660SOL     OW19003   5.905  11.982  10.259
39660SOL    HW119004   5.998  12.018  10.264
39660SOL    HW219005   5.899  11.897  10.311
39661SOL     OW19006   5.925  11.681  10.316
39661SOL    HW119007   5.873  11.598  10.299
39661SOL    HW219008   6.002  11.686  10.252
39662SOL     OW19009   6.724  11.552  10.988
39662SOL    HW119010   6.679  11.615  11.052
39662SOL    HW219011   6.817  11.583  10.971
39663SOL     OW19012   6.746  11.379  10.787
39663SOL    HW119013   6.746  11.443  10.864
39663SOL    HW219014   6.774  11.427  10.704
39664SOL     OW19015   5.594  12.498   9.510
39664SOL    HW119016   5.501  12.519   9.479
39664SOL    HW219017   5.604  12.399   9.523
39665SOL     OW19018   6.090  12.740  10.220
39665SOL    HW119019   6.156  12.814  10.229
39665SOL    HW219020   6.134  12.661  10.178
39666SOL     OW19021   6.588  11.968  10.548
39666SOL    HW119022   6.629  11.936  10.634
39666SOL    HW219023   6.492  11.941  10.545
39667SOL     OW19024   5.626  11.716  10.424
39667SOL    HW119025   5.711  11.683  10.383
39667SOL    HW219026   5.639  11.731  10.522
39668SOL     OW19027   5.775  11.692  11.032
39668SOL    HW119028   5.834  11.652  10.962
39668SOL    HW219029   5.717  11.763  10.991
39669SOL     OW19030   6.955  12.122  10.970
39669SOL    HW119031   6.994  12.211  10.990
39669SOL    HW219032   6.965  12.102  10.873
39670SOL     OW19033   6.401  11.744   9.635
39670SOL    HW119034   6.408  11.655   9.589
39670SOL    HW219035   6.307  11.778   9.627
39671SOL     OW19036   7.243  11.776  10.516
39671SOL    HW119037   7.205  11.707  10.578
39671SOL    HW219038   7.325  11.740  10.472
39672SOL     OW19039   5.838  12.736  11.054
39672SOL    HW119040   5.808  12.793  11.130
39672SOL    HW219041   5.831  12.639  11.080
39673SOL     OW19042   6.257  11.636  10.579
39673SOL    HW119043   6.223  11.547  10.549
39673SOL    HW219044   6.283  11.690  10.499
39674SOL     OW19045   6.059  11.672   9.501
39674SOL    HW119046   6.120  11.752   9.505
39674SOL    HW219047   5.964  11.703   9.508
39675SOL     OW19048   5.745  12.309  10.776
39675SOL    HW119049   5.767  12.248  10.852
39675SOL    HW219050   5.755  12.260  10.690
39676SOL     OW19051   6.933  12.231  10.544
39676SOL    HW119052   6.957  12.168  10.470
39676SOL    HW219053   6.843  12.271  10.526
39677SOL     OW19054   6.888  12.027   9.619
39677SOL    HW119055   6.802  11.996   9.661
39677SOL    HW219056   6.884  12.013   9.520
39678SOL     OW19057   6.838  12.903  10.438
39678SOL    HW119058   6.922  12.908  10.384
39678SOL    HW219059   6.815  12.807  10.456
39679SOL     OW19060   5.669  12.430  10.332
39679SOL    HW119061   5.664  12.429  10.432
39679SOL    HW219062   5.586  12.389  10.294
39680SOL     OW19063   7.312  11.307   9.833
39680SOL    HW119064   7.385  11.290   9.766
39680SOL    HW219065   7.281  11.220   9.871
39681SOL     OW19066   5.716  12.966  11.161
39681SOL    HW119067   5.675  12.892  11.214
39681SOL    HW219068   5.780  13.017  11.219
39682SOL     OW19069   6.866  12.099   9.982
39682SOL    HW119070   6.926  12.018   9.984
39682SOL    HW219071   6.906  12.168   9.922
39683SOL     OW19072   6.416  12.445  10.732
39683SOL    HW119073   6.411  12.478  10.827
39683SOL    HW219074   6.330  12.464  10.686
39684SOL     OW19075   6.258  12.788   9.464
39684SOL    HW119076   6.267  12.798   9.365
39684SOL    HW219077   6.218  12.699   9.485
39685SOL     OW19078   7.427  11.347  10.273
39685SOL    HW119079   7.466  11.262  10.237
39685SOL    HW219080   7.329  11.349  10.254
39686SOL     OW19081   5.849  11.498  10.030
39686SOL    HW119082   5.770  11.549   9.996
39686SOL    HW219083   5.840  11.483  10.128
39687SOL     OW19084   6.780  12.784   9.341
39687SOL    HW119085   6.786  12.691   9.378
39687SOL    HW219086   6.721  12.784   9.261
39688SOL     OW19087   6.408  12.174  10.682
39688SOL    HW119088   6.448  12.173  10.590
39688SOL    HW219089   6.418  12.266  10.722
39689SOL     OW19090   6.502  12.082   9.601
39689SOL    HW119091   6.565  12.120   9.533
39689SOL    HW219092   6.542  11.999   9.640
39690SOL     OW19093   5.958  12.460  10.800
39690SOL    HW119094   5.945  12.553  10.766
39690SOL    HW219095   5.874  12.408  10.787
39691SOL     OW19096   7.200  12.464  10.599
39691SOL    HW119097   7.260  12.467  10.679
39691SOL    HW219098   7.125  12.528  10.612
39692SOL     OW19099   6.625  12.270  10.006
39692SOL    HW119100   6.555  12.223  10.060
39692SOL    HW219101   6.684  12.202   9.963
39693SOL     OW19102   6.600  11.408  10.281
39693SOL    HW119103   6.592  11.372  10.188
39693SOL    HW219104   6.598  11.332  10.346
39694SOL     OW19105   6.176  12.659   9.801
39694SOL    HW119106   6.218  12.601   9.731
39694SOL    HW219107   6.132  12.738   9.757
39695SOL     OW19108   7.295  11.557  10.691
39695SOL    HW119109   7.368  11.626  10.695
39695SOL    HW219110   7.323  11.482  10.632
39696SOL     OW19111   5.841  12.520   9.600
39696SOL    HW119112   5.745  12.521   9.573
39696SOL    HW219113   5.853  12.573   9.684
39697SOL     OW19114   5.691  12.185  11.036
39697SOL    HW119115   5.614  12.152  11.090
39697SOL    HW219116   5.776  12.155  11.078
39698SOL     OW19117   6.258  11.375  10.799
39698SOL    HW119118   6.348  11.359  10.759
39698SOL    HW219119   6.266  11.380  10.898
39699SOL     OW19120   5.661  11.517   9.343
39699SOL    HW119121   5.569  11.489   9.314
39699SOL    HW219122   5.692  11.594   9.287
39700SOL     OW19123   7.026  12.028  10.708
39700SOL    HW119124   6.969  12.080  10.645
39700SOL    HW219125   7.122  12.040  10.684
39701SOL     OW19126   5.658  11.338   9.628
39701SOL    HW119127   5.641  11.421   9.574
39701SOL    HW219128   5.748  11.301   9.606
39702SOL     OW19129   6.769  12.507   9.429
39702SOL    HW119130   6.670  12.496   9.431
39702SOL    HW219131   6.803  12.522   9.522
39703SOL     OW19132   6.199  12.014  10.741
39703SOL    HW119133   6.255  12.095  10.724
39703SOL    HW219134   6.258  11.934  10.744
39704SOL     OW19135   6.302  11.737  11.018
39704SOL    HW119136   6.321  11.802  11.092
39704SOL    HW219137   6.362  11.657  11.027
39705SOL     OW19138   7.036  12.392  10.943
39705SOL    HW119139   7.027  12.382  11.042
39705SOL    HW219140   7.132  12.385  10.917
39706SOL     OW19141   7.260  12.055  10.564
39706SOL    HW119142   7.233  11.966  10.527
39706SOL    HW219143   7.261  12.123  10.491
39707SOL     OW19144   6.811  11.497   9.759
39707SOL    HW119145   6.876  11.423   9.748
39707SOL    HW219146   6.831  11.547   9.843
39708SOL     OW19147   6.180  11.917   9.962
39708SOL    HW119148   6.230  12.002   9.943
39708SOL    HW219149   6.092  11.919   9.914
39709SOL     OW19150   7.363  11.514  10.952
39709SOL    HW119151   7.346  11.545  10.858
39709SOL    HW219152   7.279  11.477  10.990
39710SOL     OW19153   7.316  12.106  10.827
39710SOL    HW119154   7.354  12.197  10.842
39710SOL    HW219155   7.308  12.089  10.728
39711SOL     OW19156   6.445  12.546   9.326
39711SOL    HW119157   6.399  12.561   9.414
39711SOL    HW219158   6.489  12.631   9.296
39712SOL     OW19159   6.445  12.128  10.171
39712SOL    HW119160   6.499  12.059  10.219
39712SOL    HW219161   6.413  12.197  10.237
39713SOL     OW19162   6.669  12.156   9.397
39713SOL    HW119163   6.646  12.209   9.315
39713SOL    HW219164   6.750  12.100   9.378
39714SOL     OW19165   7.447  12.741  10.161
39714SOL    HW119166   7.376  12.729  10.091
39714SOL    HW219167   7.448  12.662  10.221
39715SOL     OW19168   5.807  12.486  11.154
39715SOL    HW119169   5.742  12.413  11.133
39715SOL    HW219170   5.811  12.500  11.252
39716SOL     OW19171   5.665  12.412   9.963
39716SOL    HW119172   5.664  12.365  10.051
39716SOL    HW219173   5.747  12.384   9.912
39717SOL     OW19174   6.258  12.563  10.934
39717SOL    HW119175   6.180  12.513  10.972
39717SOL    HW219176   6.255  12.658  10.965
39718SOL     OW19177   7.410  11.364  10.537
39718SOL    HW119178   7.406  11.274  10.581
39718SOL    HW219179   7.413  11.353  10.438
39719SOL     OW19180   6.014  11.596   9.830
39719SOL    HW119181   6.044  11.524   9.768
39719SOL    HW219182   5.975  11.556   9.913
39720SOL     OW19183   7.291  12.659  10.414
39720SOL    HW119184   7.198  12.634  10.387
39720SOL    HW219185   7.317  12.609  10.496
39721SOL     OW19186   5.903  11.719  10.590
39721SOL    HW119187   5.941  11.660  10.662
39721SOL    HW219188   5.943  11.693  10.502
39722SOL     OW19189   7.010  11.386  10.422
39722SOL    HW119190   7.062  11.321  10.477
39722SOL    HW219191   6.961  11.449  10.483
39723SOL     OW19192   6.587  11.206  10.464
39723SOL    HW119193   6.524  11.134  10.433
39723SOL    HW219194   6.680  11.170  10.464
39724SOL     OW19195   6.356  12.502   9.611
39724SOL    HW119196   6.310  12.415   9.628
39724SOL    HW219197   6.447  12.499   9.652
39725SOL     OW19198   6.204  12.739  10.594
39725SOL    HW119199   6.199  12.821  10.651
39725SOL    HW219200   6.293  12.736  10.549
39726SOL     OW19201   6.938  11.224   9.478
39726SOL    HW119202   6.973  11.183   9.394
39726SOL    HW219203   6.848  11.186   9.498
39727SOL     OW19204   6.886  11.625  10.001
39727SOL    HW119205   6.827  11.705  10.005
39727SOL    HW219206   6.901  11.590  10.094
39728SOL     OW19207   7.179  11.393  10.192
39728SOL    HW119208   7.095  11.392  10.246
39728SOL    HW219209   7.181  11.476  10.136
39729SOL     OW19210   5.625  12.249   9.610
39729SOL    HW119211   5.724  12.238   9.601
39729SOL    HW219212   5.585  12.163   9.642
39730SOL     OW19213   5.816  11.800  11.285
39730SOL    HW119214   5.723  11.798  11.322
39730SOL    HW219215   5.817  11.761  11.193
39731SOL     OW19216   5.811  11.447  12.168
39731SOL    HW119217   5.846  11.430  12.260
39731SOL    HW219218   5.723  11.402  12.156
39732SOL     OW19219   5.605  11.540  11.819
39732SOL    HW119220   5.523  11.583  11.858
39732SOL    HW219221   5.577  11.467  11.756
39733SOL     OW19222   6.155  12.447  12.337
39733SOL    HW119223   6.062  12.440  12.300
39733SOL    HW219224   6.166  12.536  12.381
39734SOL     OW19225   7.141  12.683  11.875
39734SOL    HW119226   7.084  12.667  11.956
39734SOL    HW219227   7.082  12.693  11.795
39735SOL     OW19228   6.721  11.875  11.889
39735SOL    HW119229   6.778  11.953  11.864
39735SOL    HW219230   6.661  11.901  11.965
39736SOL     OW19231   7.341  11.779  11.403
39736SOL    HW119232   7.329  11.766  11.304
39736SOL    HW219233   7.311  11.698  11.452
39737SOL     OW19234   6.354  12.316  12.195
39737SOL    HW119235   6.276  12.333  12.255
39737SOL    HW219236   6.388  12.403  12.159
39738SOL     OW19237   6.271  12.184  11.837
39738SOL    HW119238   6.340  12.168  11.907
39738SOL    HW219239   6.198  12.241  11.875
39739SOL     OW19240   5.921  12.607  12.233
39739SOL    HW119241   5.843  12.576  12.180
39739SOL    HW219242   5.979  12.665  12.176
39740SOL     OW19243   7.046  12.677  12.511
39740SOL    HW119244   7.070  12.771  12.537
39740SOL    HW219245   7.030  12.623  12.593
39741SOL     OW19246   6.024  11.564  12.671
39741SOL    HW119247   6.106  11.508  12.680
39741SOL    HW219248   5.943  11.506  12.675
39742SOL     OW19249   7.189  11.619  11.909
39742SOL    HW119250   7.115  11.665  11.859
39742SOL    HW219251   7.240  11.687  11.962
39743SOL     OW19252   5.816  12.606  11.710
39743SOL    HW119253   5.790  12.702  11.710
39743SOL    HW219254   5.745  12.552  11.755
39744SOL     OW19255   5.826  12.263  12.058
39744SOL    HW119256   5.840  12.179  12.110
39744SOL    HW219257   5.771  12.327  12.113
39745SOL     OW19258   6.192  12.136  11.295
39745SOL    HW119259   6.199  12.220  11.241
39745SOL    HW219260   6.238  12.149  11.383
39746SOL     OW19261   7.180  11.286  12.652
39746SOL    HW119262   7.162  11.353  12.580
39746SOL    HW219263   7.177  11.332  12.741
39747SOL     OW19264   5.708  11.815  11.735
39747SOL    HW119265   5.663  11.727  11.752
39747SOL    HW219266   5.707  11.869  11.819
39748SOL     OW19267   5.613  12.768  11.289
39748SOL    HW119268   5.594  12.672  11.310
39748SOL    HW219269   5.580  12.826  11.364
39749SOL     OW19270   7.275  12.094  11.784
39749SOL    HW119271   7.370  12.065  11.792
39749SOL    HW219272   7.267  12.159  11.709
39750SOL     OW19273   7.227  12.280  11.604
39750SOL    HW119274   7.313  12.282  11.552
39750SOL    HW219275   7.241  12.327  11.692
39751SOL     OW19276   5.699  11.909  12.769
39751SOL    HW119277   5.787  11.896  12.814
39751SOL    HW219278   5.686  12.006  12.747
39752SOL     OW19279   6.199  12.537  11.898
39752SOL    HW119280   6.150  12.450  11.907
39752SOL    HW219281   6.176  12.580  11.811
39753SOL     OW19282   6.879  12.400  12.595
39753SOL    HW119283   6.916  12.327  12.537
39753SOL    HW219284   6.931  12.405  12.680
39754SOL     OW19285   6.395  11.176  11.674
39754SOL    HW119286   6.435  11.267  11.665
39754SOL    HW219287   6.295  11.184  11.680
39755SOL     OW19288   5.783  12.148  12.436
39755SOL    HW119289   5.872  12.103  12.422
39755SOL    HW219290   5.710  12.083  12.417
39756SOL     OW19291   7.111  12.171  11.362
39756SOL    HW119292   7.048  12.095  11.375
39756SOL    HW219293   7.159  12.189  11.448
39757SOL     OW19294   7.052  12.589  12.125
39757SOL    HW119295   6.993  12.595  12.205
39757SOL    HW219296   7.037  12.501  12.079
39758SOL     OW19297   6.184  11.901  11.442
39758SOL    HW119298   6.208  11.970  11.374
39758SOL    HW219299   6.106  11.934  11.496
39759SOL     OW19300   6.867  11.517  12.116
39759SOL    HW119301   6.781  11.467  12.103
39759SOL    HW219302   6.929  11.463  12.172
39760SOL     OW19303   7.162  12.834  11.479
39760SOL    HW119304   7.251  12.880  11.482
39760SOL    HW219305   7.141  12.810  11.384
39761SOL     OW19306   6.393  11.777  12.637
39761SOL    HW119307   6.346  11.774  12.726
39761SOL    HW219308   6.342  11.722  12.571
39762SOL     OW19309   6.559  12.062  12.744
39762SOL    HW119310   6.605  11.978  12.715
39762SOL    HW219311   6.503  12.096  12.669
39763SOL     OW19312   6.577  11.582  12.414
39763SOL    HW119313   6.500  11.616  12.468
39763SOL    HW219314   6.543  11.531  12.335
39764SOL     OW19315   6.627  11.873  11.601
39764SOL    HW119316   6.653  11.869  11.697
39764SOL    HW219317   6.542  11.822  11.587
39765SOL     OW19318   5.662  11.983  11.961
39765SOL    HW119319   5.761  11.971  11.970
39765SOL    HW219320   5.638  12.078  11.982
39766SOL     OW19321   6.451  11.520  11.367
39766SOL    HW119322   6.510  11.583  11.318
39766SOL    HW219323   6.470  11.426  11.338
39767SOL     OW19324   6.948  12.316  11.717
39767SOL    HW119325   7.031  12.287  11.669
39767SOL    HW219326   6.899  12.383  11.661
39768SOL     OW19327   6.136  11.368  12.057
39768SOL    HW119328   6.131  11.363  12.157
39768SOL    HW219329   6.138  11.464  12.028
39769SOL     OW19330   6.594  12.628  11.649
39769SOL    HW119331   6.548  12.700  11.597
39769SOL    HW219332   6.590  12.648  11.747
39770SOL     OW19333   7.381  12.238  12.045
39770SOL    HW119334   7.319  12.223  11.969
39770SOL    HW219335   7.329  12.249  12.130
39771SOL     OW19336   6.813  12.722  12.678
39771SOL    HW119337   6.819  12.645  12.742
39771SOL    HW219338   6.761  12.696  12.598
39772SOL     OW19339   5.907  12.115  11.414
39772SOL    HW119340   5.989  12.154  11.372
39772SOL    HW219341   5.880  12.033  11.365
39773SOL     OW19342   7.044  11.907  11.900
39773SOL    HW119343   7.039  11.842  11.975
39773SOL    HW219344   7.124  11.966  11.913
39774SOL     OW19345   5.788  11.457  12.670
39774SOL    HW119346   5.708  11.517  12.657
39774SOL    HW219347   5.778  11.408  12.756
39775SOL     OW19348   7.218  12.549  11.253
39775SOL    HW119349   7.186  12.643  11.243
39775SOL    HW219350   7.142  12.486  11.241
39776SOL     OW19351   6.986  11.279  11.598
39776SOL    HW119352   6.962  11.242  11.508
39776SOL    HW219353   7.085  11.295  11.602
39777SOL     OW19354   5.968  11.872  11.652
39777SOL    HW119355   6.013  11.782  11.649
39777SOL    HW219356   5.874  11.861  11.685
39778SOL     OW19357   6.200  11.294  11.289
39778SOL    HW119358   6.298  11.272  11.296
39778SOL    HW219359   6.169  11.277  11.196
39779SOL     OW19360   6.937  11.762  12.605
39779SOL    HW119361   6.965  11.719  12.690
39779SOL    HW219362   6.962  11.858  12.606
39780SOL     OW19363   6.389  12.574  12.096
39780SOL    HW119364   6.479  12.588  12.054
39780SOL    HW219365   6.318  12.576  12.025
39781SOL     OW19366   6.508  11.675  12.071
39781SOL    HW119367   6.483  11.666  11.975
39781SOL    HW219368   6.556  11.593  12.102
39782SOL     OW19369   6.125  11.236  11.684
39782SOL    HW119370   6.044  11.237  11.742
39782SOL    HW219371   6.128  11.319  11.629
39783SOL     OW19372   7.020  12.360  11.213
39783SOL    HW119373   7.052  12.284  11.270
39783SOL    HW219374   6.928  12.387  11.243
39784SOL     OW19375   5.883  11.207  11.343
39784SOL    HW119376   5.932  11.291  11.322
39784SOL    HW219377   5.945  11.142  11.388
39785SOL     OW19378   6.521  11.408  11.652
39785SOL    HW119379   6.473  11.449  11.574
39785SOL    HW219380   6.620  11.406  11.633
39786SOL     OW19381   6.662  11.855  12.636
39786SOL    HW119382   6.582  11.794  12.639
39786SOL    HW219383   6.743  11.802  12.612
39787SOL     OW19384   6.813  12.742  11.965
39787SOL    HW119385   6.834  12.816  11.900
39787SOL    HW219386   6.881  12.742  12.038
39788SOL     OW19387   6.045  12.324  11.913
39788SOL    HW119388   5.974  12.297  11.978
39788SOL    HW219389   6.019  12.296  11.820
39789SOL     OW19390   6.618  11.721  11.188
39789SOL    HW119391   6.577  11.803  11.149
39789SOL    HW219392   6.682  11.747  11.261
39790SOL     OW19393   5.664  11.728  12.558
39790SOL    HW119394   5.756  11.727  12.517
39790SOL    HW219395   5.658  11.802  12.625
39791SOL     OW19396   6.147  11.394  12.319
39791SOL    HW119397   6.185  11.310  12.356
39791SOL    HW219398   6.059  11.413  12.363
39792SOL     OW19399   6.452  11.626  11.814
39792SOL    HW119400   6.420  11.698  11.752
39792SOL    HW219401   6.476  11.545  11.761
39793SOL     OW19402   6.603  11.211  11.925
39793SOL    HW119403   6.531  11.216  11.856
39793SOL    HW219404   6.579  11.142  11.994
39794SOL     OW19405   7.015  12.345  12.039
39794SOL    HW119406   6.960  12.261  12.032
39794SOL    HW219407   7.041  12.374  11.947
39795SOL     OW19408   7.052  11.762  12.164
39795SOL    HW119409   7.022  11.667  12.171
39795SOL    HW219410   7.125  11.778  12.230
39796SOL     OW19411   7.443  12.005  11.549
39796SOL    HW119412   7.485  11.941  11.613
39796SOL    HW219413   7.405  11.954  11.471
39797SOL     OW19414   6.074  12.557  11.346
39797SOL    HW119415   5.987  12.542  11.393
39797SOL    HW219416   6.057  12.583  11.251
39798SOL     OW19417   7.250  12.452  11.829
39798SOL    HW119418   7.349  12.460  11.843
39798SOL    HW219419   7.205  12.536  11.860
39799SOL     OW19420   6.976  11.747  11.250
39799SOL    HW119421   6.922  11.726  11.331
39799SOL    HW219422   7.067  11.706  11.259
39800SOL     OW19423   6.113  11.428  11.500
39800SOL    HW119424   6.140  11.369  11.425
39800SOL    HW219425   6.113  11.523  11.469
39801SOL     OW19426   7.340  12.395  12.760
39801SOL    HW119427   7.431  12.356  12.747
39801SOL    HW219428   7.348  12.491  12.784
39802SOL     OW19429   6.650  12.519  12.512
39802SOL    HW119430   6.570  12.496  12.567
39802SOL    HW219431   6.733  12.493  12.561
39803SOL     OW19432   6.697  12.367  12.272
39803SOL    HW119433   6.657  12.411  12.353
39803SOL    HW219434   6.656  12.404  12.189
39804SOL     OW19435   7.224  12.271  12.251
39804SOL    HW119436   7.229  12.352  12.310
39804SOL    HW219437   7.138  12.273  12.200
39805SOL     OW19438   6.501  11.261  12.574
39805SOL    HW119439   6.526  11.241  12.479
39805SOL    HW219440   6.573  11.317  12.616
39806SOL     OW19441   6.291  12.222  11.540
39806SOL    HW119442   6.277  12.229  11.639
39806SOL    HW219443   6.375  12.171  11.522
39807SOL     OW19444   5.996  11.985  12.423
39807SOL    HW119445   6.082  11.997  12.473
39807SOL    HW219446   5.954  11.898  12.450
39808SOL     OW19447   6.860  11.558  12.434
39808SOL    HW119448   6.881  11.632  12.498
39808SOL    HW219449   6.771  11.575  12.391
39809SOL     OW19450   5.650  12.736  12.503
39809SOL    HW119451   5.604  12.818  12.469
39809SOL    HW219452   5.748  12.755  12.512
39810SOL     OW19453   5.953  12.272  11.673
39810SOL    HW119454   5.946  12.355  11.617
39810SOL    HW219455   5.957  12.192  11.613
39811SOL     OW19456   6.152  11.709  12.037
39811SOL    HW119457   6.164  11.775  11.963
39811SOL    HW219458   6.198  11.743  12.120
39812SOL     OW19459   6.838  12.520  11.560
39812SOL    HW119460   6.888  12.597  11.600
39812SOL    HW219461   6.743  12.522  11.592
39813SOL     OW19462   6.858  12.617  12.314
39813SOL    HW119463   6.905  12.630  12.401
39813SOL    HW219464   6.792  12.543  12.323
39814SOL     OW19465   7.168  11.811  11.644
39814SOL    HW119466   7.137  11.872  11.717
39814SOL    HW219467   7.218  11.863  11.575
39815SOL     OW19468   5.940  12.682  12.501
39815SOL    HW119469   5.919  12.638  12.414
39815SOL    HW219470   6.037  12.708  12.504
39816SOL     OW19471   5.988  11.923  12.770
39816SOL    HW119472   6.056  11.978  12.723
39816SOL    HW219473   6.028  11.835  12.797
39817SOL     OW19474   7.173  11.951  12.842
39817SOL    HW119475   7.081  11.989  12.837
39817SOL    HW219476   7.233  11.998  12.777
39818SOL     OW19477   6.159  12.042  12.201
39818SOL    HW119478   6.203  12.131  12.192
39818SOL    HW219479   6.096  12.042  12.278
39819SOL     OW19480   6.946  12.034  12.217
39819SOL    HW119481   6.871  12.034  12.151
39819SOL    HW219482   6.983  11.942  12.226
39820SOL     OW19483   6.795  11.697  11.447
39820SOL    HW119484   6.808  11.613  11.501
39820SOL    HW219485   6.766  11.771  11.507
39821SOL     OW19486   5.893  11.385  12.403
39821SOL    HW119487   5.870  11.422  12.493
39821SOL    HW219488   5.863  11.290  12.397
39822SOL     OW19489   5.623  12.482  12.454
39822SOL    HW119490   5.676  12.433  12.522
39822SOL    HW219491   5.645  12.580  12.459
39823SOL     OW19492   6.318  11.806  12.236
39823SOL    HW119493   6.377  11.780  12.160
39823SOL    HW219494   6.290  11.902  12.225
39824SOL     OW19495   5.893  11.235  11.790
39824SOL    HW119496   5.882  11.329  11.823
39824SOL    HW219497   5.888  11.172  11.867
39825SOL     OW19498   7.208  11.539  11.546
39825SOL    HW119499   7.210  11.463  11.610
39825SOL    HW219500   7.160  11.616  11.586
39826SOL     OW19501   6.609  11.938  12.138
39826SOL    HW119502   6.624  11.959  12.234
39826SOL    HW219503   6.579  11.843  12.129
39827SOL     OW19504   7.126  11.446  11.297
39827SOL    HW119505   7.065  11.371  11.320
39827SOL    HW219506   7.148  11.498  11.380
39828SOL     OW19507   6.889  12.010  11.214
39828SOL    HW119508   6.923  11.917  11.229
39828SOL    HW219509   6.907  12.037  11.119
39829SOL     OW19510   6.654  12.505  12.021
39829SOL    HW119511   6.661  12.421  11.966
39829SOL    HW219512   6.716  12.574  11.985
39830SOL     OW19513   5.905  11.982  12.121
39830SOL    HW119514   5.998  12.018  12.126
39830SOL    HW219515   5.899  11.897  12.173
39831SOL     OW19516   5.925  11.681  12.178
39831SOL    HW119517   5.873  11.598  12.161
39831SOL    HW219518   6.002  11.686  12.114
39832SOL     OW19519   6.746  11.379  12.649
39832SOL    HW119520   6.746  11.443  12.726
39832SOL    HW219521   6.774  11.427  12.566
39833SOL     OW19522   5.594  12.498  11.372
39833SOL    HW119523   5.501  12.519  11.341
39833SOL    HW219524   5.604  12.399  11.385
39834SOL     OW19525   6.090  12.740  12.082
39834SOL    HW119526   6.156  12.814  12.091
39834SOL    HW219527   6.134  12.661  12.040
39835SOL     OW19528   6.588  11.968  12.410
39835SOL    HW119529   6.629  11.936  12.496
39835SOL    HW219530   6.492  11.941  12.407
39836SOL     OW19531   5.626  11.716  12.286
39836SOL    HW119532   5.711  11.683  12.245
39836SOL    HW219533   5.639  11.731  12.384
39837SOL     OW19534   6.401  11.744  11.497
39837SOL    HW119535   6.408  11.655  11.451
39837SOL    HW219536   6.307  11.778  11.489
39838SOL     OW19537   7.243  11.776  12.378
39838SOL    HW119538   7.205  11.707  12.440
39838SOL    HW219539   7.325  11.740  12.334
39839SOL     OW19540   6.257  11.636  12.441
39839SOL    HW119541   6.223  11.547  12.411
39839SOL    HW219542   6.283  11.690  12.361
39840SOL     OW19543   6.059  11.672  11.363
39840SOL    HW119544   6.120  11.752  11.367
39840SOL    HW219545   5.964  11.703  11.370
39841SOL     OW19546   5.745  12.309  12.638
39841SOL    HW119547   5.767  12.248  12.714
39841SOL    HW219548   5.755  12.260  12.552
39842SOL     OW19549   6.933  12.231  12.406
39842SOL    HW119550   6.957  12.168  12.332
39842SOL    HW219551   6.843  12.271  12.388
39843SOL     OW19552   6.888  12.027  11.481
39843SOL    HW119553   6.802  11.996  11.523
39843SOL    HW219554   6.884  12.013  11.382
39844SOL     OW19555   6.838  12.903  12.300
39844SOL    HW119556   6.922  12.908  12.246
39844SOL    HW219557   6.815  12.807  12.318
39845SOL     OW19558   5.669  12.430  12.194
39845SOL    HW119559   5.664  12.429  12.294
39845SOL    HW219560   5.586  12.389  12.156
39846SOL     OW19561   7.312  11.307  11.695
39846SOL    HW119562   7.385  11.290  11.628
39846SOL    HW219563   7.281  11.220  11.733
39847SOL     OW19564   6.866  12.099  11.844
39847SOL    HW119565   6.926  12.018  11.846
39847SOL    HW219566   6.906  12.168  11.784
39848SOL     OW19567   6.416  12.445  12.594
39848SOL    HW119568   6.411  12.478  12.689
39848SOL    HW219569   6.330  12.464  12.548
39849SOL     OW19570   6.258  12.788  11.326
39849SOL    HW119571   6.267  12.798  11.227
39849SOL    HW219572   6.218  12.699  11.347
39850SOL     OW19573   7.427  11.347  12.135
39850SOL    HW119574   7.466  11.262  12.099
39850SOL    HW219575   7.329  11.349  12.116
39851SOL     OW19576   5.849  11.498  11.892
39851SOL    HW119577   5.770  11.549  11.858
39851SOL    HW219578   5.840  11.483  11.990
39852SOL     OW19579   6.780  12.784  11.203
39852SOL    HW119580   6.786  12.691  11.240
39852SOL    HW219581   6.721  12.784  11.123
39853SOL     OW19582   6.408  12.174  12.544
39853SOL    HW119583   6.448  12.173  12.452
39853SOL    HW219584   6.418  12.266  12.584
39854SOL     OW19585   6.502  12.082  11.463
39854SOL    HW119586   6.565  12.120  11.395
39854SOL    HW219587   6.542  11.999  11.502
39855SOL     OW19588   5.958  12.460  12.662
39855SOL    HW119589   5.945  12.553  12.628
39855SOL    HW219590   5.874  12.408  12.649
39856SOL     OW19591   7.200  12.464  12.461
39856SOL    HW119592   7.260  12.467  12.541
39856SOL    HW219593   7.125  12.528  12.474
39857SOL     OW19594   6.625  12.270  11.868
39857SOL    HW119595   6.555  12.223  11.922
39857SOL    HW219596   6.684  12.202  11.825
39858SOL     OW19597   6.600  11.408  12.143
39858SOL    HW119598   6.592  11.372  12.050
39858SOL    HW219599   6.598  11.332  12.208
39859SOL     OW19600   6.176  12.659  11.663
39859SOL    HW119601   6.218  12.601  11.593
39859SOL    HW219602   6.132  12.738  11.619
39860SOL     OW19603   7.295  11.557  12.553
39860SOL    HW119604   7.368  11.626  12.557
39860SOL    HW219605   7.323  11.482  12.494
39861SOL     OW19606   5.841  12.520  11.462
39861SOL    HW119607   5.745  12.521  11.435
39861SOL    HW219608   5.853  12.573  11.546
39862SOL     OW19609   5.691  12.185  12.898
39862SOL    HW119610   5.614  12.152  12.952
39862SOL    HW219611   5.776  12.155  12.940
39863SOL     OW19612   6.258  11.375  12.661
39863SOL    HW119613   6.348  11.359  12.621
39863SOL    HW219614   6.266  11.380  12.760
39864SOL     OW19615   5.661  11.517  11.205
39864SOL    HW119616   5.569  11.489  11.176
39864SOL    HW219617   5.692  11.594  11.149
39865SOL     OW19618   7.026  12.028  12.570
39865SOL    HW119619   6.969  12.080  12.507
39865SOL    HW219620   7.122  12.040  12.546
39866SOL     OW19621   5.658  11.338  11.490
39866SOL    HW119622   5.641  11.421  11.436
39866SOL    HW219623   5.748  11.301  11.468
39867SOL     OW19624   6.769  12.507  11.291
39867SOL    HW119625   6.670  12.496  11.293
39867SOL    HW219626   6.803  12.522  11.384
39868SOL     OW19627   6.199  12.014  12.603
39868SOL    HW119628   6.255  12.095  12.586
39868SOL    HW219629   6.258  11.934  12.606
39869SOL     OW19630   6.302  11.737  12.880
39869SOL    HW119631   6.321  11.802  12.954
39869SOL    HW219632   6.362  11.657  12.889
39870SOL     OW19633   5.976  12.913  12.732
39870SOL    HW119634   5.885  12.954  12.730
39870SOL    HW219635   5.969  12.819  12.764
39871SOL     OW19636   7.260  12.055  12.426
39871SOL    HW119637   7.233  11.966  12.389
39871SOL    HW219638   7.261  12.123  12.353
39872SOL     OW19639   6.811  11.497  11.621
39872SOL    HW119640   6.876  11.423  11.610
39872SOL    HW219641   6.831  11.547  11.705
39873SOL     OW19642   6.180  11.917  11.824
39873SOL    HW119643   6.230  12.002  11.805
39873SOL    HW219644   6.092  11.919  11.776
39874SOL     OW19645   7.363  11.514  12.814
39874SOL    HW119646   7.346  11.545  12.720
39874SOL    HW219647   7.279  11.477  12.852
39875SOL     OW19648   7.316  12.106  12.689
39875SOL    HW119649   7.354  12.197  12.704
39875SOL    HW219650   7.308  12.089  12.590
39876SOL     OW19651   6.445  12.546  11.188
39876SOL    HW119652   6.399  12.561  11.276
39876SOL    HW219653   6.489  12.631  11.158
39877SOL     OW19654   6.669  12.156  11.259
39877SOL    HW119655   6.646  12.209  11.177
39877SOL    HW219656   6.750  12.100  11.240
39878SOL     OW19657   7.447  12.741  12.023
39878SOL    HW119658   7.376  12.729  11.953
39878SOL    HW219659   7.448  12.662  12.083
39879SOL     OW19660   5.665  12.412  11.825
39879SOL    HW119661   5.664  12.365  11.913
39879SOL    HW219662   5.747  12.384  11.774
39880SOL     OW19663   6.258  12.563  12.796
39880SOL    HW119664   6.180  12.513  12.834
39880SOL    HW219665   6.255  12.658  12.827
39881SOL     OW19666   7.410  11.364  12.399
39881SOL    HW119667   7.406  11.274  12.443
39881SOL    HW219668   7.413  11.353  12.300
39882SOL     OW19669   6.014  11.596  11.692
39882SOL    HW119670   6.044  11.524  11.630
39882SOL    HW219671   5.975  11.556  11.775
39883SOL     OW19672   7.291  12.659  12.276
39883SOL    HW119673   7.198  12.634  12.249
39883SOL    HW219674   7.317  12.609  12.358
39884SOL     OW19675   5.903  11.719  12.452
39884SOL    HW119676   5.941  11.660  12.524
39884SOL    HW219677   5.943  11.693  12.364
39885SOL     OW19678   7.010  11.386  12.284
39885SOL    HW119679   7.062  11.321  12.339
39885SOL    HW219680   6.961  11.449  12.345
39886SOL     OW19681   6.587  11.206  12.326
39886SOL    HW119682   6.524  11.134  12.295
39886SOL    HW219683   6.680  11.170  12.326
39887SOL     OW19684   6.356  12.502  11.473
39887SOL    HW119685   6.310  12.415  11.490
39887SOL    HW219686   6.447  12.499  11.514
39888SOL     OW19687   6.204  12.739  12.456
39888SOL    HW119688   6.199  12.821  12.513
39888SOL    HW219689   6.293  12.736  12.411
39889SOL     OW19690   6.938  11.224  11.340
39889SOL    HW119691   6.973  11.183  11.256
39889SOL    HW219692   6.848  11.186  11.360
39890SOL     OW19693   6.886  11.625  11.863
39890SOL    HW119694   6.827  11.705  11.867
39890SOL    HW219695   6.901  11.590  11.956
39891SOL     OW19696   7.179  11.393  12.054
39891SOL    HW119697   7.095  11.392  12.108
39891SOL    HW219698   7.181  11.476  11.998
39892SOL     OW19699   5.625  12.249  11.472
39892SOL    HW119700   5.724  12.238  11.463
39892SOL    HW219701   5.585  12.163  11.504
39893SOL     OW19702   7.678   0.628   0.113
39893SOL    HW119703   7.585   0.626   0.150
39893SOL    HW219704   7.679   0.589   0.021
39894SOL     OW19705   7.673   0.275   0.996
39894SOL    HW119706   7.708   0.258   1.088
39894SOL    HW219707   7.585   0.230   0.984
39895SOL     OW19708   7.467   0.368   0.647
39895SOL    HW119709   7.385   0.411   0.686
39895SOL    HW219710   7.439   0.295   0.584
39896SOL     OW19711   8.017   1.275   1.165
39896SOL    HW119712   7.924   1.268   1.128
39896SOL    HW219713   8.028   1.364   1.209
39897SOL     OW19714   9.003   1.511   0.703
39897SOL    HW119715   8.946   1.495   0.784
39897SOL    HW219716   8.944   1.521   0.623
39898SOL     OW19717   8.583   0.703   0.717
39898SOL    HW119718   8.640   0.781   0.692
39898SOL    HW219719   8.523   0.729   0.793
39899SOL     OW19720   9.203   0.607   0.231
39899SOL    HW119721   9.191   0.594   0.132
39899SOL    HW219722   9.173   0.526   0.280
39900SOL     OW19723   8.216   1.144   1.023
39900SOL    HW119724   8.138   1.161   1.083
39900SOL    HW219725   8.250   1.231   0.987
39901SOL     OW19726   8.298   0.798   1.823
39901SOL    HW119727   8.294   0.874   1.888
39901SOL    HW219728   8.320   0.834   1.732
39902SOL     OW19729   8.133   1.012   0.665
39902SOL    HW119730   8.202   0.996   0.735
39902SOL    HW219731   8.060   1.069   0.703
39903SOL     OW19732   8.134   1.161   1.803
39903SOL    HW119733   8.194   1.240   1.817
39903SOL    HW219734   8.048   1.192   1.762
39904SOL     OW19735   7.783   1.435   1.061
39904SOL    HW119736   7.705   1.404   1.008
39904SOL    HW219737   7.841   1.493   1.004
39905SOL     OW19738   8.908   1.505   1.339
39905SOL    HW119739   8.932   1.599   1.365
39905SOL    HW219740   8.892   1.451   1.421
39906SOL     OW19741   7.886   0.392   1.499
39906SOL    HW119742   7.968   0.336   1.508
39906SOL    HW219743   7.805   0.334   1.503
39907SOL     OW19744   9.051   0.447   0.737
39907SOL    HW119745   8.977   0.493   0.687
39907SOL    HW219746   9.102   0.515   0.790
39908SOL     OW19747   7.679   1.713   0.483
39908SOL    HW119748   7.713   1.790   0.537
39908SOL    HW219749   7.723   1.713   0.393
39909SOL     OW19750   8.575   1.341   1.690
39909SOL    HW119751   8.622   1.341   1.778
39909SOL    HW219752   8.527   1.254   1.679
39910SOL     OW19753   7.678   1.434   0.538
39910SOL    HW119754   7.652   1.530   0.538
39910SOL    HW219755   7.607   1.380   0.583
39911SOL     OW19756   7.688   1.091   0.886
39911SOL    HW119757   7.702   1.007   0.938
39911SOL    HW219758   7.633   1.155   0.941
39912SOL     OW19759   8.068   1.786   1.439
39912SOL    HW119760   7.976   1.769   1.474
39912SOL    HW219761   8.096   1.878   1.465
39913SOL     OW19762   8.054   0.964   0.123
39913SOL    HW119763   8.061   1.048   0.069
39913SOL    HW219764   8.100   0.977   0.211
39914SOL     OW19765   9.042   0.114   1.480
39914SOL    HW119766   9.024   0.181   1.408
39914SOL    HW219767   9.039   0.160   1.569
39915SOL     OW19768   7.570   0.643   0.563
39915SOL    HW119769   7.525   0.555   0.580
39915SOL    HW219770   7.569   0.697   0.647
39916SOL     OW19771   9.290   1.767   0.359
39916SOL    HW119772   9.344   1.738   0.439
39916SOL    HW219773   9.320   1.857   0.330
39917SOL     OW19774   7.475   1.596   0.117
39917SOL    HW119775   7.456   1.500   0.138
39917SOL    HW219776   7.442   1.654   0.192
39918SOL     OW19777   9.137   0.922   0.612
39918SOL    HW119778   9.232   0.893   0.620
39918SOL    HW219779   9.129   0.987   0.537
39919SOL     OW19780   9.089   1.108   0.432
39919SOL    HW119781   9.175   1.110   0.380
39919SOL    HW219782   9.103   1.155   0.520
39920SOL     OW19783   7.561   0.737   1.597
39920SOL    HW119784   7.649   0.724   1.642
39920SOL    HW219785   7.548   0.834   1.575
39921SOL     OW19786   8.061   1.365   0.726
39921SOL    HW119787   8.012   1.278   0.735
39921SOL    HW219788   8.038   1.408   0.639
39922SOL     OW19789   8.741   1.228   1.423
39922SOL    HW119790   8.778   1.155   1.365
39922SOL    HW219791   8.793   1.233   1.508
39923SOL     OW19792   8.257   0.004   0.502
39923SOL    HW119793   8.297   0.095   0.493
39923SOL    HW219794   8.157   0.012   0.508
39924SOL     OW19795   7.645   0.976   1.264
39924SOL    HW119796   7.734   0.931   1.250
39924SOL    HW219797   7.572   0.911   1.245
39925SOL     OW19798   8.973   0.999   0.190
39925SOL    HW119799   8.910   0.923   0.203
39925SOL    HW219800   9.021   1.017   0.276
39926SOL     OW19801   8.635   1.792   1.616
39926SOL    HW119802   8.659   1.852   1.540
39926SOL    HW219803   8.642   1.697   1.586
39927SOL     OW19804   7.765   0.251   1.801
39927SOL    HW119805   7.836   0.322   1.807
39927SOL    HW219806   7.677   0.290   1.829
39928SOL     OW19807   8.914   1.417   0.953
39928SOL    HW119808   8.855   1.423   1.033
39928SOL    HW219809   8.899   1.329   0.907
39929SOL     OW19810   9.115   1.714   0.572
39929SOL    HW119811   9.074   1.691   0.484
39929SOL    HW219812   9.097   1.640   0.637
39930SOL     OW19813   8.046   0.729   0.270
39930SOL    HW119814   8.070   0.798   0.202
39930SOL    HW219815   7.968   0.762   0.324
39931SOL     OW19816   8.729   0.345   0.944
39931SOL    HW119817   8.643   0.295   0.931
39931SOL    HW219818   8.791   0.291   1.000
39932SOL     OW19819   9.024   1.662   0.307
39932SOL    HW119820   9.113   1.708   0.310
39932SOL    HW219821   9.003   1.638   0.212
39933SOL     OW19822   8.255   0.605   1.465
39933SOL    HW119823   8.208   0.602   1.554
39933SOL    HW219824   8.204   0.550   1.399
39934SOL     OW19825   8.842   0.469   1.674
39934SOL    HW119826   8.822   0.512   1.762
39934SOL    HW219827   8.920   0.407   1.683
39935SOL     OW19828   8.421   0.890   1.572
39935SOL    HW119829   8.467   0.806   1.543
39935SOL    HW219830   8.365   0.924   1.497
39936SOL     OW19831   8.439   0.410   1.242
39936SOL    HW119832   8.362   0.444   1.296
39936SOL    HW219833   8.405   0.359   1.163
39937SOL     OW19834   8.489   0.701   0.429
39937SOL    HW119835   8.515   0.697   0.525
39937SOL    HW219836   8.404   0.650   0.415
39938SOL     OW19837   7.524   0.811   0.789
39938SOL    HW119838   7.623   0.799   0.798
39938SOL    HW219839   7.500   0.906   0.810
39939SOL     OW19840   7.578   1.821   1.571
39939SOL    HW119841   7.568   1.806   1.670
39939SOL    HW219842   7.492   1.857   1.535
39940SOL     OW19843   8.313   0.348   0.195
39940SOL    HW119844   8.372   0.411   0.146
39940SOL    HW219845   8.332   0.254   0.166
39941SOL     OW19846   9.167   0.585   1.831
39941SOL    HW119847   9.141   0.674   1.795
39941SOL    HW219848   9.165   0.517   1.758
39942SOL     OW19849   8.810   1.144   0.545
39942SOL    HW119850   8.893   1.115   0.497
39942SOL    HW219851   8.761   1.211   0.489
39943SOL     OW19852   7.998   0.196   0.885
39943SOL    HW119853   7.993   0.191   0.985
39943SOL    HW219854   8.000   0.292   0.856
39944SOL     OW19855   8.456   1.456   0.477
39944SOL    HW119856   8.410   1.528   0.425
39944SOL    HW219857   8.452   1.476   0.575
39945SOL     OW19858   7.799   1.801   0.853
39945SOL    HW119859   7.849   1.715   0.859
39945SOL    HW219860   7.864   1.878   0.850
39946SOL     OW19861   9.243   1.066   0.873
39946SOL    HW119862   9.181   1.051   0.797
39946SOL    HW219863   9.191   1.077   0.958
39947SOL     OW19864   8.675   1.550   1.506
39947SOL    HW119865   8.681   1.473   1.570
39947SOL    HW219866   8.623   1.524   1.426
39948SOL     OW19867   7.769   0.943   0.242
39948SOL    HW119868   7.851   0.982   0.200
39948SOL    HW219869   7.742   0.861   0.193
39949SOL     OW19870   8.906   0.735   0.728
39949SOL    HW119871   8.901   0.670   0.803
39949SOL    HW219872   8.986   0.794   0.741
39950SOL     OW19873   7.909   1.266   1.727
39950SOL    HW119874   7.859   1.267   1.641
39950SOL    HW219875   7.846   1.248   1.803
39951SOL     OW19876   8.559   1.776   0.237
39951SOL    HW119877   8.499   1.714   0.287
39951SOL    HW219878   8.590   1.732   0.152
39952SOL     OW19879   7.650   0.285   1.498
39952SOL    HW119880   7.570   0.345   1.485
39952SOL    HW219881   7.640   0.236   1.584
39953SOL     OW19882   9.080   1.377   0.081
39953SOL    HW119883   9.048   1.471   0.071
39953SOL    HW219884   9.004   1.314   0.069
39954SOL     OW19885   7.912   1.743   0.323
39954SOL    HW119886   7.945   1.782   0.409
39954SOL    HW219887   7.988   1.736   0.258
39955SOL     OW19888   8.848   0.107   0.426
39955SOL    HW119889   8.824   0.070   0.336
39955SOL    HW219890   8.947   0.123   0.430
39956SOL     OW19891   7.697   1.785   1.241
39956SOL    HW119892   7.754   1.720   1.291
39956SOL    HW219893   7.681   1.752   1.148
39957SOL     OW19894   8.388   1.698   0.904
39957SOL    HW119895   8.468   1.641   0.925
39957SOL    HW219896   8.339   1.658   0.827
39958SOL     OW19897   7.830   0.700   0.480
39958SOL    HW119898   7.875   0.610   0.477
39958SOL    HW219899   7.736   0.689   0.513
39959SOL     OW19900   8.995   0.222   1.729
39959SOL    HW119901   8.990   0.259   1.821
39959SOL    HW219902   8.923   0.153   1.717
39960SOL     OW19903   8.062   0.122   0.117
39960SOL    HW119904   8.160   0.100   0.124
39960SOL    HW219905   8.031   0.105   0.024
39961SOL     OW19906   8.229   0.264   1.749
39961SOL    HW119907   8.296   0.203   1.792
39961SOL    HW219908   8.156   0.283   1.814
39962SOL     OW19909   8.336   1.514   1.195
39962SOL    HW119910   8.313   1.489   1.101
39962SOL    HW219911   8.397   1.445   1.234
39963SOL     OW19912   8.799   0.590   1.433
39963SOL    HW119913   8.827   0.547   1.518
39963SOL    HW219914   8.824   0.686   1.434
39964SOL     OW19915   8.251   1.402   0.924
39964SOL    HW119916   8.341   1.416   0.882
39964SOL    HW219917   8.180   1.404   0.853
39965SOL     OW19918   8.370   0.503   0.899
39965SOL    HW119919   8.345   0.494   0.803
39965SOL    HW219920   8.418   0.421   0.930
39966SOL     OW19921   7.987   0.064   0.512
39966SOL    HW119922   7.906   0.065   0.570
39966SOL    HW219923   7.990   0.147   0.457
39967SOL     OW19924   8.882   1.188   0.041
39967SOL    HW119925   8.914   1.112   0.098
39967SOL    HW219926   8.790   1.215   0.071
39968SOL     OW19927   7.745   0.035   0.171
39968SOL    HW119928   7.794   0.119   0.150
39968SOL    HW219929   7.807  -0.030   0.216
39969SOL     OW19930   8.383   0.236   0.480
39969SOL    HW119931   8.335   0.277   0.402
39969SOL    HW219932   8.482   0.234   0.461
39970SOL     OW19933   8.524   0.683   1.464
39970SOL    HW119934   8.444   0.622   1.467
39970SOL    HW219935   8.605   0.630   1.440
39971SOL     OW19936   8.675   1.570   0.793
39971SOL    HW119937   8.696   1.644   0.728
39971SOL    HW219938   8.743   1.570   0.866
39972SOL     OW19939   7.907   1.152   0.741
39972SOL    HW119940   7.836   1.125   0.806
39972SOL    HW219941   7.881   1.124   0.648
39973SOL     OW19942   8.719   1.797   0.591
39973SOL    HW119943   8.763   1.861   0.527
39973SOL    HW219944   8.669   1.849   0.661
39974SOL     OW19945   8.480   0.549   0.016
39974SOL    HW119946   8.439   0.631  -0.023
39974SOL    HW219947   8.544   0.575   0.089
39975SOL     OW19948   7.526   0.556   1.386
39975SOL    HW119949   7.618   0.555   1.345
39975SOL    HW219950   7.520   0.630   1.453
39976SOL     OW19951   8.009   0.222   1.147
39976SOL    HW119952   8.047   0.138   1.184
39976SOL    HW219953   7.921   0.241   1.191
39977SOL     OW19954   8.314   0.454   0.642
39977SOL    HW119955   8.282   0.526   0.580
39977SOL    HW219956   8.338   0.373   0.589
39978SOL     OW19957   8.465   0.039   0.753
39978SOL    HW119958   8.393   0.044   0.684
39978SOL    HW219959   8.441  -0.030   0.822
39979SOL     OW19960   8.877   1.173   0.867
39979SOL    HW119961   8.822   1.089   0.860
39979SOL    HW219962   8.903   1.202   0.775
39980SOL     OW19963   8.914   0.590   0.992
39980SOL    HW119964   8.884   0.495   0.999
39980SOL    HW219965   8.987   0.606   1.058
39981SOL     OW19966   9.305   0.833   0.377
39981SOL    HW119967   9.347   0.769   0.441
39981SOL    HW219968   9.267   0.782   0.299
39982SOL     OW19969   7.936   1.385   0.174
39982SOL    HW119970   7.849   1.370   0.221
39982SOL    HW219971   7.919   1.411   0.079
39983SOL     OW19972   9.112   1.280   0.657
39983SOL    HW119973   9.211   1.288   0.671
39983SOL    HW219974   9.067   1.364   0.688
39984SOL     OW19975   8.838   0.575   0.078
39984SOL    HW119976   8.784   0.554   0.159
39984SOL    HW219977   8.929   0.534   0.087
39985SOL     OW19978   7.975   0.256   0.328
39985SOL    HW119979   8.002   0.197   0.253
39985SOL    HW219980   7.975   0.351   0.297
39986SOL     OW19981   9.202   1.223   1.588
39986SOL    HW119982   9.293   1.184   1.575
39986SOL    HW219983   9.210   1.319   1.612
39987SOL     OW19984   8.512   1.347   1.340
39987SOL    HW119985   8.432   1.324   1.395
39987SOL    HW219986   8.595   1.321   1.389
39988SOL     OW19987   9.040   1.629   1.625
39988SOL    HW119988   9.067   1.663   1.535
39988SOL    HW219989   9.119   1.591   1.671
39989SOL     OW19990   8.559   1.195   1.100
39989SOL    HW119991   8.519   1.239   1.181
39989SOL    HW219992   8.518   1.232   1.017
39990SOL     OW19993   9.086   1.099   1.079
39990SOL    HW119994   9.091   1.180   1.138
39990SOL    HW219995   9.000   1.101   1.028
39991SOL     OW19996   8.363   0.089   1.402
39991SOL    HW119997   8.388   0.069   1.307
39991SOL    HW219998   8.435   0.145   1.444
39992SOL     OW19999   8.428   1.116   1.719
39992SOL    HW120000   8.329   1.122   1.729
39992SOL    HW220001   8.451   1.036   1.663
39993SOL     OW20002   8.153   1.050   0.368
39993SOL    HW120003   8.139   1.057   0.467
39993SOL    HW220004   8.237   0.999   0.350
39994SOL     OW20005   7.858   0.813   1.251
39994SOL    HW120006   7.944   0.825   1.301
39994SOL    HW220007   7.816   0.726   1.278
39995SOL     OW20008   8.722   0.386   1.262
39995SOL    HW120009   8.743   0.460   1.326
39995SOL    HW220010   8.633   0.403   1.219
39996SOL     OW20011   7.512   1.564   1.331
39996SOL    HW120012   7.466   1.646   1.297
39996SOL    HW220013   7.610   1.583   1.340
39997SOL     OW20014   7.815   1.100   0.501
39997SOL    HW120015   7.808   1.183   0.445
39997SOL    HW220016   7.819   1.020   0.441
39998SOL     OW20017   8.014   0.537   0.865
39998SOL    HW120018   8.026   0.603   0.791
39998SOL    HW220019   8.060   0.571   0.948
39999SOL     OW20020   8.700   1.348   0.388
39999SOL    HW120021   8.750   1.425   0.428
39999SOL    HW220022   8.605   1.350   0.420
40000SOL     OW20023   8.720   1.445   1.142
40000SOL    HW120024   8.767   1.458   1.229
40000SOL    HW220025   8.654   1.371   1.151
40001SOL     OW20026   9.030   0.639   0.472
40001SOL    HW120027   8.999   0.700   0.545
40001SOL    HW220028   9.080   0.691   0.403
40002SOL     OW20029   7.802   1.510   1.329
40002SOL    HW120030   7.781   1.466   1.242
40002SOL    HW220031   7.899   1.536   1.332
40003SOL     OW20032   7.850   0.751   1.598
40003SOL    HW120033   7.918   0.806   1.551
40003SOL    HW220034   7.890   0.663   1.625
40004SOL     OW20035   9.035   0.779   1.670
40004SOL    HW120036   8.943   0.817   1.665
40004SOL    HW220037   9.095   0.826   1.605
40005SOL     OW20038   8.461   0.105   1.770
40005SOL    HW120039   8.467   0.190   1.718
40005SOL    HW220040   8.493   0.029   1.713
40006SOL     OW20041   7.952   0.050   1.740
40006SOL    HW120042   7.910  -0.007   1.670
40006SOL    HW220043   7.886   0.119   1.772
40007SOL     OW20044   8.021   0.870   1.029
40007SOL    HW120045   8.065   0.959   1.020
40007SOL    HW220046   7.958   0.870   1.106
40008SOL     OW20047   8.808   0.862   1.045
40008SOL    HW120048   8.733   0.862   0.979
40008SOL    HW220049   8.845   0.770   1.054
40009SOL     OW20050   8.657   0.525   0.275
40009SOL    HW120051   8.670   0.441   0.329
40009SOL    HW220052   8.628   0.599   0.335
40010SOL     OW20053   7.755   0.213   1.231
40010SOL    HW120054   7.732   0.250   1.321
40010SOL    HW220055   7.725   0.118   1.225
40011SOL     OW20056   7.485   1.310   1.282
40011SOL    HW120057   7.538   1.261   1.350
40011SOL    HW220058   7.507   1.408   1.287
40012SOL     OW20059   8.180   0.634   1.064
40012SOL    HW120060   8.239   0.608   0.988
40012SOL    HW220061   8.152   0.730   1.053
40013SOL     OW20062   9.176   0.935   1.854
40013SOL    HW120063   9.130   0.928   1.765
40013SOL    HW220064   9.114   0.979   1.920
40014SOL     OW20065   7.755   0.063   0.618
40014SOL    HW120066   7.744   0.157   0.651
40014SOL    HW220067   7.750   0.000   0.695
40015SOL     OW20068   9.070   0.367   0.374
40015SOL    HW120069   9.072   0.291   0.438
40015SOL    HW220070   9.022   0.444   0.414
40016SOL     OW20071   8.471   0.766   0.966
40016SOL    HW120072   8.486   0.787   1.062
40016SOL    HW220073   8.441   0.671   0.957
40017SOL     OW20074   8.428   1.573   1.700
40017SOL    HW120075   8.408   1.617   1.612
40017SOL    HW220076   8.467   1.482   1.684
40018SOL     OW20077   9.307   1.518   1.605
40018SOL    HW120078   9.321   1.545   1.510
40018SOL    HW220079   9.390   1.540   1.658
40019SOL     OW20080   7.798   0.898   1.804
40019SOL    HW120081   7.874   0.942   1.852
40019SOL    HW220082   7.833   0.851   1.722
40020SOL     OW20083   8.988   0.274   0.125
40020SOL    HW120084   8.927   0.199   0.148
40020SOL    HW220085   9.010   0.326   0.208
40021SOL     OW20086   8.751   0.838   0.042
40021SOL    HW120087   8.785   0.745   0.057
40021SOL    HW220088   8.769   0.865  -0.053
40022SOL     OW20089   8.516   1.333   0.849
40022SOL    HW120090   8.523   1.249   0.794
40022SOL    HW220091   8.578   1.402   0.813
40023SOL     OW20092   7.767   0.810   0.949
40023SOL    HW120093   7.860   0.846   0.954
40023SOL    HW220094   7.761   0.725   1.001
40024SOL     OW20095   7.787   0.509   1.006
40024SOL    HW120096   7.735   0.426   0.989
40024SOL    HW220097   7.864   0.514   0.942
40025SOL     OW20098   8.586   0.380   1.678
40025SOL    HW120099   8.541   0.443   1.742
40025SOL    HW220100   8.679   0.411   1.661
40026SOL     OW20101   8.608   0.207   1.477
40026SOL    HW120102   8.608   0.271   1.554
40026SOL    HW220103   8.636   0.255   1.394
40027SOL     OW20104   7.456   1.326   0.200
40027SOL    HW120105   7.363   1.347   0.169
40027SOL    HW220106   7.466   1.227   0.213
40028SOL     OW20107   7.536   1.801   0.927
40028SOL    HW120108   7.494   1.715   0.900
40028SOL    HW220109   7.630   1.804   0.893
40029SOL     OW20110   7.952   1.568   0.910
40029SOL    HW120111   8.018   1.642   0.919
40029SOL    HW220112   7.996   1.489   0.868
40030SOL     OW20113   8.450   0.796   1.238
40030SOL    HW120114   8.491   0.764   1.324
40030SOL    HW220115   8.354   0.769   1.235
40031SOL     OW20116   7.488   0.544   1.114
40031SOL    HW120117   7.573   0.511   1.073
40031SOL    HW220118   7.501   0.559   1.212
40032SOL     OW20119   7.637   0.520   1.722
40032SOL    HW120120   7.696   0.480   1.652
40032SOL    HW220121   7.579   0.591   1.681
40033SOL     OW20122   8.817   0.950   1.660
40033SOL    HW120123   8.856   1.039   1.680
40033SOL    HW220124   8.827   0.930   1.563
40034SOL     OW20125   8.263   0.572   0.325
40034SOL    HW120126   8.270   0.483   0.279
40034SOL    HW220127   8.169   0.606   0.317
40035SOL     OW20128   9.105   0.604   1.206
40035SOL    HW120129   9.067   0.535   1.268
40035SOL    HW220130   9.187   0.568   1.162
40036SOL     OW20131   7.700   1.564   1.744
40036SOL    HW120132   7.670   1.621   1.820
40036SOL    HW220133   7.693   1.467   1.770
40037SOL     OW20134   8.119   0.464   1.269
40037SOL    HW120135   8.085   0.375   1.239
40037SOL    HW220136   8.145   0.518   1.189
40038SOL     OW20137   8.378   1.678   1.465
40038SOL    HW120138   8.354   1.660   1.370
40038SOL    HW220139   8.408   1.772   1.475
40039SOL     OW20140   7.921   0.500   0.191
40039SOL    HW120141   7.982   0.580   0.195
40039SOL    HW220142   7.826   0.531   0.198
40040SOL     OW20143   7.607   1.137   1.466
40040SOL    HW120144   7.629   1.076   1.542
40040SOL    HW220145   7.617   1.088   1.380
40041SOL     OW20146   8.795   1.059   1.234
40041SOL    HW120147   8.819   0.996   1.160
40041SOL    HW220148   8.705   1.099   1.216
40042SOL     OW20149   8.750   0.855   0.309
40042SOL    HW120150   8.664   0.824   0.351
40042SOL    HW220151   8.746   0.841   0.210
40043SOL     OW20152   9.207   1.747   1.154
40043SOL    HW120153   9.268   1.777   1.081
40043SOL    HW220154   9.169   1.658   1.132
40044SOL     OW20155   8.700   1.731   1.128
40044SOL    HW120156   8.784   1.736   1.074
40044SOL    HW220157   8.677   1.635   1.146
40045SOL     OW20158   7.531   1.258   1.022
40045SOL    HW120159   7.526   1.257   1.122
40045SOL    HW220160   7.448   1.217   0.984
40046SOL     OW20161   8.136   1.662   1.716
40046SOL    HW120162   8.080   1.743   1.725
40046SOL    HW220163   8.188   1.666   1.630
40047SOL     OW20164   8.351   0.086   0.133
40047SOL    HW120165   8.402   0.087   0.047
40047SOL    HW220166   8.407   0.044   0.204
40048SOL     OW20167   9.174   0.135   0.523
40048SOL    HW120168   9.247   0.118   0.456
40048SOL    HW220169   9.143   0.048   0.561
40049SOL     OW20170   8.836   1.573   0.477
40049SOL    HW120171   8.903   1.585   0.403
40049SOL    HW220172   8.796   1.662   0.500
40050SOL     OW20173   7.578   1.794   1.851
40050SOL    HW120174   7.537   1.720   1.904
40050SOL    HW220175   7.642   1.845   1.909
40051SOL     OW20176   8.728   0.927   0.672
40051SOL    HW120177   8.788   0.846   0.674
40051SOL    HW220178   8.768   0.996   0.612
40052SOL     OW20179   8.278   1.273   1.422
40052SOL    HW120180   8.273   1.306   1.517
40052SOL    HW220181   8.192   1.292   1.376
40053SOL     OW20182   8.120   1.616   0.154
40053SOL    HW120183   8.129   1.626   0.055
40053SOL    HW220184   8.080   1.527   0.175
40054SOL     OW20185   9.098   1.720   1.394
40054SOL    HW120186   9.151   1.730   1.310
40054SOL    HW220187   9.071   1.810   1.428
40055SOL     OW20188   9.289   0.175   0.963
40055SOL    HW120189   9.328   0.090   0.927
40055SOL    HW220190   9.191   0.177   0.944
40056SOL     OW20191   7.711   0.326   0.720
40056SOL    HW120192   7.632   0.377   0.686
40056SOL    HW220193   7.702   0.311   0.818
40057SOL     OW20194   8.642   1.612   0.031
40057SOL    HW120195   8.648   1.519   0.068
40057SOL    HW220196   8.583   1.612  -0.049
40058SOL     OW20197   8.270   1.002   1.372
40058SOL    HW120198   8.310   1.001   1.280
40058SOL    HW220199   8.280   1.094   1.412
40059SOL     OW20200   8.364   0.910   0.291
40059SOL    HW120201   8.427   0.948   0.223
40059SOL    HW220202   8.404   0.827   0.330
40060SOL     OW20203   8.952   1.607   0.044
40060SOL    HW120204   8.860   1.644   0.051
40060SOL    HW220205   8.990   1.627  -0.046
40061SOL     OW20206   7.820   1.288   1.490
40061SOL    HW120207   7.807   1.381   1.456
40061SOL    HW220208   7.736   1.236   1.477
40062SOL     OW20209   9.062   1.292   1.289
40062SOL    HW120210   9.122   1.295   1.369
40062SOL    HW220211   8.987   1.356   1.302
40063SOL     OW20212   8.487   1.098   0.696
40063SOL    HW120213   8.417   1.051   0.750
40063SOL    HW220214   8.546   1.030   0.653
40064SOL     OW20215   8.462   0.236   0.971
40064SOL    HW120216   8.454   0.200   0.878
40064SOL    HW220217   8.460   0.160   1.036
40065SOL     OW20218   8.038   1.487   0.491
40065SOL    HW120219   8.080   1.429   0.421
40065SOL    HW220220   7.994   1.566   0.447
40066SOL     OW20221   9.157   0.385   1.381
40066SOL    HW120222   9.230   0.454   1.385
40066SOL    HW220223   9.185   0.310   1.322
40067SOL     OW20224   7.703   1.348   0.290
40067SOL    HW120225   7.607   1.349   0.263
40067SOL    HW220226   7.715   1.401   0.374
40068SOL     OW20227   7.553   1.013   1.726
40068SOL    HW120228   7.476   0.980   1.780
40068SOL    HW220229   7.638   0.983   1.768
40069SOL     OW20230   8.120   0.203   1.489
40069SOL    HW120231   8.210   0.187   1.449
40069SOL    HW220232   8.128   0.208   1.588
40070SOL     OW20233   8.888   0.856   1.398
40070SOL    HW120234   8.831   0.908   1.335
40070SOL    HW220235   8.984   0.868   1.374
40071SOL     OW20236   7.520   0.166   0.318
40071SOL    HW120237   7.503   0.249   0.264
40071SOL    HW220238   7.610   0.129   0.296
40072SOL     OW20239   8.631   1.335   0.119
40072SOL    HW120240   8.532   1.324   0.121
40072SOL    HW220241   8.665   1.350   0.212
40073SOL     OW20242   8.061   0.842   1.431
40073SOL    HW120243   8.117   0.923   1.414
40073SOL    HW220244   8.120   0.762   1.434
40074SOL     OW20245   8.941   1.767   0.959
40074SOL    HW120246   8.974   1.831   0.890
40074SOL    HW220247   9.007   1.761   1.034
40075SOL     OW20248   8.164   0.565   1.708
40075SOL    HW120249   8.183   0.630   1.782
40075SOL    HW220250   8.224   0.485   1.717
40076SOL     OW20251   8.898   1.220   1.633
40076SOL    HW120252   8.889   1.210   1.732
40076SOL    HW220253   8.994   1.213   1.607
40077SOL     OW20254   7.838   1.741   1.560
40077SOL    HW120255   7.747   1.782   1.558
40077SOL    HW220256   7.831   1.647   1.592
40078SOL     OW20257   9.122   0.883   1.254
40078SOL    HW120258   9.095   0.794   1.217
40078SOL    HW220259   9.123   0.951   1.181
40079SOL     OW20260   8.673   0.325   0.449
40079SOL    HW120261   8.738   0.251   0.438
40079SOL    HW220262   8.693   0.375   0.533
40080SOL     OW20263   8.042   0.745   0.652
40080SOL    HW120264   8.092   0.830   0.633
40080SOL    HW220265   7.954   0.747   0.604
40081SOL     OW20266   9.225   0.342   1.642
40081SOL    HW120267   9.208   0.373   1.548
40081SOL    HW220268   9.141   0.305   1.680
40082SOL     OW20269   9.178   0.934   1.517
40082SOL    HW120270   9.216   1.025   1.532
40082SOL    HW220271   9.170   0.917   1.418
40083SOL     OW20272   8.307   1.374   0.016
40083SOL    HW120273   8.261   1.389   0.104
40083SOL    HW220274   8.351   1.459  -0.014
40084SOL     OW20275   8.109   1.790   0.953
40084SOL    HW120276   8.063   1.878   0.940
40084SOL    HW220277   8.208   1.802   0.946
40085SOL     OW20278   8.307   0.956   0.861
40085SOL    HW120279   8.361   0.887   0.909
40085SOL    HW220280   8.275   1.025   0.927
40086SOL     OW20281   8.531   0.984   0.087
40086SOL    HW120282   8.508   1.037   0.005
40086SOL    HW220283   8.612   0.928   0.068
40087SOL     OW20284   9.309   1.569   0.851
40087SOL    HW120285   9.238   1.557   0.781
40087SOL    HW220286   9.310   1.490   0.911
40088SOL     OW20287   7.669   1.314   1.844
40088SOL    HW120288   7.604   1.241   1.823
40088SOL    HW220289   7.673   1.328   1.942
40089SOL     OW20290   7.527   1.240   0.653
40089SOL    HW120291   7.526   1.193   0.741
40089SOL    HW220292   7.609   1.212   0.602
40090SOL     OW20293   8.120   1.391   1.624
40090SOL    HW120294   8.042   1.341   1.662
40090SOL    HW220295   8.117   1.486   1.655
40091SOL     OW20296   9.272   0.192   1.227
40091SOL    HW120297   9.268   0.102   1.271
40091SOL    HW220298   9.275   0.181   1.128
40092SOL     OW20299   7.876   0.424   0.520
40092SOL    HW120300   7.906   0.352   0.458
40092SOL    HW220301   7.837   0.384   0.603
40093SOL     OW20302   9.153   1.487   1.104
40093SOL    HW120303   9.060   1.462   1.077
40093SOL    HW220304   9.179   1.437   1.186
40094SOL     OW20305   7.765   0.547   1.280
40094SOL    HW120306   7.803   0.488   1.352
40094SOL    HW220307   7.805   0.521   1.192
40095SOL     OW20308   8.260   1.586   0.687
40095SOL    HW120309   8.292   1.596   0.593
40095SOL    HW220310   8.181   1.524   0.689
40096SOL     OW20311   8.872   0.214   1.112
40096SOL    HW120312   8.924   0.149   1.167
40096SOL    HW220313   8.823   0.277   1.173
40097SOL     OW20314   8.449   0.034   1.154
40097SOL    HW120315   8.386  -0.038   1.123
40097SOL    HW220316   8.542  -0.002   1.154
40098SOL     OW20317   8.218   1.330   0.301
40098SOL    HW120318   8.172   1.243   0.318
40098SOL    HW220319   8.309   1.327   0.342
40099SOL     OW20320   8.066   1.567   1.284
40099SOL    HW120321   8.061   1.649   1.341
40099SOL    HW220322   8.155   1.564   1.239
40100SOL     OW20323   8.800   0.052   0.168
40100SOL    HW120324   8.835   0.011   0.084
40100SOL    HW220325   8.710   0.014   0.188
40101SOL     OW20326   8.748   0.453   0.691
40101SOL    HW120327   8.689   0.533   0.695
40101SOL    HW220328   8.763   0.418   0.784
40102SOL     OW20329   9.041   0.221   0.882
40102SOL    HW120330   8.957   0.220   0.936
40102SOL    HW220331   9.043   0.304   0.826
40103SOL     OW20332   7.487   1.077   0.300
40103SOL    HW120333   7.586   1.066   0.291
40103SOL    HW220334   7.447   0.991   0.332
40104SOL     OW20335   8.323   1.646   0.337
40104SOL    HW120336   8.246   1.611   0.283
40104SOL    HW220337   8.291   1.717   0.399
40105SOL     OW20338   7.678   0.628   1.975
40105SOL    HW120339   7.585   0.626   2.012
40105SOL    HW220340   7.679   0.589   1.883
40106SOL     OW20341   7.673   0.275   2.858
40106SOL    HW120342   7.708   0.258   2.950
40106SOL    HW220343   7.585   0.230   2.846
40107SOL     OW20344   7.467   0.368   2.509
40107SOL    HW120345   7.385   0.411   2.548
40107SOL    HW220346   7.439   0.295   2.446
40108SOL     OW20347   8.017   1.275   3.027
40108SOL    HW120348   7.924   1.268   2.990
40108SOL    HW220349   8.028   1.364   3.071
40109SOL     OW20350   9.003   1.511   2.565
40109SOL    HW120351   8.946   1.495   2.646
40109SOL    HW220352   8.944   1.521   2.485
40110SOL     OW20353   8.583   0.703   2.579
40110SOL    HW120354   8.640   0.781   2.554
40110SOL    HW220355   8.523   0.729   2.655
40111SOL     OW20356   9.203   0.607   2.093
40111SOL    HW120357   9.191   0.594   1.994
40111SOL    HW220358   9.173   0.526   2.142
40112SOL     OW20359   8.216   1.144   2.885
40112SOL    HW120360   8.138   1.161   2.945
40112SOL    HW220361   8.250   1.231   2.849
40113SOL     OW20362   8.298   0.798   3.685
40113SOL    HW120363   8.294   0.874   3.750
40113SOL    HW220364   8.320   0.834   3.594
40114SOL     OW20365   8.133   1.012   2.527
40114SOL    HW120366   8.202   0.996   2.597
40114SOL    HW220367   8.060   1.069   2.565
40115SOL     OW20368   8.134   1.161   3.665
40115SOL    HW120369   8.194   1.240   3.679
40115SOL    HW220370   8.048   1.192   3.624
40116SOL     OW20371   7.783   1.435   2.923
40116SOL    HW120372   7.705   1.404   2.870
40116SOL    HW220373   7.841   1.493   2.866
40117SOL     OW20374   8.908   1.505   3.201
40117SOL    HW120375   8.932   1.599   3.227
40117SOL    HW220376   8.892   1.451   3.283
40118SOL     OW20377   7.886   0.392   3.361
40118SOL    HW120378   7.968   0.336   3.370
40118SOL    HW220379   7.805   0.334   3.365
40119SOL     OW20380   9.051   0.447   2.599
40119SOL    HW120381   8.977   0.493   2.549
40119SOL    HW220382   9.102   0.515   2.652
40120SOL     OW20383   7.679   1.713   2.345
40120SOL    HW120384   7.713   1.790   2.399
40120SOL    HW220385   7.723   1.713   2.255
40121SOL     OW20386   8.575   1.341   3.552
40121SOL    HW120387   8.622   1.341   3.640
40121SOL    HW220388   8.527   1.254   3.541
40122SOL     OW20389   7.678   1.434   2.400
40122SOL    HW120390   7.652   1.530   2.400
40122SOL    HW220391   7.607   1.380   2.445
40123SOL     OW20392   7.688   1.091   2.748
40123SOL    HW120393   7.702   1.007   2.800
40123SOL    HW220394   7.633   1.155   2.803
40124SOL     OW20395   8.068   1.786   3.301
40124SOL    HW120396   7.976   1.769   3.336
40124SOL    HW220397   8.096   1.878   3.327
40125SOL     OW20398   8.054   0.964   1.985
40125SOL    HW120399   8.061   1.048   1.931
40125SOL    HW220400   8.100   0.977   2.073
40126SOL     OW20401   9.042   0.114   3.342
40126SOL    HW120402   9.024   0.181   3.270
40126SOL    HW220403   9.039   0.160   3.431
40127SOL     OW20404   7.570   0.643   2.425
40127SOL    HW120405   7.525   0.555   2.442
40127SOL    HW220406   7.569   0.697   2.509
40128SOL     OW20407   9.290   1.767   2.221
40128SOL    HW120408   9.344   1.738   2.301
40128SOL    HW220409   9.320   1.857   2.192
40129SOL     OW20410   7.475   1.596   1.979
40129SOL    HW120411   7.456   1.500   2.000
40129SOL    HW220412   7.442   1.654   2.054
40130SOL     OW20413   9.137   0.922   2.474
40130SOL    HW120414   9.232   0.893   2.482
40130SOL    HW220415   9.129   0.987   2.399
40131SOL     OW20416   9.089   1.108   2.294
40131SOL    HW120417   9.175   1.110   2.242
40131SOL    HW220418   9.103   1.155   2.382
40132SOL     OW20419   7.561   0.737   3.459
40132SOL    HW120420   7.649   0.724   3.504
40132SOL    HW220421   7.548   0.834   3.437
40133SOL     OW20422   8.061   1.365   2.588
40133SOL    HW120423   8.012   1.278   2.597
40133SOL    HW220424   8.038   1.408   2.501
40134SOL     OW20425   8.741   1.228   3.285
40134SOL    HW120426   8.778   1.155   3.227
40134SOL    HW220427   8.793   1.233   3.370
40135SOL     OW20428   8.257   0.004   2.364
40135SOL    HW120429   8.297   0.095   2.355
40135SOL    HW220430   8.157   0.012   2.370
40136SOL     OW20431   7.645   0.976   3.126
40136SOL    HW120432   7.734   0.931   3.112
40136SOL    HW220433   7.572   0.911   3.107
40137SOL     OW20434   8.973   0.999   2.052
40137SOL    HW120435   8.910   0.923   2.065
40137SOL    HW220436   9.021   1.017   2.138
40138SOL     OW20437   8.635   1.792   3.478
40138SOL    HW120438   8.659   1.852   3.402
40138SOL    HW220439   8.642   1.697   3.448
40139SOL     OW20440   7.765   0.251   3.663
40139SOL    HW120441   7.836   0.322   3.669
40139SOL    HW220442   7.677   0.290   3.691
40140SOL     OW20443   8.914   1.417   2.815
40140SOL    HW120444   8.855   1.423   2.895
40140SOL    HW220445   8.899   1.329   2.769
40141SOL     OW20446   9.115   1.714   2.434
40141SOL    HW120447   9.074   1.691   2.346
40141SOL    HW220448   9.097   1.640   2.499
40142SOL     OW20449   8.046   0.729   2.132
40142SOL    HW120450   8.070   0.798   2.064
40142SOL    HW220451   7.968   0.762   2.186
40143SOL     OW20452   8.729   0.345   2.806
40143SOL    HW120453   8.643   0.295   2.793
40143SOL    HW220454   8.791   0.291   2.862
40144SOL     OW20455   9.024   1.662   2.169
40144SOL    HW120456   9.113   1.708   2.172
40144SOL    HW220457   9.003   1.638   2.074
40145SOL     OW20458   8.255   0.605   3.327
40145SOL    HW120459   8.208   0.602   3.416
40145SOL    HW220460   8.204   0.550   3.261
40146SOL     OW20461   8.842   0.469   3.536
40146SOL    HW120462   8.822   0.512   3.624
40146SOL    HW220463   8.920   0.407   3.545
40147SOL     OW20464   8.421   0.890   3.434
40147SOL    HW120465   8.467   0.806   3.405
40147SOL    HW220466   8.365   0.924   3.359
40148SOL     OW20467   8.439   0.410   3.104
40148SOL    HW120468   8.362   0.444   3.158
40148SOL    HW220469   8.405   0.359   3.025
40149SOL     OW20470   8.489   0.701   2.291
40149SOL    HW120471   8.515   0.697   2.387
40149SOL    HW220472   8.404   0.650   2.277
40150SOL     OW20473   7.524   0.811   2.651
40150SOL    HW120474   7.623   0.799   2.660
40150SOL    HW220475   7.500   0.906   2.672
40151SOL     OW20476   7.578   1.821   3.433
40151SOL    HW120477   7.568   1.806   3.532
40151SOL    HW220478   7.492   1.857   3.397
40152SOL     OW20479   8.313   0.348   2.057
40152SOL    HW120480   8.372   0.411   2.008
40152SOL    HW220481   8.332   0.254   2.028
40153SOL     OW20482   9.167   0.585   3.693
40153SOL    HW120483   9.141   0.674   3.657
40153SOL    HW220484   9.165   0.517   3.620
40154SOL     OW20485   8.810   1.144   2.407
40154SOL    HW120486   8.893   1.115   2.359
40154SOL    HW220487   8.761   1.211   2.351
40155SOL     OW20488   7.998   0.196   2.747
40155SOL    HW120489   7.993   0.191   2.847
40155SOL    HW220490   8.000   0.292   2.718
40156SOL     OW20491   8.456   1.456   2.339
40156SOL    HW120492   8.410   1.528   2.287
40156SOL    HW220493   8.452   1.476   2.437
40157SOL     OW20494   7.799   1.801   2.715
40157SOL    HW120495   7.849   1.715   2.721
40157SOL    HW220496   7.864   1.878   2.712
40158SOL     OW20497   9.243   1.066   2.735
40158SOL    HW120498   9.181   1.051   2.659
40158SOL    HW220499   9.191   1.077   2.820
40159SOL     OW20500   8.675   1.550   3.368
40159SOL    HW120501   8.681   1.473   3.432
40159SOL    HW220502   8.623   1.524   3.288
40160SOL     OW20503   7.769   0.943   2.104
40160SOL    HW120504   7.851   0.982   2.062
40160SOL    HW220505   7.742   0.861   2.055
40161SOL     OW20506   8.906   0.735   2.590
40161SOL    HW120507   8.901   0.670   2.665
40161SOL    HW220508   8.986   0.794   2.603
40162SOL     OW20509   7.909   1.266   3.589
40162SOL    HW120510   7.859   1.267   3.503
40162SOL    HW220511   7.846   1.248   3.665
40163SOL     OW20512   8.559   1.776   2.099
40163SOL    HW120513   8.499   1.714   2.149
40163SOL    HW220514   8.590   1.732   2.014
40164SOL     OW20515   7.650   0.285   3.360
40164SOL    HW120516   7.570   0.345   3.347
40164SOL    HW220517   7.640   0.236   3.446
40165SOL     OW20518   9.080   1.377   1.943
40165SOL    HW120519   9.048   1.471   1.933
40165SOL    HW220520   9.004   1.314   1.931
40166SOL     OW20521   7.912   1.743   2.185
40166SOL    HW120522   7.945   1.782   2.271
40166SOL    HW220523   7.988   1.736   2.120
40167SOL     OW20524   8.848   0.107   2.288
40167SOL    HW120525   8.824   0.070   2.198
40167SOL    HW220526   8.947   0.123   2.292
40168SOL     OW20527   7.697   1.785   3.103
40168SOL    HW120528   7.754   1.720   3.153
40168SOL    HW220529   7.681   1.752   3.010
40169SOL     OW20530   8.388   1.698   2.766
40169SOL    HW120531   8.468   1.641   2.787
40169SOL    HW220532   8.339   1.658   2.689
40170SOL     OW20533   7.830   0.700   2.342
40170SOL    HW120534   7.875   0.610   2.339
40170SOL    HW220535   7.736   0.689   2.375
40171SOL     OW20536   8.995   0.222   3.591
40171SOL    HW120537   8.990   0.259   3.683
40171SOL    HW220538   8.923   0.153   3.579
40172SOL     OW20539   8.062   0.122   1.979
40172SOL    HW120540   8.160   0.100   1.986
40172SOL    HW220541   8.031   0.105   1.886
40173SOL     OW20542   8.229   0.264   3.611
40173SOL    HW120543   8.296   0.203   3.654
40173SOL    HW220544   8.156   0.283   3.676
40174SOL     OW20545   8.336   1.514   3.057
40174SOL    HW120546   8.313   1.489   2.963
40174SOL    HW220547   8.397   1.445   3.096
40175SOL     OW20548   8.799   0.590   3.295
40175SOL    HW120549   8.827   0.547   3.380
40175SOL    HW220550   8.824   0.686   3.296
40176SOL     OW20551   8.251   1.402   2.786
40176SOL    HW120552   8.341   1.416   2.744
40176SOL    HW220553   8.180   1.404   2.715
40177SOL     OW20554   8.370   0.503   2.761
40177SOL    HW120555   8.345   0.494   2.665
40177SOL    HW220556   8.418   0.421   2.792
40178SOL     OW20557   7.987   0.064   2.374
40178SOL    HW120558   7.906   0.065   2.432
40178SOL    HW220559   7.990   0.147   2.319
40179SOL     OW20560   8.882   1.188   1.903
40179SOL    HW120561   8.914   1.112   1.960
40179SOL    HW220562   8.790   1.215   1.933
40180SOL     OW20563   7.745   0.035   2.033
40180SOL    HW120564   7.794   0.119   2.012
40180SOL    HW220565   7.807  -0.030   2.078
40181SOL     OW20566   8.383   0.236   2.342
40181SOL    HW120567   8.335   0.277   2.264
40181SOL    HW220568   8.482   0.234   2.323
40182SOL     OW20569   8.524   0.683   3.326
40182SOL    HW120570   8.444   0.622   3.329
40182SOL    HW220571   8.605   0.630   3.302
40183SOL     OW20572   8.675   1.570   2.655
40183SOL    HW120573   8.696   1.644   2.590
40183SOL    HW220574   8.743   1.570   2.728
40184SOL     OW20575   7.907   1.152   2.603
40184SOL    HW120576   7.836   1.125   2.668
40184SOL    HW220577   7.881   1.124   2.510
40185SOL     OW20578   8.719   1.797   2.453
40185SOL    HW120579   8.763   1.861   2.389
40185SOL    HW220580   8.669   1.849   2.523
40186SOL     OW20581   8.480   0.549   1.878
40186SOL    HW120582   8.439   0.631   1.839
40186SOL    HW220583   8.544   0.575   1.951
40187SOL     OW20584   7.526   0.556   3.248
40187SOL    HW120585   7.618   0.555   3.207
40187SOL    HW220586   7.520   0.630   3.315
40188SOL     OW20587   8.009   0.222   3.009
40188SOL    HW120588   8.047   0.138   3.046
40188SOL    HW220589   7.921   0.241   3.053
40189SOL     OW20590   8.314   0.454   2.504
40189SOL    HW120591   8.282   0.526   2.442
40189SOL    HW220592   8.338   0.373   2.451
40190SOL     OW20593   8.465   0.039   2.615
40190SOL    HW120594   8.393   0.044   2.546
40190SOL    HW220595   8.441  -0.030   2.684
40191SOL     OW20596   8.877   1.173   2.729
40191SOL    HW120597   8.822   1.089   2.722
40191SOL    HW220598   8.903   1.202   2.637
40192SOL     OW20599   8.914   0.590   2.854
40192SOL    HW120600   8.884   0.495   2.861
40192SOL    HW220601   8.987   0.606   2.920
40193SOL     OW20602   9.305   0.833   2.239
40193SOL    HW120603   9.347   0.769   2.303
40193SOL    HW220604   9.267   0.782   2.161
40194SOL     OW20605   7.936   1.385   2.036
40194SOL    HW120606   7.849   1.370   2.083
40194SOL    HW220607   7.919   1.411   1.941
40195SOL     OW20608   9.112   1.280   2.519
40195SOL    HW120609   9.211   1.288   2.533
40195SOL    HW220610   9.067   1.364   2.550
40196SOL     OW20611   8.838   0.575   1.940
40196SOL    HW120612   8.784   0.554   2.021
40196SOL    HW220613   8.929   0.534   1.949
40197SOL     OW20614   7.975   0.256   2.190
40197SOL    HW120615   8.002   0.197   2.115
40197SOL    HW220616   7.975   0.351   2.159
40198SOL     OW20617   9.202   1.223   3.450
40198SOL    HW120618   9.293   1.184   3.437
40198SOL    HW220619   9.210   1.319   3.474
40199SOL     OW20620   8.512   1.347   3.202
40199SOL    HW120621   8.432   1.324   3.257
40199SOL    HW220622   8.595   1.321   3.251
40200SOL     OW20623   9.040   1.629   3.487
40200SOL    HW120624   9.067   1.663   3.397
40200SOL    HW220625   9.119   1.591   3.533
40201SOL     OW20626   8.559   1.195   2.962
40201SOL    HW120627   8.519   1.239   3.043
40201SOL    HW220628   8.518   1.232   2.879
40202SOL     OW20629   9.086   1.099   2.941
40202SOL    HW120630   9.091   1.180   3.000
40202SOL    HW220631   9.000   1.101   2.890
40203SOL     OW20632   8.363   0.089   3.264
40203SOL    HW120633   8.388   0.069   3.169
40203SOL    HW220634   8.435   0.145   3.306
40204SOL     OW20635   8.428   1.116   3.581
40204SOL    HW120636   8.329   1.122   3.591
40204SOL    HW220637   8.451   1.036   3.525
40205SOL     OW20638   8.153   1.050   2.230
40205SOL    HW120639   8.139   1.057   2.329
40205SOL    HW220640   8.237   0.999   2.212
40206SOL     OW20641   7.858   0.813   3.113
40206SOL    HW120642   7.944   0.825   3.163
40206SOL    HW220643   7.816   0.726   3.140
40207SOL     OW20644   8.722   0.386   3.124
40207SOL    HW120645   8.743   0.460   3.188
40207SOL    HW220646   8.633   0.403   3.081
40208SOL     OW20647   7.512   1.564   3.193
40208SOL    HW120648   7.466   1.646   3.159
40208SOL    HW220649   7.610   1.583   3.202
40209SOL     OW20650   7.815   1.100   2.363
40209SOL    HW120651   7.808   1.183   2.307
40209SOL    HW220652   7.819   1.020   2.303
40210SOL     OW20653   8.014   0.537   2.727
40210SOL    HW120654   8.026   0.603   2.653
40210SOL    HW220655   8.060   0.571   2.810
40211SOL     OW20656   8.700   1.348   2.250
40211SOL    HW120657   8.750   1.425   2.290
40211SOL    HW220658   8.605   1.350   2.282
40212SOL     OW20659   8.720   1.445   3.004
40212SOL    HW120660   8.767   1.458   3.091
40212SOL    HW220661   8.654   1.371   3.013
40213SOL     OW20662   9.030   0.639   2.334
40213SOL    HW120663   8.999   0.700   2.407
40213SOL    HW220664   9.080   0.691   2.265
40214SOL     OW20665   7.802   1.510   3.191
40214SOL    HW120666   7.781   1.466   3.104
40214SOL    HW220667   7.899   1.536   3.194
40215SOL     OW20668   7.850   0.751   3.460
40215SOL    HW120669   7.918   0.806   3.413
40215SOL    HW220670   7.890   0.663   3.487
40216SOL     OW20671   9.035   0.779   3.532
40216SOL    HW120672   8.943   0.817   3.527
40216SOL    HW220673   9.095   0.826   3.467
40217SOL     OW20674   8.461   0.105   3.632
40217SOL    HW120675   8.467   0.190   3.580
40217SOL    HW220676   8.493   0.029   3.575
40218SOL     OW20677   7.952   0.050   3.602
40218SOL    HW120678   7.910  -0.007   3.532
40218SOL    HW220679   7.886   0.119   3.634
40219SOL     OW20680   8.021   0.870   2.891
40219SOL    HW120681   8.065   0.959   2.882
40219SOL    HW220682   7.958   0.870   2.968
40220SOL     OW20683   8.808   0.862   2.907
40220SOL    HW120684   8.733   0.862   2.841
40220SOL    HW220685   8.845   0.770   2.916
40221SOL     OW20686   8.657   0.525   2.137
40221SOL    HW120687   8.670   0.441   2.191
40221SOL    HW220688   8.628   0.599   2.197
40222SOL     OW20689   7.755   0.213   3.093
40222SOL    HW120690   7.732   0.250   3.183
40222SOL    HW220691   7.725   0.118   3.087
40223SOL     OW20692   7.485   1.310   3.144
40223SOL    HW120693   7.538   1.261   3.212
40223SOL    HW220694   7.507   1.408   3.149
40224SOL     OW20695   8.180   0.634   2.926
40224SOL    HW120696   8.239   0.608   2.850
40224SOL    HW220697   8.152   0.730   2.915
40225SOL     OW20698   9.176   0.935   3.716
40225SOL    HW120699   9.130   0.928   3.627
40225SOL    HW220700   9.114   0.979   3.782
40226SOL     OW20701   7.755   0.063   2.480
40226SOL    HW120702   7.744   0.157   2.513
40226SOL    HW220703   7.750   0.000   2.557
40227SOL     OW20704   9.070   0.367   2.236
40227SOL    HW120705   9.072   0.291   2.300
40227SOL    HW220706   9.022   0.444   2.276
40228SOL     OW20707   8.471   0.766   2.828
40228SOL    HW120708   8.486   0.787   2.924
40228SOL    HW220709   8.441   0.671   2.819
40229SOL     OW20710   8.428   1.573   3.562
40229SOL    HW120711   8.408   1.617   3.474
40229SOL    HW220712   8.467   1.482   3.546
40230SOL     OW20713   9.307   1.518   3.467
40230SOL    HW120714   9.321   1.545   3.372
40230SOL    HW220715   9.390   1.540   3.520
40231SOL     OW20716   7.798   0.898   3.666
40231SOL    HW120717   7.874   0.942   3.714
40231SOL    HW220718   7.833   0.851   3.584
40232SOL     OW20719   8.988   0.274   1.987
40232SOL    HW120720   8.927   0.199   2.010
40232SOL    HW220721   9.010   0.326   2.070
40233SOL     OW20722   8.751   0.838   1.904
40233SOL    HW120723   8.785   0.745   1.919
40233SOL    HW220724   8.769   0.865   1.809
40234SOL     OW20725   8.516   1.333   2.711
40234SOL    HW120726   8.523   1.249   2.656
40234SOL    HW220727   8.578   1.402   2.675
40235SOL     OW20728   7.767   0.810   2.811
40235SOL    HW120729   7.860   0.846   2.816
40235SOL    HW220730   7.761   0.725   2.863
40236SOL     OW20731   7.787   0.509   2.868
40236SOL    HW120732   7.735   0.426   2.851
40236SOL    HW220733   7.864   0.514   2.804
40237SOL     OW20734   8.586   0.380   3.540
40237SOL    HW120735   8.541   0.443   3.604
40237SOL    HW220736   8.679   0.411   3.523
40238SOL     OW20737   8.608   0.207   3.339
40238SOL    HW120738   8.608   0.271   3.416
40238SOL    HW220739   8.636   0.255   3.256
40239SOL     OW20740   7.456   1.326   2.062
40239SOL    HW120741   7.363   1.347   2.031
40239SOL    HW220742   7.466   1.227   2.075
40240SOL     OW20743   7.536   1.801   2.789
40240SOL    HW120744   7.494   1.715   2.762
40240SOL    HW220745   7.630   1.804   2.755
40241SOL     OW20746   7.952   1.568   2.772
40241SOL    HW120747   8.018   1.642   2.781
40241SOL    HW220748   7.996   1.489   2.730
40242SOL     OW20749   8.450   0.796   3.100
40242SOL    HW120750   8.491   0.764   3.186
40242SOL    HW220751   8.354   0.769   3.097
40243SOL     OW20752   7.488   0.544   2.976
40243SOL    HW120753   7.573   0.511   2.935
40243SOL    HW220754   7.501   0.559   3.074
40244SOL     OW20755   7.637   0.520   3.584
40244SOL    HW120756   7.696   0.480   3.514
40244SOL    HW220757   7.579   0.591   3.543
40245SOL     OW20758   8.817   0.950   3.522
40245SOL    HW120759   8.856   1.039   3.542
40245SOL    HW220760   8.827   0.930   3.425
40246SOL     OW20761   8.263   0.572   2.187
40246SOL    HW120762   8.270   0.483   2.141
40246SOL    HW220763   8.169   0.606   2.179
40247SOL     OW20764   9.105   0.604   3.068
40247SOL    HW120765   9.067   0.535   3.130
40247SOL    HW220766   9.187   0.568   3.024
40248SOL     OW20767   7.700   1.564   3.606
40248SOL    HW120768   7.670   1.621   3.682
40248SOL    HW220769   7.693   1.467   3.632
40249SOL     OW20770   8.119   0.464   3.131
40249SOL    HW120771   8.085   0.375   3.101
40249SOL    HW220772   8.145   0.518   3.051
40250SOL     OW20773   8.378   1.678   3.327
40250SOL    HW120774   8.354   1.660   3.232
40250SOL    HW220775   8.408   1.772   3.337
40251SOL     OW20776   7.921   0.500   2.053
40251SOL    HW120777   7.982   0.580   2.057
40251SOL    HW220778   7.826   0.531   2.060
40252SOL     OW20779   7.607   1.137   3.328
40252SOL    HW120780   7.629   1.076   3.404
40252SOL    HW220781   7.617   1.088   3.242
40253SOL     OW20782   8.795   1.059   3.096
40253SOL    HW120783   8.819   0.996   3.022
40253SOL    HW220784   8.705   1.099   3.078
40254SOL     OW20785   8.750   0.855   2.171
40254SOL    HW120786   8.664   0.824   2.213
40254SOL    HW220787   8.746   0.841   2.072
40255SOL     OW20788   9.207   1.747   3.016
40255SOL    HW120789   9.268   1.777   2.943
40255SOL    HW220790   9.169   1.658   2.994
40256SOL     OW20791   8.700   1.731   2.990
40256SOL    HW120792   8.784   1.736   2.936
40256SOL    HW220793   8.677   1.635   3.008
40257SOL     OW20794   7.531   1.258   2.884
40257SOL    HW120795   7.526   1.257   2.984
40257SOL    HW220796   7.448   1.217   2.846
40258SOL     OW20797   8.136   1.662   3.578
40258SOL    HW120798   8.080   1.743   3.587
40258SOL    HW220799   8.188   1.666   3.492
40259SOL     OW20800   9.174   0.135   2.385
40259SOL    HW120801   9.247   0.118   2.318
40259SOL    HW220802   9.143   0.048   2.423
40260SOL     OW20803   8.836   1.573   2.339
40260SOL    HW120804   8.903   1.585   2.265
40260SOL    HW220805   8.796   1.662   2.362
40261SOL     OW20806   7.578   1.794   3.713
40261SOL    HW120807   7.537   1.720   3.766
40261SOL    HW220808   7.642   1.845   3.771
40262SOL     OW20809   8.728   0.927   2.534
40262SOL    HW120810   8.788   0.846   2.536
40262SOL    HW220811   8.768   0.996   2.474
40263SOL     OW20812   8.278   1.273   3.284
40263SOL    HW120813   8.273   1.306   3.379
40263SOL    HW220814   8.192   1.292   3.238
40264SOL     OW20815   8.120   1.616   2.016
40264SOL    HW120816   8.129   1.626   1.917
40264SOL    HW220817   8.080   1.527   2.037
40265SOL     OW20818   9.098   1.720   3.256
40265SOL    HW120819   9.151   1.730   3.172
40265SOL    HW220820   9.071   1.810   3.290
40266SOL     OW20821   9.289   0.175   2.825
40266SOL    HW120822   9.328   0.090   2.789
40266SOL    HW220823   9.191   0.177   2.806
40267SOL     OW20824   7.711   0.326   2.582
40267SOL    HW120825   7.632   0.377   2.548
40267SOL    HW220826   7.702   0.311   2.680
40268SOL     OW20827   8.642   1.612   1.893
40268SOL    HW120828   8.648   1.519   1.930
40268SOL    HW220829   8.583   1.612   1.813
40269SOL     OW20830   8.270   1.002   3.234
40269SOL    HW120831   8.310   1.001   3.142
40269SOL    HW220832   8.280   1.094   3.274
40270SOL     OW20833   8.364   0.910   2.153
40270SOL    HW120834   8.427   0.948   2.085
40270SOL    HW220835   8.404   0.827   2.192
40271SOL     OW20836   8.952   1.607   1.906
40271SOL    HW120837   8.860   1.644   1.913
40271SOL    HW220838   8.990   1.627   1.816
40272SOL     OW20839   7.820   1.288   3.352
40272SOL    HW120840   7.807   1.381   3.318
40272SOL    HW220841   7.736   1.236   3.339
40273SOL     OW20842   9.062   1.292   3.151
40273SOL    HW120843   9.122   1.295   3.231
40273SOL    HW220844   8.987   1.356   3.164
40274SOL     OW20845   8.487   1.098   2.558
40274SOL    HW120846   8.417   1.051   2.612
40274SOL    HW220847   8.546   1.030   2.515
40275SOL     OW20848   8.462   0.236   2.833
40275SOL    HW120849   8.454   0.200   2.740
40275SOL    HW220850   8.460   0.160   2.898
40276SOL     OW20851   8.038   1.487   2.353
40276SOL    HW120852   8.080   1.429   2.283
40276SOL    HW220853   7.994   1.566   2.309
40277SOL     OW20854   9.157   0.385   3.243
40277SOL    HW120855   9.230   0.454   3.247
40277SOL    HW220856   9.185   0.310   3.184
40278SOL     OW20857   7.703   1.348   2.152
40278SOL    HW120858   7.607   1.349   2.125
40278SOL    HW220859   7.715   1.401   2.236
40279SOL     OW20860   7.553   1.013   3.588
40279SOL    HW120861   7.476   0.980   3.642
40279SOL    HW220862   7.638   0.983   3.630
40280SOL     OW20863   8.120   0.203   3.351
40280SOL    HW120864   8.210   0.187   3.311
40280SOL    HW220865   8.128   0.208   3.450
40281SOL     OW20866   7.523   0.345   1.895
40281SOL    HW120867   7.431   0.317   1.866
40281SOL    HW220868   7.554   0.422   1.839
40282SOL     OW20869   8.888   0.856   3.260
40282SOL    HW120870   8.831   0.908   3.197
40282SOL    HW220871   8.984   0.868   3.236
40283SOL     OW20872   7.520   0.166   2.180
40283SOL    HW120873   7.503   0.249   2.126
40283SOL    HW220874   7.610   0.129   2.158
40284SOL     OW20875   8.631   1.335   1.981
40284SOL    HW120876   8.532   1.324   1.983
40284SOL    HW220877   8.665   1.350   2.074
40285SOL     OW20878   8.061   0.842   3.293
40285SOL    HW120879   8.117   0.923   3.276
40285SOL    HW220880   8.120   0.762   3.296
40286SOL     OW20881   8.941   1.767   2.821
40286SOL    HW120882   8.974   1.831   2.752
40286SOL    HW220883   9.007   1.761   2.896
40287SOL     OW20884   8.164   0.565   3.570
40287SOL    HW120885   8.183   0.630   3.644
40287SOL    HW220886   8.224   0.485   3.579
40288SOL     OW20887   8.898   1.220   3.495
40288SOL    HW120888   8.889   1.210   3.594
40288SOL    HW220889   8.994   1.213   3.469
40289SOL     OW20890   7.838   1.741   3.422
40289SOL    HW120891   7.747   1.782   3.420
40289SOL    HW220892   7.831   1.647   3.454
40290SOL     OW20893   9.122   0.883   3.116
40290SOL    HW120894   9.095   0.794   3.079
40290SOL    HW220895   9.123   0.951   3.043
40291SOL     OW20896   8.673   0.325   2.311
40291SOL    HW120897   8.738   0.251   2.300
40291SOL    HW220898   8.693   0.375   2.395
40292SOL     OW20899   8.042   0.745   2.514
40292SOL    HW120900   8.092   0.830   2.495
40292SOL    HW220901   7.954   0.747   2.466
40293SOL     OW20902   9.225   0.342   3.504
40293SOL    HW120903   9.208   0.373   3.410
40293SOL    HW220904   9.141   0.305   3.542
40294SOL     OW20905   9.178   0.934   3.379
40294SOL    HW120906   9.216   1.025   3.394
40294SOL    HW220907   9.170   0.917   3.280
40295SOL     OW20908   8.307   1.374   1.878
40295SOL    HW120909   8.261   1.389   1.966
40295SOL    HW220910   8.351   1.459   1.848
40296SOL     OW20911   8.109   1.790   2.815
40296SOL    HW120912   8.063   1.878   2.802
40296SOL    HW220913   8.208   1.802   2.808
40297SOL     OW20914   8.307   0.956   2.723
40297SOL    HW120915   8.361   0.887   2.771
40297SOL    HW220916   8.275   1.025   2.789
40298SOL     OW20917   8.531   0.984   1.949
40298SOL    HW120918   8.508   1.037   1.867
40298SOL    HW220919   8.612   0.928   1.930
40299SOL     OW20920   9.309   1.569   2.713
40299SOL    HW120921   9.238   1.557   2.643
40299SOL    HW220922   9.310   1.490   2.773
40300SOL     OW20923   7.669   1.314   3.706
40300SOL    HW120924   7.604   1.241   3.685
40300SOL    HW220925   7.673   1.328   3.804
40301SOL     OW20926   7.527   1.240   2.515
40301SOL    HW120927   7.526   1.193   2.603
40301SOL    HW220928   7.609   1.212   2.464
40302SOL     OW20929   8.120   1.391   3.486
40302SOL    HW120930   8.042   1.341   3.524
40302SOL    HW220931   8.117   1.486   3.517
40303SOL     OW20932   9.272   0.192   3.089
40303SOL    HW120933   9.268   0.102   3.133
40303SOL    HW220934   9.275   0.181   2.990
40304SOL     OW20935   7.876   0.424   2.382
40304SOL    HW120936   7.906   0.352   2.320
40304SOL    HW220937   7.837   0.384   2.465
40305SOL     OW20938   9.153   1.487   2.966
40305SOL    HW120939   9.060   1.462   2.939
40305SOL    HW220940   9.179   1.437   3.048
40306SOL     OW20941   7.765   0.547   3.142
40306SOL    HW120942   7.803   0.488   3.214
40306SOL    HW220943   7.805   0.521   3.054
40307SOL     OW20944   8.260   1.586   2.549
40307SOL    HW120945   8.292   1.596   2.455
40307SOL    HW220946   8.181   1.524   2.551
40308SOL     OW20947   8.872   0.214   2.974
40308SOL    HW120948   8.924   0.149   3.029
40308SOL    HW220949   8.823   0.277   3.035
40309SOL     OW20950   8.449   0.034   3.016
40309SOL    HW120951   8.386  -0.038   2.985
40309SOL    HW220952   8.542  -0.002   3.016
40310SOL     OW20953   8.218   1.330   2.163
40310SOL    HW120954   8.172   1.243   2.180
40310SOL    HW220955   8.309   1.327   2.204
40311SOL     OW20956   8.066   1.567   3.146
40311SOL    HW120957   8.061   1.649   3.203
40311SOL    HW220958   8.155   1.564   3.101
40312SOL     OW20959   8.800   0.052   2.030
40312SOL    HW120960   8.835   0.011   1.946
40312SOL    HW220961   8.710   0.014   2.050
40313SOL     OW20962   8.748   0.453   2.553
40313SOL    HW120963   8.689   0.533   2.557
40313SOL    HW220964   8.763   0.418   2.646
40314SOL     OW20965   9.041   0.221   2.744
40314SOL    HW120966   8.957   0.220   2.798
40314SOL    HW220967   9.043   0.304   2.688
40315SOL     OW20968   7.487   1.077   2.162
40315SOL    HW120969   7.586   1.066   2.153
40315SOL    HW220970   7.447   0.991   2.194
40316SOL     OW20971   8.323   1.646   2.199
40316SOL    HW120972   8.246   1.611   2.145
40316SOL    HW220973   8.291   1.717   2.261
40317SOL     OW20974   7.678   0.628   3.837
40317SOL    HW120975   7.585   0.626   3.874
40317SOL    HW220976   7.679   0.589   3.745
40318SOL     OW20977   7.673   0.275   4.720
40318SOL    HW120978   7.708   0.258   4.812
40318SOL    HW220979   7.585   0.230   4.708
40319SOL     OW20980   7.467   0.368   4.371
40319SOL    HW120981   7.385   0.411   4.410
40319SOL    HW220982   7.439   0.295   4.308
40320SOL     OW20983   8.017   1.275   4.889
40320SOL    HW120984   7.924   1.268   4.852
40320SOL    HW220985   8.028   1.364   4.933
40321SOL     OW20986   9.003   1.511   4.427
40321SOL    HW120987   8.946   1.495   4.508
40321SOL    HW220988   8.944   1.521   4.347
40322SOL     OW20989   8.583   0.703   4.441
40322SOL    HW120990   8.640   0.781   4.416
40322SOL    HW220991   8.523   0.729   4.517
40323SOL     OW20992   9.203   0.607   3.955
40323SOL    HW120993   9.191   0.594   3.856
40323SOL    HW220994   9.173   0.526   4.004
40324SOL     OW20995   8.216   1.144   4.747
40324SOL    HW120996   8.138   1.161   4.807
40324SOL    HW220997   8.250   1.231   4.711
40325SOL     OW20998   8.298   0.798   5.547
40325SOL    HW120999   8.294   0.874   5.612
40325SOL    HW221000   8.320   0.834   5.456
40326SOL     OW21001   8.134   1.161   5.527
40326SOL    HW121002   8.194   1.240   5.541
40326SOL    HW221003   8.048   1.192   5.486
40327SOL     OW21004   7.783   1.435   4.785
40327SOL    HW121005   7.705   1.404   4.732
40327SOL    HW221006   7.841   1.493   4.728
40328SOL     OW21007   8.908   1.505   5.063
40328SOL    HW121008   8.932   1.599   5.089
40328SOL    HW221009   8.892   1.451   5.145
40329SOL     OW21010   7.886   0.392   5.223
40329SOL    HW121011   7.968   0.336   5.232
40329SOL    HW221012   7.805   0.334   5.227
40330SOL     OW21013   9.051   0.447   4.461
40330SOL    HW121014   8.977   0.493   4.411
40330SOL    HW221015   9.102   0.515   4.514
40331SOL     OW21016   7.679   1.713   4.207
40331SOL    HW121017   7.713   1.790   4.261
40331SOL    HW221018   7.723   1.713   4.117
40332SOL     OW21019   8.575   1.341   5.414
40332SOL    HW121020   8.622   1.341   5.502
40332SOL    HW221021   8.527   1.254   5.403
40333SOL     OW21022   7.678   1.434   4.262
40333SOL    HW121023   7.652   1.530   4.262
40333SOL    HW221024   7.607   1.380   4.307
40334SOL     OW21025   7.688   1.091   4.610
40334SOL    HW121026   7.702   1.007   4.662
40334SOL    HW221027   7.633   1.155   4.665
40335SOL     OW21028   8.068   1.786   5.163
40335SOL    HW121029   7.976   1.769   5.198
40335SOL    HW221030   8.096   1.878   5.189
40336SOL     OW21031   8.054   0.964   3.847
40336SOL    HW121032   8.061   1.048   3.793
40336SOL    HW221033   8.100   0.977   3.935
40337SOL     OW21034   9.042   0.114   5.204
40337SOL    HW121035   9.024   0.181   5.132
40337SOL    HW221036   9.039   0.160   5.293
40338SOL     OW21037   7.570   0.643   4.287
40338SOL    HW121038   7.525   0.555   4.304
40338SOL    HW221039   7.569   0.697   4.371
40339SOL     OW21040   9.290   1.767   4.083
40339SOL    HW121041   9.344   1.738   4.163
40339SOL    HW221042   9.320   1.857   4.054
40340SOL     OW21043   7.475   1.596   3.841
40340SOL    HW121044   7.456   1.500   3.862
40340SOL    HW221045   7.442   1.654   3.916
40341SOL     OW21046   9.137   0.922   4.336
40341SOL    HW121047   9.232   0.893   4.344
40341SOL    HW221048   9.129   0.987   4.261
40342SOL     OW21049   9.089   1.108   4.156
40342SOL    HW121050   9.175   1.110   4.104
40342SOL    HW221051   9.103   1.155   4.244
40343SOL     OW21052   7.561   0.737   5.321
40343SOL    HW121053   7.649   0.724   5.366
40343SOL    HW221054   7.548   0.834   5.299
40344SOL     OW21055   8.061   1.365   4.450
40344SOL    HW121056   8.012   1.278   4.459
40344SOL    HW221057   8.038   1.408   4.363
40345SOL     OW21058   8.741   1.228   5.147
40345SOL    HW121059   8.778   1.155   5.089
40345SOL    HW221060   8.793   1.233   5.232
40346SOL     OW21061   8.257   0.004   4.226
40346SOL    HW121062   8.297   0.095   4.217
40346SOL    HW221063   8.157   0.012   4.232
40347SOL     OW21064   7.645   0.976   4.988
40347SOL    HW121065   7.734   0.931   4.974
40347SOL    HW221066   7.572   0.911   4.969
40348SOL     OW21067   8.973   0.999   3.914
40348SOL    HW121068   8.910   0.923   3.927
40348SOL    HW221069   9.021   1.017   4.000
40349SOL     OW21070   8.635   1.792   5.340
40349SOL    HW121071   8.659   1.852   5.264
40349SOL    HW221072   8.642   1.697   5.310
40350SOL     OW21073   7.765   0.251   5.525
40350SOL    HW121074   7.836   0.322   5.531
40350SOL    HW221075   7.677   0.290   5.553
40351SOL     OW21076   8.914   1.417   4.677
40351SOL    HW121077   8.855   1.423   4.757
40351SOL    HW221078   8.899   1.329   4.631
40352SOL     OW21079   9.115   1.714   4.296
40352SOL    HW121080   9.074   1.691   4.208
40352SOL    HW221081   9.097   1.640   4.361
40353SOL     OW21082   8.046   0.729   3.994
40353SOL    HW121083   8.070   0.798   3.926
40353SOL    HW221084   7.968   0.762   4.048
40354SOL     OW21085   8.729   0.345   4.668
40354SOL    HW121086   8.643   0.295   4.655
40354SOL    HW221087   8.791   0.291   4.724
40355SOL     OW21088   9.024   1.662   4.031
40355SOL    HW121089   9.113   1.708   4.034
40355SOL    HW221090   9.003   1.638   3.936
40356SOL     OW21091   8.255   0.605   5.189
40356SOL    HW121092   8.208   0.602   5.278
40356SOL    HW221093   8.204   0.550   5.123
40357SOL     OW21094   8.842   0.469   5.398
40357SOL    HW121095   8.822   0.512   5.486
40357SOL    HW221096   8.920   0.407   5.407
40358SOL     OW21097   8.421   0.890   5.296
40358SOL    HW121098   8.467   0.806   5.267
40358SOL    HW221099   8.365   0.924   5.221
40359SOL     OW21100   8.439   0.410   4.966
40359SOL    HW121101   8.362   0.444   5.020
40359SOL    HW221102   8.405   0.359   4.887
40360SOL     OW21103   8.489   0.701   4.153
40360SOL    HW121104   8.515   0.697   4.249
40360SOL    HW221105   8.404   0.650   4.139
40361SOL     OW21106   7.524   0.811   4.513
40361SOL    HW121107   7.623   0.799   4.522
40361SOL    HW221108   7.500   0.906   4.534
40362SOL     OW21109   7.578   1.821   5.295
40362SOL    HW121110   7.568   1.806   5.394
40362SOL    HW221111   7.492   1.857   5.259
40363SOL     OW21112   8.313   0.348   3.919
40363SOL    HW121113   8.372   0.411   3.870
40363SOL    HW221114   8.332   0.254   3.890
40364SOL     OW21115   9.167   0.585   5.555
40364SOL    HW121116   9.141   0.674   5.519
40364SOL    HW221117   9.165   0.517   5.482
40365SOL     OW21118   8.810   1.144   4.269
40365SOL    HW121119   8.893   1.115   4.221
40365SOL    HW221120   8.761   1.211   4.213
40366SOL     OW21121   7.998   0.196   4.609
40366SOL    HW121122   7.993   0.191   4.709
40366SOL    HW221123   8.000   0.292   4.580
40367SOL     OW21124   8.456   1.456   4.201
40367SOL    HW121125   8.410   1.528   4.149
40367SOL    HW221126   8.452   1.476   4.299
40368SOL     OW21127   7.799   1.801   4.577
40368SOL    HW121128   7.849   1.715   4.583
40368SOL    HW221129   7.864   1.878   4.574
40369SOL     OW21130   9.243   1.066   4.597
40369SOL    HW121131   9.181   1.051   4.521
40369SOL    HW221132   9.191   1.077   4.682
40370SOL     OW21133   8.675   1.550   5.230
40370SOL    HW121134   8.681   1.473   5.294
40370SOL    HW221135   8.623   1.524   5.150
40371SOL     OW21136   7.769   0.943   3.966
40371SOL    HW121137   7.851   0.982   3.924
40371SOL    HW221138   7.742   0.861   3.917
40372SOL     OW21139   8.906   0.735   4.452
40372SOL    HW121140   8.901   0.670   4.527
40372SOL    HW221141   8.986   0.794   4.465
40373SOL     OW21142   7.909   1.266   5.451
40373SOL    HW121143   7.859   1.267   5.365
40373SOL    HW221144   7.846   1.248   5.527
40374SOL     OW21145   8.559   1.776   3.961
40374SOL    HW121146   8.499   1.714   4.011
40374SOL    HW221147   8.590   1.732   3.876
40375SOL     OW21148   7.650   0.285   5.222
40375SOL    HW121149   7.570   0.345   5.209
40375SOL    HW221150   7.640   0.236   5.308
40376SOL     OW21151   9.080   1.377   3.805
40376SOL    HW121152   9.048   1.471   3.795
40376SOL    HW221153   9.004   1.314   3.793
40377SOL     OW21154   7.912   1.743   4.047
40377SOL    HW121155   7.945   1.782   4.133
40377SOL    HW221156   7.988   1.736   3.982
40378SOL     OW21157   8.848   0.107   4.150
40378SOL    HW121158   8.824   0.070   4.060
40378SOL    HW221159   8.947   0.123   4.154
40379SOL     OW21160   7.697   1.785   4.965
40379SOL    HW121161   7.754   1.720   5.015
40379SOL    HW221162   7.681   1.752   4.872
40380SOL     OW21163   8.388   1.698   4.628
40380SOL    HW121164   8.468   1.641   4.649
40380SOL    HW221165   8.339   1.658   4.551
40381SOL     OW21166   7.830   0.700   4.204
40381SOL    HW121167   7.875   0.610   4.201
40381SOL    HW221168   7.736   0.689   4.237
40382SOL     OW21169   8.995   0.222   5.453
40382SOL    HW121170   8.990   0.259   5.545
40382SOL    HW221171   8.923   0.153   5.441
40383SOL     OW21172   8.062   0.122   3.841
40383SOL    HW121173   8.160   0.100   3.848
40383SOL    HW221174   8.031   0.105   3.748
40384SOL     OW21175   8.229   0.264   5.473
40384SOL    HW121176   8.296   0.203   5.516
40384SOL    HW221177   8.156   0.283   5.538
40385SOL     OW21178   8.336   1.514   4.919
40385SOL    HW121179   8.313   1.489   4.825
40385SOL    HW221180   8.397   1.445   4.958
40386SOL     OW21181   8.799   0.590   5.157
40386SOL    HW121182   8.827   0.547   5.242
40386SOL    HW221183   8.824   0.686   5.158
40387SOL     OW21184   8.251   1.402   4.648
40387SOL    HW121185   8.341   1.416   4.606
40387SOL    HW221186   8.180   1.404   4.577
40388SOL     OW21187   8.370   0.503   4.623
40388SOL    HW121188   8.345   0.494   4.527
40388SOL    HW221189   8.418   0.421   4.654
40389SOL     OW21190   7.987   0.064   4.236
40389SOL    HW121191   7.906   0.065   4.294
40389SOL    HW221192   7.990   0.147   4.181
40390SOL     OW21193   8.882   1.188   3.765
40390SOL    HW121194   8.914   1.112   3.822
40390SOL    HW221195   8.790   1.215   3.795
40391SOL     OW21196   7.745   0.035   3.895
40391SOL    HW121197   7.794   0.119   3.874
40391SOL    HW221198   7.807  -0.030   3.940
40392SOL     OW21199   8.383   0.236   4.204
40392SOL    HW121200   8.335   0.277   4.126
40392SOL    HW221201   8.482   0.234   4.185
40393SOL     OW21202   8.524   0.683   5.188
40393SOL    HW121203   8.444   0.622   5.191
40393SOL    HW221204   8.605   0.630   5.164
40394SOL     OW21205   8.675   1.570   4.517
40394SOL    HW121206   8.696   1.644   4.452
40394SOL    HW221207   8.743   1.570   4.590
40395SOL     OW21208   7.907   1.152   4.465
40395SOL    HW121209   7.836   1.125   4.530
40395SOL    HW221210   7.881   1.124   4.372
40396SOL     OW21211   8.719   1.797   4.315
40396SOL    HW121212   8.763   1.861   4.251
40396SOL    HW221213   8.669   1.849   4.385
40397SOL     OW21214   8.480   0.549   3.740
40397SOL    HW121215   8.439   0.631   3.701
40397SOL    HW221216   8.544   0.575   3.813
40398SOL     OW21217   7.526   0.556   5.110
40398SOL    HW121218   7.618   0.555   5.069
40398SOL    HW221219   7.520   0.630   5.177
40399SOL     OW21220   8.009   0.222   4.871
40399SOL    HW121221   8.047   0.138   4.908
40399SOL    HW221222   7.921   0.241   4.915
40400SOL     OW21223   8.314   0.454   4.366
40400SOL    HW121224   8.282   0.526   4.304
40400SOL    HW221225   8.338   0.373   4.313
40401SOL     OW21226   8.465   0.039   4.477
40401SOL    HW121227   8.393   0.044   4.408
40401SOL    HW221228   8.441  -0.030   4.546
40402SOL     OW21229   8.877   1.173   4.591
40402SOL    HW121230   8.822   1.089   4.584
40402SOL    HW221231   8.903   1.202   4.499
40403SOL     OW21232   8.914   0.590   4.716
40403SOL    HW121233   8.884   0.495   4.723
40403SOL    HW221234   8.987   0.606   4.782
40404SOL     OW21235   9.305   0.833   4.101
40404SOL    HW121236   9.347   0.769   4.165
40404SOL    HW221237   9.267   0.782   4.023
40405SOL     OW21238   7.936   1.385   3.898
40405SOL    HW121239   7.849   1.370   3.945
40405SOL    HW221240   7.919   1.411   3.803
40406SOL     OW21241   9.112   1.280   4.381
40406SOL    HW121242   9.211   1.288   4.395
40406SOL    HW221243   9.067   1.364   4.412
40407SOL     OW21244   8.838   0.575   3.802
40407SOL    HW121245   8.784   0.554   3.883
40407SOL    HW221246   8.929   0.534   3.811
40408SOL     OW21247   7.975   0.256   4.052
40408SOL    HW121248   8.002   0.197   3.977
40408SOL    HW221249   7.975   0.351   4.021
40409SOL     OW21250   9.202   1.223   5.312
40409SOL    HW121251   9.293   1.184   5.299
40409SOL    HW221252   9.210   1.319   5.336
40410SOL     OW21253   8.512   1.347   5.064
40410SOL    HW121254   8.432   1.324   5.119
40410SOL    HW221255   8.595   1.321   5.113
40411SOL     OW21256   9.040   1.629   5.349
40411SOL    HW121257   9.067   1.663   5.259
40411SOL    HW221258   9.119   1.591   5.395
40412SOL     OW21259   8.559   1.195   4.824
40412SOL    HW121260   8.519   1.239   4.905
40412SOL    HW221261   8.518   1.232   4.741
40413SOL     OW21262   9.086   1.099   4.803
40413SOL    HW121263   9.091   1.180   4.862
40413SOL    HW221264   9.000   1.101   4.752
40414SOL     OW21265   8.363   0.089   5.126
40414SOL    HW121266   8.388   0.069   5.031
40414SOL    HW221267   8.435   0.145   5.168
40415SOL     OW21268   8.428   1.116   5.443
40415SOL    HW121269   8.329   1.122   5.453
40415SOL    HW221270   8.451   1.036   5.387
40416SOL     OW21271   8.153   1.050   4.092
40416SOL    HW121272   8.139   1.057   4.191
40416SOL    HW221273   8.237   0.999   4.074
40417SOL     OW21274   7.858   0.813   4.975
40417SOL    HW121275   7.944   0.825   5.025
40417SOL    HW221276   7.816   0.726   5.002
40418SOL     OW21277   8.722   0.386   4.986
40418SOL    HW121278   8.743   0.460   5.050
40418SOL    HW221279   8.633   0.403   4.943
40419SOL     OW21280   7.512   1.564   5.055
40419SOL    HW121281   7.466   1.646   5.021
40419SOL    HW221282   7.610   1.583   5.064
40420SOL     OW21283   7.815   1.100   4.225
40420SOL    HW121284   7.808   1.183   4.169
40420SOL    HW221285   7.819   1.020   4.165
40421SOL     OW21286   8.014   0.537   4.589
40421SOL    HW121287   8.026   0.603   4.515
40421SOL    HW221288   8.060   0.571   4.672
40422SOL     OW21289   8.700   1.348   4.112
40422SOL    HW121290   8.750   1.425   4.152
40422SOL    HW221291   8.605   1.350   4.144
40423SOL     OW21292   8.720   1.445   4.866
40423SOL    HW121293   8.767   1.458   4.953
40423SOL    HW221294   8.654   1.371   4.875
40424SOL     OW21295   9.030   0.639   4.196
40424SOL    HW121296   8.999   0.700   4.269
40424SOL    HW221297   9.080   0.691   4.127
40425SOL     OW21298   7.802   1.510   5.053
40425SOL    HW121299   7.781   1.466   4.966
40425SOL    HW221300   7.899   1.536   5.056
40426SOL     OW21301   7.850   0.751   5.322
40426SOL    HW121302   7.918   0.806   5.275
40426SOL    HW221303   7.890   0.663   5.349
40427SOL     OW21304   9.035   0.779   5.394
40427SOL    HW121305   8.943   0.817   5.389
40427SOL    HW221306   9.095   0.826   5.329
40428SOL     OW21307   8.461   0.105   5.494
40428SOL    HW121308   8.467   0.190   5.442
40428SOL    HW221309   8.493   0.029   5.437
40429SOL     OW21310   7.952   0.050   5.464
40429SOL    HW121311   7.910  -0.007   5.394
40429SOL    HW221312   7.886   0.119   5.496
40430SOL     OW21313   8.021   0.870   4.753
40430SOL    HW121314   8.065   0.959   4.744
40430SOL    HW221315   7.958   0.870   4.830
40431SOL     OW21316   8.808   0.862   4.769
40431SOL    HW121317   8.733   0.862   4.703
40431SOL    HW221318   8.845   0.770   4.778
40432SOL     OW21319   8.657   0.525   3.999
40432SOL    HW121320   8.670   0.441   4.053
40432SOL    HW221321   8.628   0.599   4.059
40433SOL     OW21322   7.755   0.213   4.955
40433SOL    HW121323   7.732   0.250   5.045
40433SOL    HW221324   7.725   0.118   4.949
40434SOL     OW21325   7.485   1.310   5.006
40434SOL    HW121326   7.538   1.261   5.074
40434SOL    HW221327   7.507   1.408   5.011
40435SOL     OW21328   8.180   0.634   4.788
40435SOL    HW121329   8.239   0.608   4.712
40435SOL    HW221330   8.152   0.730   4.777
40436SOL     OW21331   9.176   0.935   5.578
40436SOL    HW121332   9.130   0.928   5.489
40436SOL    HW221333   9.114   0.979   5.644
40437SOL     OW21334   7.755   0.063   4.342
40437SOL    HW121335   7.744   0.157   4.375
40437SOL    HW221336   7.750   0.000   4.419
40438SOL     OW21337   9.070   0.367   4.098
40438SOL    HW121338   9.072   0.291   4.162
40438SOL    HW221339   9.022   0.444   4.138
40439SOL     OW21340   8.471   0.766   4.690
40439SOL    HW121341   8.486   0.787   4.786
40439SOL    HW221342   8.441   0.671   4.681
40440SOL     OW21343   8.428   1.573   5.424
40440SOL    HW121344   8.408   1.617   5.336
40440SOL    HW221345   8.467   1.482   5.408
40441SOL     OW21346   9.307   1.518   5.329
40441SOL    HW121347   9.321   1.545   5.234
40441SOL    HW221348   9.390   1.540   5.382
40442SOL     OW21349   7.798   0.898   5.528
40442SOL    HW121350   7.874   0.942   5.576
40442SOL    HW221351   7.833   0.851   5.446
40443SOL     OW21352   8.988   0.274   3.849
40443SOL    HW121353   8.927   0.199   3.872
40443SOL    HW221354   9.010   0.326   3.932
40444SOL     OW21355   8.751   0.838   3.766
40444SOL    HW121356   8.785   0.745   3.781
40444SOL    HW221357   8.769   0.865   3.671
40445SOL     OW21358   8.516   1.333   4.573
40445SOL    HW121359   8.523   1.249   4.518
40445SOL    HW221360   8.578   1.402   4.537
40446SOL     OW21361   7.767   0.810   4.673
40446SOL    HW121362   7.860   0.846   4.678
40446SOL    HW221363   7.761   0.725   4.725
40447SOL     OW21364   7.787   0.509   4.730
40447SOL    HW121365   7.735   0.426   4.713
40447SOL    HW221366   7.864   0.514   4.666
40448SOL     OW21367   8.586   0.380   5.402
40448SOL    HW121368   8.541   0.443   5.466
40448SOL    HW221369   8.679   0.411   5.385
40449SOL     OW21370   8.608   0.207   5.201
40449SOL    HW121371   8.608   0.271   5.278
40449SOL    HW221372   8.636   0.255   5.118
40450SOL     OW21373   7.456   1.326   3.924
40450SOL    HW121374   7.363   1.347   3.893
40450SOL    HW221375   7.466   1.227   3.937
40451SOL     OW21376   7.536   1.801   4.651
40451SOL    HW121377   7.494   1.715   4.624
40451SOL    HW221378   7.630   1.804   4.617
40452SOL     OW21379   7.952   1.568   4.634
40452SOL    HW121380   8.018   1.642   4.643
40452SOL    HW221381   7.996   1.489   4.592
40453SOL     OW21382   8.450   0.796   4.962
40453SOL    HW121383   8.491   0.764   5.048
40453SOL    HW221384   8.354   0.769   4.959
40454SOL     OW21385   7.488   0.544   4.838
40454SOL    HW121386   7.573   0.511   4.797
40454SOL    HW221387   7.501   0.559   4.936
40455SOL     OW21388   7.637   0.520   5.446
40455SOL    HW121389   7.696   0.480   5.376
40455SOL    HW221390   7.579   0.591   5.405
40456SOL     OW21391   8.817   0.950   5.384
40456SOL    HW121392   8.856   1.039   5.404
40456SOL    HW221393   8.827   0.930   5.287
40457SOL     OW21394   8.263   0.572   4.049
40457SOL    HW121395   8.270   0.483   4.003
40457SOL    HW221396   8.169   0.606   4.041
40458SOL     OW21397   9.105   0.604   4.930
40458SOL    HW121398   9.067   0.535   4.992
40458SOL    HW221399   9.187   0.568   4.886
40459SOL     OW21400   7.700   1.564   5.468
40459SOL    HW121401   7.670   1.621   5.544
40459SOL    HW221402   7.693   1.467   5.494
40460SOL     OW21403   8.119   0.464   4.993
40460SOL    HW121404   8.085   0.375   4.963
40460SOL    HW221405   8.145   0.518   4.913
40461SOL     OW21406   8.378   1.678   5.189
40461SOL    HW121407   8.354   1.660   5.094
40461SOL    HW221408   8.408   1.772   5.199
40462SOL     OW21409   7.921   0.500   3.915
40462SOL    HW121410   7.982   0.580   3.919
40462SOL    HW221411   7.826   0.531   3.922
40463SOL     OW21412   7.607   1.137   5.190
40463SOL    HW121413   7.629   1.076   5.266
40463SOL    HW221414   7.617   1.088   5.104
40464SOL     OW21415   8.795   1.059   4.958
40464SOL    HW121416   8.819   0.996   4.884
40464SOL    HW221417   8.705   1.099   4.940
40465SOL     OW21418   8.750   0.855   4.033
40465SOL    HW121419   8.664   0.824   4.075
40465SOL    HW221420   8.746   0.841   3.934
40466SOL     OW21421   9.207   1.747   4.878
40466SOL    HW121422   9.268   1.777   4.805
40466SOL    HW221423   9.169   1.658   4.856
40467SOL     OW21424   8.700   1.731   4.852
40467SOL    HW121425   8.784   1.736   4.798
40467SOL    HW221426   8.677   1.635   4.870
40468SOL     OW21427   7.531   1.258   4.746
40468SOL    HW121428   7.526   1.257   4.846
40468SOL    HW221429   7.448   1.217   4.708
40469SOL     OW21430   8.136   1.662   5.440
40469SOL    HW121431   8.080   1.743   5.449
40469SOL    HW221432   8.188   1.666   5.354
40470SOL     OW21433   9.174   0.135   4.247
40470SOL    HW121434   9.247   0.118   4.180
40470SOL    HW221435   9.143   0.048   4.285
40471SOL     OW21436   8.836   1.573   4.201
40471SOL    HW121437   8.903   1.585   4.127
40471SOL    HW221438   8.796   1.662   4.224
40472SOL     OW21439   7.578   1.794   5.575
40472SOL    HW121440   7.537   1.720   5.628
40472SOL    HW221441   7.642   1.845   5.633
40473SOL     OW21442   8.728   0.927   4.396
40473SOL    HW121443   8.788   0.846   4.398
40473SOL    HW221444   8.768   0.996   4.336
40474SOL     OW21445   8.278   1.273   5.146
40474SOL    HW121446   8.273   1.306   5.241
40474SOL    HW221447   8.192   1.292   5.100
40475SOL     OW21448   8.120   1.616   3.878
40475SOL    HW121449   8.129   1.626   3.779
40475SOL    HW221450   8.080   1.527   3.899
40476SOL     OW21451   9.098   1.720   5.118
40476SOL    HW121452   9.151   1.730   5.034
40476SOL    HW221453   9.071   1.810   5.152
40477SOL     OW21454   9.289   0.175   4.687
40477SOL    HW121455   9.328   0.090   4.651
40477SOL    HW221456   9.191   0.177   4.668
40478SOL     OW21457   7.711   0.326   4.444
40478SOL    HW121458   7.632   0.377   4.410
40478SOL    HW221459   7.702   0.311   4.542
40479SOL     OW21460   8.642   1.612   3.755
40479SOL    HW121461   8.648   1.519   3.792
40479SOL    HW221462   8.583   1.612   3.675
40480SOL     OW21463   8.270   1.002   5.096
40480SOL    HW121464   8.310   1.001   5.004
40480SOL    HW221465   8.280   1.094   5.136
40481SOL     OW21466   8.364   0.910   4.015
40481SOL    HW121467   8.427   0.948   3.947
40481SOL    HW221468   8.404   0.827   4.054
40482SOL     OW21469   8.952   1.607   3.768
40482SOL    HW121470   8.860   1.644   3.775
40482SOL    HW221471   8.990   1.627   3.678
40483SOL     OW21472   7.820   1.288   5.214
40483SOL    HW121473   7.807   1.381   5.180
40483SOL    HW221474   7.736   1.236   5.201
40484SOL     OW21475   9.062   1.292   5.013
40484SOL    HW121476   9.122   1.295   5.093
40484SOL    HW221477   8.987   1.356   5.026
40485SOL     OW21478   8.487   1.098   4.420
40485SOL    HW121479   8.417   1.051   4.474
40485SOL    HW221480   8.546   1.030   4.377
40486SOL     OW21481   8.462   0.236   4.695
40486SOL    HW121482   8.454   0.200   4.602
40486SOL    HW221483   8.460   0.160   4.760
40487SOL     OW21484   8.038   1.487   4.215
40487SOL    HW121485   8.080   1.429   4.145
40487SOL    HW221486   7.994   1.566   4.171
40488SOL     OW21487   9.157   0.385   5.105
40488SOL    HW121488   9.230   0.454   5.109
40488SOL    HW221489   9.185   0.310   5.046
40489SOL     OW21490   7.703   1.348   4.014
40489SOL    HW121491   7.607   1.349   3.987
40489SOL    HW221492   7.715   1.401   4.098
40490SOL     OW21493   7.553   1.013   5.450
40490SOL    HW121494   7.476   0.980   5.504
40490SOL    HW221495   7.638   0.983   5.492
40491SOL     OW21496   8.120   0.203   5.213
40491SOL    HW121497   8.210   0.187   5.173
40491SOL    HW221498   8.128   0.208   5.312
40492SOL     OW21499   7.523   0.345   3.757
40492SOL    HW121500   7.431   0.317   3.728
40492SOL    HW221501   7.554   0.422   3.701
40493SOL     OW21502   8.888   0.856   5.122
40493SOL    HW121503   8.831   0.908   5.059
40493SOL    HW221504   8.984   0.868   5.098
40494SOL     OW21505   7.520   0.166   4.042
40494SOL    HW121506   7.503   0.249   3.988
40494SOL    HW221507   7.610   0.129   4.020
40495SOL     OW21508   8.631   1.335   3.843
40495SOL    HW121509   8.532   1.324   3.845
40495SOL    HW221510   8.665   1.350   3.936
40496SOL     OW21511   8.061   0.842   5.155
40496SOL    HW121512   8.117   0.923   5.138
40496SOL    HW221513   8.120   0.762   5.158
40497SOL     OW21514   8.941   1.767   4.683
40497SOL    HW121515   8.974   1.831   4.614
40497SOL    HW221516   9.007   1.761   4.758
40498SOL     OW21517   8.164   0.565   5.432
40498SOL    HW121518   8.183   0.630   5.506
40498SOL    HW221519   8.224   0.485   5.441
40499SOL     OW21520   8.898   1.220   5.357
40499SOL    HW121521   8.889   1.210   5.456
40499SOL    HW221522   8.994   1.213   5.331
40500SOL     OW21523   7.838   1.741   5.284
40500SOL    HW121524   7.747   1.782   5.282
40500SOL    HW221525   7.831   1.647   5.316
40501SOL     OW21526   9.122   0.883   4.978
40501SOL    HW121527   9.095   0.794   4.941
40501SOL    HW221528   9.123   0.951   4.905
40502SOL     OW21529   8.673   0.325   4.173
40502SOL    HW121530   8.738   0.251   4.162
40502SOL    HW221531   8.693   0.375   4.257
40503SOL     OW21532   8.042   0.745   4.376
40503SOL    HW121533   8.092   0.830   4.357
40503SOL    HW221534   7.954   0.747   4.328
40504SOL     OW21535   9.225   0.342   5.366
40504SOL    HW121536   9.208   0.373   5.272
40504SOL    HW221537   9.141   0.305   5.404
40505SOL     OW21538   9.178   0.934   5.241
40505SOL    HW121539   9.216   1.025   5.256
40505SOL    HW221540   9.170   0.917   5.142
40506SOL     OW21541   8.307   1.374   3.740
40506SOL    HW121542   8.261   1.389   3.828
40506SOL    HW221543   8.351   1.459   3.710
40507SOL     OW21544   8.109   1.790   4.677
40507SOL    HW121545   8.063   1.878   4.664
40507SOL    HW221546   8.208   1.802   4.670
40508SOL     OW21547   8.307   0.956   4.585
40508SOL    HW121548   8.361   0.887   4.633
40508SOL    HW221549   8.275   1.025   4.651
40509SOL     OW21550   8.531   0.984   3.811
40509SOL    HW121551   8.508   1.037   3.729
40509SOL    HW221552   8.612   0.928   3.792
40510SOL     OW21553   9.309   1.569   4.575
40510SOL    HW121554   9.238   1.557   4.505
40510SOL    HW221555   9.310   1.490   4.635
40511SOL     OW21556   7.669   1.314   5.568
40511SOL    HW121557   7.604   1.241   5.547
40511SOL    HW221558   7.673   1.328   5.666
40512SOL     OW21559   7.527   1.240   4.377
40512SOL    HW121560   7.526   1.193   4.465
40512SOL    HW221561   7.609   1.212   4.326
40513SOL     OW21562   8.120   1.391   5.348
40513SOL    HW121563   8.042   1.341   5.386
40513SOL    HW221564   8.117   1.486   5.379
40514SOL     OW21565   9.272   0.192   4.951
40514SOL    HW121566   9.268   0.102   4.995
40514SOL    HW221567   9.275   0.181   4.852
40515SOL     OW21568   7.876   0.424   4.244
40515SOL    HW121569   7.906   0.352   4.182
40515SOL    HW221570   7.837   0.384   4.327
40516SOL     OW21571   9.153   1.487   4.828
40516SOL    HW121572   9.060   1.462   4.801
40516SOL    HW221573   9.179   1.437   4.910
40517SOL     OW21574   7.765   0.547   5.004
40517SOL    HW121575   7.803   0.488   5.076
40517SOL    HW221576   7.805   0.521   4.916
40518SOL     OW21577   8.260   1.586   4.411
40518SOL    HW121578   8.292   1.596   4.317
40518SOL    HW221579   8.181   1.524   4.413
40519SOL     OW21580   8.872   0.214   4.836
40519SOL    HW121581   8.924   0.149   4.891
40519SOL    HW221582   8.823   0.277   4.897
40520SOL     OW21583   8.449   0.034   4.878
40520SOL    HW121584   8.386  -0.038   4.847
40520SOL    HW221585   8.542  -0.002   4.878
40521SOL     OW21586   8.218   1.330   4.025
40521SOL    HW121587   8.172   1.243   4.042
40521SOL    HW221588   8.309   1.327   4.066
40522SOL     OW21589   8.066   1.567   5.008
40522SOL    HW121590   8.061   1.649   5.065
40522SOL    HW221591   8.155   1.564   4.963
40523SOL     OW21592   8.800   0.052   3.892
40523SOL    HW121593   8.835   0.011   3.808
40523SOL    HW221594   8.710   0.014   3.912
40524SOL     OW21595   8.748   0.453   4.415
40524SOL    HW121596   8.689   0.533   4.419
40524SOL    HW221597   8.763   0.418   4.508
40525SOL     OW21598   9.041   0.221   4.606
40525SOL    HW121599   8.957   0.220   4.660
40525SOL    HW221600   9.043   0.304   4.550
40526SOL     OW21601   7.487   1.077   4.024
40526SOL    HW121602   7.586   1.066   4.015
40526SOL    HW221603   7.447   0.991   4.056
40527SOL     OW21604   8.323   1.646   4.061
40527SOL    HW121605   8.246   1.611   4.007
40527SOL    HW221606   8.291   1.717   4.123
40528SOL     OW21607   7.678   0.628   5.699
40528SOL    HW121608   7.585   0.626   5.736
40528SOL    HW221609   7.679   0.589   5.607
40529SOL     OW21610   7.673   0.275   6.582
40529SOL    HW121611   7.708   0.258   6.674
40529SOL    HW221612   7.585   0.230   6.570
40530SOL     OW21613   7.467   0.368   6.233
40530SOL    HW121614   7.385   0.411   6.272
40530SOL    HW221615   7.439   0.295   6.170
40531SOL     OW21616   8.017   1.275   6.751
40531SOL    HW121617   7.924   1.268   6.714
40531SOL    HW221618   8.028   1.364   6.795
40532SOL     OW21619   9.003   1.511   6.289
40532SOL    HW121620   8.946   1.495   6.370
40532SOL    HW221621   8.944   1.521   6.209
40533SOL     OW21622   8.583   0.703   6.303
40533SOL    HW121623   8.640   0.781   6.278
40533SOL    HW221624   8.523   0.729   6.379
40534SOL     OW21625   9.203   0.607   5.817
40534SOL    HW121626   9.191   0.594   5.718
40534SOL    HW221627   9.173   0.526   5.866
40535SOL     OW21628   8.216   1.144   6.609
40535SOL    HW121629   8.138   1.161   6.669
40535SOL    HW221630   8.250   1.231   6.573
40536SOL     OW21631   8.298   0.798   7.409
40536SOL    HW121632   8.294   0.874   7.474
40536SOL    HW221633   8.320   0.834   7.318
40537SOL     OW21634   8.133   1.012   6.251
40537SOL    HW121635   8.202   0.996   6.321
40537SOL    HW221636   8.060   1.069   6.289
40538SOL     OW21637   8.134   1.161   7.389
40538SOL    HW121638   8.194   1.240   7.403
40538SOL    HW221639   8.048   1.192   7.348
40539SOL     OW21640   7.783   1.435   6.647
40539SOL    HW121641   7.705   1.404   6.594
40539SOL    HW221642   7.841   1.493   6.590
40540SOL     OW21643   8.908   1.505   6.925
40540SOL    HW121644   8.932   1.599   6.951
40540SOL    HW221645   8.892   1.451   7.007
40541SOL     OW21646   7.886   0.392   7.085
40541SOL    HW121647   7.968   0.336   7.094
40541SOL    HW221648   7.805   0.334   7.089
40542SOL     OW21649   9.051   0.447   6.323
40542SOL    HW121650   8.977   0.493   6.273
40542SOL    HW221651   9.102   0.515   6.376
40543SOL     OW21652   7.679   1.713   6.069
40543SOL    HW121653   7.713   1.790   6.123
40543SOL    HW221654   7.723   1.713   5.979
40544SOL     OW21655   8.575   1.341   7.276
40544SOL    HW121656   8.622   1.341   7.364
40544SOL    HW221657   8.527   1.254   7.265
40545SOL     OW21658   7.678   1.434   6.124
40545SOL    HW121659   7.652   1.530   6.124
40545SOL    HW221660   7.607   1.380   6.169
40546SOL     OW21661   7.688   1.091   6.472
40546SOL    HW121662   7.702   1.007   6.524
40546SOL    HW221663   7.633   1.155   6.527
40547SOL     OW21664   8.068   1.786   7.025
40547SOL    HW121665   7.976   1.769   7.060
40547SOL    HW221666   8.096   1.878   7.051
40548SOL     OW21667   8.054   0.964   5.709
40548SOL    HW121668   8.061   1.048   5.655
40548SOL    HW221669   8.100   0.977   5.797
40549SOL     OW21670   9.042   0.114   7.066
40549SOL    HW121671   9.024   0.181   6.994
40549SOL    HW221672   9.039   0.160   7.155
40550SOL     OW21673   7.570   0.643   6.149
40550SOL    HW121674   7.525   0.555   6.166
40550SOL    HW221675   7.569   0.697   6.233
40551SOL     OW21676   9.290   1.767   5.945
40551SOL    HW121677   9.344   1.738   6.025
40551SOL    HW221678   9.320   1.857   5.916
40552SOL     OW21679   7.475   1.596   5.703
40552SOL    HW121680   7.456   1.500   5.724
40552SOL    HW221681   7.442   1.654   5.778
40553SOL     OW21682   9.137   0.922   6.198
40553SOL    HW121683   9.232   0.893   6.206
40553SOL    HW221684   9.129   0.987   6.123
40554SOL     OW21685   9.089   1.108   6.018
40554SOL    HW121686   9.175   1.110   5.966
40554SOL    HW221687   9.103   1.155   6.106
40555SOL     OW21688   7.561   0.737   7.183
40555SOL    HW121689   7.649   0.724   7.228
40555SOL    HW221690   7.548   0.834   7.161
40556SOL     OW21691   8.061   1.365   6.312
40556SOL    HW121692   8.012   1.278   6.321
40556SOL    HW221693   8.038   1.408   6.225
40557SOL     OW21694   8.741   1.228   7.009
40557SOL    HW121695   8.778   1.155   6.951
40557SOL    HW221696   8.793   1.233   7.094
40558SOL     OW21697   8.257   0.004   6.088
40558SOL    HW121698   8.297   0.095   6.079
40558SOL    HW221699   8.157   0.012   6.094
40559SOL     OW21700   7.645   0.976   6.850
40559SOL    HW121701   7.734   0.931   6.836
40559SOL    HW221702   7.572   0.911   6.831
40560SOL     OW21703   8.973   0.999   5.776
40560SOL    HW121704   8.910   0.923   5.789
40560SOL    HW221705   9.021   1.017   5.862
40561SOL     OW21706   8.635   1.792   7.202
40561SOL    HW121707   8.659   1.852   7.126
40561SOL    HW221708   8.642   1.697   7.172
40562SOL     OW21709   7.765   0.251   7.387
40562SOL    HW121710   7.836   0.322   7.393
40562SOL    HW221711   7.677   0.290   7.415
40563SOL     OW21712   8.914   1.417   6.539
40563SOL    HW121713   8.855   1.423   6.619
40563SOL    HW221714   8.899   1.329   6.493
40564SOL     OW21715   9.115   1.714   6.158
40564SOL    HW121716   9.074   1.691   6.070
40564SOL    HW221717   9.097   1.640   6.223
40565SOL     OW21718   8.046   0.729   5.856
40565SOL    HW121719   8.070   0.798   5.788
40565SOL    HW221720   7.968   0.762   5.910
40566SOL     OW21721   8.729   0.345   6.530
40566SOL    HW121722   8.643   0.295   6.517
40566SOL    HW221723   8.791   0.291   6.586
40567SOL     OW21724   9.024   1.662   5.893
40567SOL    HW121725   9.113   1.708   5.896
40567SOL    HW221726   9.003   1.638   5.798
40568SOL     OW21727   8.255   0.605   7.051
40568SOL    HW121728   8.208   0.602   7.140
40568SOL    HW221729   8.204   0.550   6.985
40569SOL     OW21730   8.842   0.469   7.260
40569SOL    HW121731   8.822   0.512   7.348
40569SOL    HW221732   8.920   0.407   7.269
40570SOL     OW21733   8.421   0.890   7.158
40570SOL    HW121734   8.467   0.806   7.129
40570SOL    HW221735   8.365   0.924   7.083
40571SOL     OW21736   8.439   0.410   6.828
40571SOL    HW121737   8.362   0.444   6.882
40571SOL    HW221738   8.405   0.359   6.749
40572SOL     OW21739   8.489   0.701   6.015
40572SOL    HW121740   8.515   0.697   6.111
40572SOL    HW221741   8.404   0.650   6.001
40573SOL     OW21742   7.524   0.811   6.375
40573SOL    HW121743   7.623   0.799   6.384
40573SOL    HW221744   7.500   0.906   6.396
40574SOL     OW21745   7.578   1.821   7.157
40574SOL    HW121746   7.568   1.806   7.256
40574SOL    HW221747   7.492   1.857   7.121
40575SOL     OW21748   8.313   0.348   5.781
40575SOL    HW121749   8.372   0.411   5.732
40575SOL    HW221750   8.332   0.254   5.752
40576SOL     OW21751   9.167   0.585   7.417
40576SOL    HW121752   9.141   0.674   7.381
40576SOL    HW221753   9.165   0.517   7.344
40577SOL     OW21754   8.810   1.144   6.131
40577SOL    HW121755   8.893   1.115   6.083
40577SOL    HW221756   8.761   1.211   6.075
40578SOL     OW21757   7.998   0.196   6.471
40578SOL    HW121758   7.993   0.191   6.571
40578SOL    HW221759   8.000   0.292   6.442
40579SOL     OW21760   8.456   1.456   6.063
40579SOL    HW121761   8.410   1.528   6.011
40579SOL    HW221762   8.452   1.476   6.161
40580SOL     OW21763   7.799   1.801   6.439
40580SOL    HW121764   7.849   1.715   6.445
40580SOL    HW221765   7.864   1.878   6.436
40581SOL     OW21766   9.243   1.066   6.459
40581SOL    HW121767   9.181   1.051   6.383
40581SOL    HW221768   9.191   1.077   6.544
40582SOL     OW21769   8.675   1.550   7.092
40582SOL    HW121770   8.681   1.473   7.156
40582SOL    HW221771   8.623   1.524   7.012
40583SOL     OW21772   7.769   0.943   5.828
40583SOL    HW121773   7.851   0.982   5.786
40583SOL    HW221774   7.742   0.861   5.779
40584SOL     OW21775   8.906   0.735   6.314
40584SOL    HW121776   8.901   0.670   6.389
40584SOL    HW221777   8.986   0.794   6.327
40585SOL     OW21778   7.909   1.266   7.313
40585SOL    HW121779   7.859   1.267   7.227
40585SOL    HW221780   7.846   1.248   7.389
40586SOL     OW21781   8.559   1.776   5.823
40586SOL    HW121782   8.499   1.714   5.873
40586SOL    HW221783   8.590   1.732   5.738
40587SOL     OW21784   7.650   0.285   7.084
40587SOL    HW121785   7.570   0.345   7.071
40587SOL    HW221786   7.640   0.236   7.170
40588SOL     OW21787   9.080   1.377   5.667
40588SOL    HW121788   9.048   1.471   5.657
40588SOL    HW221789   9.004   1.314   5.655
40589SOL     OW21790   7.912   1.743   5.909
40589SOL    HW121791   7.945   1.782   5.995
40589SOL    HW221792   7.988   1.736   5.844
40590SOL     OW21793   8.848   0.107   6.012
40590SOL    HW121794   8.824   0.070   5.922
40590SOL    HW221795   8.947   0.123   6.016
40591SOL     OW21796   7.697   1.785   6.827
40591SOL    HW121797   7.754   1.720   6.877
40591SOL    HW221798   7.681   1.752   6.734
40592SOL     OW21799   8.388   1.698   6.490
40592SOL    HW121800   8.468   1.641   6.511
40592SOL    HW221801   8.339   1.658   6.413
40593SOL     OW21802   7.830   0.700   6.066
40593SOL    HW121803   7.875   0.610   6.063
40593SOL    HW221804   7.736   0.689   6.099
40594SOL     OW21805   8.995   0.222   7.315
40594SOL    HW121806   8.990   0.259   7.407
40594SOL    HW221807   8.923   0.153   7.303
40595SOL     OW21808   8.062   0.122   5.703
40595SOL    HW121809   8.160   0.100   5.710
40595SOL    HW221810   8.031   0.105   5.610
40596SOL     OW21811   8.229   0.264   7.335
40596SOL    HW121812   8.296   0.203   7.378
40596SOL    HW221813   8.156   0.283   7.400
40597SOL     OW21814   8.336   1.514   6.781
40597SOL    HW121815   8.313   1.489   6.687
40597SOL    HW221816   8.397   1.445   6.820
40598SOL     OW21817   8.799   0.590   7.019
40598SOL    HW121818   8.827   0.547   7.104
40598SOL    HW221819   8.824   0.686   7.020
40599SOL     OW21820   8.251   1.402   6.510
40599SOL    HW121821   8.341   1.416   6.468
40599SOL    HW221822   8.180   1.404   6.439
40600SOL     OW21823   8.370   0.503   6.485
40600SOL    HW121824   8.345   0.494   6.389
40600SOL    HW221825   8.418   0.421   6.516
40601SOL     OW21826   7.987   0.064   6.098
40601SOL    HW121827   7.906   0.065   6.156
40601SOL    HW221828   7.990   0.147   6.043
40602SOL     OW21829   8.882   1.188   5.627
40602SOL    HW121830   8.914   1.112   5.684
40602SOL    HW221831   8.790   1.215   5.657
40603SOL     OW21832   7.745   0.035   5.757
40603SOL    HW121833   7.794   0.119   5.736
40603SOL    HW221834   7.807  -0.030   5.802
40604SOL     OW21835   8.383   0.236   6.066
40604SOL    HW121836   8.335   0.277   5.988
40604SOL    HW221837   8.482   0.234   6.047
40605SOL     OW21838   8.524   0.683   7.050
40605SOL    HW121839   8.444   0.622   7.053
40605SOL    HW221840   8.605   0.630   7.026
40606SOL     OW21841   8.675   1.570   6.379
40606SOL    HW121842   8.696   1.644   6.314
40606SOL    HW221843   8.743   1.570   6.452
40607SOL     OW21844   7.907   1.152   6.327
40607SOL    HW121845   7.836   1.125   6.392
40607SOL    HW221846   7.881   1.124   6.234
40608SOL     OW21847   8.719   1.797   6.177
40608SOL    HW121848   8.763   1.861   6.113
40608SOL    HW221849   8.669   1.849   6.247
40609SOL     OW21850   8.480   0.549   5.602
40609SOL    HW121851   8.439   0.631   5.563
40609SOL    HW221852   8.544   0.575   5.675
40610SOL     OW21853   7.526   0.556   6.972
40610SOL    HW121854   7.618   0.555   6.931
40610SOL    HW221855   7.520   0.630   7.039
40611SOL     OW21856   8.009   0.222   6.733
40611SOL    HW121857   8.047   0.138   6.770
40611SOL    HW221858   7.921   0.241   6.777
40612SOL     OW21859   8.314   0.454   6.228
40612SOL    HW121860   8.282   0.526   6.166
40612SOL    HW221861   8.338   0.373   6.175
40613SOL     OW21862   8.465   0.039   6.339
40613SOL    HW121863   8.393   0.044   6.270
40613SOL    HW221864   8.441  -0.030   6.408
40614SOL     OW21865   8.877   1.173   6.453
40614SOL    HW121866   8.822   1.089   6.446
40614SOL    HW221867   8.903   1.202   6.361
40615SOL     OW21868   8.914   0.590   6.578
40615SOL    HW121869   8.884   0.495   6.585
40615SOL    HW221870   8.987   0.606   6.644
40616SOL     OW21871   9.305   0.833   5.963
40616SOL    HW121872   9.347   0.769   6.027
40616SOL    HW221873   9.267   0.782   5.885
40617SOL     OW21874   7.936   1.385   5.760
40617SOL    HW121875   7.849   1.370   5.807
40617SOL    HW221876   7.919   1.411   5.665
40618SOL     OW21877   9.112   1.280   6.243
40618SOL    HW121878   9.211   1.288   6.257
40618SOL    HW221879   9.067   1.364   6.274
40619SOL     OW21880   8.838   0.575   5.664
40619SOL    HW121881   8.784   0.554   5.745
40619SOL    HW221882   8.929   0.534   5.673
40620SOL     OW21883   7.975   0.256   5.914
40620SOL    HW121884   8.002   0.197   5.839
40620SOL    HW221885   7.975   0.351   5.883
40621SOL     OW21886   9.202   1.223   7.174
40621SOL    HW121887   9.293   1.184   7.161
40621SOL    HW221888   9.210   1.319   7.198
40622SOL     OW21889   8.512   1.347   6.926
40622SOL    HW121890   8.432   1.324   6.981
40622SOL    HW221891   8.595   1.321   6.975
40623SOL     OW21892   9.040   1.629   7.211
40623SOL    HW121893   9.067   1.663   7.121
40623SOL    HW221894   9.119   1.591   7.257
40624SOL     OW21895   8.559   1.195   6.686
40624SOL    HW121896   8.519   1.239   6.767
40624SOL    HW221897   8.518   1.232   6.603
40625SOL     OW21898   9.086   1.099   6.665
40625SOL    HW121899   9.091   1.180   6.724
40625SOL    HW221900   9.000   1.101   6.614
40626SOL     OW21901   8.363   0.089   6.988
40626SOL    HW121902   8.388   0.069   6.893
40626SOL    HW221903   8.435   0.145   7.030
40627SOL     OW21904   8.428   1.116   7.305
40627SOL    HW121905   8.329   1.122   7.315
40627SOL    HW221906   8.451   1.036   7.249
40628SOL     OW21907   8.153   1.050   5.954
40628SOL    HW121908   8.139   1.057   6.053
40628SOL    HW221909   8.237   0.999   5.936
40629SOL     OW21910   7.858   0.813   6.837
40629SOL    HW121911   7.944   0.825   6.887
40629SOL    HW221912   7.816   0.726   6.864
40630SOL     OW21913   8.722   0.386   6.848
40630SOL    HW121914   8.743   0.460   6.912
40630SOL    HW221915   8.633   0.403   6.805
40631SOL     OW21916   7.512   1.564   6.917
40631SOL    HW121917   7.466   1.646   6.883
40631SOL    HW221918   7.610   1.583   6.926
40632SOL     OW21919   7.815   1.100   6.087
40632SOL    HW121920   7.808   1.183   6.031
40632SOL    HW221921   7.819   1.020   6.027
40633SOL     OW21922   8.014   0.537   6.451
40633SOL    HW121923   8.026   0.603   6.377
40633SOL    HW221924   8.060   0.571   6.534
40634SOL     OW21925   8.700   1.348   5.974
40634SOL    HW121926   8.750   1.425   6.014
40634SOL    HW221927   8.605   1.350   6.006
40635SOL     OW21928   8.720   1.445   6.728
40635SOL    HW121929   8.767   1.458   6.815
40635SOL    HW221930   8.654   1.371   6.737
40636SOL     OW21931   9.030   0.639   6.058
40636SOL    HW121932   8.999   0.700   6.131
40636SOL    HW221933   9.080   0.691   5.989
40637SOL     OW21934   7.802   1.510   6.915
40637SOL    HW121935   7.781   1.466   6.828
40637SOL    HW221936   7.899   1.536   6.918
40638SOL     OW21937   7.850   0.751   7.184
40638SOL    HW121938   7.918   0.806   7.137
40638SOL    HW221939   7.890   0.663   7.211
40639SOL     OW21940   9.035   0.779   7.256
40639SOL    HW121941   8.943   0.817   7.251
40639SOL    HW221942   9.095   0.826   7.191
40640SOL     OW21943   8.461   0.105   7.356
40640SOL    HW121944   8.467   0.190   7.304
40640SOL    HW221945   8.493   0.029   7.299
40641SOL     OW21946   7.952   0.050   7.326
40641SOL    HW121947   7.910  -0.007   7.256
40641SOL    HW221948   7.886   0.119   7.358
40642SOL     OW21949   8.021   0.870   6.615
40642SOL    HW121950   8.065   0.959   6.606
40642SOL    HW221951   7.958   0.870   6.692
40643SOL     OW21952   8.808   0.862   6.631
40643SOL    HW121953   8.733   0.862   6.565
40643SOL    HW221954   8.845   0.770   6.640
40644SOL     OW21955   8.657   0.525   5.861
40644SOL    HW121956   8.670   0.441   5.915
40644SOL    HW221957   8.628   0.599   5.921
40645SOL     OW21958   7.755   0.213   6.817
40645SOL    HW121959   7.732   0.250   6.907
40645SOL    HW221960   7.725   0.118   6.811
40646SOL     OW21961   7.485   1.310   6.868
40646SOL    HW121962   7.538   1.261   6.936
40646SOL    HW221963   7.507   1.408   6.873
40647SOL     OW21964   8.180   0.634   6.650
40647SOL    HW121965   8.239   0.608   6.574
40647SOL    HW221966   8.152   0.730   6.639
40648SOL     OW21967   9.176   0.935   7.440
40648SOL    HW121968   9.130   0.928   7.351
40648SOL    HW221969   9.114   0.979   7.506
40649SOL     OW21970   7.755   0.063   6.204
40649SOL    HW121971   7.744   0.157   6.237
40649SOL    HW221972   7.750   0.000   6.281
40650SOL     OW21973   9.070   0.367   5.960
40650SOL    HW121974   9.072   0.291   6.024
40650SOL    HW221975   9.022   0.444   6.000
40651SOL     OW21976   8.471   0.766   6.552
40651SOL    HW121977   8.486   0.787   6.648
40651SOL    HW221978   8.441   0.671   6.543
40652SOL     OW21979   8.428   1.573   7.286
40652SOL    HW121980   8.408   1.617   7.198
40652SOL    HW221981   8.467   1.482   7.270
40653SOL     OW21982   9.307   1.518   7.191
40653SOL    HW121983   9.321   1.545   7.096
40653SOL    HW221984   9.390   1.540   7.244
40654SOL     OW21985   7.798   0.898   7.390
40654SOL    HW121986   7.874   0.942   7.438
40654SOL    HW221987   7.833   0.851   7.308
40655SOL     OW21988   8.988   0.274   5.711
40655SOL    HW121989   8.927   0.199   5.734
40655SOL    HW221990   9.010   0.326   5.794
40656SOL     OW21991   8.751   0.838   5.628
40656SOL    HW121992   8.785   0.745   5.643
40656SOL    HW221993   8.769   0.865   5.533
40657SOL     OW21994   8.516   1.333   6.435
40657SOL    HW121995   8.523   1.249   6.380
40657SOL    HW221996   8.578   1.402   6.399
40658SOL     OW21997   7.767   0.810   6.535
40658SOL    HW121998   7.860   0.846   6.540
40658SOL    HW221999   7.761   0.725   6.587
40659SOL     OW22000   7.787   0.509   6.592
40659SOL    HW122001   7.735   0.426   6.575
40659SOL    HW222002   7.864   0.514   6.528
40660SOL     OW22003   8.586   0.380   7.264
40660SOL    HW122004   8.541   0.443   7.328
40660SOL    HW222005   8.679   0.411   7.247
40661SOL     OW22006   8.608   0.207   7.063
40661SOL    HW122007   8.608   0.271   7.140
40661SOL    HW222008   8.636   0.255   6.980
40662SOL     OW22009   7.456   1.326   5.786
40662SOL    HW122010   7.363   1.347   5.755
40662SOL    HW222011   7.466   1.227   5.799
40663SOL     OW22012   7.536   1.801   6.513
40663SOL    HW122013   7.494   1.715   6.486
40663SOL    HW222014   7.630   1.804   6.479
40664SOL     OW22015   7.952   1.568   6.496
40664SOL    HW122016   8.018   1.642   6.505
40664SOL    HW222017   7.996   1.489   6.454
40665SOL     OW22018   8.450   0.796   6.824
40665SOL    HW122019   8.491   0.764   6.910
40665SOL    HW222020   8.354   0.769   6.821
40666SOL     OW22021   7.488   0.544   6.700
40666SOL    HW122022   7.573   0.511   6.659
40666SOL    HW222023   7.501   0.559   6.798
40667SOL     OW22024   7.637   0.520   7.308
40667SOL    HW122025   7.696   0.480   7.238
40667SOL    HW222026   7.579   0.591   7.267
40668SOL     OW22027   8.817   0.950   7.246
40668SOL    HW122028   8.856   1.039   7.266
40668SOL    HW222029   8.827   0.930   7.149
40669SOL     OW22030   8.263   0.572   5.911
40669SOL    HW122031   8.270   0.483   5.865
40669SOL    HW222032   8.169   0.606   5.903
40670SOL     OW22033   9.105   0.604   6.792
40670SOL    HW122034   9.067   0.535   6.854
40670SOL    HW222035   9.187   0.568   6.748
40671SOL     OW22036   7.700   1.564   7.330
40671SOL    HW122037   7.670   1.621   7.406
40671SOL    HW222038   7.693   1.467   7.356
40672SOL     OW22039   8.119   0.464   6.855
40672SOL    HW122040   8.085   0.375   6.825
40672SOL    HW222041   8.145   0.518   6.775
40673SOL     OW22042   8.378   1.678   7.051
40673SOL    HW122043   8.354   1.660   6.956
40673SOL    HW222044   8.408   1.772   7.061
40674SOL     OW22045   7.921   0.500   5.777
40674SOL    HW122046   7.982   0.580   5.781
40674SOL    HW222047   7.826   0.531   5.784
40675SOL     OW22048   7.607   1.137   7.052
40675SOL    HW122049   7.629   1.076   7.128
40675SOL    HW222050   7.617   1.088   6.966
40676SOL     OW22051   8.795   1.059   6.820
40676SOL    HW122052   8.819   0.996   6.746
40676SOL    HW222053   8.705   1.099   6.802
40677SOL     OW22054   8.750   0.855   5.895
40677SOL    HW122055   8.664   0.824   5.937
40677SOL    HW222056   8.746   0.841   5.796
40678SOL     OW22057   9.207   1.747   6.740
40678SOL    HW122058   9.268   1.777   6.667
40678SOL    HW222059   9.169   1.658   6.718
40679SOL     OW22060   8.700   1.731   6.714
40679SOL    HW122061   8.784   1.736   6.660
40679SOL    HW222062   8.677   1.635   6.732
40680SOL     OW22063   7.531   1.258   6.608
40680SOL    HW122064   7.526   1.257   6.708
40680SOL    HW222065   7.448   1.217   6.570
40681SOL     OW22066   8.136   1.662   7.302
40681SOL    HW122067   8.080   1.743   7.311
40681SOL    HW222068   8.188   1.666   7.216
40682SOL     OW22069   9.174   0.135   6.109
40682SOL    HW122070   9.247   0.118   6.042
40682SOL    HW222071   9.143   0.048   6.147
40683SOL     OW22072   8.836   1.573   6.063
40683SOL    HW122073   8.903   1.585   5.989
40683SOL    HW222074   8.796   1.662   6.086
40684SOL     OW22075   7.578   1.794   7.437
40684SOL    HW122076   7.537   1.720   7.490
40684SOL    HW222077   7.642   1.845   7.495
40685SOL     OW22078   8.728   0.927   6.258
40685SOL    HW122079   8.788   0.846   6.260
40685SOL    HW222080   8.768   0.996   6.198
40686SOL     OW22081   8.278   1.273   7.008
40686SOL    HW122082   8.273   1.306   7.103
40686SOL    HW222083   8.192   1.292   6.962
40687SOL     OW22084   8.120   1.616   5.740
40687SOL    HW122085   8.129   1.626   5.641
40687SOL    HW222086   8.080   1.527   5.761
40688SOL     OW22087   9.098   1.720   6.980
40688SOL    HW122088   9.151   1.730   6.896
40688SOL    HW222089   9.071   1.810   7.014
40689SOL     OW22090   9.289   0.175   6.549
40689SOL    HW122091   9.328   0.090   6.513
40689SOL    HW222092   9.191   0.177   6.530
40690SOL     OW22093   7.711   0.326   6.306
40690SOL    HW122094   7.632   0.377   6.272
40690SOL    HW222095   7.702   0.311   6.404
40691SOL     OW22096   8.642   1.612   5.617
40691SOL    HW122097   8.648   1.519   5.654
40691SOL    HW222098   8.583   1.612   5.537
40692SOL     OW22099   8.270   1.002   6.958
40692SOL    HW122100   8.310   1.001   6.866
40692SOL    HW222101   8.280   1.094   6.998
40693SOL     OW22102   8.364   0.910   5.877
40693SOL    HW122103   8.427   0.948   5.809
40693SOL    HW222104   8.404   0.827   5.916
40694SOL     OW22105   8.952   1.607   5.630
40694SOL    HW122106   8.860   1.644   5.637
40694SOL    HW222107   8.990   1.627   5.540
40695SOL     OW22108   7.820   1.288   7.076
40695SOL    HW122109   7.807   1.381   7.042
40695SOL    HW222110   7.736   1.236   7.063
40696SOL     OW22111   9.062   1.292   6.875
40696SOL    HW122112   9.122   1.295   6.955
40696SOL    HW222113   8.987   1.356   6.888
40697SOL     OW22114   8.487   1.098   6.282
40697SOL    HW122115   8.417   1.051   6.336
40697SOL    HW222116   8.546   1.030   6.239
40698SOL     OW22117   8.462   0.236   6.557
40698SOL    HW122118   8.454   0.200   6.464
40698SOL    HW222119   8.460   0.160   6.622
40699SOL     OW22120   8.038   1.487   6.077
40699SOL    HW122121   8.080   1.429   6.007
40699SOL    HW222122   7.994   1.566   6.033
40700SOL     OW22123   9.157   0.385   6.967
40700SOL    HW122124   9.230   0.454   6.971
40700SOL    HW222125   9.185   0.310   6.908
40701SOL     OW22126   7.703   1.348   5.876
40701SOL    HW122127   7.607   1.349   5.849
40701SOL    HW222128   7.715   1.401   5.960
40702SOL     OW22129   7.553   1.013   7.312
40702SOL    HW122130   7.476   0.980   7.366
40702SOL    HW222131   7.638   0.983   7.354
40703SOL     OW22132   8.120   0.203   7.075
40703SOL    HW122133   8.210   0.187   7.035
40703SOL    HW222134   8.128   0.208   7.174
40704SOL     OW22135   7.523   0.345   5.619
40704SOL    HW122136   7.431   0.317   5.590
40704SOL    HW222137   7.554   0.422   5.563
40705SOL     OW22138   8.888   0.856   6.984
40705SOL    HW122139   8.831   0.908   6.921
40705SOL    HW222140   8.984   0.868   6.960
40706SOL     OW22141   7.520   0.166   5.904
40706SOL    HW122142   7.503   0.249   5.850
40706SOL    HW222143   7.610   0.129   5.882
40707SOL     OW22144   8.631   1.335   5.705
40707SOL    HW122145   8.532   1.324   5.707
40707SOL    HW222146   8.665   1.350   5.798
40708SOL     OW22147   8.061   0.842   7.017
40708SOL    HW122148   8.117   0.923   7.000
40708SOL    HW222149   8.120   0.762   7.020
40709SOL     OW22150   8.941   1.767   6.545
40709SOL    HW122151   8.974   1.831   6.476
40709SOL    HW222152   9.007   1.761   6.620
40710SOL     OW22153   8.164   0.565   7.294
40710SOL    HW122154   8.183   0.630   7.368
40710SOL    HW222155   8.224   0.485   7.303
40711SOL     OW22156   8.898   1.220   7.219
40711SOL    HW122157   8.889   1.210   7.318
40711SOL    HW222158   8.994   1.213   7.193
40712SOL     OW22159   7.838   1.741   7.146
40712SOL    HW122160   7.747   1.782   7.144
40712SOL    HW222161   7.831   1.647   7.178
40713SOL     OW22162   9.122   0.883   6.840
40713SOL    HW122163   9.095   0.794   6.803
40713SOL    HW222164   9.123   0.951   6.767
40714SOL     OW22165   8.673   0.325   6.035
40714SOL    HW122166   8.738   0.251   6.024
40714SOL    HW222167   8.693   0.375   6.119
40715SOL     OW22168   8.042   0.745   6.238
40715SOL    HW122169   8.092   0.830   6.219
40715SOL    HW222170   7.954   0.747   6.190
40716SOL     OW22171   9.225   0.342   7.228
40716SOL    HW122172   9.208   0.373   7.134
40716SOL    HW222173   9.141   0.305   7.266
40717SOL     OW22174   9.178   0.934   7.103
40717SOL    HW122175   9.216   1.025   7.118
40717SOL    HW222176   9.170   0.917   7.004
40718SOL     OW22177   8.307   1.374   5.602
40718SOL    HW122178   8.261   1.389   5.690
40718SOL    HW222179   8.351   1.459   5.572
40719SOL     OW22180   8.109   1.790   6.539
40719SOL    HW122181   8.063   1.878   6.526
40719SOL    HW222182   8.208   1.802   6.532
40720SOL     OW22183   8.307   0.956   6.447
40720SOL    HW122184   8.361   0.887   6.495
40720SOL    HW222185   8.275   1.025   6.513
40721SOL     OW22186   8.531   0.984   5.673
40721SOL    HW122187   8.508   1.037   5.591
40721SOL    HW222188   8.612   0.928   5.654
40722SOL     OW22189   9.309   1.569   6.437
40722SOL    HW122190   9.238   1.557   6.367
40722SOL    HW222191   9.310   1.490   6.497
40723SOL     OW22192   7.669   1.314   7.430
40723SOL    HW122193   7.604   1.241   7.409
40723SOL    HW222194   7.673   1.328   7.528
40724SOL     OW22195   7.527   1.240   6.239
40724SOL    HW122196   7.526   1.193   6.327
40724SOL    HW222197   7.609   1.212   6.188
40725SOL     OW22198   8.120   1.391   7.210
40725SOL    HW122199   8.042   1.341   7.248
40725SOL    HW222200   8.117   1.486   7.241
40726SOL     OW22201   9.272   0.192   6.813
40726SOL    HW122202   9.268   0.102   6.857
40726SOL    HW222203   9.275   0.181   6.714
40727SOL     OW22204   7.876   0.424   6.106
40727SOL    HW122205   7.906   0.352   6.044
40727SOL    HW222206   7.837   0.384   6.189
40728SOL     OW22207   9.153   1.487   6.690
40728SOL    HW122208   9.060   1.462   6.663
40728SOL    HW222209   9.179   1.437   6.772
40729SOL     OW22210   7.765   0.547   6.866
40729SOL    HW122211   7.803   0.488   6.938
40729SOL    HW222212   7.805   0.521   6.778
40730SOL     OW22213   8.260   1.586   6.273
40730SOL    HW122214   8.292   1.596   6.179
40730SOL    HW222215   8.181   1.524   6.275
40731SOL     OW22216   8.872   0.214   6.698
40731SOL    HW122217   8.924   0.149   6.753
40731SOL    HW222218   8.823   0.277   6.759
40732SOL     OW22219   8.449   0.034   6.740
40732SOL    HW122220   8.386  -0.038   6.709
40732SOL    HW222221   8.542  -0.002   6.740
40733SOL     OW22222   8.218   1.330   5.887
40733SOL    HW122223   8.172   1.243   5.904
40733SOL    HW222224   8.309   1.327   5.928
40734SOL     OW22225   8.066   1.567   6.870
40734SOL    HW122226   8.061   1.649   6.927
40734SOL    HW222227   8.155   1.564   6.825
40735SOL     OW22228   8.800   0.052   5.754
40735SOL    HW122229   8.835   0.011   5.670
40735SOL    HW222230   8.710   0.014   5.774
40736SOL     OW22231   8.748   0.453   6.277
40736SOL    HW122232   8.689   0.533   6.281
40736SOL    HW222233   8.763   0.418   6.370
40737SOL     OW22234   9.041   0.221   6.468
40737SOL    HW122235   8.957   0.220   6.522
40737SOL    HW222236   9.043   0.304   6.412
40738SOL     OW22237   7.487   1.077   5.886
40738SOL    HW122238   7.586   1.066   5.877
40738SOL    HW222239   7.447   0.991   5.918
40739SOL     OW22240   8.323   1.646   5.923
40739SOL    HW122241   8.246   1.611   5.869
40739SOL    HW222242   8.291   1.717   5.985
40740SOL     OW22243   7.678   0.628   7.561
40740SOL    HW122244   7.585   0.626   7.598
40740SOL    HW222245   7.679   0.589   7.469
40741SOL     OW22246   7.673   0.275   8.444
40741SOL    HW122247   7.708   0.258   8.536
40741SOL    HW222248   7.585   0.230   8.432
40742SOL     OW22249   7.467   0.368   8.095
40742SOL    HW122250   7.385   0.411   8.134
40742SOL    HW222251   7.439   0.295   8.032
40743SOL     OW22252   8.017   1.275   8.613
40743SOL    HW122253   7.924   1.268   8.576
40743SOL    HW222254   8.028   1.364   8.657
40744SOL     OW22255   9.003   1.511   8.151
40744SOL    HW122256   8.946   1.495   8.232
40744SOL    HW222257   8.944   1.521   8.071
40745SOL     OW22258   8.583   0.703   8.165
40745SOL    HW122259   8.640   0.781   8.140
40745SOL    HW222260   8.523   0.729   8.241
40746SOL     OW22261   9.203   0.607   7.679
40746SOL    HW122262   9.191   0.594   7.580
40746SOL    HW222263   9.173   0.526   7.728
40747SOL     OW22264   8.216   1.144   8.471
40747SOL    HW122265   8.138   1.161   8.531
40747SOL    HW222266   8.250   1.231   8.435
40748SOL     OW22267   8.133   1.012   8.113
40748SOL    HW122268   8.202   0.996   8.183
40748SOL    HW222269   8.060   1.069   8.151
40749SOL     OW22270   8.134   1.161   9.251
40749SOL    HW122271   8.194   1.240   9.265
40749SOL    HW222272   8.048   1.192   9.210
40750SOL     OW22273   7.783   1.435   8.509
40750SOL    HW122274   7.705   1.404   8.456
40750SOL    HW222275   7.841   1.493   8.452
40751SOL     OW22276   8.908   1.505   8.787
40751SOL    HW122277   8.932   1.599   8.813
40751SOL    HW222278   8.892   1.451   8.869
40752SOL     OW22279   7.886   0.392   8.947
40752SOL    HW122280   7.968   0.336   8.956
40752SOL    HW222281   7.805   0.334   8.951
40753SOL     OW22282   9.051   0.447   8.185
40753SOL    HW122283   8.977   0.493   8.135
40753SOL    HW222284   9.102   0.515   8.238
40754SOL     OW22285   7.679   1.713   7.931
40754SOL    HW122286   7.713   1.790   7.985
40754SOL    HW222287   7.723   1.713   7.841
40755SOL     OW22288   8.575   1.341   9.138
40755SOL    HW122289   8.622   1.341   9.226
40755SOL    HW222290   8.527   1.254   9.127
40756SOL     OW22291   7.678   1.434   7.986
40756SOL    HW122292   7.652   1.530   7.986
40756SOL    HW222293   7.607   1.380   8.031
40757SOL     OW22294   7.688   1.091   8.334
40757SOL    HW122295   7.702   1.007   8.386
40757SOL    HW222296   7.633   1.155   8.389
40758SOL     OW22297   8.068   1.786   8.887
40758SOL    HW122298   7.976   1.769   8.922
40758SOL    HW222299   8.096   1.878   8.913
40759SOL     OW22300   8.054   0.964   7.571
40759SOL    HW122301   8.061   1.048   7.517
40759SOL    HW222302   8.100   0.977   7.659
40760SOL     OW22303   9.042   0.114   8.928
40760SOL    HW122304   9.024   0.181   8.856
40760SOL    HW222305   9.039   0.160   9.017
40761SOL     OW22306   7.570   0.643   8.011
40761SOL    HW122307   7.525   0.555   8.028
40761SOL    HW222308   7.569   0.697   8.095
40762SOL     OW22309   9.290   1.767   7.807
40762SOL    HW122310   9.344   1.738   7.887
40762SOL    HW222311   9.320   1.857   7.778
40763SOL     OW22312   7.475   1.596   7.565
40763SOL    HW122313   7.456   1.500   7.586
40763SOL    HW222314   7.442   1.654   7.640
40764SOL     OW22315   9.137   0.922   8.060
40764SOL    HW122316   9.232   0.893   8.068
40764SOL    HW222317   9.129   0.987   7.985
40765SOL     OW22318   9.089   1.108   7.880
40765SOL    HW122319   9.175   1.110   7.828
40765SOL    HW222320   9.103   1.155   7.968
40766SOL     OW22321   7.561   0.737   9.045
40766SOL    HW122322   7.649   0.724   9.090
40766SOL    HW222323   7.548   0.834   9.023
40767SOL     OW22324   8.061   1.365   8.174
40767SOL    HW122325   8.012   1.278   8.183
40767SOL    HW222326   8.038   1.408   8.087
40768SOL     OW22327   8.741   1.228   8.871
40768SOL    HW122328   8.778   1.155   8.813
40768SOL    HW222329   8.793   1.233   8.956
40769SOL     OW22330   8.257   0.004   7.950
40769SOL    HW122331   8.297   0.095   7.941
40769SOL    HW222332   8.157   0.012   7.956
40770SOL     OW22333   7.645   0.976   8.712
40770SOL    HW122334   7.734   0.931   8.698
40770SOL    HW222335   7.572   0.911   8.693
40771SOL     OW22336   8.973   0.999   7.638
40771SOL    HW122337   8.910   0.923   7.651
40771SOL    HW222338   9.021   1.017   7.724
40772SOL     OW22339   8.635   1.792   9.064
40772SOL    HW122340   8.659   1.852   8.988
40772SOL    HW222341   8.642   1.697   9.034
40773SOL     OW22342   7.765   0.251   9.249
40773SOL    HW122343   7.836   0.322   9.255
40773SOL    HW222344   7.677   0.290   9.277
40774SOL     OW22345   8.914   1.417   8.401
40774SOL    HW122346   8.855   1.423   8.481
40774SOL    HW222347   8.899   1.329   8.355
40775SOL     OW22348   9.115   1.714   8.020
40775SOL    HW122349   9.074   1.691   7.932
40775SOL    HW222350   9.097   1.640   8.085
40776SOL     OW22351   8.046   0.729   7.718
40776SOL    HW122352   8.070   0.798   7.650
40776SOL    HW222353   7.968   0.762   7.772
40777SOL     OW22354   8.729   0.345   8.392
40777SOL    HW122355   8.643   0.295   8.379
40777SOL    HW222356   8.791   0.291   8.448
40778SOL     OW22357   9.024   1.662   7.755
40778SOL    HW122358   9.113   1.708   7.758
40778SOL    HW222359   9.003   1.638   7.660
40779SOL     OW22360   8.255   0.605   8.913
40779SOL    HW122361   8.208   0.602   9.002
40779SOL    HW222362   8.204   0.550   8.847
40780SOL     OW22363   8.842   0.469   9.122
40780SOL    HW122364   8.822   0.512   9.210
40780SOL    HW222365   8.920   0.407   9.131
40781SOL     OW22366   8.421   0.890   9.020
40781SOL    HW122367   8.467   0.806   8.991
40781SOL    HW222368   8.365   0.924   8.945
40782SOL     OW22369   8.439   0.410   8.690
40782SOL    HW122370   8.362   0.444   8.744
40782SOL    HW222371   8.405   0.359   8.611
40783SOL     OW22372   8.489   0.701   7.877
40783SOL    HW122373   8.515   0.697   7.973
40783SOL    HW222374   8.404   0.650   7.863
40784SOL     OW22375   7.524   0.811   8.237
40784SOL    HW122376   7.623   0.799   8.246
40784SOL    HW222377   7.500   0.906   8.258
40785SOL     OW22378   7.578   1.821   9.019
40785SOL    HW122379   7.568   1.806   9.118
40785SOL    HW222380   7.492   1.857   8.983
40786SOL     OW22381   8.313   0.348   7.643
40786SOL    HW122382   8.372   0.411   7.594
40786SOL    HW222383   8.332   0.254   7.614
40787SOL     OW22384   9.167   0.585   9.279
40787SOL    HW122385   9.141   0.674   9.243
40787SOL    HW222386   9.165   0.517   9.206
40788SOL     OW22387   8.810   1.144   7.993
40788SOL    HW122388   8.893   1.115   7.945
40788SOL    HW222389   8.761   1.211   7.937
40789SOL     OW22390   7.998   0.196   8.333
40789SOL    HW122391   7.993   0.191   8.433
40789SOL    HW222392   8.000   0.292   8.304
40790SOL     OW22393   8.456   1.456   7.925
40790SOL    HW122394   8.410   1.528   7.873
40790SOL    HW222395   8.452   1.476   8.023
40791SOL     OW22396   7.799   1.801   8.301
40791SOL    HW122397   7.849   1.715   8.307
40791SOL    HW222398   7.864   1.878   8.298
40792SOL     OW22399   9.243   1.066   8.321
40792SOL    HW122400   9.181   1.051   8.245
40792SOL    HW222401   9.191   1.077   8.406
40793SOL     OW22402   8.675   1.550   8.954
40793SOL    HW122403   8.681   1.473   9.018
40793SOL    HW222404   8.623   1.524   8.874
40794SOL     OW22405   7.769   0.943   7.690
40794SOL    HW122406   7.851   0.982   7.648
40794SOL    HW222407   7.742   0.861   7.641
40795SOL     OW22408   8.906   0.735   8.176
40795SOL    HW122409   8.901   0.670   8.251
40795SOL    HW222410   8.986   0.794   8.189
40796SOL     OW22411   7.909   1.266   9.175
40796SOL    HW122412   7.859   1.267   9.089
40796SOL    HW222413   7.846   1.248   9.251
40797SOL     OW22414   8.559   1.776   7.685
40797SOL    HW122415   8.499   1.714   7.735
40797SOL    HW222416   8.590   1.732   7.600
40798SOL     OW22417   7.650   0.285   8.946
40798SOL    HW122418   7.570   0.345   8.933
40798SOL    HW222419   7.640   0.236   9.032
40799SOL     OW22420   9.080   1.377   7.529
40799SOL    HW122421   9.048   1.471   7.519
40799SOL    HW222422   9.004   1.314   7.517
40800SOL     OW22423   7.912   1.743   7.771
40800SOL    HW122424   7.945   1.782   7.857
40800SOL    HW222425   7.988   1.736   7.706
40801SOL     OW22426   8.848   0.107   7.874
40801SOL    HW122427   8.824   0.070   7.784
40801SOL    HW222428   8.947   0.123   7.878
40802SOL     OW22429   7.697   1.785   8.689
40802SOL    HW122430   7.754   1.720   8.739
40802SOL    HW222431   7.681   1.752   8.596
40803SOL     OW22432   8.388   1.698   8.352
40803SOL    HW122433   8.468   1.641   8.373
40803SOL    HW222434   8.339   1.658   8.275
40804SOL     OW22435   7.830   0.700   7.928
40804SOL    HW122436   7.875   0.610   7.925
40804SOL    HW222437   7.736   0.689   7.961
40805SOL     OW22438   8.995   0.222   9.177
40805SOL    HW122439   8.990   0.259   9.269
40805SOL    HW222440   8.923   0.153   9.165
40806SOL     OW22441   8.062   0.122   7.565
40806SOL    HW122442   8.160   0.100   7.572
40806SOL    HW222443   8.031   0.105   7.472
40807SOL     OW22444   8.229   0.264   9.197
40807SOL    HW122445   8.296   0.203   9.240
40807SOL    HW222446   8.156   0.283   9.262
40808SOL     OW22447   8.336   1.514   8.643
40808SOL    HW122448   8.313   1.489   8.549
40808SOL    HW222449   8.397   1.445   8.682
40809SOL     OW22450   8.799   0.590   8.881
40809SOL    HW122451   8.827   0.547   8.966
40809SOL    HW222452   8.824   0.686   8.882
40810SOL     OW22453   8.251   1.402   8.372
40810SOL    HW122454   8.341   1.416   8.330
40810SOL    HW222455   8.180   1.404   8.301
40811SOL     OW22456   8.370   0.503   8.347
40811SOL    HW122457   8.345   0.494   8.251
40811SOL    HW222458   8.418   0.421   8.378
40812SOL     OW22459   7.987   0.064   7.960
40812SOL    HW122460   7.906   0.065   8.018
40812SOL    HW222461   7.990   0.147   7.905
40813SOL     OW22462   8.882   1.188   7.489
40813SOL    HW122463   8.914   1.112   7.546
40813SOL    HW222464   8.790   1.215   7.519
40814SOL     OW22465   7.745   0.035   7.619
40814SOL    HW122466   7.794   0.119   7.598
40814SOL    HW222467   7.807  -0.030   7.664
40815SOL     OW22468   8.383   0.236   7.928
40815SOL    HW122469   8.335   0.277   7.850
40815SOL    HW222470   8.482   0.234   7.909
40816SOL     OW22471   8.524   0.683   8.912
40816SOL    HW122472   8.444   0.622   8.915
40816SOL    HW222473   8.605   0.630   8.888
40817SOL     OW22474   8.675   1.570   8.241
40817SOL    HW122475   8.696   1.644   8.176
40817SOL    HW222476   8.743   1.570   8.314
40818SOL     OW22477   7.907   1.152   8.189
40818SOL    HW122478   7.836   1.125   8.254
40818SOL    HW222479   7.881   1.124   8.096
40819SOL     OW22480   8.719   1.797   8.039
40819SOL    HW122481   8.763   1.861   7.975
40819SOL    HW222482   8.669   1.849   8.109
40820SOL     OW22483   8.480   0.549   7.464
40820SOL    HW122484   8.439   0.631   7.425
40820SOL    HW222485   8.544   0.575   7.537
40821SOL     OW22486   7.526   0.556   8.834
40821SOL    HW122487   7.618   0.555   8.793
40821SOL    HW222488   7.520   0.630   8.901
40822SOL     OW22489   8.009   0.222   8.595
40822SOL    HW122490   8.047   0.138   8.632
40822SOL    HW222491   7.921   0.241   8.639
40823SOL     OW22492   8.314   0.454   8.090
40823SOL    HW122493   8.282   0.526   8.028
40823SOL    HW222494   8.338   0.373   8.037
40824SOL     OW22495   8.465   0.039   8.201
40824SOL    HW122496   8.393   0.044   8.132
40824SOL    HW222497   8.441  -0.030   8.270
40825SOL     OW22498   8.877   1.173   8.315
40825SOL    HW122499   8.822   1.089   8.308
40825SOL    HW222500   8.903   1.202   8.223
40826SOL     OW22501   8.914   0.590   8.440
40826SOL    HW122502   8.884   0.495   8.447
40826SOL    HW222503   8.987   0.606   8.506
40827SOL     OW22504   9.305   0.833   7.825
40827SOL    HW122505   9.347   0.769   7.889
40827SOL    HW222506   9.267   0.782   7.747
40828SOL     OW22507   7.936   1.385   7.622
40828SOL    HW122508   7.849   1.370   7.669
40828SOL    HW222509   7.919   1.411   7.527
40829SOL     OW22510   9.112   1.280   8.105
40829SOL    HW122511   9.211   1.288   8.119
40829SOL    HW222512   9.067   1.364   8.136
40830SOL     OW22513   8.838   0.575   7.526
40830SOL    HW122514   8.784   0.554   7.607
40830SOL    HW222515   8.929   0.534   7.535
40831SOL     OW22516   7.975   0.256   7.776
40831SOL    HW122517   8.002   0.197   7.701
40831SOL    HW222518   7.975   0.351   7.745
40832SOL     OW22519   9.202   1.223   9.036
40832SOL    HW122520   9.293   1.184   9.023
40832SOL    HW222521   9.210   1.319   9.060
40833SOL     OW22522   8.512   1.347   8.788
40833SOL    HW122523   8.432   1.324   8.843
40833SOL    HW222524   8.595   1.321   8.837
40834SOL     OW22525   9.040   1.629   9.073
40834SOL    HW122526   9.067   1.663   8.983
40834SOL    HW222527   9.119   1.591   9.119
40835SOL     OW22528   8.559   1.195   8.548
40835SOL    HW122529   8.519   1.239   8.629
40835SOL    HW222530   8.518   1.232   8.465
40836SOL     OW22531   9.086   1.099   8.527
40836SOL    HW122532   9.091   1.180   8.586
40836SOL    HW222533   9.000   1.101   8.476
40837SOL     OW22534   8.363   0.089   8.850
40837SOL    HW122535   8.388   0.069   8.755
40837SOL    HW222536   8.435   0.145   8.892
40838SOL     OW22537   8.428   1.116   9.167
40838SOL    HW122538   8.329   1.122   9.177
40838SOL    HW222539   8.451   1.036   9.111
40839SOL     OW22540   8.153   1.050   7.816
40839SOL    HW122541   8.139   1.057   7.915
40839SOL    HW222542   8.237   0.999   7.798
40840SOL     OW22543   7.858   0.813   8.699
40840SOL    HW122544   7.944   0.825   8.749
40840SOL    HW222545   7.816   0.726   8.726
40841SOL     OW22546   8.722   0.386   8.710
40841SOL    HW122547   8.743   0.460   8.774
40841SOL    HW222548   8.633   0.403   8.667
40842SOL     OW22549   7.512   1.564   8.779
40842SOL    HW122550   7.466   1.646   8.745
40842SOL    HW222551   7.610   1.583   8.788
40843SOL     OW22552   7.815   1.100   7.949
40843SOL    HW122553   7.808   1.183   7.893
40843SOL    HW222554   7.819   1.020   7.889
40844SOL     OW22555   8.014   0.537   8.313
40844SOL    HW122556   8.026   0.603   8.239
40844SOL    HW222557   8.060   0.571   8.396
40845SOL     OW22558   8.700   1.348   7.836
40845SOL    HW122559   8.750   1.425   7.876
40845SOL    HW222560   8.605   1.350   7.868
40846SOL     OW22561   8.720   1.445   8.590
40846SOL    HW122562   8.767   1.458   8.677
40846SOL    HW222563   8.654   1.371   8.599
40847SOL     OW22564   9.030   0.639   7.920
40847SOL    HW122565   8.999   0.700   7.993
40847SOL    HW222566   9.080   0.691   7.851
40848SOL     OW22567   7.802   1.510   8.777
40848SOL    HW122568   7.781   1.466   8.690
40848SOL    HW222569   7.899   1.536   8.780
40849SOL     OW22570   7.850   0.751   9.046
40849SOL    HW122571   7.918   0.806   8.999
40849SOL    HW222572   7.890   0.663   9.073
40850SOL     OW22573   9.035   0.779   9.118
40850SOL    HW122574   8.943   0.817   9.113
40850SOL    HW222575   9.095   0.826   9.053
40851SOL     OW22576   8.461   0.105   9.218
40851SOL    HW122577   8.467   0.190   9.166
40851SOL    HW222578   8.493   0.029   9.161
40852SOL     OW22579   7.952   0.050   9.188
40852SOL    HW122580   7.910  -0.007   9.118
40852SOL    HW222581   7.886   0.119   9.220
40853SOL     OW22582   8.021   0.870   8.477
40853SOL    HW122583   8.065   0.959   8.468
40853SOL    HW222584   7.958   0.870   8.554
40854SOL     OW22585   8.808   0.862   8.493
40854SOL    HW122586   8.733   0.862   8.427
40854SOL    HW222587   8.845   0.770   8.502
40855SOL     OW22588   8.657   0.525   7.723
40855SOL    HW122589   8.670   0.441   7.777
40855SOL    HW222590   8.628   0.599   7.783
40856SOL     OW22591   7.755   0.213   8.679
40856SOL    HW122592   7.732   0.250   8.769
40856SOL    HW222593   7.725   0.118   8.673
40857SOL     OW22594   7.485   1.310   8.730
40857SOL    HW122595   7.538   1.261   8.798
40857SOL    HW222596   7.507   1.408   8.735
40858SOL     OW22597   8.180   0.634   8.512
40858SOL    HW122598   8.239   0.608   8.436
40858SOL    HW222599   8.152   0.730   8.501
40859SOL     OW22600   9.176   0.935   9.302
40859SOL    HW122601   9.130   0.928   9.213
40859SOL    HW222602   9.114   0.979   9.368
40860SOL     OW22603   7.755   0.063   8.066
40860SOL    HW122604   7.744   0.157   8.099
40860SOL    HW222605   7.750   0.000   8.143
40861SOL     OW22606   9.070   0.367   7.822
40861SOL    HW122607   9.072   0.291   7.886
40861SOL    HW222608   9.022   0.444   7.862
40862SOL     OW22609   8.471   0.766   8.414
40862SOL    HW122610   8.486   0.787   8.510
40862SOL    HW222611   8.441   0.671   8.405
40863SOL     OW22612   8.428   1.573   9.148
40863SOL    HW122613   8.408   1.617   9.060
40863SOL    HW222614   8.467   1.482   9.132
40864SOL     OW22615   9.307   1.518   9.053
40864SOL    HW122616   9.321   1.545   8.958
40864SOL    HW222617   9.390   1.540   9.106
40865SOL     OW22618   7.798   0.898   9.252
40865SOL    HW122619   7.874   0.942   9.300
40865SOL    HW222620   7.833   0.851   9.170
40866SOL     OW22621   8.988   0.274   7.573
40866SOL    HW122622   8.927   0.199   7.596
40866SOL    HW222623   9.010   0.326   7.656
40867SOL     OW22624   8.751   0.838   7.490
40867SOL    HW122625   8.785   0.745   7.505
40867SOL    HW222626   8.769   0.865   7.395
40868SOL     OW22627   8.516   1.333   8.297
40868SOL    HW122628   8.523   1.249   8.242
40868SOL    HW222629   8.578   1.402   8.261
40869SOL     OW22630   7.767   0.810   8.397
40869SOL    HW122631   7.860   0.846   8.402
40869SOL    HW222632   7.761   0.725   8.449
40870SOL     OW22633   7.787   0.509   8.454
40870SOL    HW122634   7.735   0.426   8.437
40870SOL    HW222635   7.864   0.514   8.390
40871SOL     OW22636   8.586   0.380   9.126
40871SOL    HW122637   8.541   0.443   9.190
40871SOL    HW222638   8.679   0.411   9.109
40872SOL     OW22639   8.608   0.207   8.925
40872SOL    HW122640   8.608   0.271   9.002
40872SOL    HW222641   8.636   0.255   8.842
40873SOL     OW22642   7.456   1.326   7.648
40873SOL    HW122643   7.363   1.347   7.617
40873SOL    HW222644   7.466   1.227   7.661
40874SOL     OW22645   7.536   1.801   8.375
40874SOL    HW122646   7.494   1.715   8.348
40874SOL    HW222647   7.630   1.804   8.341
40875SOL     OW22648   7.952   1.568   8.358
40875SOL    HW122649   8.018   1.642   8.367
40875SOL    HW222650   7.996   1.489   8.316
40876SOL     OW22651   8.450   0.796   8.686
40876SOL    HW122652   8.491   0.764   8.772
40876SOL    HW222653   8.354   0.769   8.683
40877SOL     OW22654   7.488   0.544   8.562
40877SOL    HW122655   7.573   0.511   8.521
40877SOL    HW222656   7.501   0.559   8.660
40878SOL     OW22657   7.637   0.520   9.170
40878SOL    HW122658   7.696   0.480   9.100
40878SOL    HW222659   7.579   0.591   9.129
40879SOL     OW22660   8.817   0.950   9.108
40879SOL    HW122661   8.856   1.039   9.128
40879SOL    HW222662   8.827   0.930   9.011
40880SOL     OW22663   8.263   0.572   7.773
40880SOL    HW122664   8.270   0.483   7.727
40880SOL    HW222665   8.169   0.606   7.765
40881SOL     OW22666   9.105   0.604   8.654
40881SOL    HW122667   9.067   0.535   8.716
40881SOL    HW222668   9.187   0.568   8.610
40882SOL     OW22669   7.700   1.564   9.192
40882SOL    HW122670   7.670   1.621   9.268
40882SOL    HW222671   7.693   1.467   9.218
40883SOL     OW22672   8.119   0.464   8.717
40883SOL    HW122673   8.085   0.375   8.687
40883SOL    HW222674   8.145   0.518   8.637
40884SOL     OW22675   8.378   1.678   8.913
40884SOL    HW122676   8.354   1.660   8.818
40884SOL    HW222677   8.408   1.772   8.923
40885SOL     OW22678   7.921   0.500   7.639
40885SOL    HW122679   7.982   0.580   7.643
40885SOL    HW222680   7.826   0.531   7.646
40886SOL     OW22681   7.607   1.137   8.914
40886SOL    HW122682   7.629   1.076   8.990
40886SOL    HW222683   7.617   1.088   8.828
40887SOL     OW22684   8.795   1.059   8.682
40887SOL    HW122685   8.819   0.996   8.608
40887SOL    HW222686   8.705   1.099   8.664
40888SOL     OW22687   8.750   0.855   7.757
40888SOL    HW122688   8.664   0.824   7.799
40888SOL    HW222689   8.746   0.841   7.658
40889SOL     OW22690   9.207   1.747   8.602
40889SOL    HW122691   9.268   1.777   8.529
40889SOL    HW222692   9.169   1.658   8.580
40890SOL     OW22693   8.700   1.731   8.576
40890SOL    HW122694   8.784   1.736   8.522
40890SOL    HW222695   8.677   1.635   8.594
40891SOL     OW22696   7.531   1.258   8.470
40891SOL    HW122697   7.526   1.257   8.570
40891SOL    HW222698   7.448   1.217   8.432
40892SOL     OW22699   8.136   1.662   9.164
40892SOL    HW122700   8.080   1.743   9.173
40892SOL    HW222701   8.188   1.666   9.078
40893SOL     OW22702   9.174   0.135   7.971
40893SOL    HW122703   9.247   0.118   7.904
40893SOL    HW222704   9.143   0.048   8.009
40894SOL     OW22705   8.836   1.573   7.925
40894SOL    HW122706   8.903   1.585   7.851
40894SOL    HW222707   8.796   1.662   7.948
40895SOL     OW22708   7.578   1.794   9.299
40895SOL    HW122709   7.537   1.720   9.352
40895SOL    HW222710   7.642   1.845   9.357
40896SOL     OW22711   8.728   0.927   8.120
40896SOL    HW122712   8.788   0.846   8.122
40896SOL    HW222713   8.768   0.996   8.060
40897SOL     OW22714   8.278   1.273   8.870
40897SOL    HW122715   8.273   1.306   8.965
40897SOL    HW222716   8.192   1.292   8.824
40898SOL     OW22717   8.120   1.616   7.602
40898SOL    HW122718   8.129   1.626   7.503
40898SOL    HW222719   8.080   1.527   7.623
40899SOL     OW22720   9.098   1.720   8.842
40899SOL    HW122721   9.151   1.730   8.758
40899SOL    HW222722   9.071   1.810   8.876
40900SOL     OW22723   9.289   0.175   8.411
40900SOL    HW122724   9.328   0.090   8.375
40900SOL    HW222725   9.191   0.177   8.392
40901SOL     OW22726   7.711   0.326   8.168
40901SOL    HW122727   7.632   0.377   8.134
40901SOL    HW222728   7.702   0.311   8.266
40902SOL     OW22729   8.642   1.612   7.479
40902SOL    HW122730   8.648   1.519   7.516
40902SOL    HW222731   8.583   1.612   7.399
40903SOL     OW22732   8.270   1.002   8.820
40903SOL    HW122733   8.310   1.001   8.728
40903SOL    HW222734   8.280   1.094   8.860
40904SOL     OW22735   8.364   0.910   7.739
40904SOL    HW122736   8.427   0.948   7.671
40904SOL    HW222737   8.404   0.827   7.778
40905SOL     OW22738   8.952   1.607   7.492
40905SOL    HW122739   8.860   1.644   7.499
40905SOL    HW222740   8.990   1.627   7.402
40906SOL     OW22741   7.820   1.288   8.938
40906SOL    HW122742   7.807   1.381   8.904
40906SOL    HW222743   7.736   1.236   8.925
40907SOL     OW22744   9.062   1.292   8.737
40907SOL    HW122745   9.122   1.295   8.817
40907SOL    HW222746   8.987   1.356   8.750
40908SOL     OW22747   8.487   1.098   8.144
40908SOL    HW122748   8.417   1.051   8.198
40908SOL    HW222749   8.546   1.030   8.101
40909SOL     OW22750   8.462   0.236   8.419
40909SOL    HW122751   8.454   0.200   8.326
40909SOL    HW222752   8.460   0.160   8.484
40910SOL     OW22753   8.038   1.487   7.939
40910SOL    HW122754   8.080   1.429   7.869
40910SOL    HW222755   7.994   1.566   7.895
40911SOL     OW22756   9.157   0.385   8.829
40911SOL    HW122757   9.230   0.454   8.833
40911SOL    HW222758   9.185   0.310   8.770
40912SOL     OW22759   7.703   1.348   7.738
40912SOL    HW122760   7.607   1.349   7.711
40912SOL    HW222761   7.715   1.401   7.822
40913SOL     OW22762   7.553   1.013   9.174
40913SOL    HW122763   7.476   0.980   9.228
40913SOL    HW222764   7.638   0.983   9.216
40914SOL     OW22765   8.120   0.203   8.937
40914SOL    HW122766   8.210   0.187   8.897
40914SOL    HW222767   8.128   0.208   9.036
40915SOL     OW22768   7.523   0.345   7.481
40915SOL    HW122769   7.431   0.317   7.452
40915SOL    HW222770   7.554   0.422   7.425
40916SOL     OW22771   8.888   0.856   8.846
40916SOL    HW122772   8.831   0.908   8.783
40916SOL    HW222773   8.984   0.868   8.822
40917SOL     OW22774   7.520   0.166   7.766
40917SOL    HW122775   7.503   0.249   7.712
40917SOL    HW222776   7.610   0.129   7.744
40918SOL     OW22777   8.631   1.335   7.567
40918SOL    HW122778   8.532   1.324   7.569
40918SOL    HW222779   8.665   1.350   7.660
40919SOL     OW22780   8.061   0.842   8.879
40919SOL    HW122781   8.117   0.923   8.862
40919SOL    HW222782   8.120   0.762   8.882
40920SOL     OW22783   8.941   1.767   8.407
40920SOL    HW122784   8.974   1.831   8.338
40920SOL    HW222785   9.007   1.761   8.482
40921SOL     OW22786   8.164   0.565   9.156
40921SOL    HW122787   8.183   0.630   9.230
40921SOL    HW222788   8.224   0.485   9.165
40922SOL     OW22789   8.898   1.220   9.081
40922SOL    HW122790   8.889   1.210   9.180
40922SOL    HW222791   8.994   1.213   9.055
40923SOL     OW22792   7.838   1.741   9.008
40923SOL    HW122793   7.747   1.782   9.006
40923SOL    HW222794   7.831   1.647   9.040
40924SOL     OW22795   9.122   0.883   8.702
40924SOL    HW122796   9.095   0.794   8.665
40924SOL    HW222797   9.123   0.951   8.629
40925SOL     OW22798   8.673   0.325   7.897
40925SOL    HW122799   8.738   0.251   7.886
40925SOL    HW222800   8.693   0.375   7.981
40926SOL     OW22801   8.042   0.745   8.100
40926SOL    HW122802   8.092   0.830   8.081
40926SOL    HW222803   7.954   0.747   8.052
40927SOL     OW22804   9.225   0.342   9.090
40927SOL    HW122805   9.208   0.373   8.996
40927SOL    HW222806   9.141   0.305   9.128
40928SOL     OW22807   9.178   0.934   8.965
40928SOL    HW122808   9.216   1.025   8.980
40928SOL    HW222809   9.170   0.917   8.866
40929SOL     OW22810   8.307   1.374   7.464
40929SOL    HW122811   8.261   1.389   7.552
40929SOL    HW222812   8.351   1.459   7.434
40930SOL     OW22813   8.109   1.790   8.401
40930SOL    HW122814   8.063   1.878   8.388
40930SOL    HW222815   8.208   1.802   8.394
40931SOL     OW22816   8.307   0.956   8.309
40931SOL    HW122817   8.361   0.887   8.357
40931SOL    HW222818   8.275   1.025   8.375
40932SOL     OW22819   8.531   0.984   7.535
40932SOL    HW122820   8.508   1.037   7.453
40932SOL    HW222821   8.612   0.928   7.516
40933SOL     OW22822   9.309   1.569   8.299
40933SOL    HW122823   9.238   1.557   8.229
40933SOL    HW222824   9.310   1.490   8.359
40934SOL     OW22825   7.669   1.314   9.292
40934SOL    HW122826   7.604   1.241   9.271
40934SOL    HW222827   7.673   1.328   9.390
40935SOL     OW22828   7.527   1.240   8.101
40935SOL    HW122829   7.526   1.193   8.189
40935SOL    HW222830   7.609   1.212   8.050
40936SOL     OW22831   8.120   1.391   9.072
40936SOL    HW122832   8.042   1.341   9.110
40936SOL    HW222833   8.117   1.486   9.103
40937SOL     OW22834   9.272   0.192   8.675
40937SOL    HW122835   9.268   0.102   8.719
40937SOL    HW222836   9.275   0.181   8.576
40938SOL     OW22837   7.876   0.424   7.968
40938SOL    HW122838   7.906   0.352   7.906
40938SOL    HW222839   7.837   0.384   8.051
40939SOL     OW22840   9.153   1.487   8.552
40939SOL    HW122841   9.060   1.462   8.525
40939SOL    HW222842   9.179   1.437   8.634
40940SOL     OW22843   7.765   0.547   8.728
40940SOL    HW122844   7.803   0.488   8.800
40940SOL    HW222845   7.805   0.521   8.640
40941SOL     OW22846   8.260   1.586   8.135
40941SOL    HW122847   8.292   1.596   8.041
40941SOL    HW222848   8.181   1.524   8.137
40942SOL     OW22849   8.872   0.214   8.560
40942SOL    HW122850   8.924   0.149   8.615
40942SOL    HW222851   8.823   0.277   8.621
40943SOL     OW22852   8.449   0.034   8.602
40943SOL    HW122853   8.386  -0.038   8.571
40943SOL    HW222854   8.542  -0.002   8.602
40944SOL     OW22855   8.218   1.330   7.749
40944SOL    HW122856   8.172   1.243   7.766
40944SOL    HW222857   8.309   1.327   7.790
40945SOL     OW22858   8.066   1.567   8.732
40945SOL    HW122859   8.061   1.649   8.789
40945SOL    HW222860   8.155   1.564   8.687
40946SOL     OW22861   8.800   0.052   7.616
40946SOL    HW122862   8.835   0.011   7.532
40946SOL    HW222863   8.710   0.014   7.636
40947SOL     OW22864   8.748   0.453   8.139
40947SOL    HW122865   8.689   0.533   8.143
40947SOL    HW222866   8.763   0.418   8.232
40948SOL     OW22867   9.041   0.221   8.330
40948SOL    HW122868   8.957   0.220   8.384
40948SOL    HW222869   9.043   0.304   8.274
40949SOL     OW22870   7.487   1.077   7.748
40949SOL    HW122871   7.586   1.066   7.739
40949SOL    HW222872   7.447   0.991   7.780
40950SOL     OW22873   8.323   1.646   7.785
40950SOL    HW122874   8.246   1.611   7.731
40950SOL    HW222875   8.291   1.717   7.847
40951SOL     OW22876   7.678   0.628   9.423
40951SOL    HW122877   7.585   0.626   9.460
40951SOL    HW222878   7.679   0.589   9.331
40952SOL     OW22879   7.673   0.275  10.306
40952SOL    HW122880   7.708   0.258  10.398
40952SOL    HW222881   7.585   0.230  10.294
40953SOL     OW22882   7.467   0.368   9.957
40953SOL    HW122883   7.385   0.411   9.996
40953SOL    HW222884   7.439   0.295   9.894
40954SOL     OW22885   8.017   1.275  10.475
40954SOL    HW122886   7.924   1.268  10.438
40954SOL    HW222887   8.028   1.364  10.519
40955SOL     OW22888   9.003   1.511  10.013
40955SOL    HW122889   8.946   1.495  10.094
40955SOL    HW222890   8.944   1.521   9.933
40956SOL     OW22891   8.583   0.703  10.027
40956SOL    HW122892   8.640   0.781  10.002
40956SOL    HW222893   8.523   0.729  10.103
40957SOL     OW22894   9.203   0.607   9.541
40957SOL    HW122895   9.191   0.594   9.442
40957SOL    HW222896   9.173   0.526   9.590
40958SOL     OW22897   8.216   1.144  10.333
40958SOL    HW122898   8.138   1.161  10.393
40958SOL    HW222899   8.250   1.231  10.297
40959SOL     OW22900   8.298   0.798  11.133
40959SOL    HW122901   8.294   0.874  11.198
40959SOL    HW222902   8.320   0.834  11.042
40960SOL     OW22903   8.133   1.012   9.975
40960SOL    HW122904   8.202   0.996  10.045
40960SOL    HW222905   8.060   1.069  10.013
40961SOL     OW22906   8.134   1.161  11.113
40961SOL    HW122907   8.194   1.240  11.127
40961SOL    HW222908   8.048   1.192  11.072
40962SOL     OW22909   7.783   1.435  10.371
40962SOL    HW122910   7.705   1.404  10.318
40962SOL    HW222911   7.841   1.493  10.314
40963SOL     OW22912   8.908   1.505  10.649
40963SOL    HW122913   8.932   1.599  10.675
40963SOL    HW222914   8.892   1.451  10.731
40964SOL     OW22915   7.886   0.392  10.809
40964SOL    HW122916   7.968   0.336  10.818
40964SOL    HW222917   7.805   0.334  10.813
40965SOL     OW22918   9.051   0.447  10.047
40965SOL    HW122919   8.977   0.493   9.997
40965SOL    HW222920   9.102   0.515  10.100
40966SOL     OW22921   7.679   1.713   9.793
40966SOL    HW122922   7.713   1.790   9.847
40966SOL    HW222923   7.723   1.713   9.703
40967SOL     OW22924   8.575   1.341  11.000
40967SOL    HW122925   8.622   1.341  11.088
40967SOL    HW222926   8.527   1.254  10.989
40968SOL     OW22927   7.678   1.434   9.848
40968SOL    HW122928   7.652   1.530   9.848
40968SOL    HW222929   7.607   1.380   9.893
40969SOL     OW22930   7.688   1.091  10.196
40969SOL    HW122931   7.702   1.007  10.248
40969SOL    HW222932   7.633   1.155  10.251
40970SOL     OW22933   8.068   1.786  10.749
40970SOL    HW122934   7.976   1.769  10.784
40970SOL    HW222935   8.096   1.878  10.775
40971SOL     OW22936   8.054   0.964   9.433
40971SOL    HW122937   8.061   1.048   9.379
40971SOL    HW222938   8.100   0.977   9.521
40972SOL     OW22939   9.042   0.114  10.790
40972SOL    HW122940   9.024   0.181  10.718
40972SOL    HW222941   9.039   0.160  10.879
40973SOL     OW22942   7.570   0.643   9.873
40973SOL    HW122943   7.525   0.555   9.890
40973SOL    HW222944   7.569   0.697   9.957
40974SOL     OW22945   9.290   1.767   9.669
40974SOL    HW122946   9.344   1.738   9.749
40974SOL    HW222947   9.320   1.857   9.640
40975SOL     OW22948   7.475   1.596   9.427
40975SOL    HW122949   7.456   1.500   9.448
40975SOL    HW222950   7.442   1.654   9.502
40976SOL     OW22951   9.137   0.922   9.922
40976SOL    HW122952   9.232   0.893   9.930
40976SOL    HW222953   9.129   0.987   9.847
40977SOL     OW22954   9.089   1.108   9.742
40977SOL    HW122955   9.175   1.110   9.690
40977SOL    HW222956   9.103   1.155   9.830
40978SOL     OW22957   7.561   0.737  10.907
40978SOL    HW122958   7.649   0.724  10.952
40978SOL    HW222959   7.548   0.834  10.885
40979SOL     OW22960   8.061   1.365  10.036
40979SOL    HW122961   8.012   1.278  10.045
40979SOL    HW222962   8.038   1.408   9.949
40980SOL     OW22963   8.741   1.228  10.733
40980SOL    HW122964   8.778   1.155  10.675
40980SOL    HW222965   8.793   1.233  10.818
40981SOL     OW22966   8.257   0.004   9.812
40981SOL    HW122967   8.297   0.095   9.803
40981SOL    HW222968   8.157   0.012   9.818
40982SOL     OW22969   7.645   0.976  10.574
40982SOL    HW122970   7.734   0.931  10.560
40982SOL    HW222971   7.572   0.911  10.555
40983SOL     OW22972   8.973   0.999   9.500
40983SOL    HW122973   8.910   0.923   9.513
40983SOL    HW222974   9.021   1.017   9.586
40984SOL     OW22975   8.635   1.792  10.926
40984SOL    HW122976   8.659   1.852  10.850
40984SOL    HW222977   8.642   1.697  10.896
40985SOL     OW22978   7.765   0.251  11.111
40985SOL    HW122979   7.836   0.322  11.117
40985SOL    HW222980   7.677   0.290  11.139
40986SOL     OW22981   8.914   1.417  10.263
40986SOL    HW122982   8.855   1.423  10.343
40986SOL    HW222983   8.899   1.329  10.217
40987SOL     OW22984   9.115   1.714   9.882
40987SOL    HW122985   9.074   1.691   9.794
40987SOL    HW222986   9.097   1.640   9.947
40988SOL     OW22987   8.046   0.729   9.580
40988SOL    HW122988   8.070   0.798   9.512
40988SOL    HW222989   7.968   0.762   9.634
40989SOL     OW22990   8.729   0.345  10.254
40989SOL    HW122991   8.643   0.295  10.241
40989SOL    HW222992   8.791   0.291  10.310
40990SOL     OW22993   9.024   1.662   9.617
40990SOL    HW122994   9.113   1.708   9.620
40990SOL    HW222995   9.003   1.638   9.522
40991SOL     OW22996   8.255   0.605  10.775
40991SOL    HW122997   8.208   0.602  10.864
40991SOL    HW222998   8.204   0.550  10.709
40992SOL     OW22999   8.842   0.469  10.984
40992SOL    HW123000   8.822   0.512  11.072
40992SOL    HW223001   8.920   0.407  10.993
40993SOL     OW23002   8.421   0.890  10.882
40993SOL    HW123003   8.467   0.806  10.853
40993SOL    HW223004   8.365   0.924  10.807
40994SOL     OW23005   8.439   0.410  10.552
40994SOL    HW123006   8.362   0.444  10.606
40994SOL    HW223007   8.405   0.359  10.473
40995SOL     OW23008   8.489   0.701   9.739
40995SOL    HW123009   8.515   0.697   9.835
40995SOL    HW223010   8.404   0.650   9.725
40996SOL     OW23011   7.524   0.811  10.099
40996SOL    HW123012   7.623   0.799  10.108
40996SOL    HW223013   7.500   0.906  10.120
40997SOL     OW23014   7.578   1.821  10.881
40997SOL    HW123015   7.568   1.806  10.980
40997SOL    HW223016   7.492   1.857  10.845
40998SOL     OW23017   8.313   0.348   9.505
40998SOL    HW123018   8.372   0.411   9.456
40998SOL    HW223019   8.332   0.254   9.476
40999SOL     OW23020   9.167   0.585  11.141
40999SOL    HW123021   9.141   0.674  11.105
40999SOL    HW223022   9.165   0.517  11.068
41000SOL     OW23023   8.810   1.144   9.855
41000SOL    HW123024   8.893   1.115   9.807
41000SOL    HW223025   8.761   1.211   9.799
41001SOL     OW23026   7.998   0.196  10.195
41001SOL    HW123027   7.993   0.191  10.295
41001SOL    HW223028   8.000   0.292  10.166
41002SOL     OW23029   8.456   1.456   9.787
41002SOL    HW123030   8.410   1.528   9.735
41002SOL    HW223031   8.452   1.476   9.885
41003SOL     OW23032   7.799   1.801  10.163
41003SOL    HW123033   7.849   1.715  10.169
41003SOL    HW223034   7.864   1.878  10.160
41004SOL     OW23035   9.243   1.066  10.183
41004SOL    HW123036   9.181   1.051  10.107
41004SOL    HW223037   9.191   1.077  10.268
41005SOL     OW23038   8.675   1.550  10.816
41005SOL    HW123039   8.681   1.473  10.880
41005SOL    HW223040   8.623   1.524  10.736
41006SOL     OW23041   7.769   0.943   9.552
41006SOL    HW123042   7.851   0.982   9.510
41006SOL    HW223043   7.742   0.861   9.503
41007SOL     OW23044   8.906   0.735  10.038
41007SOL    HW123045   8.901   0.670  10.113
41007SOL    HW223046   8.986   0.794  10.051
41008SOL     OW23047   7.909   1.266  11.037
41008SOL    HW123048   7.859   1.267  10.951
41008SOL    HW223049   7.846   1.248  11.113
41009SOL     OW23050   8.559   1.776   9.547
41009SOL    HW123051   8.499   1.714   9.597
41009SOL    HW223052   8.590   1.732   9.462
41010SOL     OW23053   7.650   0.285  10.808
41010SOL    HW123054   7.570   0.345  10.795
41010SOL    HW223055   7.640   0.236  10.894
41011SOL     OW23056   9.080   1.377   9.391
41011SOL    HW123057   9.048   1.471   9.381
41011SOL    HW223058   9.004   1.314   9.379
41012SOL     OW23059   7.912   1.743   9.633
41012SOL    HW123060   7.945   1.782   9.719
41012SOL    HW223061   7.988   1.736   9.568
41013SOL     OW23062   8.848   0.107   9.736
41013SOL    HW123063   8.824   0.070   9.646
41013SOL    HW223064   8.947   0.123   9.740
41014SOL     OW23065   7.697   1.785  10.551
41014SOL    HW123066   7.754   1.720  10.601
41014SOL    HW223067   7.681   1.752  10.458
41015SOL     OW23068   8.388   1.698  10.214
41015SOL    HW123069   8.468   1.641  10.235
41015SOL    HW223070   8.339   1.658  10.137
41016SOL     OW23071   7.830   0.700   9.790
41016SOL    HW123072   7.875   0.610   9.787
41016SOL    HW223073   7.736   0.689   9.823
41017SOL     OW23074   8.995   0.222  11.039
41017SOL    HW123075   8.990   0.259  11.131
41017SOL    HW223076   8.923   0.153  11.027
41018SOL     OW23077   8.062   0.122   9.427
41018SOL    HW123078   8.160   0.100   9.434
41018SOL    HW223079   8.031   0.105   9.334
41019SOL     OW23080   8.229   0.264  11.059
41019SOL    HW123081   8.296   0.203  11.102
41019SOL    HW223082   8.156   0.283  11.124
41020SOL     OW23083   8.336   1.514  10.505
41020SOL    HW123084   8.313   1.489  10.411
41020SOL    HW223085   8.397   1.445  10.544
41021SOL     OW23086   8.799   0.590  10.743
41021SOL    HW123087   8.827   0.547  10.828
41021SOL    HW223088   8.824   0.686  10.744
41022SOL     OW23089   8.251   1.402  10.234
41022SOL    HW123090   8.341   1.416  10.192
41022SOL    HW223091   8.180   1.404  10.163
41023SOL     OW23092   8.370   0.503  10.209
41023SOL    HW123093   8.345   0.494  10.113
41023SOL    HW223094   8.418   0.421  10.240
41024SOL     OW23095   7.987   0.064   9.822
41024SOL    HW123096   7.906   0.065   9.880
41024SOL    HW223097   7.990   0.147   9.767
41025SOL     OW23098   8.882   1.188   9.351
41025SOL    HW123099   8.914   1.112   9.408
41025SOL    HW223100   8.790   1.215   9.381
41026SOL     OW23101   7.745   0.035   9.481
41026SOL    HW123102   7.794   0.119   9.460
41026SOL    HW223103   7.807  -0.030   9.526
41027SOL     OW23104   8.383   0.236   9.790
41027SOL    HW123105   8.335   0.277   9.712
41027SOL    HW223106   8.482   0.234   9.771
41028SOL     OW23107   8.524   0.683  10.774
41028SOL    HW123108   8.444   0.622  10.777
41028SOL    HW223109   8.605   0.630  10.750
41029SOL     OW23110   8.675   1.570  10.103
41029SOL    HW123111   8.696   1.644  10.038
41029SOL    HW223112   8.743   1.570  10.176
41030SOL     OW23113   7.907   1.152  10.051
41030SOL    HW123114   7.836   1.125  10.116
41030SOL    HW223115   7.881   1.124   9.958
41031SOL     OW23116   8.719   1.797   9.901
41031SOL    HW123117   8.763   1.861   9.837
41031SOL    HW223118   8.669   1.849   9.971
41032SOL     OW23119   8.480   0.549   9.326
41032SOL    HW123120   8.439   0.631   9.287
41032SOL    HW223121   8.544   0.575   9.399
41033SOL     OW23122   7.526   0.556  10.696
41033SOL    HW123123   7.618   0.555  10.655
41033SOL    HW223124   7.520   0.630  10.763
41034SOL     OW23125   8.009   0.222  10.457
41034SOL    HW123126   8.047   0.138  10.494
41034SOL    HW223127   7.921   0.241  10.501
41035SOL     OW23128   8.314   0.454   9.952
41035SOL    HW123129   8.282   0.526   9.890
41035SOL    HW223130   8.338   0.373   9.899
41036SOL     OW23131   8.465   0.039  10.063
41036SOL    HW123132   8.393   0.044   9.994
41036SOL    HW223133   8.441  -0.030  10.132
41037SOL     OW23134   8.877   1.173  10.177
41037SOL    HW123135   8.822   1.089  10.170
41037SOL    HW223136   8.903   1.202  10.085
41038SOL     OW23137   8.914   0.590  10.302
41038SOL    HW123138   8.884   0.495  10.309
41038SOL    HW223139   8.987   0.606  10.368
41039SOL     OW23140   9.305   0.833   9.687
41039SOL    HW123141   9.347   0.769   9.751
41039SOL    HW223142   9.267   0.782   9.609
41040SOL     OW23143   7.936   1.385   9.484
41040SOL    HW123144   7.849   1.370   9.531
41040SOL    HW223145   7.919   1.411   9.389
41041SOL     OW23146   9.112   1.280   9.967
41041SOL    HW123147   9.211   1.288   9.981
41041SOL    HW223148   9.067   1.364   9.998
41042SOL     OW23149   8.838   0.575   9.388
41042SOL    HW123150   8.784   0.554   9.469
41042SOL    HW223151   8.929   0.534   9.397
41043SOL     OW23152   7.975   0.256   9.638
41043SOL    HW123153   8.002   0.197   9.563
41043SOL    HW223154   7.975   0.351   9.607
41044SOL     OW23155   9.202   1.223  10.898
41044SOL    HW123156   9.293   1.184  10.885
41044SOL    HW223157   9.210   1.319  10.922
41045SOL     OW23158   8.512   1.347  10.650
41045SOL    HW123159   8.432   1.324  10.705
41045SOL    HW223160   8.595   1.321  10.699
41046SOL     OW23161   9.040   1.629  10.935
41046SOL    HW123162   9.067   1.663  10.845
41046SOL    HW223163   9.119   1.591  10.981
41047SOL     OW23164   8.559   1.195  10.410
41047SOL    HW123165   8.519   1.239  10.491
41047SOL    HW223166   8.518   1.232  10.327
41048SOL     OW23167   9.086   1.099  10.389
41048SOL    HW123168   9.091   1.180  10.448
41048SOL    HW223169   9.000   1.101  10.338
41049SOL     OW23170   8.363   0.089  10.712
41049SOL    HW123171   8.388   0.069  10.617
41049SOL    HW223172   8.435   0.145  10.754
41050SOL     OW23173   8.428   1.116  11.029
41050SOL    HW123174   8.329   1.122  11.039
41050SOL    HW223175   8.451   1.036  10.973
41051SOL     OW23176   8.153   1.050   9.678
41051SOL    HW123177   8.139   1.057   9.777
41051SOL    HW223178   8.237   0.999   9.660
41052SOL     OW23179   7.858   0.813  10.561
41052SOL    HW123180   7.944   0.825  10.611
41052SOL    HW223181   7.816   0.726  10.588
41053SOL     OW23182   8.722   0.386  10.572
41053SOL    HW123183   8.743   0.460  10.636
41053SOL    HW223184   8.633   0.403  10.529
41054SOL     OW23185   7.512   1.564  10.641
41054SOL    HW123186   7.466   1.646  10.607
41054SOL    HW223187   7.610   1.583  10.650
41055SOL     OW23188   7.815   1.100   9.811
41055SOL    HW123189   7.808   1.183   9.755
41055SOL    HW223190   7.819   1.020   9.751
41056SOL     OW23191   8.014   0.537  10.175
41056SOL    HW123192   8.026   0.603  10.101
41056SOL    HW223193   8.060   0.571  10.258
41057SOL     OW23194   8.700   1.348   9.698
41057SOL    HW123195   8.750   1.425   9.738
41057SOL    HW223196   8.605   1.350   9.730
41058SOL     OW23197   8.720   1.445  10.452
41058SOL    HW123198   8.767   1.458  10.539
41058SOL    HW223199   8.654   1.371  10.461
41059SOL     OW23200   9.030   0.639   9.782
41059SOL    HW123201   8.999   0.700   9.855
41059SOL    HW223202   9.080   0.691   9.713
41060SOL     OW23203   7.802   1.510  10.639
41060SOL    HW123204   7.781   1.466  10.552
41060SOL    HW223205   7.899   1.536  10.642
41061SOL     OW23206   7.850   0.751  10.908
41061SOL    HW123207   7.918   0.806  10.861
41061SOL    HW223208   7.890   0.663  10.935
41062SOL     OW23209   9.035   0.779  10.980
41062SOL    HW123210   8.943   0.817  10.975
41062SOL    HW223211   9.095   0.826  10.915
41063SOL     OW23212   8.461   0.105  11.080
41063SOL    HW123213   8.467   0.190  11.028
41063SOL    HW223214   8.493   0.029  11.023
41064SOL     OW23215   7.952   0.050  11.050
41064SOL    HW123216   7.910  -0.007  10.980
41064SOL    HW223217   7.886   0.119  11.082
41065SOL     OW23218   8.021   0.870  10.339
41065SOL    HW123219   8.065   0.959  10.330
41065SOL    HW223220   7.958   0.870  10.416
41066SOL     OW23221   8.808   0.862  10.355
41066SOL    HW123222   8.733   0.862  10.289
41066SOL    HW223223   8.845   0.770  10.364
41067SOL     OW23224   8.657   0.525   9.585
41067SOL    HW123225   8.670   0.441   9.639
41067SOL    HW223226   8.628   0.599   9.645
41068SOL     OW23227   7.755   0.213  10.541
41068SOL    HW123228   7.732   0.250  10.631
41068SOL    HW223229   7.725   0.118  10.535
41069SOL     OW23230   7.485   1.310  10.592
41069SOL    HW123231   7.538   1.261  10.660
41069SOL    HW223232   7.507   1.408  10.597
41070SOL     OW23233   8.180   0.634  10.374
41070SOL    HW123234   8.239   0.608  10.298
41070SOL    HW223235   8.152   0.730  10.363
41071SOL     OW23236   9.176   0.935  11.164
41071SOL    HW123237   9.130   0.928  11.075
41071SOL    HW223238   9.114   0.979  11.230
41072SOL     OW23239   7.755   0.063   9.928
41072SOL    HW123240   7.744   0.157   9.961
41072SOL    HW223241   7.750   0.000  10.005
41073SOL     OW23242   9.070   0.367   9.684
41073SOL    HW123243   9.072   0.291   9.748
41073SOL    HW223244   9.022   0.444   9.724
41074SOL     OW23245   8.471   0.766  10.276
41074SOL    HW123246   8.486   0.787  10.372
41074SOL    HW223247   8.441   0.671  10.267
41075SOL     OW23248   8.428   1.573  11.010
41075SOL    HW123249   8.408   1.617  10.922
41075SOL    HW223250   8.467   1.482  10.994
41076SOL     OW23251   9.307   1.518  10.915
41076SOL    HW123252   9.321   1.545  10.820
41076SOL    HW223253   9.390   1.540  10.968
41077SOL     OW23254   7.798   0.898  11.114
41077SOL    HW123255   7.874   0.942  11.162
41077SOL    HW223256   7.833   0.851  11.032
41078SOL     OW23257   8.988   0.274   9.435
41078SOL    HW123258   8.927   0.199   9.458
41078SOL    HW223259   9.010   0.326   9.518
41079SOL     OW23260   8.751   0.838   9.352
41079SOL    HW123261   8.785   0.745   9.367
41079SOL    HW223262   8.769   0.865   9.257
41080SOL     OW23263   8.516   1.333  10.159
41080SOL    HW123264   8.523   1.249  10.104
41080SOL    HW223265   8.578   1.402  10.123
41081SOL     OW23266   7.767   0.810  10.259
41081SOL    HW123267   7.860   0.846  10.264
41081SOL    HW223268   7.761   0.725  10.311
41082SOL     OW23269   7.787   0.509  10.316
41082SOL    HW123270   7.735   0.426  10.299
41082SOL    HW223271   7.864   0.514  10.252
41083SOL     OW23272   8.586   0.380  10.988
41083SOL    HW123273   8.541   0.443  11.052
41083SOL    HW223274   8.679   0.411  10.971
41084SOL     OW23275   8.608   0.207  10.787
41084SOL    HW123276   8.608   0.271  10.864
41084SOL    HW223277   8.636   0.255  10.704
41085SOL     OW23278   7.456   1.326   9.510
41085SOL    HW123279   7.363   1.347   9.479
41085SOL    HW223280   7.466   1.227   9.523
41086SOL     OW23281   7.536   1.801  10.237
41086SOL    HW123282   7.494   1.715  10.210
41086SOL    HW223283   7.630   1.804  10.203
41087SOL     OW23284   7.952   1.568  10.220
41087SOL    HW123285   8.018   1.642  10.229
41087SOL    HW223286   7.996   1.489  10.178
41088SOL     OW23287   8.450   0.796  10.548
41088SOL    HW123288   8.491   0.764  10.634
41088SOL    HW223289   8.354   0.769  10.545
41089SOL     OW23290   7.488   0.544  10.424
41089SOL    HW123291   7.573   0.511  10.383
41089SOL    HW223292   7.501   0.559  10.522
41090SOL     OW23293   7.637   0.520  11.032
41090SOL    HW123294   7.696   0.480  10.962
41090SOL    HW223295   7.579   0.591  10.991
41091SOL     OW23296   8.817   0.950  10.970
41091SOL    HW123297   8.856   1.039  10.990
41091SOL    HW223298   8.827   0.930  10.873
41092SOL     OW23299   8.263   0.572   9.635
41092SOL    HW123300   8.270   0.483   9.589
41092SOL    HW223301   8.169   0.606   9.627
41093SOL     OW23302   9.105   0.604  10.516
41093SOL    HW123303   9.067   0.535  10.578
41093SOL    HW223304   9.187   0.568  10.472
41094SOL     OW23305   7.700   1.564  11.054
41094SOL    HW123306   7.670   1.621  11.130
41094SOL    HW223307   7.693   1.467  11.080
41095SOL     OW23308   8.119   0.464  10.579
41095SOL    HW123309   8.085   0.375  10.549
41095SOL    HW223310   8.145   0.518  10.499
41096SOL     OW23311   8.378   1.678  10.775
41096SOL    HW123312   8.354   1.660  10.680
41096SOL    HW223313   8.408   1.772  10.785
41097SOL     OW23314   7.921   0.500   9.501
41097SOL    HW123315   7.982   0.580   9.505
41097SOL    HW223316   7.826   0.531   9.508
41098SOL     OW23317   7.607   1.137  10.776
41098SOL    HW123318   7.629   1.076  10.852
41098SOL    HW223319   7.617   1.088  10.690
41099SOL     OW23320   8.750   0.855   9.619
41099SOL    HW123321   8.664   0.824   9.661
41099SOL    HW223322   8.746   0.841   9.520
41100SOL     OW23323   9.207   1.747  10.464
41100SOL    HW123324   9.268   1.777  10.391
41100SOL    HW223325   9.169   1.658  10.442
41101SOL     OW23326   8.700   1.731  10.438
41101SOL    HW123327   8.784   1.736  10.384
41101SOL    HW223328   8.677   1.635  10.456
41102SOL     OW23329   7.531   1.258  10.332
41102SOL    HW123330   7.526   1.257  10.432
41102SOL    HW223331   7.448   1.217  10.294
41103SOL     OW23332   8.136   1.662  11.026
41103SOL    HW123333   8.080   1.743  11.035
41103SOL    HW223334   8.188   1.666  10.940
41104SOL     OW23335   9.174   0.135   9.833
41104SOL    HW123336   9.247   0.118   9.766
41104SOL    HW223337   9.143   0.048   9.871
41105SOL     OW23338   8.836   1.573   9.787
41105SOL    HW123339   8.903   1.585   9.713
41105SOL    HW223340   8.796   1.662   9.810
41106SOL     OW23341   7.578   1.794  11.161
41106SOL    HW123342   7.537   1.720  11.214
41106SOL    HW223343   7.642   1.845  11.219
41107SOL     OW23344   8.728   0.927   9.982
41107SOL    HW123345   8.788   0.846   9.984
41107SOL    HW223346   8.768   0.996   9.922
41108SOL     OW23347   8.278   1.273  10.732
41108SOL    HW123348   8.273   1.306  10.827
41108SOL    HW223349   8.192   1.292  10.686
41109SOL     OW23350   8.120   1.616   9.464
41109SOL    HW123351   8.129   1.626   9.365
41109SOL    HW223352   8.080   1.527   9.485
41110SOL     OW23353   9.098   1.720  10.704
41110SOL    HW123354   9.151   1.730  10.620
41110SOL    HW223355   9.071   1.810  10.738
41111SOL     OW23356   9.289   0.175  10.273
41111SOL    HW123357   9.328   0.090  10.237
41111SOL    HW223358   9.191   0.177  10.254
41112SOL     OW23359   7.711   0.326  10.030
41112SOL    HW123360   7.632   0.377   9.996
41112SOL    HW223361   7.702   0.311  10.128
41113SOL     OW23362   8.642   1.612   9.341
41113SOL    HW123363   8.648   1.519   9.378
41113SOL    HW223364   8.583   1.612   9.261
41114SOL     OW23365   8.270   1.002  10.682
41114SOL    HW123366   8.310   1.001  10.590
41114SOL    HW223367   8.280   1.094  10.722
41115SOL     OW23368   8.364   0.910   9.601
41115SOL    HW123369   8.427   0.948   9.533
41115SOL    HW223370   8.404   0.827   9.640
41116SOL     OW23371   8.952   1.607   9.354
41116SOL    HW123372   8.860   1.644   9.361
41116SOL    HW223373   8.990   1.627   9.264
41117SOL     OW23374   7.820   1.288  10.800
41117SOL    HW123375   7.807   1.381  10.766
41117SOL    HW223376   7.736   1.236  10.787
41118SOL     OW23377   9.062   1.292  10.599
41118SOL    HW123378   9.122   1.295  10.679
41118SOL    HW223379   8.987   1.356  10.612
41119SOL     OW23380   8.487   1.098  10.006
41119SOL    HW123381   8.417   1.051  10.060
41119SOL    HW223382   8.546   1.030   9.963
41120SOL     OW23383   8.462   0.236  10.281
41120SOL    HW123384   8.454   0.200  10.188
41120SOL    HW223385   8.460   0.160  10.346
41121SOL     OW23386   8.038   1.487   9.801
41121SOL    HW123387   8.080   1.429   9.731
41121SOL    HW223388   7.994   1.566   9.757
41122SOL     OW23389   9.157   0.385  10.691
41122SOL    HW123390   9.230   0.454  10.695
41122SOL    HW223391   9.185   0.310  10.632
41123SOL     OW23392   7.703   1.348   9.600
41123SOL    HW123393   7.607   1.349   9.573
41123SOL    HW223394   7.715   1.401   9.684
41124SOL     OW23395   8.120   0.203  10.799
41124SOL    HW123396   8.210   0.187  10.759
41124SOL    HW223397   8.128   0.208  10.898
41125SOL     OW23398   7.523   0.345   9.343
41125SOL    HW123399   7.431   0.317   9.314
41125SOL    HW223400   7.554   0.422   9.287
41126SOL     OW23401   8.888   0.856  10.708
41126SOL    HW123402   8.831   0.908  10.645
41126SOL    HW223403   8.984   0.868  10.684
41127SOL     OW23404   7.520   0.166   9.628
41127SOL    HW123405   7.503   0.249   9.574
41127SOL    HW223406   7.610   0.129   9.606
41128SOL     OW23407   8.631   1.335   9.429
41128SOL    HW123408   8.532   1.324   9.431
41128SOL    HW223409   8.665   1.350   9.522
41129SOL     OW23410   8.061   0.842  10.741
41129SOL    HW123411   8.117   0.923  10.724
41129SOL    HW223412   8.120   0.762  10.744
41130SOL     OW23413   8.941   1.767  10.269
41130SOL    HW123414   8.974   1.831  10.200
41130SOL    HW223415   9.007   1.761  10.344
41131SOL     OW23416   8.164   0.565  11.018
41131SOL    HW123417   8.183   0.630  11.092
41131SOL    HW223418   8.224   0.485  11.027
41132SOL     OW23419   8.898   1.220  10.943
41132SOL    HW123420   8.889   1.210  11.042
41132SOL    HW223421   8.994   1.213  10.917
41133SOL     OW23422   7.838   1.741  10.870
41133SOL    HW123423   7.747   1.782  10.868
41133SOL    HW223424   7.831   1.647  10.902
41134SOL     OW23425   9.122   0.883  10.564
41134SOL    HW123426   9.095   0.794  10.527
41134SOL    HW223427   9.123   0.951  10.491
41135SOL     OW23428   8.673   0.325   9.759
41135SOL    HW123429   8.738   0.251   9.748
41135SOL    HW223430   8.693   0.375   9.843
41136SOL     OW23431   8.042   0.745   9.962
41136SOL    HW123432   8.092   0.830   9.943
41136SOL    HW223433   7.954   0.747   9.914
41137SOL     OW23434   9.225   0.342  10.952
41137SOL    HW123435   9.208   0.373  10.858
41137SOL    HW223436   9.141   0.305  10.990
41138SOL     OW23437   9.178   0.934  10.827
41138SOL    HW123438   9.216   1.025  10.842
41138SOL    HW223439   9.170   0.917  10.728
41139SOL     OW23440   8.307   1.374   9.326
41139SOL    HW123441   8.261   1.389   9.414
41139SOL    HW223442   8.351   1.459   9.296
41140SOL     OW23443   8.109   1.790  10.263
41140SOL    HW123444   8.063   1.878  10.250
41140SOL    HW223445   8.208   1.802  10.256
41141SOL     OW23446   8.307   0.956  10.171
41141SOL    HW123447   8.361   0.887  10.219
41141SOL    HW223448   8.275   1.025  10.237
41142SOL     OW23449   8.531   0.984   9.397
41142SOL    HW123450   8.508   1.037   9.315
41142SOL    HW223451   8.612   0.928   9.378
41143SOL     OW23452   9.309   1.569  10.161
41143SOL    HW123453   9.238   1.557  10.091
41143SOL    HW223454   9.310   1.490  10.221
41144SOL     OW23455   7.669   1.314  11.154
41144SOL    HW123456   7.604   1.241  11.133
41144SOL    HW223457   7.673   1.328  11.252
41145SOL     OW23458   7.527   1.240   9.963
41145SOL    HW123459   7.526   1.193  10.051
41145SOL    HW223460   7.609   1.212   9.912
41146SOL     OW23461   8.120   1.391  10.934
41146SOL    HW123462   8.042   1.341  10.972
41146SOL    HW223463   8.117   1.486  10.965
41147SOL     OW23464   9.272   0.192  10.537
41147SOL    HW123465   9.268   0.102  10.581
41147SOL    HW223466   9.275   0.181  10.438
41148SOL     OW23467   7.876   0.424   9.830
41148SOL    HW123468   7.906   0.352   9.768
41148SOL    HW223469   7.837   0.384   9.913
41149SOL     OW23470   9.153   1.487  10.414
41149SOL    HW123471   9.060   1.462  10.387
41149SOL    HW223472   9.179   1.437  10.496
41150SOL     OW23473   7.765   0.547  10.590
41150SOL    HW123474   7.803   0.488  10.662
41150SOL    HW223475   7.805   0.521  10.502
41151SOL     OW23476   8.260   1.586   9.997
41151SOL    HW123477   8.292   1.596   9.903
41151SOL    HW223478   8.181   1.524   9.999
41152SOL     OW23479   8.872   0.214  10.422
41152SOL    HW123480   8.924   0.149  10.477
41152SOL    HW223481   8.823   0.277  10.483
41153SOL     OW23482   8.449   0.034  10.464
41153SOL    HW123483   8.386  -0.038  10.433
41153SOL    HW223484   8.542  -0.002  10.464
41154SOL     OW23485   8.218   1.330   9.611
41154SOL    HW123486   8.172   1.243   9.628
41154SOL    HW223487   8.309   1.327   9.652
41155SOL     OW23488   8.066   1.567  10.594
41155SOL    HW123489   8.061   1.649  10.651
41155SOL    HW223490   8.155   1.564  10.549
41156SOL     OW23491   8.800   0.052   9.478
41156SOL    HW123492   8.835   0.011   9.394
41156SOL    HW223493   8.710   0.014   9.498
41157SOL     OW23494   8.748   0.453  10.001
41157SOL    HW123495   8.689   0.533  10.005
41157SOL    HW223496   8.763   0.418  10.094
41158SOL     OW23497   9.041   0.221  10.192
41158SOL    HW123498   8.957   0.220  10.246
41158SOL    HW223499   9.043   0.304  10.136
41159SOL     OW23500   7.487   1.077   9.610
41159SOL    HW123501   7.586   1.066   9.601
41159SOL    HW223502   7.447   0.991   9.642
41160SOL     OW23503   8.323   1.646   9.647
41160SOL    HW123504   8.246   1.611   9.593
41160SOL    HW223505   8.291   1.717   9.709
41161SOL     OW23506   7.678   0.628  11.285
41161SOL    HW123507   7.585   0.626  11.322
41161SOL    HW223508   7.679   0.589  11.193
41162SOL     OW23509   7.673   0.275  12.168
41162SOL    HW123510   7.708   0.258  12.260
41162SOL    HW223511   7.585   0.230  12.156
41163SOL     OW23512   7.467   0.368  11.819
41163SOL    HW123513   7.385   0.411  11.858
41163SOL    HW223514   7.439   0.295  11.756
41164SOL     OW23515   8.017   1.275  12.337
41164SOL    HW123516   7.924   1.268  12.300
41164SOL    HW223517   8.028   1.364  12.381
41165SOL     OW23518   9.003   1.511  11.875
41165SOL    HW123519   8.946   1.495  11.956
41165SOL    HW223520   8.944   1.521  11.795
41166SOL     OW23521   8.583   0.703  11.889
41166SOL    HW123522   8.640   0.781  11.864
41166SOL    HW223523   8.523   0.729  11.965
41167SOL     OW23524   9.203   0.607  11.403
41167SOL    HW123525   9.191   0.594  11.304
41167SOL    HW223526   9.173   0.526  11.452
41168SOL     OW23527   8.216   1.144  12.195
41168SOL    HW123528   8.138   1.161  12.255
41168SOL    HW223529   8.250   1.231  12.159
41169SOL     OW23530   8.133   1.012  11.837
41169SOL    HW123531   8.202   0.996  11.907
41169SOL    HW223532   8.060   1.069  11.875
41170SOL     OW23533   7.783   1.435  12.233
41170SOL    HW123534   7.705   1.404  12.180
41170SOL    HW223535   7.841   1.493  12.176
41171SOL     OW23536   8.908   1.505  12.511
41171SOL    HW123537   8.932   1.599  12.537
41171SOL    HW223538   8.892   1.451  12.593
41172SOL     OW23539   7.886   0.392  12.671
41172SOL    HW123540   7.968   0.336  12.680
41172SOL    HW223541   7.805   0.334  12.675
41173SOL     OW23542   9.051   0.447  11.909
41173SOL    HW123543   8.977   0.493  11.859
41173SOL    HW223544   9.102   0.515  11.962
41174SOL     OW23545   7.679   1.713  11.655
41174SOL    HW123546   7.713   1.790  11.709
41174SOL    HW223547   7.723   1.713  11.565
41175SOL     OW23548   7.678   1.434  11.710
41175SOL    HW123549   7.652   1.530  11.710
41175SOL    HW223550   7.607   1.380  11.755
41176SOL     OW23551   7.688   1.091  12.058
41176SOL    HW123552   7.702   1.007  12.110
41176SOL    HW223553   7.633   1.155  12.113
41177SOL     OW23554   8.068   1.786  12.611
41177SOL    HW123555   7.976   1.769  12.646
41177SOL    HW223556   8.096   1.878  12.637
41178SOL     OW23557   8.054   0.964  11.295
41178SOL    HW123558   8.061   1.048  11.241
41178SOL    HW223559   8.100   0.977  11.383
41179SOL     OW23560   9.042   0.114  12.652
41179SOL    HW123561   9.024   0.181  12.580
41179SOL    HW223562   9.039   0.160  12.741
41180SOL     OW23563   7.570   0.643  11.735
41180SOL    HW123564   7.525   0.555  11.752
41180SOL    HW223565   7.569   0.697  11.819
41181SOL     OW23566   9.290   1.767  11.531
41181SOL    HW123567   9.344   1.738  11.611
41181SOL    HW223568   9.320   1.857  11.502
41182SOL     OW23569   7.475   1.596  11.289
41182SOL    HW123570   7.456   1.500  11.310
41182SOL    HW223571   7.442   1.654  11.364
41183SOL     OW23572   9.137   0.922  11.784
41183SOL    HW123573   9.232   0.893  11.792
41183SOL    HW223574   9.129   0.987  11.709
41184SOL     OW23575   9.089   1.108  11.604
41184SOL    HW123576   9.175   1.110  11.552
41184SOL    HW223577   9.103   1.155  11.692
41185SOL     OW23578   8.061   1.365  11.898
41185SOL    HW123579   8.012   1.278  11.907
41185SOL    HW223580   8.038   1.408  11.811
41186SOL     OW23581   8.741   1.228  12.595
41186SOL    HW123582   8.778   1.155  12.537
41186SOL    HW223583   8.793   1.233  12.680
41187SOL     OW23584   8.257   0.004  11.674
41187SOL    HW123585   8.297   0.095  11.665
41187SOL    HW223586   8.157   0.012  11.680
41188SOL     OW23587   7.645   0.976  12.436
41188SOL    HW123588   7.734   0.931  12.422
41188SOL    HW223589   7.572   0.911  12.417
41189SOL     OW23590   8.973   0.999  11.362
41189SOL    HW123591   8.910   0.923  11.375
41189SOL    HW223592   9.021   1.017  11.448
41190SOL     OW23593   8.914   1.417  12.125
41190SOL    HW123594   8.855   1.423  12.205
41190SOL    HW223595   8.899   1.329  12.079
41191SOL     OW23596   9.115   1.714  11.744
41191SOL    HW123597   9.074   1.691  11.656
41191SOL    HW223598   9.097   1.640  11.809
41192SOL     OW23599   8.046   0.729  11.442
41192SOL    HW123600   8.070   0.798  11.374
41192SOL    HW223601   7.968   0.762  11.496
41193SOL     OW23602   8.729   0.345  12.116
41193SOL    HW123603   8.643   0.295  12.103
41193SOL    HW223604   8.791   0.291  12.172
41194SOL     OW23605   9.024   1.662  11.479
41194SOL    HW123606   9.113   1.708  11.482
41194SOL    HW223607   9.003   1.638  11.384
41195SOL     OW23608   8.255   0.605  12.637
41195SOL    HW123609   8.208   0.602  12.726
41195SOL    HW223610   8.204   0.550  12.571
41196SOL     OW23611   8.421   0.890  12.744
41196SOL    HW123612   8.467   0.806  12.715
41196SOL    HW223613   8.365   0.924  12.669
41197SOL     OW23614   8.439   0.410  12.414
41197SOL    HW123615   8.362   0.444  12.468
41197SOL    HW223616   8.405   0.359  12.335
41198SOL     OW23617   8.489   0.701  11.601
41198SOL    HW123618   8.515   0.697  11.697
41198SOL    HW223619   8.404   0.650  11.587
41199SOL     OW23620   7.524   0.811  11.961
41199SOL    HW123621   7.623   0.799  11.970
41199SOL    HW223622   7.500   0.906  11.982
41200SOL     OW23623   7.578   1.821  12.743
41200SOL    HW123624   7.568   1.806  12.842
41200SOL    HW223625   7.492   1.857  12.707
41201SOL     OW23626   8.313   0.348  11.367
41201SOL    HW123627   8.372   0.411  11.318
41201SOL    HW223628   8.332   0.254  11.338
41202SOL     OW23629   8.810   1.144  11.717
41202SOL    HW123630   8.893   1.115  11.669
41202SOL    HW223631   8.761   1.211  11.661
41203SOL     OW23632   7.998   0.196  12.057
41203SOL    HW123633   7.993   0.191  12.157
41203SOL    HW223634   8.000   0.292  12.028
41204SOL     OW23635   8.456   1.456  11.649
41204SOL    HW123636   8.410   1.528  11.597
41204SOL    HW223637   8.452   1.476  11.747
41205SOL     OW23638   7.799   1.801  12.025
41205SOL    HW123639   7.849   1.715  12.031
41205SOL    HW223640   7.864   1.878  12.022
41206SOL     OW23641   9.243   1.066  12.045
41206SOL    HW123642   9.181   1.051  11.969
41206SOL    HW223643   9.191   1.077  12.130
41207SOL     OW23644   8.675   1.550  12.678
41207SOL    HW123645   8.681   1.473  12.742
41207SOL    HW223646   8.623   1.524  12.598
41208SOL     OW23647   7.769   0.943  11.414
41208SOL    HW123648   7.851   0.982  11.372
41208SOL    HW223649   7.742   0.861  11.365
41209SOL     OW23650   8.906   0.735  11.900
41209SOL    HW123651   8.901   0.670  11.975
41209SOL    HW223652   8.986   0.794  11.913
41210SOL     OW23653   8.559   1.776  11.409
41210SOL    HW123654   8.499   1.714  11.459
41210SOL    HW223655   8.590   1.732  11.324
41211SOL     OW23656   7.650   0.285  12.670
41211SOL    HW123657   7.570   0.345  12.657
41211SOL    HW223658   7.640   0.236  12.756
41212SOL     OW23659   9.080   1.377  11.253
41212SOL    HW123660   9.048   1.471  11.243
41212SOL    HW223661   9.004   1.314  11.241
41213SOL     OW23662   7.912   1.743  11.495
41213SOL    HW123663   7.945   1.782  11.581
41213SOL    HW223664   7.988   1.736  11.430
41214SOL     OW23665   8.848   0.107  11.598
41214SOL    HW123666   8.824   0.070  11.508
41214SOL    HW223667   8.947   0.123  11.602
41215SOL     OW23668   7.697   1.785  12.413
41215SOL    HW123669   7.754   1.720  12.463
41215SOL    HW223670   7.681   1.752  12.320
41216SOL     OW23671   8.388   1.698  12.076
41216SOL    HW123672   8.468   1.641  12.097
41216SOL    HW223673   8.339   1.658  11.999
41217SOL     OW23674   7.830   0.700  11.652
41217SOL    HW123675   7.875   0.610  11.649
41217SOL    HW223676   7.736   0.689  11.685
41218SOL     OW23677   8.062   0.122  11.289
41218SOL    HW123678   8.160   0.100  11.296
41218SOL    HW223679   8.031   0.105  11.196
41219SOL     OW23680   8.336   1.514  12.367
41219SOL    HW123681   8.313   1.489  12.273
41219SOL    HW223682   8.397   1.445  12.406
41220SOL     OW23683   8.799   0.590  12.605
41220SOL    HW123684   8.827   0.547  12.690
41220SOL    HW223685   8.824   0.686  12.606
41221SOL     OW23686   8.251   1.402  12.096
41221SOL    HW123687   8.341   1.416  12.054
41221SOL    HW223688   8.180   1.404  12.025
41222SOL     OW23689   8.370   0.503  12.071
41222SOL    HW123690   8.345   0.494  11.975
41222SOL    HW223691   8.418   0.421  12.102
41223SOL     OW23692   7.987   0.064  11.684
41223SOL    HW123693   7.906   0.065  11.742
41223SOL    HW223694   7.990   0.147  11.629
41224SOL     OW23695   8.882   1.188  11.213
41224SOL    HW123696   8.914   1.112  11.270
41224SOL    HW223697   8.790   1.215  11.243
41225SOL     OW23698   7.745   0.035  11.343
41225SOL    HW123699   7.794   0.119  11.322
41225SOL    HW223700   7.807  -0.030  11.388
41226SOL     OW23701   8.383   0.236  11.652
41226SOL    HW123702   8.335   0.277  11.574
41226SOL    HW223703   8.482   0.234  11.633
41227SOL     OW23704   8.524   0.683  12.636
41227SOL    HW123705   8.444   0.622  12.639
41227SOL    HW223706   8.605   0.630  12.612
41228SOL     OW23707   8.675   1.570  11.965
41228SOL    HW123708   8.696   1.644  11.900
41228SOL    HW223709   8.743   1.570  12.038
41229SOL     OW23710   7.907   1.152  11.913
41229SOL    HW123711   7.836   1.125  11.978
41229SOL    HW223712   7.881   1.124  11.820
41230SOL     OW23713   8.719   1.797  11.763
41230SOL    HW123714   8.763   1.861  11.699
41230SOL    HW223715   8.669   1.849  11.833
41231SOL     OW23716   8.480   0.549  11.188
41231SOL    HW123717   8.439   0.631  11.149
41231SOL    HW223718   8.544   0.575  11.261
41232SOL     OW23719   7.526   0.556  12.558
41232SOL    HW123720   7.618   0.555  12.517
41232SOL    HW223721   7.520   0.630  12.625
41233SOL     OW23722   8.009   0.222  12.319
41233SOL    HW123723   8.047   0.138  12.356
41233SOL    HW223724   7.921   0.241  12.363
41234SOL     OW23725   8.314   0.454  11.814
41234SOL    HW123726   8.282   0.526  11.752
41234SOL    HW223727   8.338   0.373  11.761
41235SOL     OW23728   8.465   0.039  11.925
41235SOL    HW123729   8.393   0.044  11.856
41235SOL    HW223730   8.441  -0.030  11.994
41236SOL     OW23731   8.877   1.173  12.039
41236SOL    HW123732   8.822   1.089  12.032
41236SOL    HW223733   8.903   1.202  11.947
41237SOL     OW23734   8.914   0.590  12.164
41237SOL    HW123735   8.884   0.495  12.171
41237SOL    HW223736   8.987   0.606  12.230
41238SOL     OW23737   9.305   0.833  11.549
41238SOL    HW123738   9.347   0.769  11.613
41238SOL    HW223739   9.267   0.782  11.471
41239SOL     OW23740   7.936   1.385  11.346
41239SOL    HW123741   7.849   1.370  11.393
41239SOL    HW223742   7.919   1.411  11.251
41240SOL     OW23743   9.112   1.280  11.829
41240SOL    HW123744   9.211   1.288  11.843
41240SOL    HW223745   9.067   1.364  11.860
41241SOL     OW23746   8.838   0.575  11.250
41241SOL    HW123747   8.784   0.554  11.331
41241SOL    HW223748   8.929   0.534  11.259
41242SOL     OW23749   7.975   0.256  11.500
41242SOL    HW123750   8.002   0.197  11.425
41242SOL    HW223751   7.975   0.351  11.469
41243SOL     OW23752   9.202   1.223  12.760
41243SOL    HW123753   9.293   1.184  12.747
41243SOL    HW223754   9.210   1.319  12.784
41244SOL     OW23755   8.512   1.347  12.512
41244SOL    HW123756   8.432   1.324  12.567
41244SOL    HW223757   8.595   1.321  12.561
41245SOL     OW23758   8.559   1.195  12.272
41245SOL    HW123759   8.519   1.239  12.353
41245SOL    HW223760   8.518   1.232  12.189
41246SOL     OW23761   9.086   1.099  12.251
41246SOL    HW123762   9.091   1.180  12.310
41246SOL    HW223763   9.000   1.101  12.200
41247SOL     OW23764   8.363   0.089  12.574
41247SOL    HW123765   8.388   0.069  12.479
41247SOL    HW223766   8.435   0.145  12.616
41248SOL     OW23767   8.153   1.050  11.540
41248SOL    HW123768   8.139   1.057  11.639
41248SOL    HW223769   8.237   0.999  11.522
41249SOL     OW23770   7.858   0.813  12.423
41249SOL    HW123771   7.944   0.825  12.473
41249SOL    HW223772   7.816   0.726  12.450
41250SOL     OW23773   8.722   0.386  12.434
41250SOL    HW123774   8.743   0.460  12.498
41250SOL    HW223775   8.633   0.403  12.391
41251SOL     OW23776   7.512   1.564  12.503
41251SOL    HW123777   7.466   1.646  12.469
41251SOL    HW223778   7.610   1.583  12.512
41252SOL     OW23779   7.815   1.100  11.673
41252SOL    HW123780   7.808   1.183  11.617
41252SOL    HW223781   7.819   1.020  11.613
41253SOL     OW23782   8.014   0.537  12.037
41253SOL    HW123783   8.026   0.603  11.963
41253SOL    HW223784   8.060   0.571  12.120
41254SOL     OW23785   8.700   1.348  11.560
41254SOL    HW123786   8.750   1.425  11.600
41254SOL    HW223787   8.605   1.350  11.592
41255SOL     OW23788   8.720   1.445  12.314
41255SOL    HW123789   8.767   1.458  12.401
41255SOL    HW223790   8.654   1.371  12.323
41256SOL     OW23791   9.030   0.639  11.644
41256SOL    HW123792   8.999   0.700  11.717
41256SOL    HW223793   9.080   0.691  11.575
41257SOL     OW23794   7.802   1.510  12.501
41257SOL    HW123795   7.781   1.466  12.414
41257SOL    HW223796   7.899   1.536  12.504
41258SOL     OW23797   7.850   0.751  12.770
41258SOL    HW123798   7.918   0.806  12.723
41258SOL    HW223799   7.890   0.663  12.797
41259SOL     OW23800   9.035   0.779  12.842
41259SOL    HW123801   8.943   0.817  12.837
41259SOL    HW223802   9.095   0.826  12.777
41260SOL     OW23803   8.021   0.870  12.201
41260SOL    HW123804   8.065   0.959  12.192
41260SOL    HW223805   7.958   0.870  12.278
41261SOL     OW23806   8.808   0.862  12.217
41261SOL    HW123807   8.733   0.862  12.151
41261SOL    HW223808   8.845   0.770  12.226
41262SOL     OW23809   8.657   0.525  11.447
41262SOL    HW123810   8.670   0.441  11.501
41262SOL    HW223811   8.628   0.599  11.507
41263SOL     OW23812   7.755   0.213  12.403
41263SOL    HW123813   7.732   0.250  12.493
41263SOL    HW223814   7.725   0.118  12.397
41264SOL     OW23815   7.485   1.310  12.454
41264SOL    HW123816   7.538   1.261  12.522
41264SOL    HW223817   7.507   1.408  12.459
41265SOL     OW23818   8.180   0.634  12.236
41265SOL    HW123819   8.239   0.608  12.160
41265SOL    HW223820   8.152   0.730  12.225
41266SOL     OW23821   7.755   0.063  11.790
41266SOL    HW123822   7.744   0.157  11.823
41266SOL    HW223823   7.750   0.000  11.867
41267SOL     OW23824   9.070   0.367  11.546
41267SOL    HW123825   9.072   0.291  11.610
41267SOL    HW223826   9.022   0.444  11.586
41268SOL     OW23827   8.471   0.766  12.138
41268SOL    HW123828   8.486   0.787  12.234
41268SOL    HW223829   8.441   0.671  12.129
41269SOL     OW23830   8.988   0.274  11.297
41269SOL    HW123831   8.927   0.199  11.320
41269SOL    HW223832   9.010   0.326  11.380
41270SOL     OW23833   8.751   0.838  11.214
41270SOL    HW123834   8.785   0.745  11.229
41270SOL    HW223835   8.769   0.865  11.119
41271SOL     OW23836   8.516   1.333  12.021
41271SOL    HW123837   8.523   1.249  11.966
41271SOL    HW223838   8.578   1.402  11.985
41272SOL     OW23839   7.767   0.810  12.121
41272SOL    HW123840   7.860   0.846  12.126
41272SOL    HW223841   7.761   0.725  12.173
41273SOL     OW23842   7.787   0.509  12.178
41273SOL    HW123843   7.735   0.426  12.161
41273SOL    HW223844   7.864   0.514  12.114
41274SOL     OW23845   8.608   0.207  12.649
41274SOL    HW123846   8.608   0.271  12.726
41274SOL    HW223847   8.636   0.255  12.566
41275SOL     OW23848   7.456   1.326  11.372
41275SOL    HW123849   7.363   1.347  11.341
41275SOL    HW223850   7.466   1.227  11.385
41276SOL     OW23851   7.536   1.801  12.099
41276SOL    HW123852   7.494   1.715  12.072
41276SOL    HW223853   7.630   1.804  12.065
41277SOL     OW23854   7.952   1.568  12.082
41277SOL    HW123855   8.018   1.642  12.091
41277SOL    HW223856   7.996   1.489  12.040
41278SOL     OW23857   8.450   0.796  12.410
41278SOL    HW123858   8.491   0.764  12.496
41278SOL    HW223859   8.354   0.769  12.407
41279SOL     OW23860   7.488   0.544  12.286
41279SOL    HW123861   7.573   0.511  12.245
41279SOL    HW223862   7.501   0.559  12.384
41280SOL     OW23863   8.263   0.572  11.497
41280SOL    HW123864   8.270   0.483  11.451
41280SOL    HW223865   8.169   0.606  11.489
41281SOL     OW23866   9.105   0.604  12.378
41281SOL    HW123867   9.067   0.535  12.440
41281SOL    HW223868   9.187   0.568  12.334
41282SOL     OW23869   7.700   1.564  12.916
41282SOL    HW123870   7.670   1.621  12.992
41282SOL    HW223871   7.693   1.467  12.942
41283SOL     OW23872   8.119   0.464  12.441
41283SOL    HW123873   8.085   0.375  12.411
41283SOL    HW223874   8.145   0.518  12.361
41284SOL     OW23875   8.378   1.678  12.637
41284SOL    HW123876   8.354   1.660  12.542
41284SOL    HW223877   8.408   1.772  12.647
41285SOL     OW23878   7.921   0.500  11.363
41285SOL    HW123879   7.982   0.580  11.367
41285SOL    HW223880   7.826   0.531  11.370
41286SOL     OW23881   7.607   1.137  12.638
41286SOL    HW123882   7.629   1.076  12.714
41286SOL    HW223883   7.617   1.088  12.552
41287SOL     OW23884   8.795   1.059  12.406
41287SOL    HW123885   8.819   0.996  12.332
41287SOL    HW223886   8.705   1.099  12.388
41288SOL     OW23887   8.750   0.855  11.481
41288SOL    HW123888   8.664   0.824  11.523
41288SOL    HW223889   8.746   0.841  11.382
41289SOL     OW23890   9.207   1.747  12.326
41289SOL    HW123891   9.268   1.777  12.253
41289SOL    HW223892   9.169   1.658  12.304
41290SOL     OW23893   8.700   1.731  12.300
41290SOL    HW123894   8.784   1.736  12.246
41290SOL    HW223895   8.677   1.635  12.318
41291SOL     OW23896   7.531   1.258  12.194
41291SOL    HW123897   7.526   1.257  12.294
41291SOL    HW223898   7.448   1.217  12.156
41292SOL     OW23899   9.174   0.135  11.695
41292SOL    HW123900   9.247   0.118  11.628
41292SOL    HW223901   9.143   0.048  11.733
41293SOL     OW23902   8.836   1.573  11.649
41293SOL    HW123903   8.903   1.585  11.575
41293SOL    HW223904   8.796   1.662  11.672
41294SOL     OW23905   8.728   0.927  11.844
41294SOL    HW123906   8.788   0.846  11.846
41294SOL    HW223907   8.768   0.996  11.784
41295SOL     OW23908   8.278   1.273  12.594
41295SOL    HW123909   8.273   1.306  12.689
41295SOL    HW223910   8.192   1.292  12.548
41296SOL     OW23911   8.120   1.616  11.326
41296SOL    HW123912   8.129   1.626  11.227
41296SOL    HW223913   8.080   1.527  11.347
41297SOL     OW23914   9.098   1.720  12.566
41297SOL    HW123915   9.151   1.730  12.482
41297SOL    HW223916   9.071   1.810  12.600
41298SOL     OW23917   9.289   0.175  12.135
41298SOL    HW123918   9.328   0.090  12.099
41298SOL    HW223919   9.191   0.177  12.116
41299SOL     OW23920   7.711   0.326  11.892
41299SOL    HW123921   7.632   0.377  11.858
41299SOL    HW223922   7.702   0.311  11.990
41300SOL     OW23923   8.642   1.612  11.203
41300SOL    HW123924   8.648   1.519  11.240
41300SOL    HW223925   8.583   1.612  11.123
41301SOL     OW23926   8.270   1.002  12.544
41301SOL    HW123927   8.310   1.001  12.452
41301SOL    HW223928   8.280   1.094  12.584
41302SOL     OW23929   8.364   0.910  11.463
41302SOL    HW123930   8.427   0.948  11.395
41302SOL    HW223931   8.404   0.827  11.502
41303SOL     OW23932   8.952   1.607  11.216
41303SOL    HW123933   8.860   1.644  11.223
41303SOL    HW223934   8.990   1.627  11.126
41304SOL     OW23935   7.820   1.288  12.662
41304SOL    HW123936   7.807   1.381  12.628
41304SOL    HW223937   7.736   1.236  12.649
41305SOL     OW23938   9.062   1.292  12.461
41305SOL    HW123939   9.122   1.295  12.541
41305SOL    HW223940   8.987   1.356  12.474
41306SOL     OW23941   8.487   1.098  11.868
41306SOL    HW123942   8.417   1.051  11.922
41306SOL    HW223943   8.546   1.030  11.825
41307SOL     OW23944   8.462   0.236  12.143
41307SOL    HW123945   8.454   0.200  12.050
41307SOL    HW223946   8.460   0.160  12.208
41308SOL     OW23947   8.038   1.487  11.663
41308SOL    HW123948   8.080   1.429  11.593
41308SOL    HW223949   7.994   1.566  11.619
41309SOL     OW23950   9.157   0.385  12.553
41309SOL    HW123951   9.230   0.454  12.557
41309SOL    HW223952   9.185   0.310  12.494
41310SOL     OW23953   7.703   1.348  11.462
41310SOL    HW123954   7.607   1.349  11.435
41310SOL    HW223955   7.715   1.401  11.546
41311SOL     OW23956   7.553   1.013  12.898
41311SOL    HW123957   7.476   0.980  12.952
41311SOL    HW223958   7.638   0.983  12.940
41312SOL     OW23959   8.120   0.203  12.661
41312SOL    HW123960   8.210   0.187  12.621
41312SOL    HW223961   8.128   0.208  12.760
41313SOL     OW23962   7.523   0.345  11.205
41313SOL    HW123963   7.431   0.317  11.176
41313SOL    HW223964   7.554   0.422  11.149
41314SOL     OW23965   8.888   0.856  12.570
41314SOL    HW123966   8.831   0.908  12.507
41314SOL    HW223967   8.984   0.868  12.546
41315SOL     OW23968   7.520   0.166  11.490
41315SOL    HW123969   7.503   0.249  11.436
41315SOL    HW223970   7.610   0.129  11.468
41316SOL     OW23971   8.631   1.335  11.291
41316SOL    HW123972   8.532   1.324  11.293
41316SOL    HW223973   8.665   1.350  11.384
41317SOL     OW23974   8.061   0.842  12.603
41317SOL    HW123975   8.117   0.923  12.586
41317SOL    HW223976   8.120   0.762  12.606
41318SOL     OW23977   8.941   1.767  12.131
41318SOL    HW123978   8.974   1.831  12.062
41318SOL    HW223979   9.007   1.761  12.206
41319SOL     OW23980   8.164   0.565  12.880
41319SOL    HW123981   8.183   0.630  12.954
41319SOL    HW223982   8.224   0.485  12.889
41320SOL     OW23983   7.838   1.741  12.732
41320SOL    HW123984   7.747   1.782  12.730
41320SOL    HW223985   7.831   1.647  12.764
41321SOL     OW23986   9.122   0.883  12.426
41321SOL    HW123987   9.095   0.794  12.389
41321SOL    HW223988   9.123   0.951  12.353
41322SOL     OW23989   8.673   0.325  11.621
41322SOL    HW123990   8.738   0.251  11.610
41322SOL    HW223991   8.693   0.375  11.705
41323SOL     OW23992   8.042   0.745  11.824
41323SOL    HW123993   8.092   0.830  11.805
41323SOL    HW223994   7.954   0.747  11.776
41324SOL     OW23995   9.225   0.342  12.814
41324SOL    HW123996   9.208   0.373  12.720
41324SOL    HW223997   9.141   0.305  12.852
41325SOL     OW23998   9.178   0.934  12.689
41325SOL    HW123999   9.216   1.025  12.704
41325SOL    HW224000   9.170   0.917  12.590
41326SOL     OW24001   8.307   1.374  11.188
41326SOL    HW124002   8.261   1.389  11.276
41326SOL    HW224003   8.351   1.459  11.158
41327SOL     OW24004   8.109   1.790  12.125
41327SOL    HW124005   8.063   1.878  12.112
41327SOL    HW224006   8.208   1.802  12.118
41328SOL     OW24007   8.307   0.956  12.033
41328SOL    HW124008   8.361   0.887  12.081
41328SOL    HW224009   8.275   1.025  12.099
41329SOL     OW24010   8.531   0.984  11.259
41329SOL    HW124011   8.508   1.037  11.177
41329SOL    HW224012   8.612   0.928  11.240
41330SOL     OW24013   9.309   1.569  12.023
41330SOL    HW124014   9.238   1.557  11.953
41330SOL    HW224015   9.310   1.490  12.083
41331SOL     OW24016   7.527   1.240  11.825
41331SOL    HW124017   7.526   1.193  11.913
41331SOL    HW224018   7.609   1.212  11.774
41332SOL     OW24019   8.120   1.391  12.796
41332SOL    HW124020   8.042   1.341  12.834
41332SOL    HW224021   8.117   1.486  12.827
41333SOL     OW24022   9.272   0.192  12.399
41333SOL    HW124023   9.268   0.102  12.443
41333SOL    HW224024   9.275   0.181  12.300
41334SOL     OW24025   7.876   0.424  11.692
41334SOL    HW124026   7.906   0.352  11.630
41334SOL    HW224027   7.837   0.384  11.775
41335SOL     OW24028   9.153   1.487  12.276
41335SOL    HW124029   9.060   1.462  12.249
41335SOL    HW224030   9.179   1.437  12.358
41336SOL     OW24031   7.765   0.547  12.452
41336SOL    HW124032   7.803   0.488  12.524
41336SOL    HW224033   7.805   0.521  12.364
41337SOL     OW24034   8.260   1.586  11.859
41337SOL    HW124035   8.292   1.596  11.765
41337SOL    HW224036   8.181   1.524  11.861
41338SOL     OW24037   8.872   0.214  12.284
41338SOL    HW124038   8.924   0.149  12.339
41338SOL    HW224039   8.823   0.277  12.345
41339SOL     OW24040   8.449   0.034  12.326
41339SOL    HW124041   8.386  -0.038  12.295
41339SOL    HW224042   8.542  -0.002  12.326
41340SOL     OW24043   8.218   1.330  11.473
41340SOL    HW124044   8.172   1.243  11.490
41340SOL    HW224045   8.309   1.327  11.514
41341SOL     OW24046   8.066   1.567  12.456
41341SOL    HW124047   8.061   1.649  12.513
41341SOL    HW224048   8.155   1.564  12.411
41342SOL     OW24049   8.800   0.052  11.340
41342SOL    HW124050   8.835   0.011  11.256
41342SOL    HW224051   8.710   0.014  11.360
41343SOL     OW24052   8.748   0.453  11.863
41343SOL    HW124053   8.689   0.533  11.867
41343SOL    HW224054   8.763   0.418  11.956
41344SOL     OW24055   9.041   0.221  12.054
41344SOL    HW124056   8.957   0.220  12.108
41344SOL    HW224057   9.043   0.304  11.998
41345SOL     OW24058   7.487   1.077  11.472
41345SOL    HW124059   7.586   1.066  11.463
41345SOL    HW224060   7.447   0.991  11.504
41346SOL     OW24061   8.323   1.646  11.509
41346SOL    HW124062   8.246   1.611  11.455
41346SOL    HW224063   8.291   1.717  11.571
41347SOL     OW24064   7.678   2.490   0.113
41347SOL    HW124065   7.585   2.488   0.150
41347SOL    HW224066   7.679   2.451   0.021
41348SOL     OW24067   7.673   2.137   0.996
41348SOL    HW124068   7.708   2.120   1.088
41348SOL    HW224069   7.585   2.092   0.984
41349SOL     OW24070   7.467   2.230   0.647
41349SOL    HW124071   7.385   2.273   0.686
41349SOL    HW224072   7.439   2.157   0.584
41350SOL     OW24073   8.017   3.137   1.165
41350SOL    HW124074   7.924   3.130   1.128
41350SOL    HW224075   8.028   3.226   1.209
41351SOL     OW24076   9.003   3.373   0.703
41351SOL    HW124077   8.946   3.357   0.784
41351SOL    HW224078   8.944   3.383   0.623
41352SOL     OW24079   8.583   2.565   0.717
41352SOL    HW124080   8.640   2.643   0.692
41352SOL    HW224081   8.523   2.591   0.793
41353SOL     OW24082   9.203   2.469   0.231
41353SOL    HW124083   9.191   2.456   0.132
41353SOL    HW224084   9.173   2.388   0.280
41354SOL     OW24085   8.216   3.006   1.023
41354SOL    HW124086   8.138   3.023   1.083
41354SOL    HW224087   8.250   3.093   0.987
41355SOL     OW24088   8.298   2.660   1.823
41355SOL    HW124089   8.294   2.736   1.888
41355SOL    HW224090   8.320   2.696   1.732
41356SOL     OW24091   8.133   2.874   0.665
41356SOL    HW124092   8.202   2.858   0.735
41356SOL    HW224093   8.060   2.931   0.703
41357SOL     OW24094   8.134   3.023   1.803
41357SOL    HW124095   8.194   3.102   1.817
41357SOL    HW224096   8.048   3.054   1.762
41358SOL     OW24097   7.783   3.297   1.061
41358SOL    HW124098   7.705   3.266   1.008
41358SOL    HW224099   7.841   3.355   1.004
41359SOL     OW24100   8.908   3.367   1.339
41359SOL    HW124101   8.932   3.461   1.365
41359SOL    HW224102   8.892   3.313   1.421
41360SOL     OW24103   7.886   2.254   1.499
41360SOL    HW124104   7.968   2.198   1.508
41360SOL    HW224105   7.805   2.196   1.503
41361SOL     OW24106   7.679   3.575   0.483
41361SOL    HW124107   7.713   3.652   0.537
41361SOL    HW224108   7.723   3.575   0.393
41362SOL     OW24109   8.575   3.203   1.690
41362SOL    HW124110   8.622   3.203   1.778
41362SOL    HW224111   8.527   3.116   1.679
41363SOL     OW24112   7.678   3.296   0.538
41363SOL    HW124113   7.652   3.392   0.538
41363SOL    HW224114   7.607   3.242   0.583
41364SOL     OW24115   7.688   2.953   0.886
41364SOL    HW124116   7.702   2.869   0.938
41364SOL    HW224117   7.633   3.017   0.941
41365SOL     OW24118   8.068   3.648   1.439
41365SOL    HW124119   7.976   3.631   1.474
41365SOL    HW224120   8.096   3.740   1.465
41366SOL     OW24121   8.054   2.826   0.123
41366SOL    HW124122   8.061   2.910   0.069
41366SOL    HW224123   8.100   2.839   0.211
41367SOL     OW24124   9.042   1.976   1.480
41367SOL    HW124125   9.024   2.043   1.408
41367SOL    HW224126   9.039   2.022   1.569
41368SOL     OW24127   7.570   2.505   0.563
41368SOL    HW124128   7.525   2.417   0.580
41368SOL    HW224129   7.569   2.559   0.647
41369SOL     OW24130   9.290   3.629   0.359
41369SOL    HW124131   9.344   3.600   0.439
41369SOL    HW224132   9.320   3.719   0.330
41370SOL     OW24133   7.475   3.458   0.117
41370SOL    HW124134   7.456   3.362   0.138
41370SOL    HW224135   7.442   3.516   0.192
41371SOL     OW24136   9.137   2.784   0.612
41371SOL    HW124137   9.232   2.755   0.620
41371SOL    HW224138   9.129   2.849   0.537
41372SOL     OW24139   9.089   2.970   0.432
41372SOL    HW124140   9.175   2.972   0.380
41372SOL    HW224141   9.103   3.017   0.520
41373SOL     OW24142   7.561   2.599   1.597
41373SOL    HW124143   7.649   2.586   1.642
41373SOL    HW224144   7.548   2.696   1.575
41374SOL     OW24145   8.061   3.227   0.726
41374SOL    HW124146   8.012   3.140   0.735
41374SOL    HW224147   8.038   3.270   0.639
41375SOL     OW24148   8.741   3.090   1.423
41375SOL    HW124149   8.778   3.017   1.365
41375SOL    HW224150   8.793   3.095   1.508
41376SOL     OW24151   8.257   1.866   0.502
41376SOL    HW124152   8.297   1.957   0.493
41376SOL    HW224153   8.157   1.874   0.508
41377SOL     OW24154   7.645   2.838   1.264
41377SOL    HW124155   7.734   2.793   1.250
41377SOL    HW224156   7.572   2.773   1.245
41378SOL     OW24157   8.973   2.861   0.190
41378SOL    HW124158   8.910   2.785   0.203
41378SOL    HW224159   9.021   2.879   0.276
41379SOL     OW24160   8.635   3.654   1.616
41379SOL    HW124161   8.659   3.714   1.540
41379SOL    HW224162   8.642   3.559   1.586
41380SOL     OW24163   7.765   2.113   1.801
41380SOL    HW124164   7.836   2.184   1.807
41380SOL    HW224165   7.677   2.152   1.829
41381SOL     OW24166   8.914   3.279   0.953
41381SOL    HW124167   8.855   3.285   1.033
41381SOL    HW224168   8.899   3.191   0.907
41382SOL     OW24169   9.115   3.576   0.572
41382SOL    HW124170   9.074   3.553   0.484
41382SOL    HW224171   9.097   3.502   0.637
41383SOL     OW24172   8.046   2.591   0.270
41383SOL    HW124173   8.070   2.660   0.202
41383SOL    HW224174   7.968   2.624   0.324
41384SOL     OW24175   8.729   2.207   0.944
41384SOL    HW124176   8.643   2.157   0.931
41384SOL    HW224177   8.791   2.153   1.000
41385SOL     OW24178   9.024   3.524   0.307
41385SOL    HW124179   9.113   3.570   0.310
41385SOL    HW224180   9.003   3.500   0.212
41386SOL     OW24181   8.255   2.467   1.465
41386SOL    HW124182   8.208   2.464   1.554
41386SOL    HW224183   8.204   2.412   1.399
41387SOL     OW24184   8.842   2.331   1.674
41387SOL    HW124185   8.822   2.374   1.762
41387SOL    HW224186   8.920   2.269   1.683
41388SOL     OW24187   8.421   2.752   1.572
41388SOL    HW124188   8.467   2.668   1.543
41388SOL    HW224189   8.365   2.786   1.497
41389SOL     OW24190   8.439   2.272   1.242
41389SOL    HW124191   8.362   2.306   1.296
41389SOL    HW224192   8.405   2.221   1.163
41390SOL     OW24193   8.489   2.563   0.429
41390SOL    HW124194   8.515   2.559   0.525
41390SOL    HW224195   8.404   2.512   0.415
41391SOL     OW24196   7.524   2.673   0.789
41391SOL    HW124197   7.623   2.661   0.798
41391SOL    HW224198   7.500   2.768   0.810
41392SOL     OW24199   7.578   3.683   1.571
41392SOL    HW124200   7.568   3.668   1.670
41392SOL    HW224201   7.492   3.719   1.535
41393SOL     OW24202   8.313   2.210   0.195
41393SOL    HW124203   8.372   2.273   0.146
41393SOL    HW224204   8.332   2.116   0.166
41394SOL     OW24205   9.167   2.447   1.831
41394SOL    HW124206   9.141   2.536   1.795
41394SOL    HW224207   9.165   2.379   1.758
41395SOL     OW24208   8.810   3.006   0.545
41395SOL    HW124209   8.893   2.977   0.497
41395SOL    HW224210   8.761   3.073   0.489
41396SOL     OW24211   7.998   2.058   0.885
41396SOL    HW124212   7.993   2.053   0.985
41396SOL    HW224213   8.000   2.154   0.856
41397SOL     OW24214   8.456   3.318   0.477
41397SOL    HW124215   8.410   3.390   0.425
41397SOL    HW224216   8.452   3.338   0.575
41398SOL     OW24217   7.799   3.663   0.853
41398SOL    HW124218   7.849   3.577   0.859
41398SOL    HW224219   7.864   3.740   0.850
41399SOL     OW24220   9.243   2.928   0.873
41399SOL    HW124221   9.181   2.913   0.797
41399SOL    HW224222   9.191   2.939   0.958
41400SOL     OW24223   8.675   3.412   1.506
41400SOL    HW124224   8.681   3.335   1.570
41400SOL    HW224225   8.623   3.386   1.426
41401SOL     OW24226   7.769   2.805   0.242
41401SOL    HW124227   7.851   2.844   0.200
41401SOL    HW224228   7.742   2.723   0.193
41402SOL     OW24229   8.906   2.597   0.728
41402SOL    HW124230   8.901   2.532   0.803
41402SOL    HW224231   8.986   2.656   0.741
41403SOL     OW24232   7.909   3.128   1.727
41403SOL    HW124233   7.859   3.129   1.641
41403SOL    HW224234   7.846   3.110   1.803
41404SOL     OW24235   8.559   3.638   0.237
41404SOL    HW124236   8.499   3.576   0.287
41404SOL    HW224237   8.590   3.594   0.152
41405SOL     OW24238   7.650   2.147   1.498
41405SOL    HW124239   7.570   2.207   1.485
41405SOL    HW224240   7.640   2.098   1.584
41406SOL     OW24241   9.080   3.239   0.081
41406SOL    HW124242   9.048   3.333   0.071
41406SOL    HW224243   9.004   3.176   0.069
41407SOL     OW24244   7.912   3.605   0.323
41407SOL    HW124245   7.945   3.644   0.409
41407SOL    HW224246   7.988   3.598   0.258
41408SOL     OW24247   8.848   1.969   0.426
41408SOL    HW124248   8.824   1.932   0.336
41408SOL    HW224249   8.947   1.985   0.430
41409SOL     OW24250   7.697   3.647   1.241
41409SOL    HW124251   7.754   3.582   1.291
41409SOL    HW224252   7.681   3.614   1.148
41410SOL     OW24253   8.388   3.560   0.904
41410SOL    HW124254   8.468   3.503   0.925
41410SOL    HW224255   8.339   3.520   0.827
41411SOL     OW24256   7.830   2.562   0.480
41411SOL    HW124257   7.875   2.472   0.477
41411SOL    HW224258   7.736   2.551   0.513
41412SOL     OW24259   8.995   2.084   1.729
41412SOL    HW124260   8.990   2.121   1.821
41412SOL    HW224261   8.923   2.015   1.717
41413SOL     OW24262   8.062   1.984   0.117
41413SOL    HW124263   8.160   1.962   0.124
41413SOL    HW224264   8.031   1.967   0.024
41414SOL     OW24265   8.229   2.126   1.749
41414SOL    HW124266   8.296   2.065   1.792
41414SOL    HW224267   8.156   2.145   1.814
41415SOL     OW24268   8.336   3.376   1.195
41415SOL    HW124269   8.313   3.351   1.101
41415SOL    HW224270   8.397   3.307   1.234
41416SOL     OW24271   8.799   2.452   1.433
41416SOL    HW124272   8.827   2.409   1.518
41416SOL    HW224273   8.824   2.548   1.434
41417SOL     OW24274   8.251   3.264   0.924
41417SOL    HW124275   8.341   3.278   0.882
41417SOL    HW224276   8.180   3.266   0.853
41418SOL     OW24277   8.370   2.365   0.899
41418SOL    HW124278   8.345   2.356   0.803
41418SOL    HW224279   8.418   2.283   0.930
41419SOL     OW24280   7.987   1.926   0.512
41419SOL    HW124281   7.906   1.927   0.570
41419SOL    HW224282   7.990   2.009   0.457
41420SOL     OW24283   8.882   3.050   0.041
41420SOL    HW124284   8.914   2.974   0.098
41420SOL    HW224285   8.790   3.077   0.071
41421SOL     OW24286   7.745   1.897   0.171
41421SOL    HW124287   7.794   1.981   0.150
41421SOL    HW224288   7.807   1.832   0.216
41422SOL     OW24289   8.383   2.098   0.480
41422SOL    HW124290   8.335   2.139   0.402
41422SOL    HW224291   8.482   2.096   0.461
41423SOL     OW24292   8.524   2.545   1.464
41423SOL    HW124293   8.444   2.484   1.467
41423SOL    HW224294   8.605   2.492   1.440
41424SOL     OW24295   8.675   3.432   0.793
41424SOL    HW124296   8.696   3.506   0.728
41424SOL    HW224297   8.743   3.432   0.866
41425SOL     OW24298   7.907   3.014   0.741
41425SOL    HW124299   7.836   2.987   0.806
41425SOL    HW224300   7.881   2.986   0.648
41426SOL     OW24301   8.719   3.659   0.591
41426SOL    HW124302   8.763   3.723   0.527
41426SOL    HW224303   8.669   3.711   0.661
41427SOL     OW24304   8.480   2.411   0.016
41427SOL    HW124305   8.439   2.493  -0.023
41427SOL    HW224306   8.544   2.437   0.089
41428SOL     OW24307   7.526   2.418   1.386
41428SOL    HW124308   7.618   2.417   1.345
41428SOL    HW224309   7.520   2.492   1.453
41429SOL     OW24310   8.009   2.084   1.147
41429SOL    HW124311   8.047   2.000   1.184
41429SOL    HW224312   7.921   2.103   1.191
41430SOL     OW24313   8.314   2.316   0.642
41430SOL    HW124314   8.282   2.388   0.580
41430SOL    HW224315   8.338   2.235   0.589
41431SOL     OW24316   8.465   1.901   0.753
41431SOL    HW124317   8.393   1.906   0.684
41431SOL    HW224318   8.441   1.832   0.822
41432SOL     OW24319   8.877   3.035   0.867
41432SOL    HW124320   8.822   2.951   0.860
41432SOL    HW224321   8.903   3.064   0.775
41433SOL     OW24322   8.914   2.452   0.992
41433SOL    HW124323   8.884   2.357   0.999
41433SOL    HW224324   8.987   2.468   1.058
41434SOL     OW24325   9.305   2.695   0.377
41434SOL    HW124326   9.347   2.631   0.441
41434SOL    HW224327   9.267   2.644   0.299
41435SOL     OW24328   9.112   3.142   0.657
41435SOL    HW124329   9.211   3.150   0.671
41435SOL    HW224330   9.067   3.226   0.688
41436SOL     OW24331   8.838   2.437   0.078
41436SOL    HW124332   8.784   2.416   0.159
41436SOL    HW224333   8.929   2.396   0.087
41437SOL     OW24334   7.975   2.118   0.328
41437SOL    HW124335   8.002   2.059   0.253
41437SOL    HW224336   7.975   2.213   0.297
41438SOL     OW24337   9.202   3.085   1.588
41438SOL    HW124338   9.293   3.046   1.575
41438SOL    HW224339   9.210   3.181   1.612
41439SOL     OW24340   8.512   3.209   1.340
41439SOL    HW124341   8.432   3.186   1.395
41439SOL    HW224342   8.595   3.183   1.389
41440SOL     OW24343   9.040   3.491   1.625
41440SOL    HW124344   9.067   3.525   1.535
41440SOL    HW224345   9.119   3.453   1.671
41441SOL     OW24346   8.559   3.057   1.100
41441SOL    HW124347   8.519   3.101   1.181
41441SOL    HW224348   8.518   3.094   1.017
41442SOL     OW24349   9.086   2.961   1.079
41442SOL    HW124350   9.091   3.042   1.138
41442SOL    HW224351   9.000   2.963   1.028
41443SOL     OW24352   8.363   1.951   1.402
41443SOL    HW124353   8.388   1.931   1.307
41443SOL    HW224354   8.435   2.007   1.444
41444SOL     OW24355   8.428   2.978   1.719
41444SOL    HW124356   8.329   2.984   1.729
41444SOL    HW224357   8.451   2.898   1.663
41445SOL     OW24358   8.153   2.912   0.368
41445SOL    HW124359   8.139   2.919   0.467
41445SOL    HW224360   8.237   2.861   0.350
41446SOL     OW24361   7.858   2.675   1.251
41446SOL    HW124362   7.944   2.687   1.301
41446SOL    HW224363   7.816   2.588   1.278
41447SOL     OW24364   8.722   2.248   1.262
41447SOL    HW124365   8.743   2.322   1.326
41447SOL    HW224366   8.633   2.265   1.219
41448SOL     OW24367   7.512   3.426   1.331
41448SOL    HW124368   7.466   3.508   1.297
41448SOL    HW224369   7.610   3.445   1.340
41449SOL     OW24370   7.815   2.962   0.501
41449SOL    HW124371   7.808   3.045   0.445
41449SOL    HW224372   7.819   2.882   0.441
41450SOL     OW24373   8.014   2.399   0.865
41450SOL    HW124374   8.026   2.465   0.791
41450SOL    HW224375   8.060   2.433   0.948
41451SOL     OW24376   8.700   3.210   0.388
41451SOL    HW124377   8.750   3.287   0.428
41451SOL    HW224378   8.605   3.212   0.420
41452SOL     OW24379   8.720   3.307   1.142
41452SOL    HW124380   8.767   3.320   1.229
41452SOL    HW224381   8.654   3.233   1.151
41453SOL     OW24382   9.030   2.501   0.472
41453SOL    HW124383   8.999   2.562   0.545
41453SOL    HW224384   9.080   2.553   0.403
41454SOL     OW24385   7.802   3.372   1.329
41454SOL    HW124386   7.781   3.328   1.242
41454SOL    HW224387   7.899   3.398   1.332
41455SOL     OW24388   7.850   2.613   1.598
41455SOL    HW124389   7.918   2.668   1.551
41455SOL    HW224390   7.890   2.525   1.625
41456SOL     OW24391   9.035   2.641   1.670
41456SOL    HW124392   8.943   2.679   1.665
41456SOL    HW224393   9.095   2.688   1.605
41457SOL     OW24394   8.461   1.967   1.770
41457SOL    HW124395   8.467   2.052   1.718
41457SOL    HW224396   8.493   1.891   1.713
41458SOL     OW24397   7.952   1.912   1.740
41458SOL    HW124398   7.910   1.855   1.670
41458SOL    HW224399   7.886   1.981   1.772
41459SOL     OW24400   8.021   2.732   1.029
41459SOL    HW124401   8.065   2.821   1.020
41459SOL    HW224402   7.958   2.732   1.106
41460SOL     OW24403   8.808   2.724   1.045
41460SOL    HW124404   8.733   2.724   0.979
41460SOL    HW224405   8.845   2.632   1.054
41461SOL     OW24406   8.657   2.387   0.275
41461SOL    HW124407   8.670   2.303   0.329
41461SOL    HW224408   8.628   2.461   0.335
41462SOL     OW24409   7.755   2.075   1.231
41462SOL    HW124410   7.732   2.112   1.321
41462SOL    HW224411   7.725   1.980   1.225
41463SOL     OW24412   7.485   3.172   1.282
41463SOL    HW124413   7.538   3.123   1.350
41463SOL    HW224414   7.507   3.270   1.287
41464SOL     OW24415   8.180   2.496   1.064
41464SOL    HW124416   8.239   2.470   0.988
41464SOL    HW224417   8.152   2.592   1.053
41465SOL     OW24418   9.176   2.797   1.854
41465SOL    HW124419   9.130   2.790   1.765
41465SOL    HW224420   9.114   2.841   1.920
41466SOL     OW24421   7.755   1.925   0.618
41466SOL    HW124422   7.744   2.019   0.651
41466SOL    HW224423   7.750   1.862   0.695
41467SOL     OW24424   9.070   2.229   0.374
41467SOL    HW124425   9.072   2.153   0.438
41467SOL    HW224426   9.022   2.306   0.414
41468SOL     OW24427   8.471   2.628   0.966
41468SOL    HW124428   8.486   2.649   1.062
41468SOL    HW224429   8.441   2.533   0.957
41469SOL     OW24430   8.428   3.435   1.700
41469SOL    HW124431   8.408   3.479   1.612
41469SOL    HW224432   8.467   3.344   1.684
41470SOL     OW24433   9.307   3.380   1.605
41470SOL    HW124434   9.321   3.407   1.510
41470SOL    HW224435   9.390   3.402   1.658
41471SOL     OW24436   7.798   2.760   1.804
41471SOL    HW124437   7.874   2.804   1.852
41471SOL    HW224438   7.833   2.713   1.722
41472SOL     OW24439   8.988   2.136   0.125
41472SOL    HW124440   8.927   2.061   0.148
41472SOL    HW224441   9.010   2.188   0.208
41473SOL     OW24442   8.751   2.700   0.042
41473SOL    HW124443   8.785   2.607   0.057
41473SOL    HW224444   8.769   2.727  -0.053
41474SOL     OW24445   8.516   3.195   0.849
41474SOL    HW124446   8.523   3.111   0.794
41474SOL    HW224447   8.578   3.264   0.813
41475SOL     OW24448   7.767   2.672   0.949
41475SOL    HW124449   7.860   2.708   0.954
41475SOL    HW224450   7.761   2.587   1.001
41476SOL     OW24451   7.787   2.371   1.006
41476SOL    HW124452   7.735   2.288   0.989
41476SOL    HW224453   7.864   2.376   0.942
41477SOL     OW24454   8.586   2.242   1.678
41477SOL    HW124455   8.541   2.305   1.742
41477SOL    HW224456   8.679   2.273   1.661
41478SOL     OW24457   8.608   2.069   1.477
41478SOL    HW124458   8.608   2.133   1.554
41478SOL    HW224459   8.636   2.117   1.394
41479SOL     OW24460   7.456   3.188   0.200
41479SOL    HW124461   7.363   3.209   0.169
41479SOL    HW224462   7.466   3.089   0.213
41480SOL     OW24463   7.536   3.663   0.927
41480SOL    HW124464   7.494   3.577   0.900
41480SOL    HW224465   7.630   3.666   0.893
41481SOL     OW24466   7.952   3.430   0.910
41481SOL    HW124467   8.018   3.504   0.919
41481SOL    HW224468   7.996   3.351   0.868
41482SOL     OW24469   8.450   2.658   1.238
41482SOL    HW124470   8.491   2.626   1.324
41482SOL    HW224471   8.354   2.631   1.235
41483SOL     OW24472   7.488   2.406   1.114
41483SOL    HW124473   7.573   2.373   1.073
41483SOL    HW224474   7.501   2.421   1.212
41484SOL     OW24475   7.637   2.382   1.722
41484SOL    HW124476   7.696   2.342   1.652
41484SOL    HW224477   7.579   2.453   1.681
41485SOL     OW24478   8.817   2.812   1.660
41485SOL    HW124479   8.856   2.901   1.680
41485SOL    HW224480   8.827   2.792   1.563
41486SOL     OW24481   8.263   2.434   0.325
41486SOL    HW124482   8.270   2.345   0.279
41486SOL    HW224483   8.169   2.468   0.317
41487SOL     OW24484   9.105   2.466   1.206
41487SOL    HW124485   9.067   2.397   1.268
41487SOL    HW224486   9.187   2.430   1.162
41488SOL     OW24487   7.700   3.426   1.744
41488SOL    HW124488   7.670   3.483   1.820
41488SOL    HW224489   7.693   3.329   1.770
41489SOL     OW24490   8.119   2.326   1.269
41489SOL    HW124491   8.085   2.237   1.239
41489SOL    HW224492   8.145   2.380   1.189
41490SOL     OW24493   8.378   3.540   1.465
41490SOL    HW124494   8.354   3.522   1.370
41490SOL    HW224495   8.408   3.634   1.475
41491SOL     OW24496   7.921   2.362   0.191
41491SOL    HW124497   7.982   2.442   0.195
41491SOL    HW224498   7.826   2.393   0.198
41492SOL     OW24499   7.607   2.999   1.466
41492SOL    HW124500   7.629   2.938   1.542
41492SOL    HW224501   7.617   2.950   1.380
41493SOL     OW24502   8.795   2.921   1.234
41493SOL    HW124503   8.819   2.858   1.160
41493SOL    HW224504   8.705   2.961   1.216
41494SOL     OW24505   8.750   2.717   0.309
41494SOL    HW124506   8.664   2.686   0.351
41494SOL    HW224507   8.746   2.703   0.210
41495SOL     OW24508   9.207   3.609   1.154
41495SOL    HW124509   9.268   3.639   1.081
41495SOL    HW224510   9.169   3.520   1.132
41496SOL     OW24511   8.700   3.593   1.128
41496SOL    HW124512   8.784   3.598   1.074
41496SOL    HW224513   8.677   3.497   1.146
41497SOL     OW24514   7.531   3.120   1.022
41497SOL    HW124515   7.526   3.119   1.122
41497SOL    HW224516   7.448   3.079   0.984
41498SOL     OW24517   8.136   3.524   1.716
41498SOL    HW124518   8.080   3.605   1.725
41498SOL    HW224519   8.188   3.528   1.630
41499SOL     OW24520   8.351   1.948   0.133
41499SOL    HW124521   8.402   1.949   0.047
41499SOL    HW224522   8.407   1.906   0.204
41500SOL     OW24523   9.174   1.997   0.523
41500SOL    HW124524   9.247   1.980   0.456
41500SOL    HW224525   9.143   1.910   0.561
41501SOL     OW24526   8.836   3.435   0.477
41501SOL    HW124527   8.903   3.447   0.403
41501SOL    HW224528   8.796   3.524   0.500
41502SOL     OW24529   7.578   3.656   1.851
41502SOL    HW124530   7.537   3.582   1.904
41502SOL    HW224531   7.642   3.707   1.909
41503SOL     OW24532   8.728   2.789   0.672
41503SOL    HW124533   8.788   2.708   0.674
41503SOL    HW224534   8.768   2.858   0.612
41504SOL     OW24535   8.278   3.135   1.422
41504SOL    HW124536   8.273   3.168   1.517
41504SOL    HW224537   8.192   3.154   1.376
41505SOL     OW24538   8.120   3.478   0.154
41505SOL    HW124539   8.129   3.488   0.055
41505SOL    HW224540   8.080   3.389   0.175
41506SOL     OW24541   9.098   3.582   1.394
41506SOL    HW124542   9.151   3.592   1.310
41506SOL    HW224543   9.071   3.672   1.428
41507SOL     OW24544   9.289   2.037   0.963
41507SOL    HW124545   9.328   1.952   0.927
41507SOL    HW224546   9.191   2.039   0.944
41508SOL     OW24547   7.711   2.188   0.720
41508SOL    HW124548   7.632   2.239   0.686
41508SOL    HW224549   7.702   2.173   0.818
41509SOL     OW24550   8.642   3.474   0.031
41509SOL    HW124551   8.648   3.381   0.068
41509SOL    HW224552   8.583   3.474  -0.049
41510SOL     OW24553   8.270   2.864   1.372
41510SOL    HW124554   8.310   2.863   1.280
41510SOL    HW224555   8.280   2.956   1.412
41511SOL     OW24556   8.364   2.772   0.291
41511SOL    HW124557   8.427   2.810   0.223
41511SOL    HW224558   8.404   2.689   0.330
41512SOL     OW24559   8.952   3.469   0.044
41512SOL    HW124560   8.860   3.506   0.051
41512SOL    HW224561   8.990   3.489  -0.046
41513SOL     OW24562   7.820   3.150   1.490
41513SOL    HW124563   7.807   3.243   1.456
41513SOL    HW224564   7.736   3.098   1.477
41514SOL     OW24565   9.062   3.154   1.289
41514SOL    HW124566   9.122   3.157   1.369
41514SOL    HW224567   8.987   3.218   1.302
41515SOL     OW24568   8.487   2.960   0.696
41515SOL    HW124569   8.417   2.913   0.750
41515SOL    HW224570   8.546   2.892   0.653
41516SOL     OW24571   8.462   2.098   0.971
41516SOL    HW124572   8.454   2.062   0.878
41516SOL    HW224573   8.460   2.022   1.036
41517SOL     OW24574   8.038   3.349   0.491
41517SOL    HW124575   8.080   3.291   0.421
41517SOL    HW224576   7.994   3.428   0.447
41518SOL     OW24577   9.157   2.247   1.381
41518SOL    HW124578   9.230   2.316   1.385
41518SOL    HW224579   9.185   2.172   1.322
41519SOL     OW24580   7.703   3.210   0.290
41519SOL    HW124581   7.607   3.211   0.263
41519SOL    HW224582   7.715   3.263   0.374
41520SOL     OW24583   7.553   2.875   1.726
41520SOL    HW124584   7.476   2.842   1.780
41520SOL    HW224585   7.638   2.845   1.768
41521SOL     OW24586   8.120   2.065   1.489
41521SOL    HW124587   8.210   2.049   1.449
41521SOL    HW224588   8.128   2.070   1.588
41522SOL     OW24589   8.888   2.718   1.398
41522SOL    HW124590   8.831   2.770   1.335
41522SOL    HW224591   8.984   2.730   1.374
41523SOL     OW24592   7.520   2.028   0.318
41523SOL    HW124593   7.503   2.111   0.264
41523SOL    HW224594   7.610   1.991   0.296
41524SOL     OW24595   8.631   3.197   0.119
41524SOL    HW124596   8.532   3.186   0.121
41524SOL    HW224597   8.665   3.212   0.212
41525SOL     OW24598   8.061   2.704   1.431
41525SOL    HW124599   8.117   2.785   1.414
41525SOL    HW224600   8.120   2.624   1.434
41526SOL     OW24601   8.941   3.629   0.959
41526SOL    HW124602   8.974   3.693   0.890
41526SOL    HW224603   9.007   3.623   1.034
41527SOL     OW24604   8.164   2.427   1.708
41527SOL    HW124605   8.183   2.492   1.782
41527SOL    HW224606   8.224   2.347   1.717
41528SOL     OW24607   8.898   3.082   1.633
41528SOL    HW124608   8.889   3.072   1.732
41528SOL    HW224609   8.994   3.075   1.607
41529SOL     OW24610   7.838   3.603   1.560
41529SOL    HW124611   7.747   3.644   1.558
41529SOL    HW224612   7.831   3.509   1.592
41530SOL     OW24613   9.122   2.745   1.254
41530SOL    HW124614   9.095   2.656   1.217
41530SOL    HW224615   9.123   2.813   1.181
41531SOL     OW24616   8.673   2.187   0.449
41531SOL    HW124617   8.738   2.113   0.438
41531SOL    HW224618   8.693   2.237   0.533
41532SOL     OW24619   8.042   2.607   0.652
41532SOL    HW124620   8.092   2.692   0.633
41532SOL    HW224621   7.954   2.609   0.604
41533SOL     OW24622   9.225   2.204   1.642
41533SOL    HW124623   9.208   2.235   1.548
41533SOL    HW224624   9.141   2.167   1.680
41534SOL     OW24625   9.178   2.796   1.517
41534SOL    HW124626   9.216   2.887   1.532
41534SOL    HW224627   9.170   2.779   1.418
41535SOL     OW24628   8.307   3.236   0.016
41535SOL    HW124629   8.261   3.251   0.104
41535SOL    HW224630   8.351   3.321  -0.014
41536SOL     OW24631   8.109   3.652   0.953
41536SOL    HW124632   8.063   3.740   0.940
41536SOL    HW224633   8.208   3.664   0.946
41537SOL     OW24634   8.307   2.818   0.861
41537SOL    HW124635   8.361   2.749   0.909
41537SOL    HW224636   8.275   2.887   0.927
41538SOL     OW24637   8.531   2.846   0.087
41538SOL    HW124638   8.508   2.899   0.005
41538SOL    HW224639   8.612   2.790   0.068
41539SOL     OW24640   9.309   3.431   0.851
41539SOL    HW124641   9.238   3.419   0.781
41539SOL    HW224642   9.310   3.352   0.911
41540SOL     OW24643   7.669   3.176   1.844
41540SOL    HW124644   7.604   3.103   1.823
41540SOL    HW224645   7.673   3.190   1.942
41541SOL     OW24646   7.527   3.102   0.653
41541SOL    HW124647   7.526   3.055   0.741
41541SOL    HW224648   7.609   3.074   0.602
41542SOL     OW24649   8.120   3.253   1.624
41542SOL    HW124650   8.042   3.203   1.662
41542SOL    HW224651   8.117   3.348   1.655
41543SOL     OW24652   9.272   2.054   1.227
41543SOL    HW124653   9.268   1.964   1.271
41543SOL    HW224654   9.275   2.043   1.128
41544SOL     OW24655   7.876   2.286   0.520
41544SOL    HW124656   7.906   2.214   0.458
41544SOL    HW224657   7.837   2.246   0.603
41545SOL     OW24658   9.153   3.349   1.104
41545SOL    HW124659   9.060   3.324   1.077
41545SOL    HW224660   9.179   3.299   1.186
41546SOL     OW24661   7.765   2.409   1.280
41546SOL    HW124662   7.803   2.350   1.352
41546SOL    HW224663   7.805   2.383   1.192
41547SOL     OW24664   8.260   3.448   0.687
41547SOL    HW124665   8.292   3.458   0.593
41547SOL    HW224666   8.181   3.386   0.689
41548SOL     OW24667   8.872   2.076   1.112
41548SOL    HW124668   8.924   2.011   1.167
41548SOL    HW224669   8.823   2.139   1.173
41549SOL     OW24670   8.449   1.896   1.154
41549SOL    HW124671   8.386   1.824   1.123
41549SOL    HW224672   8.542   1.860   1.154
41550SOL     OW24673   8.218   3.192   0.301
41550SOL    HW124674   8.172   3.105   0.318
41550SOL    HW224675   8.309   3.189   0.342
41551SOL     OW24676   8.066   3.429   1.284
41551SOL    HW124677   8.061   3.511   1.341
41551SOL    HW224678   8.155   3.426   1.239
41552SOL     OW24679   8.800   1.914   0.168
41552SOL    HW124680   8.835   1.873   0.084
41552SOL    HW224681   8.710   1.876   0.188
41553SOL     OW24682   8.748   2.315   0.691
41553SOL    HW124683   8.689   2.395   0.695
41553SOL    HW224684   8.763   2.280   0.784
41554SOL     OW24685   9.041   2.083   0.882
41554SOL    HW124686   8.957   2.082   0.936
41554SOL    HW224687   9.043   2.166   0.826
41555SOL     OW24688   7.487   2.939   0.300
41555SOL    HW124689   7.586   2.928   0.291
41555SOL    HW224690   7.447   2.853   0.332
41556SOL     OW24691   8.323   3.508   0.337
41556SOL    HW124692   8.246   3.473   0.283
41556SOL    HW224693   8.291   3.579   0.399
41557SOL     OW24694   7.678   2.490   1.975
41557SOL    HW124695   7.585   2.488   2.012
41557SOL    HW224696   7.679   2.451   1.883
41558SOL     OW24697   7.673   2.137   2.858
41558SOL    HW124698   7.708   2.120   2.950
41558SOL    HW224699   7.585   2.092   2.846
41559SOL     OW24700   7.467   2.230   2.509
41559SOL    HW124701   7.385   2.273   2.548
41559SOL    HW224702   7.439   2.157   2.446
41560SOL     OW24703   8.017   3.137   3.027
41560SOL    HW124704   7.924   3.130   2.990
41560SOL    HW224705   8.028   3.226   3.071
41561SOL     OW24706   9.003   3.373   2.565
41561SOL    HW124707   8.946   3.357   2.646
41561SOL    HW224708   8.944   3.383   2.485
41562SOL     OW24709   8.583   2.565   2.579
41562SOL    HW124710   8.640   2.643   2.554
41562SOL    HW224711   8.523   2.591   2.655
41563SOL     OW24712   9.203   2.469   2.093
41563SOL    HW124713   9.191   2.456   1.994
41563SOL    HW224714   9.173   2.388   2.142
41564SOL     OW24715   8.216   3.006   2.885
41564SOL    HW124716   8.138   3.023   2.945
41564SOL    HW224717   8.250   3.093   2.849
41565SOL     OW24718   8.298   2.660   3.685
41565SOL    HW124719   8.294   2.736   3.750
41565SOL    HW224720   8.320   2.696   3.594
41566SOL     OW24721   8.133   2.874   2.527
41566SOL    HW124722   8.202   2.858   2.597
41566SOL    HW224723   8.060   2.931   2.565
41567SOL     OW24724   8.134   3.023   3.665
41567SOL    HW124725   8.194   3.102   3.679
41567SOL    HW224726   8.048   3.054   3.624
41568SOL     OW24727   7.783   3.297   2.923
41568SOL    HW124728   7.705   3.266   2.870
41568SOL    HW224729   7.841   3.355   2.866
41569SOL     OW24730   8.908   3.367   3.201
41569SOL    HW124731   8.932   3.461   3.227
41569SOL    HW224732   8.892   3.313   3.283
41570SOL     OW24733   7.886   2.254   3.361
41570SOL    HW124734   7.968   2.198   3.370
41570SOL    HW224735   7.805   2.196   3.365
41571SOL     OW24736   9.051   2.309   2.599
41571SOL    HW124737   8.977   2.355   2.549
41571SOL    HW224738   9.102   2.377   2.652
41572SOL     OW24739   7.679   3.575   2.345
41572SOL    HW124740   7.713   3.652   2.399
41572SOL    HW224741   7.723   3.575   2.255
41573SOL     OW24742   8.575   3.203   3.552
41573SOL    HW124743   8.622   3.203   3.640
41573SOL    HW224744   8.527   3.116   3.541
41574SOL     OW24745   7.678   3.296   2.400
41574SOL    HW124746   7.652   3.392   2.400
41574SOL    HW224747   7.607   3.242   2.445
41575SOL     OW24748   7.688   2.953   2.748
41575SOL    HW124749   7.702   2.869   2.800
41575SOL    HW224750   7.633   3.017   2.803
41576SOL     OW24751   8.068   3.648   3.301
41576SOL    HW124752   7.976   3.631   3.336
41576SOL    HW224753   8.096   3.740   3.327
41577SOL     OW24754   8.054   2.826   1.985
41577SOL    HW124755   8.061   2.910   1.931
41577SOL    HW224756   8.100   2.839   2.073
41578SOL     OW24757   9.042   1.976   3.342
41578SOL    HW124758   9.024   2.043   3.270
41578SOL    HW224759   9.039   2.022   3.431
41579SOL     OW24760   7.570   2.505   2.425
41579SOL    HW124761   7.525   2.417   2.442
41579SOL    HW224762   7.569   2.559   2.509
41580SOL     OW24763   9.290   3.629   2.221
41580SOL    HW124764   9.344   3.600   2.301
41580SOL    HW224765   9.320   3.719   2.192
41581SOL     OW24766   7.475   3.458   1.979
41581SOL    HW124767   7.456   3.362   2.000
41581SOL    HW224768   7.442   3.516   2.054
41582SOL     OW24769   9.137   2.784   2.474
41582SOL    HW124770   9.232   2.755   2.482
41582SOL    HW224771   9.129   2.849   2.399
41583SOL     OW24772   9.089   2.970   2.294
41583SOL    HW124773   9.175   2.972   2.242
41583SOL    HW224774   9.103   3.017   2.382
41584SOL     OW24775   7.561   2.599   3.459
41584SOL    HW124776   7.649   2.586   3.504
41584SOL    HW224777   7.548   2.696   3.437
41585SOL     OW24778   8.061   3.227   2.588
41585SOL    HW124779   8.012   3.140   2.597
41585SOL    HW224780   8.038   3.270   2.501
41586SOL     OW24781   8.741   3.090   3.285
41586SOL    HW124782   8.778   3.017   3.227
41586SOL    HW224783   8.793   3.095   3.370
41587SOL     OW24784   8.257   1.866   2.364
41587SOL    HW124785   8.297   1.957   2.355
41587SOL    HW224786   8.157   1.874   2.370
41588SOL     OW24787   7.645   2.838   3.126
41588SOL    HW124788   7.734   2.793   3.112
41588SOL    HW224789   7.572   2.773   3.107
41589SOL     OW24790   8.973   2.861   2.052
41589SOL    HW124791   8.910   2.785   2.065
41589SOL    HW224792   9.021   2.879   2.138
41590SOL     OW24793   8.635   3.654   3.478
41590SOL    HW124794   8.659   3.714   3.402
41590SOL    HW224795   8.642   3.559   3.448
41591SOL     OW24796   7.765   2.113   3.663
41591SOL    HW124797   7.836   2.184   3.669
41591SOL    HW224798   7.677   2.152   3.691
41592SOL     OW24799   8.914   3.279   2.815
41592SOL    HW124800   8.855   3.285   2.895
41592SOL    HW224801   8.899   3.191   2.769
41593SOL     OW24802   9.115   3.576   2.434
41593SOL    HW124803   9.074   3.553   2.346
41593SOL    HW224804   9.097   3.502   2.499
41594SOL     OW24805   8.046   2.591   2.132
41594SOL    HW124806   8.070   2.660   2.064
41594SOL    HW224807   7.968   2.624   2.186
41595SOL     OW24808   8.729   2.207   2.806
41595SOL    HW124809   8.643   2.157   2.793
41595SOL    HW224810   8.791   2.153   2.862
41596SOL     OW24811   9.024   3.524   2.169
41596SOL    HW124812   9.113   3.570   2.172
41596SOL    HW224813   9.003   3.500   2.074
41597SOL     OW24814   8.255   2.467   3.327
41597SOL    HW124815   8.208   2.464   3.416
41597SOL    HW224816   8.204   2.412   3.261
41598SOL     OW24817   8.842   2.331   3.536
41598SOL    HW124818   8.822   2.374   3.624
41598SOL    HW224819   8.920   2.269   3.545
41599SOL     OW24820   8.421   2.752   3.434
41599SOL    HW124821   8.467   2.668   3.405
41599SOL    HW224822   8.365   2.786   3.359
41600SOL     OW24823   8.439   2.272   3.104
41600SOL    HW124824   8.362   2.306   3.158
41600SOL    HW224825   8.405   2.221   3.025
41601SOL     OW24826   8.489   2.563   2.291
41601SOL    HW124827   8.515   2.559   2.387
41601SOL    HW224828   8.404   2.512   2.277
41602SOL     OW24829   7.524   2.673   2.651
41602SOL    HW124830   7.623   2.661   2.660
41602SOL    HW224831   7.500   2.768   2.672
41603SOL     OW24832   7.578   3.683   3.433
41603SOL    HW124833   7.568   3.668   3.532
41603SOL    HW224834   7.492   3.719   3.397
41604SOL     OW24835   8.313   2.210   2.057
41604SOL    HW124836   8.372   2.273   2.008
41604SOL    HW224837   8.332   2.116   2.028
41605SOL     OW24838   9.167   2.447   3.693
41605SOL    HW124839   9.141   2.536   3.657
41605SOL    HW224840   9.165   2.379   3.620
41606SOL     OW24841   8.810   3.006   2.407
41606SOL    HW124842   8.893   2.977   2.359
41606SOL    HW224843   8.761   3.073   2.351
41607SOL     OW24844   7.998   2.058   2.747
41607SOL    HW124845   7.993   2.053   2.847
41607SOL    HW224846   8.000   2.154   2.718
41608SOL     OW24847   8.456   3.318   2.339
41608SOL    HW124848   8.410   3.390   2.287
41608SOL    HW224849   8.452   3.338   2.437
41609SOL     OW24850   7.799   3.663   2.715
41609SOL    HW124851   7.849   3.577   2.721
41609SOL    HW224852   7.864   3.740   2.712
41610SOL     OW24853   9.243   2.928   2.735
41610SOL    HW124854   9.181   2.913   2.659
41610SOL    HW224855   9.191   2.939   2.820
41611SOL     OW24856   8.675   3.412   3.368
41611SOL    HW124857   8.681   3.335   3.432
41611SOL    HW224858   8.623   3.386   3.288
41612SOL     OW24859   7.769   2.805   2.104
41612SOL    HW124860   7.851   2.844   2.062
41612SOL    HW224861   7.742   2.723   2.055
41613SOL     OW24862   7.909   3.128   3.589
41613SOL    HW124863   7.859   3.129   3.503
41613SOL    HW224864   7.846   3.110   3.665
41614SOL     OW24865   8.559   3.638   2.099
41614SOL    HW124866   8.499   3.576   2.149
41614SOL    HW224867   8.590   3.594   2.014
41615SOL     OW24868   7.650   2.147   3.360
41615SOL    HW124869   7.570   2.207   3.347
41615SOL    HW224870   7.640   2.098   3.446
41616SOL     OW24871   9.080   3.239   1.943
41616SOL    HW124872   9.048   3.333   1.933
41616SOL    HW224873   9.004   3.176   1.931
41617SOL     OW24874   7.912   3.605   2.185
41617SOL    HW124875   7.945   3.644   2.271
41617SOL    HW224876   7.988   3.598   2.120
41618SOL     OW24877   8.848   1.969   2.288
41618SOL    HW124878   8.824   1.932   2.198
41618SOL    HW224879   8.947   1.985   2.292
41619SOL     OW24880   7.697   3.647   3.103
41619SOL    HW124881   7.754   3.582   3.153
41619SOL    HW224882   7.681   3.614   3.010
41620SOL     OW24883   8.388   3.560   2.766
41620SOL    HW124884   8.468   3.503   2.787
41620SOL    HW224885   8.339   3.520   2.689
41621SOL     OW24886   7.830   2.562   2.342
41621SOL    HW124887   7.875   2.472   2.339
41621SOL    HW224888   7.736   2.551   2.375
41622SOL     OW24889   8.995   2.084   3.591
41622SOL    HW124890   8.990   2.121   3.683
41622SOL    HW224891   8.923   2.015   3.579
41623SOL     OW24892   8.062   1.984   1.979
41623SOL    HW124893   8.160   1.962   1.986
41623SOL    HW224894   8.031   1.967   1.886
41624SOL     OW24895   8.229   2.126   3.611
41624SOL    HW124896   8.296   2.065   3.654
41624SOL    HW224897   8.156   2.145   3.676
41625SOL     OW24898   8.336   3.376   3.057
41625SOL    HW124899   8.313   3.351   2.963
41625SOL    HW224900   8.397   3.307   3.096
41626SOL     OW24901   8.799   2.452   3.295
41626SOL    HW124902   8.827   2.409   3.380
41626SOL    HW224903   8.824   2.548   3.296
41627SOL     OW24904   8.251   3.264   2.786
41627SOL    HW124905   8.341   3.278   2.744
41627SOL    HW224906   8.180   3.266   2.715
41628SOL     OW24907   8.370   2.365   2.761
41628SOL    HW124908   8.345   2.356   2.665
41628SOL    HW224909   8.418   2.283   2.792
41629SOL     OW24910   7.987   1.926   2.374
41629SOL    HW124911   7.906   1.927   2.432
41629SOL    HW224912   7.990   2.009   2.319
41630SOL     OW24913   8.882   3.050   1.903
41630SOL    HW124914   8.914   2.974   1.960
41630SOL    HW224915   8.790   3.077   1.933
41631SOL     OW24916   7.745   1.897   2.033
41631SOL    HW124917   7.794   1.981   2.012
41631SOL    HW224918   7.807   1.832   2.078
41632SOL     OW24919   8.383   2.098   2.342
41632SOL    HW124920   8.335   2.139   2.264
41632SOL    HW224921   8.482   2.096   2.323
41633SOL     OW24922   8.524   2.545   3.326
41633SOL    HW124923   8.444   2.484   3.329
41633SOL    HW224924   8.605   2.492   3.302
41634SOL     OW24925   8.675   3.432   2.655
41634SOL    HW124926   8.696   3.506   2.590
41634SOL    HW224927   8.743   3.432   2.728
41635SOL     OW24928   7.907   3.014   2.603
41635SOL    HW124929   7.836   2.987   2.668
41635SOL    HW224930   7.881   2.986   2.510
41636SOL     OW24931   8.719   3.659   2.453
41636SOL    HW124932   8.763   3.723   2.389
41636SOL    HW224933   8.669   3.711   2.523
41637SOL     OW24934   8.480   2.411   1.878
41637SOL    HW124935   8.439   2.493   1.839
41637SOL    HW224936   8.544   2.437   1.951
41638SOL     OW24937   7.526   2.418   3.248
41638SOL    HW124938   7.618   2.417   3.207
41638SOL    HW224939   7.520   2.492   3.315
41639SOL     OW24940   8.009   2.084   3.009
41639SOL    HW124941   8.047   2.000   3.046
41639SOL    HW224942   7.921   2.103   3.053
41640SOL     OW24943   8.314   2.316   2.504
41640SOL    HW124944   8.282   2.388   2.442
41640SOL    HW224945   8.338   2.235   2.451
41641SOL     OW24946   8.465   1.901   2.615
41641SOL    HW124947   8.393   1.906   2.546
41641SOL    HW224948   8.441   1.832   2.684
41642SOL     OW24949   8.877   3.035   2.729
41642SOL    HW124950   8.822   2.951   2.722
41642SOL    HW224951   8.903   3.064   2.637
41643SOL     OW24952   8.914   2.452   2.854
41643SOL    HW124953   8.884   2.357   2.861
41643SOL    HW224954   8.987   2.468   2.920
41644SOL     OW24955   9.305   2.695   2.239
41644SOL    HW124956   9.347   2.631   2.303
41644SOL    HW224957   9.267   2.644   2.161
41645SOL     OW24958   7.936   3.247   2.036
41645SOL    HW124959   7.849   3.232   2.083
41645SOL    HW224960   7.919   3.273   1.941
41646SOL     OW24961   9.112   3.142   2.519
41646SOL    HW124962   9.211   3.150   2.533
41646SOL    HW224963   9.067   3.226   2.550
41647SOL     OW24964   8.838   2.437   1.940
41647SOL    HW124965   8.784   2.416   2.021
41647SOL    HW224966   8.929   2.396   1.949
41648SOL     OW24967   7.975   2.118   2.190
41648SOL    HW124968   8.002   2.059   2.115
41648SOL    HW224969   7.975   2.213   2.159
41649SOL     OW24970   9.202   3.085   3.450
41649SOL    HW124971   9.293   3.046   3.437
41649SOL    HW224972   9.210   3.181   3.474
41650SOL     OW24973   8.512   3.209   3.202
41650SOL    HW124974   8.432   3.186   3.257
41650SOL    HW224975   8.595   3.183   3.251
41651SOL     OW24976   9.040   3.491   3.487
41651SOL    HW124977   9.067   3.525   3.397
41651SOL    HW224978   9.119   3.453   3.533
41652SOL     OW24979   8.559   3.057   2.962
41652SOL    HW124980   8.519   3.101   3.043
41652SOL    HW224981   8.518   3.094   2.879
41653SOL     OW24982   9.086   2.961   2.941
41653SOL    HW124983   9.091   3.042   3.000
41653SOL    HW224984   9.000   2.963   2.890
41654SOL     OW24985   8.363   1.951   3.264
41654SOL    HW124986   8.388   1.931   3.169
41654SOL    HW224987   8.435   2.007   3.306
41655SOL     OW24988   8.428   2.978   3.581
41655SOL    HW124989   8.329   2.984   3.591
41655SOL    HW224990   8.451   2.898   3.525
41656SOL     OW24991   8.153   2.912   2.230
41656SOL    HW124992   8.139   2.919   2.329
41656SOL    HW224993   8.237   2.861   2.212
41657SOL     OW24994   7.858   2.675   3.113
41657SOL    HW124995   7.944   2.687   3.163
41657SOL    HW224996   7.816   2.588   3.140
41658SOL     OW24997   8.722   2.248   3.124
41658SOL    HW124998   8.743   2.322   3.188
41658SOL    HW224999   8.633   2.265   3.081
41659SOL     OW25000   7.512   3.426   3.193
41659SOL    HW125001   7.466   3.508   3.159
41659SOL    HW225002   7.610   3.445   3.202
41660SOL     OW25003   7.815   2.962   2.363
41660SOL    HW125004   7.808   3.045   2.307
41660SOL    HW225005   7.819   2.882   2.303
41661SOL     OW25006   8.014   2.399   2.727
41661SOL    HW125007   8.026   2.465   2.653
41661SOL    HW225008   8.060   2.433   2.810
41662SOL     OW25009   8.700   3.210   2.250
41662SOL    HW125010   8.750   3.287   2.290
41662SOL    HW225011   8.605   3.212   2.282
41663SOL     OW25012   8.720   3.307   3.004
41663SOL    HW125013   8.767   3.320   3.091
41663SOL    HW225014   8.654   3.233   3.013
41664SOL     OW25015   9.030   2.501   2.334
41664SOL    HW125016   8.999   2.562   2.407
41664SOL    HW225017   9.080   2.553   2.265
41665SOL     OW25018   7.802   3.372   3.191
41665SOL    HW125019   7.781   3.328   3.104
41665SOL    HW225020   7.899   3.398   3.194
41666SOL     OW25021   7.850   2.613   3.460
41666SOL    HW125022   7.918   2.668   3.413
41666SOL    HW225023   7.890   2.525   3.487
41667SOL     OW25024   9.035   2.641   3.532
41667SOL    HW125025   8.943   2.679   3.527
41667SOL    HW225026   9.095   2.688   3.467
41668SOL     OW25027   8.461   1.967   3.632
41668SOL    HW125028   8.467   2.052   3.580
41668SOL    HW225029   8.493   1.891   3.575
41669SOL     OW25030   7.952   1.912   3.602
41669SOL    HW125031   7.910   1.855   3.532
41669SOL    HW225032   7.886   1.981   3.634
41670SOL     OW25033   8.021   2.732   2.891
41670SOL    HW125034   8.065   2.821   2.882
41670SOL    HW225035   7.958   2.732   2.968
41671SOL     OW25036   8.808   2.724   2.907
41671SOL    HW125037   8.733   2.724   2.841
41671SOL    HW225038   8.845   2.632   2.916
41672SOL     OW25039   8.657   2.387   2.137
41672SOL    HW125040   8.670   2.303   2.191
41672SOL    HW225041   8.628   2.461   2.197
41673SOL     OW25042   7.755   2.075   3.093
41673SOL    HW125043   7.732   2.112   3.183
41673SOL    HW225044   7.725   1.980   3.087
41674SOL     OW25045   7.485   3.172   3.144
41674SOL    HW125046   7.538   3.123   3.212
41674SOL    HW225047   7.507   3.270   3.149
41675SOL     OW25048   8.180   2.496   2.926
41675SOL    HW125049   8.239   2.470   2.850
41675SOL    HW225050   8.152   2.592   2.915
41676SOL     OW25051   9.176   2.797   3.716
41676SOL    HW125052   9.130   2.790   3.627
41676SOL    HW225053   9.114   2.841   3.782
41677SOL     OW25054   7.755   1.925   2.480
41677SOL    HW125055   7.744   2.019   2.513
41677SOL    HW225056   7.750   1.862   2.557
41678SOL     OW25057   9.070   2.229   2.236
41678SOL    HW125058   9.072   2.153   2.300
41678SOL    HW225059   9.022   2.306   2.276
41679SOL     OW25060   8.471   2.628   2.828
41679SOL    HW125061   8.486   2.649   2.924
41679SOL    HW225062   8.441   2.533   2.819
41680SOL     OW25063   8.428   3.435   3.562
41680SOL    HW125064   8.408   3.479   3.474
41680SOL    HW225065   8.467   3.344   3.546
41681SOL     OW25066   9.307   3.380   3.467
41681SOL    HW125067   9.321   3.407   3.372
41681SOL    HW225068   9.390   3.402   3.520
41682SOL     OW25069   7.798   2.760   3.666
41682SOL    HW125070   7.874   2.804   3.714
41682SOL    HW225071   7.833   2.713   3.584
41683SOL     OW25072   8.988   2.136   1.987
41683SOL    HW125073   8.927   2.061   2.010
41683SOL    HW225074   9.010   2.188   2.070
41684SOL     OW25075   8.751   2.700   1.904
41684SOL    HW125076   8.785   2.607   1.919
41684SOL    HW225077   8.769   2.727   1.809
41685SOL     OW25078   8.516   3.195   2.711
41685SOL    HW125079   8.523   3.111   2.656
41685SOL    HW225080   8.578   3.264   2.675
41686SOL     OW25081   7.767   2.672   2.811
41686SOL    HW125082   7.860   2.708   2.816
41686SOL    HW225083   7.761   2.587   2.863
41687SOL     OW25084   7.787   2.371   2.868
41687SOL    HW125085   7.735   2.288   2.851
41687SOL    HW225086   7.864   2.376   2.804
41688SOL     OW25087   8.586   2.242   3.540
41688SOL    HW125088   8.541   2.305   3.604
41688SOL    HW225089   8.679   2.273   3.523
41689SOL     OW25090   8.608   2.069   3.339
41689SOL    HW125091   8.608   2.133   3.416
41689SOL    HW225092   8.636   2.117   3.256
41690SOL     OW25093   7.456   3.188   2.062
41690SOL    HW125094   7.363   3.209   2.031
41690SOL    HW225095   7.466   3.089   2.075
41691SOL     OW25096   7.536   3.663   2.789
41691SOL    HW125097   7.494   3.577   2.762
41691SOL    HW225098   7.630   3.666   2.755
41692SOL     OW25099   7.952   3.430   2.772
41692SOL    HW125100   8.018   3.504   2.781
41692SOL    HW225101   7.996   3.351   2.730
41693SOL     OW25102   8.450   2.658   3.100
41693SOL    HW125103   8.491   2.626   3.186
41693SOL    HW225104   8.354   2.631   3.097
41694SOL     OW25105   7.488   2.406   2.976
41694SOL    HW125106   7.573   2.373   2.935
41694SOL    HW225107   7.501   2.421   3.074
41695SOL     OW25108   7.637   2.382   3.584
41695SOL    HW125109   7.696   2.342   3.514
41695SOL    HW225110   7.579   2.453   3.543
41696SOL     OW25111   8.817   2.812   3.522
41696SOL    HW125112   8.856   2.901   3.542
41696SOL    HW225113   8.827   2.792   3.425
41697SOL     OW25114   8.263   2.434   2.187
41697SOL    HW125115   8.270   2.345   2.141
41697SOL    HW225116   8.169   2.468   2.179
41698SOL     OW25117   9.105   2.466   3.068
41698SOL    HW125118   9.067   2.397   3.130
41698SOL    HW225119   9.187   2.430   3.024
41699SOL     OW25120   7.700   3.426   3.606
41699SOL    HW125121   7.670   3.483   3.682
41699SOL    HW225122   7.693   3.329   3.632
41700SOL     OW25123   8.119   2.326   3.131
41700SOL    HW125124   8.085   2.237   3.101
41700SOL    HW225125   8.145   2.380   3.051
41701SOL     OW25126   8.378   3.540   3.327
41701SOL    HW125127   8.354   3.522   3.232
41701SOL    HW225128   8.408   3.634   3.337
41702SOL     OW25129   7.921   2.362   2.053
41702SOL    HW125130   7.982   2.442   2.057
41702SOL    HW225131   7.826   2.393   2.060
41703SOL     OW25132   7.607   2.999   3.328
41703SOL    HW125133   7.629   2.938   3.404
41703SOL    HW225134   7.617   2.950   3.242
41704SOL     OW25135   8.795   2.921   3.096
41704SOL    HW125136   8.819   2.858   3.022
41704SOL    HW225137   8.705   2.961   3.078
41705SOL     OW25138   8.750   2.717   2.171
41705SOL    HW125139   8.664   2.686   2.213
41705SOL    HW225140   8.746   2.703   2.072
41706SOL     OW25141   9.207   3.609   3.016
41706SOL    HW125142   9.268   3.639   2.943
41706SOL    HW225143   9.169   3.520   2.994
41707SOL     OW25144   8.700   3.593   2.990
41707SOL    HW125145   8.784   3.598   2.936
41707SOL    HW225146   8.677   3.497   3.008
41708SOL     OW25147   7.531   3.120   2.884
41708SOL    HW125148   7.526   3.119   2.984
41708SOL    HW225149   7.448   3.079   2.846
41709SOL     OW25150   8.136   3.524   3.578
41709SOL    HW125151   8.080   3.605   3.587
41709SOL    HW225152   8.188   3.528   3.492
41710SOL     OW25153   9.174   1.997   2.385
41710SOL    HW125154   9.247   1.980   2.318
41710SOL    HW225155   9.143   1.910   2.423
41711SOL     OW25156   8.836   3.435   2.339
41711SOL    HW125157   8.903   3.447   2.265
41711SOL    HW225158   8.796   3.524   2.362
41712SOL     OW25159   7.578   3.656   3.713
41712SOL    HW125160   7.537   3.582   3.766
41712SOL    HW225161   7.642   3.707   3.771
41713SOL     OW25162   8.728   2.789   2.534
41713SOL    HW125163   8.788   2.708   2.536
41713SOL    HW225164   8.768   2.858   2.474
41714SOL     OW25165   8.278   3.135   3.284
41714SOL    HW125166   8.273   3.168   3.379
41714SOL    HW225167   8.192   3.154   3.238
41715SOL     OW25168   8.120   3.478   2.016
41715SOL    HW125169   8.129   3.488   1.917
41715SOL    HW225170   8.080   3.389   2.037
41716SOL     OW25171   9.098   3.582   3.256
41716SOL    HW125172   9.151   3.592   3.172
41716SOL    HW225173   9.071   3.672   3.290
41717SOL     OW25174   9.289   2.037   2.825
41717SOL    HW125175   9.328   1.952   2.789
41717SOL    HW225176   9.191   2.039   2.806
41718SOL     OW25177   7.711   2.188   2.582
41718SOL    HW125178   7.632   2.239   2.548
41718SOL    HW225179   7.702   2.173   2.680
41719SOL     OW25180   8.642   3.474   1.893
41719SOL    HW125181   8.648   3.381   1.930
41719SOL    HW225182   8.583   3.474   1.813
41720SOL     OW25183   8.270   2.864   3.234
41720SOL    HW125184   8.310   2.863   3.142
41720SOL    HW225185   8.280   2.956   3.274
41721SOL     OW25186   8.364   2.772   2.153
41721SOL    HW125187   8.427   2.810   2.085
41721SOL    HW225188   8.404   2.689   2.192
41722SOL     OW25189   8.952   3.469   1.906
41722SOL    HW125190   8.860   3.506   1.913
41722SOL    HW225191   8.990   3.489   1.816
41723SOL     OW25192   7.820   3.150   3.352
41723SOL    HW125193   7.807   3.243   3.318
41723SOL    HW225194   7.736   3.098   3.339
41724SOL     OW25195   9.062   3.154   3.151
41724SOL    HW125196   9.122   3.157   3.231
41724SOL    HW225197   8.987   3.218   3.164
41725SOL     OW25198   8.487   2.960   2.558
41725SOL    HW125199   8.417   2.913   2.612
41725SOL    HW225200   8.546   2.892   2.515
41726SOL     OW25201   8.462   2.098   2.833
41726SOL    HW125202   8.454   2.062   2.740
41726SOL    HW225203   8.460   2.022   2.898
41727SOL     OW25204   8.038   3.349   2.353
41727SOL    HW125205   8.080   3.291   2.283
41727SOL    HW225206   7.994   3.428   2.309
41728SOL     OW25207   9.157   2.247   3.243
41728SOL    HW125208   9.230   2.316   3.247
41728SOL    HW225209   9.185   2.172   3.184
41729SOL     OW25210   7.703   3.210   2.152
41729SOL    HW125211   7.607   3.211   2.125
41729SOL    HW225212   7.715   3.263   2.236
41730SOL     OW25213   7.553   2.875   3.588
41730SOL    HW125214   7.476   2.842   3.642
41730SOL    HW225215   7.638   2.845   3.630
41731SOL     OW25216   8.120   2.065   3.351
41731SOL    HW125217   8.210   2.049   3.311
41731SOL    HW225218   8.128   2.070   3.450
41732SOL     OW25219   7.523   2.207   1.895
41732SOL    HW125220   7.431   2.179   1.866
41732SOL    HW225221   7.554   2.284   1.839
41733SOL     OW25222   8.888   2.718   3.260
41733SOL    HW125223   8.831   2.770   3.197
41733SOL    HW225224   8.984   2.730   3.236
41734SOL     OW25225   7.520   2.028   2.180
41734SOL    HW125226   7.503   2.111   2.126
41734SOL    HW225227   7.610   1.991   2.158
41735SOL     OW25228   8.631   3.197   1.981
41735SOL    HW125229   8.532   3.186   1.983
41735SOL    HW225230   8.665   3.212   2.074
41736SOL     OW25231   8.061   2.704   3.293
41736SOL    HW125232   8.117   2.785   3.276
41736SOL    HW225233   8.120   2.624   3.296
41737SOL     OW25234   8.941   3.629   2.821
41737SOL    HW125235   8.974   3.693   2.752
41737SOL    HW225236   9.007   3.623   2.896
41738SOL     OW25237   8.164   2.427   3.570
41738SOL    HW125238   8.183   2.492   3.644
41738SOL    HW225239   8.224   2.347   3.579
41739SOL     OW25240   8.898   3.082   3.495
41739SOL    HW125241   8.889   3.072   3.594
41739SOL    HW225242   8.994   3.075   3.469
41740SOL     OW25243   7.838   3.603   3.422
41740SOL    HW125244   7.747   3.644   3.420
41740SOL    HW225245   7.831   3.509   3.454
41741SOL     OW25246   9.122   2.745   3.116
41741SOL    HW125247   9.095   2.656   3.079
41741SOL    HW225248   9.123   2.813   3.043
41742SOL     OW25249   8.673   2.187   2.311
41742SOL    HW125250   8.738   2.113   2.300
41742SOL    HW225251   8.693   2.237   2.395
41743SOL     OW25252   8.042   2.607   2.514
41743SOL    HW125253   8.092   2.692   2.495
41743SOL    HW225254   7.954   2.609   2.466
41744SOL     OW25255   9.225   2.204   3.504
41744SOL    HW125256   9.208   2.235   3.410
41744SOL    HW225257   9.141   2.167   3.542
41745SOL     OW25258   9.178   2.796   3.379
41745SOL    HW125259   9.216   2.887   3.394
41745SOL    HW225260   9.170   2.779   3.280
41746SOL     OW25261   8.307   3.236   1.878
41746SOL    HW125262   8.261   3.251   1.966
41746SOL    HW225263   8.351   3.321   1.848
41747SOL     OW25264   8.109   3.652   2.815
41747SOL    HW125265   8.063   3.740   2.802
41747SOL    HW225266   8.208   3.664   2.808
41748SOL     OW25267   8.307   2.818   2.723
41748SOL    HW125268   8.361   2.749   2.771
41748SOL    HW225269   8.275   2.887   2.789
41749SOL     OW25270   8.531   2.846   1.949
41749SOL    HW125271   8.508   2.899   1.867
41749SOL    HW225272   8.612   2.790   1.930
41750SOL     OW25273   9.309   3.431   2.713
41750SOL    HW125274   9.238   3.419   2.643
41750SOL    HW225275   9.310   3.352   2.773
41751SOL     OW25276   7.669   3.176   3.706
41751SOL    HW125277   7.604   3.103   3.685
41751SOL    HW225278   7.673   3.190   3.804
41752SOL     OW25279   7.527   3.102   2.515
41752SOL    HW125280   7.526   3.055   2.603
41752SOL    HW225281   7.609   3.074   2.464
41753SOL     OW25282   8.120   3.253   3.486
41753SOL    HW125283   8.042   3.203   3.524
41753SOL    HW225284   8.117   3.348   3.517
41754SOL     OW25285   9.272   2.054   3.089
41754SOL    HW125286   9.268   1.964   3.133
41754SOL    HW225287   9.275   2.043   2.990
41755SOL     OW25288   7.876   2.286   2.382
41755SOL    HW125289   7.906   2.214   2.320
41755SOL    HW225290   7.837   2.246   2.465
41756SOL     OW25291   9.153   3.349   2.966
41756SOL    HW125292   9.060   3.324   2.939
41756SOL    HW225293   9.179   3.299   3.048
41757SOL     OW25294   7.765   2.409   3.142
41757SOL    HW125295   7.803   2.350   3.214
41757SOL    HW225296   7.805   2.383   3.054
41758SOL     OW25297   8.260   3.448   2.549
41758SOL    HW125298   8.292   3.458   2.455
41758SOL    HW225299   8.181   3.386   2.551
41759SOL     OW25300   8.872   2.076   2.974
41759SOL    HW125301   8.924   2.011   3.029
41759SOL    HW225302   8.823   2.139   3.035
41760SOL     OW25303   8.449   1.896   3.016
41760SOL    HW125304   8.386   1.824   2.985
41760SOL    HW225305   8.542   1.860   3.016
41761SOL     OW25306   8.218   3.192   2.163
41761SOL    HW125307   8.172   3.105   2.180
41761SOL    HW225308   8.309   3.189   2.204
41762SOL     OW25309   8.066   3.429   3.146
41762SOL    HW125310   8.061   3.511   3.203
41762SOL    HW225311   8.155   3.426   3.101
41763SOL     OW25312   8.800   1.914   2.030
41763SOL    HW125313   8.835   1.873   1.946
41763SOL    HW225314   8.710   1.876   2.050
41764SOL     OW25315   8.748   2.315   2.553
41764SOL    HW125316   8.689   2.395   2.557
41764SOL    HW225317   8.763   2.280   2.646
41765SOL     OW25318   9.041   2.083   2.744
41765SOL    HW125319   8.957   2.082   2.798
41765SOL    HW225320   9.043   2.166   2.688
41766SOL     OW25321   7.487   2.939   2.162
41766SOL    HW125322   7.586   2.928   2.153
41766SOL    HW225323   7.447   2.853   2.194
41767SOL     OW25324   8.323   3.508   2.199
41767SOL    HW125325   8.246   3.473   2.145
41767SOL    HW225326   8.291   3.579   2.261
41768SOL     OW25327   7.678   2.490   3.837
41768SOL    HW125328   7.585   2.488   3.874
41768SOL    HW225329   7.679   2.451   3.745
41769SOL     OW25330   7.673   2.137   4.720
41769SOL    HW125331   7.708   2.120   4.812
41769SOL    HW225332   7.585   2.092   4.708
41770SOL     OW25333   7.467   2.230   4.371
41770SOL    HW125334   7.385   2.273   4.410
41770SOL    HW225335   7.439   2.157   4.308
41771SOL     OW25336   8.017   3.137   4.889
41771SOL    HW125337   7.924   3.130   4.852
41771SOL    HW225338   8.028   3.226   4.933
41772SOL     OW25339   9.003   3.373   4.427
41772SOL    HW125340   8.946   3.357   4.508
41772SOL    HW225341   8.944   3.383   4.347
41773SOL     OW25342   8.583   2.565   4.441
41773SOL    HW125343   8.640   2.643   4.416
41773SOL    HW225344   8.523   2.591   4.517
41774SOL     OW25345   9.203   2.469   3.955
41774SOL    HW125346   9.191   2.456   3.856
41774SOL    HW225347   9.173   2.388   4.004
41775SOL     OW25348   8.216   3.006   4.747
41775SOL    HW125349   8.138   3.023   4.807
41775SOL    HW225350   8.250   3.093   4.711
41776SOL     OW25351   8.298   2.660   5.547
41776SOL    HW125352   8.294   2.736   5.612
41776SOL    HW225353   8.320   2.696   5.456
41777SOL     OW25354   8.133   2.874   4.389
41777SOL    HW125355   8.202   2.858   4.459
41777SOL    HW225356   8.060   2.931   4.427
41778SOL     OW25357   8.134   3.023   5.527
41778SOL    HW125358   8.194   3.102   5.541
41778SOL    HW225359   8.048   3.054   5.486
41779SOL     OW25360   7.783   3.297   4.785
41779SOL    HW125361   7.705   3.266   4.732
41779SOL    HW225362   7.841   3.355   4.728
41780SOL     OW25363   8.908   3.367   5.063
41780SOL    HW125364   8.932   3.461   5.089
41780SOL    HW225365   8.892   3.313   5.145
41781SOL     OW25366   7.886   2.254   5.223
41781SOL    HW125367   7.968   2.198   5.232
41781SOL    HW225368   7.805   2.196   5.227
41782SOL     OW25369   9.051   2.309   4.461
41782SOL    HW125370   8.977   2.355   4.411
41782SOL    HW225371   9.102   2.377   4.514
41783SOL     OW25372   7.679   3.575   4.207
41783SOL    HW125373   7.713   3.652   4.261
41783SOL    HW225374   7.723   3.575   4.117
41784SOL     OW25375   8.575   3.203   5.414
41784SOL    HW125376   8.622   3.203   5.502
41784SOL    HW225377   8.527   3.116   5.403
41785SOL     OW25378   7.678   3.296   4.262
41785SOL    HW125379   7.652   3.392   4.262
41785SOL    HW225380   7.607   3.242   4.307
41786SOL     OW25381   7.688   2.953   4.610
41786SOL    HW125382   7.702   2.869   4.662
41786SOL    HW225383   7.633   3.017   4.665
41787SOL     OW25384   8.068   3.648   5.163
41787SOL    HW125385   7.976   3.631   5.198
41787SOL    HW225386   8.096   3.740   5.189
41788SOL     OW25387   8.054   2.826   3.847
41788SOL    HW125388   8.061   2.910   3.793
41788SOL    HW225389   8.100   2.839   3.935
41789SOL     OW25390   9.042   1.976   5.204
41789SOL    HW125391   9.024   2.043   5.132
41789SOL    HW225392   9.039   2.022   5.293
41790SOL     OW25393   7.570   2.505   4.287
41790SOL    HW125394   7.525   2.417   4.304
41790SOL    HW225395   7.569   2.559   4.371
41791SOL     OW25396   9.290   3.629   4.083
41791SOL    HW125397   9.344   3.600   4.163
41791SOL    HW225398   9.320   3.719   4.054
41792SOL     OW25399   7.475   3.458   3.841
41792SOL    HW125400   7.456   3.362   3.862
41792SOL    HW225401   7.442   3.516   3.916
41793SOL     OW25402   9.137   2.784   4.336
41793SOL    HW125403   9.232   2.755   4.344
41793SOL    HW225404   9.129   2.849   4.261
41794SOL     OW25405   9.089   2.970   4.156
41794SOL    HW125406   9.175   2.972   4.104
41794SOL    HW225407   9.103   3.017   4.244
41795SOL     OW25408   7.561   2.599   5.321
41795SOL    HW125409   7.649   2.586   5.366
41795SOL    HW225410   7.548   2.696   5.299
41796SOL     OW25411   8.061   3.227   4.450
41796SOL    HW125412   8.012   3.140   4.459
41796SOL    HW225413   8.038   3.270   4.363
41797SOL     OW25414   8.741   3.090   5.147
41797SOL    HW125415   8.778   3.017   5.089
41797SOL    HW225416   8.793   3.095   5.232
41798SOL     OW25417   8.257   1.866   4.226
41798SOL    HW125418   8.297   1.957   4.217
41798SOL    HW225419   8.157   1.874   4.232
41799SOL     OW25420   7.645   2.838   4.988
41799SOL    HW125421   7.734   2.793   4.974
41799SOL    HW225422   7.572   2.773   4.969
41800SOL     OW25423   8.973   2.861   3.914
41800SOL    HW125424   8.910   2.785   3.927
41800SOL    HW225425   9.021   2.879   4.000
41801SOL     OW25426   8.635   3.654   5.340
41801SOL    HW125427   8.659   3.714   5.264
41801SOL    HW225428   8.642   3.559   5.310
41802SOL     OW25429   7.765   2.113   5.525
41802SOL    HW125430   7.836   2.184   5.531
41802SOL    HW225431   7.677   2.152   5.553
41803SOL     OW25432   8.914   3.279   4.677
41803SOL    HW125433   8.855   3.285   4.757
41803SOL    HW225434   8.899   3.191   4.631
41804SOL     OW25435   9.115   3.576   4.296
41804SOL    HW125436   9.074   3.553   4.208
41804SOL    HW225437   9.097   3.502   4.361
41805SOL     OW25438   8.046   2.591   3.994
41805SOL    HW125439   8.070   2.660   3.926
41805SOL    HW225440   7.968   2.624   4.048
41806SOL     OW25441   8.729   2.207   4.668
41806SOL    HW125442   8.643   2.157   4.655
41806SOL    HW225443   8.791   2.153   4.724
41807SOL     OW25444   9.024   3.524   4.031
41807SOL    HW125445   9.113   3.570   4.034
41807SOL    HW225446   9.003   3.500   3.936
41808SOL     OW25447   8.255   2.467   5.189
41808SOL    HW125448   8.208   2.464   5.278
41808SOL    HW225449   8.204   2.412   5.123
41809SOL     OW25450   8.842   2.331   5.398
41809SOL    HW125451   8.822   2.374   5.486
41809SOL    HW225452   8.920   2.269   5.407
41810SOL     OW25453   8.421   2.752   5.296
41810SOL    HW125454   8.467   2.668   5.267
41810SOL    HW225455   8.365   2.786   5.221
41811SOL     OW25456   8.439   2.272   4.966
41811SOL    HW125457   8.362   2.306   5.020
41811SOL    HW225458   8.405   2.221   4.887
41812SOL     OW25459   8.489   2.563   4.153
41812SOL    HW125460   8.515   2.559   4.249
41812SOL    HW225461   8.404   2.512   4.139
41813SOL     OW25462   7.524   2.673   4.513
41813SOL    HW125463   7.623   2.661   4.522
41813SOL    HW225464   7.500   2.768   4.534
41814SOL     OW25465   7.578   3.683   5.295
41814SOL    HW125466   7.568   3.668   5.394
41814SOL    HW225467   7.492   3.719   5.259
41815SOL     OW25468   8.313   2.210   3.919
41815SOL    HW125469   8.372   2.273   3.870
41815SOL    HW225470   8.332   2.116   3.890
41816SOL     OW25471   9.167   2.447   5.555
41816SOL    HW125472   9.141   2.536   5.519
41816SOL    HW225473   9.165   2.379   5.482
41817SOL     OW25474   8.810   3.006   4.269
41817SOL    HW125475   8.893   2.977   4.221
41817SOL    HW225476   8.761   3.073   4.213
41818SOL     OW25477   7.998   2.058   4.609
41818SOL    HW125478   7.993   2.053   4.709
41818SOL    HW225479   8.000   2.154   4.580
41819SOL     OW25480   8.456   3.318   4.201
41819SOL    HW125481   8.410   3.390   4.149
41819SOL    HW225482   8.452   3.338   4.299
41820SOL     OW25483   7.799   3.663   4.577
41820SOL    HW125484   7.849   3.577   4.583
41820SOL    HW225485   7.864   3.740   4.574
41821SOL     OW25486   9.243   2.928   4.597
41821SOL    HW125487   9.181   2.913   4.521
41821SOL    HW225488   9.191   2.939   4.682
41822SOL     OW25489   8.675   3.412   5.230
41822SOL    HW125490   8.681   3.335   5.294
41822SOL    HW225491   8.623   3.386   5.150
41823SOL     OW25492   7.769   2.805   3.966
41823SOL    HW125493   7.851   2.844   3.924
41823SOL    HW225494   7.742   2.723   3.917
41824SOL     OW25495   8.906   2.597   4.452
41824SOL    HW125496   8.901   2.532   4.527
41824SOL    HW225497   8.986   2.656   4.465
41825SOL     OW25498   7.909   3.128   5.451
41825SOL    HW125499   7.859   3.129   5.365
41825SOL    HW225500   7.846   3.110   5.527
41826SOL     OW25501   8.559   3.638   3.961
41826SOL    HW125502   8.499   3.576   4.011
41826SOL    HW225503   8.590   3.594   3.876
41827SOL     OW25504   7.650   2.147   5.222
41827SOL    HW125505   7.570   2.207   5.209
41827SOL    HW225506   7.640   2.098   5.308
41828SOL     OW25507   9.080   3.239   3.805
41828SOL    HW125508   9.048   3.333   3.795
41828SOL    HW225509   9.004   3.176   3.793
41829SOL     OW25510   7.912   3.605   4.047
41829SOL    HW125511   7.945   3.644   4.133
41829SOL    HW225512   7.988   3.598   3.982
41830SOL     OW25513   8.848   1.969   4.150
41830SOL    HW125514   8.824   1.932   4.060
41830SOL    HW225515   8.947   1.985   4.154
41831SOL     OW25516   7.697   3.647   4.965
41831SOL    HW125517   7.754   3.582   5.015
41831SOL    HW225518   7.681   3.614   4.872
41832SOL     OW25519   8.388   3.560   4.628
41832SOL    HW125520   8.468   3.503   4.649
41832SOL    HW225521   8.339   3.520   4.551
41833SOL     OW25522   7.830   2.562   4.204
41833SOL    HW125523   7.875   2.472   4.201
41833SOL    HW225524   7.736   2.551   4.237
41834SOL     OW25525   8.995   2.084   5.453
41834SOL    HW125526   8.990   2.121   5.545
41834SOL    HW225527   8.923   2.015   5.441
41835SOL     OW25528   8.062   1.984   3.841
41835SOL    HW125529   8.160   1.962   3.848
41835SOL    HW225530   8.031   1.967   3.748
41836SOL     OW25531   8.229   2.126   5.473
41836SOL    HW125532   8.296   2.065   5.516
41836SOL    HW225533   8.156   2.145   5.538
41837SOL     OW25534   8.336   3.376   4.919
41837SOL    HW125535   8.313   3.351   4.825
41837SOL    HW225536   8.397   3.307   4.958
41838SOL     OW25537   8.799   2.452   5.157
41838SOL    HW125538   8.827   2.409   5.242
41838SOL    HW225539   8.824   2.548   5.158
41839SOL     OW25540   8.251   3.264   4.648
41839SOL    HW125541   8.341   3.278   4.606
41839SOL    HW225542   8.180   3.266   4.577
41840SOL     OW25543   8.370   2.365   4.623
41840SOL    HW125544   8.345   2.356   4.527
41840SOL    HW225545   8.418   2.283   4.654
41841SOL     OW25546   7.987   1.926   4.236
41841SOL    HW125547   7.906   1.927   4.294
41841SOL    HW225548   7.990   2.009   4.181
41842SOL     OW25549   8.882   3.050   3.765
41842SOL    HW125550   8.914   2.974   3.822
41842SOL    HW225551   8.790   3.077   3.795
41843SOL     OW25552   7.745   1.897   3.895
41843SOL    HW125553   7.794   1.981   3.874
41843SOL    HW225554   7.807   1.832   3.940
41844SOL     OW25555   8.383   2.098   4.204
41844SOL    HW125556   8.335   2.139   4.126
41844SOL    HW225557   8.482   2.096   4.185
41845SOL     OW25558   8.524   2.545   5.188
41845SOL    HW125559   8.444   2.484   5.191
41845SOL    HW225560   8.605   2.492   5.164
41846SOL     OW25561   8.675   3.432   4.517
41846SOL    HW125562   8.696   3.506   4.452
41846SOL    HW225563   8.743   3.432   4.590
41847SOL     OW25564   7.907   3.014   4.465
41847SOL    HW125565   7.836   2.987   4.530
41847SOL    HW225566   7.881   2.986   4.372
41848SOL     OW25567   8.719   3.659   4.315
41848SOL    HW125568   8.763   3.723   4.251
41848SOL    HW225569   8.669   3.711   4.385
41849SOL     OW25570   8.480   2.411   3.740
41849SOL    HW125571   8.439   2.493   3.701
41849SOL    HW225572   8.544   2.437   3.813
41850SOL     OW25573   7.526   2.418   5.110
41850SOL    HW125574   7.618   2.417   5.069
41850SOL    HW225575   7.520   2.492   5.177
41851SOL     OW25576   8.009   2.084   4.871
41851SOL    HW125577   8.047   2.000   4.908
41851SOL    HW225578   7.921   2.103   4.915
41852SOL     OW25579   8.314   2.316   4.366
41852SOL    HW125580   8.282   2.388   4.304
41852SOL    HW225581   8.338   2.235   4.313
41853SOL     OW25582   8.465   1.901   4.477
41853SOL    HW125583   8.393   1.906   4.408
41853SOL    HW225584   8.441   1.832   4.546
41854SOL     OW25585   8.877   3.035   4.591
41854SOL    HW125586   8.822   2.951   4.584
41854SOL    HW225587   8.903   3.064   4.499
41855SOL     OW25588   8.914   2.452   4.716
41855SOL    HW125589   8.884   2.357   4.723
41855SOL    HW225590   8.987   2.468   4.782
41856SOL     OW25591   9.305   2.695   4.101
41856SOL    HW125592   9.347   2.631   4.165
41856SOL    HW225593   9.267   2.644   4.023
41857SOL     OW25594   7.936   3.247   3.898
41857SOL    HW125595   7.849   3.232   3.945
41857SOL    HW225596   7.919   3.273   3.803
41858SOL     OW25597   9.112   3.142   4.381
41858SOL    HW125598   9.211   3.150   4.395
41858SOL    HW225599   9.067   3.226   4.412
41859SOL     OW25600   8.838   2.437   3.802
41859SOL    HW125601   8.784   2.416   3.883
41859SOL    HW225602   8.929   2.396   3.811
41860SOL     OW25603   7.975   2.118   4.052
41860SOL    HW125604   8.002   2.059   3.977
41860SOL    HW225605   7.975   2.213   4.021
41861SOL     OW25606   9.202   3.085   5.312
41861SOL    HW125607   9.293   3.046   5.299
41861SOL    HW225608   9.210   3.181   5.336
41862SOL     OW25609   8.512   3.209   5.064
41862SOL    HW125610   8.432   3.186   5.119
41862SOL    HW225611   8.595   3.183   5.113
41863SOL     OW25612   9.040   3.491   5.349
41863SOL    HW125613   9.067   3.525   5.259
41863SOL    HW225614   9.119   3.453   5.395
41864SOL     OW25615   8.559   3.057   4.824
41864SOL    HW125616   8.519   3.101   4.905
41864SOL    HW225617   8.518   3.094   4.741
41865SOL     OW25618   9.086   2.961   4.803
41865SOL    HW125619   9.091   3.042   4.862
41865SOL    HW225620   9.000   2.963   4.752
41866SOL     OW25621   8.363   1.951   5.126
41866SOL    HW125622   8.388   1.931   5.031
41866SOL    HW225623   8.435   2.007   5.168
41867SOL     OW25624   8.428   2.978   5.443
41867SOL    HW125625   8.329   2.984   5.453
41867SOL    HW225626   8.451   2.898   5.387
41868SOL     OW25627   8.153   2.912   4.092
41868SOL    HW125628   8.139   2.919   4.191
41868SOL    HW225629   8.237   2.861   4.074
41869SOL     OW25630   7.858   2.675   4.975
41869SOL    HW125631   7.944   2.687   5.025
41869SOL    HW225632   7.816   2.588   5.002
41870SOL     OW25633   8.722   2.248   4.986
41870SOL    HW125634   8.743   2.322   5.050
41870SOL    HW225635   8.633   2.265   4.943
41871SOL     OW25636   7.512   3.426   5.055
41871SOL    HW125637   7.466   3.508   5.021
41871SOL    HW225638   7.610   3.445   5.064
41872SOL     OW25639   7.815   2.962   4.225
41872SOL    HW125640   7.808   3.045   4.169
41872SOL    HW225641   7.819   2.882   4.165
41873SOL     OW25642   8.014   2.399   4.589
41873SOL    HW125643   8.026   2.465   4.515
41873SOL    HW225644   8.060   2.433   4.672
41874SOL     OW25645   8.700   3.210   4.112
41874SOL    HW125646   8.750   3.287   4.152
41874SOL    HW225647   8.605   3.212   4.144
41875SOL     OW25648   8.720   3.307   4.866
41875SOL    HW125649   8.767   3.320   4.953
41875SOL    HW225650   8.654   3.233   4.875
41876SOL     OW25651   9.030   2.501   4.196
41876SOL    HW125652   8.999   2.562   4.269
41876SOL    HW225653   9.080   2.553   4.127
41877SOL     OW25654   7.802   3.372   5.053
41877SOL    HW125655   7.781   3.328   4.966
41877SOL    HW225656   7.899   3.398   5.056
41878SOL     OW25657   7.850   2.613   5.322
41878SOL    HW125658   7.918   2.668   5.275
41878SOL    HW225659   7.890   2.525   5.349
41879SOL     OW25660   9.035   2.641   5.394
41879SOL    HW125661   8.943   2.679   5.389
41879SOL    HW225662   9.095   2.688   5.329
41880SOL     OW25663   8.461   1.967   5.494
41880SOL    HW125664   8.467   2.052   5.442
41880SOL    HW225665   8.493   1.891   5.437
41881SOL     OW25666   7.952   1.912   5.464
41881SOL    HW125667   7.910   1.855   5.394
41881SOL    HW225668   7.886   1.981   5.496
41882SOL     OW25669   8.021   2.732   4.753
41882SOL    HW125670   8.065   2.821   4.744
41882SOL    HW225671   7.958   2.732   4.830
41883SOL     OW25672   8.808   2.724   4.769
41883SOL    HW125673   8.733   2.724   4.703
41883SOL    HW225674   8.845   2.632   4.778
41884SOL     OW25675   8.657   2.387   3.999
41884SOL    HW125676   8.670   2.303   4.053
41884SOL    HW225677   8.628   2.461   4.059
41885SOL     OW25678   7.755   2.075   4.955
41885SOL    HW125679   7.732   2.112   5.045
41885SOL    HW225680   7.725   1.980   4.949
41886SOL     OW25681   7.485   3.172   5.006
41886SOL    HW125682   7.538   3.123   5.074
41886SOL    HW225683   7.507   3.270   5.011
41887SOL     OW25684   8.180   2.496   4.788
41887SOL    HW125685   8.239   2.470   4.712
41887SOL    HW225686   8.152   2.592   4.777
41888SOL     OW25687   9.176   2.797   5.578
41888SOL    HW125688   9.130   2.790   5.489
41888SOL    HW225689   9.114   2.841   5.644
41889SOL     OW25690   7.755   1.925   4.342
41889SOL    HW125691   7.744   2.019   4.375
41889SOL    HW225692   7.750   1.862   4.419
41890SOL     OW25693   9.070   2.229   4.098
41890SOL    HW125694   9.072   2.153   4.162
41890SOL    HW225695   9.022   2.306   4.138
41891SOL     OW25696   8.471   2.628   4.690
41891SOL    HW125697   8.486   2.649   4.786
41891SOL    HW225698   8.441   2.533   4.681
41892SOL     OW25699   8.428   3.435   5.424
41892SOL    HW125700   8.408   3.479   5.336
41892SOL    HW225701   8.467   3.344   5.408
41893SOL     OW25702   9.307   3.380   5.329
41893SOL    HW125703   9.321   3.407   5.234
41893SOL    HW225704   9.390   3.402   5.382
41894SOL     OW25705   7.798   2.760   5.528
41894SOL    HW125706   7.874   2.804   5.576
41894SOL    HW225707   7.833   2.713   5.446
41895SOL     OW25708   8.988   2.136   3.849
41895SOL    HW125709   8.927   2.061   3.872
41895SOL    HW225710   9.010   2.188   3.932
41896SOL     OW25711   8.751   2.700   3.766
41896SOL    HW125712   8.785   2.607   3.781
41896SOL    HW225713   8.769   2.727   3.671
41897SOL     OW25714   8.516   3.195   4.573
41897SOL    HW125715   8.523   3.111   4.518
41897SOL    HW225716   8.578   3.264   4.537
41898SOL     OW25717   7.767   2.672   4.673
41898SOL    HW125718   7.860   2.708   4.678
41898SOL    HW225719   7.761   2.587   4.725
41899SOL     OW25720   7.787   2.371   4.730
41899SOL    HW125721   7.735   2.288   4.713
41899SOL    HW225722   7.864   2.376   4.666
41900SOL     OW25723   8.586   2.242   5.402
41900SOL    HW125724   8.541   2.305   5.466
41900SOL    HW225725   8.679   2.273   5.385
41901SOL     OW25726   8.608   2.069   5.201
41901SOL    HW125727   8.608   2.133   5.278
41901SOL    HW225728   8.636   2.117   5.118
41902SOL     OW25729   7.456   3.188   3.924
41902SOL    HW125730   7.363   3.209   3.893
41902SOL    HW225731   7.466   3.089   3.937
41903SOL     OW25732   7.536   3.663   4.651
41903SOL    HW125733   7.494   3.577   4.624
41903SOL    HW225734   7.630   3.666   4.617
41904SOL     OW25735   7.952   3.430   4.634
41904SOL    HW125736   8.018   3.504   4.643
41904SOL    HW225737   7.996   3.351   4.592
41905SOL     OW25738   8.450   2.658   4.962
41905SOL    HW125739   8.491   2.626   5.048
41905SOL    HW225740   8.354   2.631   4.959
41906SOL     OW25741   7.488   2.406   4.838
41906SOL    HW125742   7.573   2.373   4.797
41906SOL    HW225743   7.501   2.421   4.936
41907SOL     OW25744   7.637   2.382   5.446
41907SOL    HW125745   7.696   2.342   5.376
41907SOL    HW225746   7.579   2.453   5.405
41908SOL     OW25747   8.817   2.812   5.384
41908SOL    HW125748   8.856   2.901   5.404
41908SOL    HW225749   8.827   2.792   5.287
41909SOL     OW25750   8.263   2.434   4.049
41909SOL    HW125751   8.270   2.345   4.003
41909SOL    HW225752   8.169   2.468   4.041
41910SOL     OW25753   9.105   2.466   4.930
41910SOL    HW125754   9.067   2.397   4.992
41910SOL    HW225755   9.187   2.430   4.886
41911SOL     OW25756   7.700   3.426   5.468
41911SOL    HW125757   7.670   3.483   5.544
41911SOL    HW225758   7.693   3.329   5.494
41912SOL     OW25759   8.119   2.326   4.993
41912SOL    HW125760   8.085   2.237   4.963
41912SOL    HW225761   8.145   2.380   4.913
41913SOL     OW25762   8.378   3.540   5.189
41913SOL    HW125763   8.354   3.522   5.094
41913SOL    HW225764   8.408   3.634   5.199
41914SOL     OW25765   7.921   2.362   3.915
41914SOL    HW125766   7.982   2.442   3.919
41914SOL    HW225767   7.826   2.393   3.922
41915SOL     OW25768   7.607   2.999   5.190
41915SOL    HW125769   7.629   2.938   5.266
41915SOL    HW225770   7.617   2.950   5.104
41916SOL     OW25771   8.795   2.921   4.958
41916SOL    HW125772   8.819   2.858   4.884
41916SOL    HW225773   8.705   2.961   4.940
41917SOL     OW25774   8.750   2.717   4.033
41917SOL    HW125775   8.664   2.686   4.075
41917SOL    HW225776   8.746   2.703   3.934
41918SOL     OW25777   9.207   3.609   4.878
41918SOL    HW125778   9.268   3.639   4.805
41918SOL    HW225779   9.169   3.520   4.856
41919SOL     OW25780   8.700   3.593   4.852
41919SOL    HW125781   8.784   3.598   4.798
41919SOL    HW225782   8.677   3.497   4.870
41920SOL     OW25783   7.531   3.120   4.746
41920SOL    HW125784   7.526   3.119   4.846
41920SOL    HW225785   7.448   3.079   4.708
41921SOL     OW25786   8.136   3.524   5.440
41921SOL    HW125787   8.080   3.605   5.449
41921SOL    HW225788   8.188   3.528   5.354
41922SOL     OW25789   9.174   1.997   4.247
41922SOL    HW125790   9.247   1.980   4.180
41922SOL    HW225791   9.143   1.910   4.285
41923SOL     OW25792   8.836   3.435   4.201
41923SOL    HW125793   8.903   3.447   4.127
41923SOL    HW225794   8.796   3.524   4.224
41924SOL     OW25795   7.578   3.656   5.575
41924SOL    HW125796   7.537   3.582   5.628
41924SOL    HW225797   7.642   3.707   5.633
41925SOL     OW25798   8.728   2.789   4.396
41925SOL    HW125799   8.788   2.708   4.398
41925SOL    HW225800   8.768   2.858   4.336
41926SOL     OW25801   8.278   3.135   5.146
41926SOL    HW125802   8.273   3.168   5.241
41926SOL    HW225803   8.192   3.154   5.100
41927SOL     OW25804   8.120   3.478   3.878
41927SOL    HW125805   8.129   3.488   3.779
41927SOL    HW225806   8.080   3.389   3.899
41928SOL     OW25807   9.098   3.582   5.118
41928SOL    HW125808   9.151   3.592   5.034
41928SOL    HW225809   9.071   3.672   5.152
41929SOL     OW25810   9.289   2.037   4.687
41929SOL    HW125811   9.328   1.952   4.651
41929SOL    HW225812   9.191   2.039   4.668
41930SOL     OW25813   7.711   2.188   4.444
41930SOL    HW125814   7.632   2.239   4.410
41930SOL    HW225815   7.702   2.173   4.542
41931SOL     OW25816   8.642   3.474   3.755
41931SOL    HW125817   8.648   3.381   3.792
41931SOL    HW225818   8.583   3.474   3.675
41932SOL     OW25819   8.270   2.864   5.096
41932SOL    HW125820   8.310   2.863   5.004
41932SOL    HW225821   8.280   2.956   5.136
41933SOL     OW25822   8.364   2.772   4.015
41933SOL    HW125823   8.427   2.810   3.947
41933SOL    HW225824   8.404   2.689   4.054
41934SOL     OW25825   8.952   3.469   3.768
41934SOL    HW125826   8.860   3.506   3.775
41934SOL    HW225827   8.990   3.489   3.678
41935SOL     OW25828   7.820   3.150   5.214
41935SOL    HW125829   7.807   3.243   5.180
41935SOL    HW225830   7.736   3.098   5.201
41936SOL     OW25831   9.062   3.154   5.013
41936SOL    HW125832   9.122   3.157   5.093
41936SOL    HW225833   8.987   3.218   5.026
41937SOL     OW25834   8.487   2.960   4.420
41937SOL    HW125835   8.417   2.913   4.474
41937SOL    HW225836   8.546   2.892   4.377
41938SOL     OW25837   8.462   2.098   4.695
41938SOL    HW125838   8.454   2.062   4.602
41938SOL    HW225839   8.460   2.022   4.760
41939SOL     OW25840   8.038   3.349   4.215
41939SOL    HW125841   8.080   3.291   4.145
41939SOL    HW225842   7.994   3.428   4.171
41940SOL     OW25843   9.157   2.247   5.105
41940SOL    HW125844   9.230   2.316   5.109
41940SOL    HW225845   9.185   2.172   5.046
41941SOL     OW25846   7.703   3.210   4.014
41941SOL    HW125847   7.607   3.211   3.987
41941SOL    HW225848   7.715   3.263   4.098
41942SOL     OW25849   7.553   2.875   5.450
41942SOL    HW125850   7.476   2.842   5.504
41942SOL    HW225851   7.638   2.845   5.492
41943SOL     OW25852   8.120   2.065   5.213
41943SOL    HW125853   8.210   2.049   5.173
41943SOL    HW225854   8.128   2.070   5.312
41944SOL     OW25855   7.523   2.207   3.757
41944SOL    HW125856   7.431   2.179   3.728
41944SOL    HW225857   7.554   2.284   3.701
41945SOL     OW25858   8.888   2.718   5.122
41945SOL    HW125859   8.831   2.770   5.059
41945SOL    HW225860   8.984   2.730   5.098
41946SOL     OW25861   7.520   2.028   4.042
41946SOL    HW125862   7.503   2.111   3.988
41946SOL    HW225863   7.610   1.991   4.020
41947SOL     OW25864   8.631   3.197   3.843
41947SOL    HW125865   8.532   3.186   3.845
41947SOL    HW225866   8.665   3.212   3.936
41948SOL     OW25867   8.061   2.704   5.155
41948SOL    HW125868   8.117   2.785   5.138
41948SOL    HW225869   8.120   2.624   5.158
41949SOL     OW25870   8.941   3.629   4.683
41949SOL    HW125871   8.974   3.693   4.614
41949SOL    HW225872   9.007   3.623   4.758
41950SOL     OW25873   8.164   2.427   5.432
41950SOL    HW125874   8.183   2.492   5.506
41950SOL    HW225875   8.224   2.347   5.441
41951SOL     OW25876   8.898   3.082   5.357
41951SOL    HW125877   8.889   3.072   5.456
41951SOL    HW225878   8.994   3.075   5.331
41952SOL     OW25879   7.838   3.603   5.284
41952SOL    HW125880   7.747   3.644   5.282
41952SOL    HW225881   7.831   3.509   5.316
41953SOL     OW25882   9.122   2.745   4.978
41953SOL    HW125883   9.095   2.656   4.941
41953SOL    HW225884   9.123   2.813   4.905
41954SOL     OW25885   8.673   2.187   4.173
41954SOL    HW125886   8.738   2.113   4.162
41954SOL    HW225887   8.693   2.237   4.257
41955SOL     OW25888   8.042   2.607   4.376
41955SOL    HW125889   8.092   2.692   4.357
41955SOL    HW225890   7.954   2.609   4.328
41956SOL     OW25891   9.225   2.204   5.366
41956SOL    HW125892   9.208   2.235   5.272
41956SOL    HW225893   9.141   2.167   5.404
41957SOL     OW25894   9.178   2.796   5.241
41957SOL    HW125895   9.216   2.887   5.256
41957SOL    HW225896   9.170   2.779   5.142
41958SOL     OW25897   8.307   3.236   3.740
41958SOL    HW125898   8.261   3.251   3.828
41958SOL    HW225899   8.351   3.321   3.710
41959SOL     OW25900   8.109   3.652   4.677
41959SOL    HW125901   8.063   3.740   4.664
41959SOL    HW225902   8.208   3.664   4.670
41960SOL     OW25903   8.307   2.818   4.585
41960SOL    HW125904   8.361   2.749   4.633
41960SOL    HW225905   8.275   2.887   4.651
41961SOL     OW25906   8.531   2.846   3.811
41961SOL    HW125907   8.508   2.899   3.729
41961SOL    HW225908   8.612   2.790   3.792
41962SOL     OW25909   9.309   3.431   4.575
41962SOL    HW125910   9.238   3.419   4.505
41962SOL    HW225911   9.310   3.352   4.635
41963SOL     OW25912   7.669   3.176   5.568
41963SOL    HW125913   7.604   3.103   5.547
41963SOL    HW225914   7.673   3.190   5.666
41964SOL     OW25915   7.527   3.102   4.377
41964SOL    HW125916   7.526   3.055   4.465
41964SOL    HW225917   7.609   3.074   4.326
41965SOL     OW25918   8.120   3.253   5.348
41965SOL    HW125919   8.042   3.203   5.386
41965SOL    HW225920   8.117   3.348   5.379
41966SOL     OW25921   9.272   2.054   4.951
41966SOL    HW125922   9.268   1.964   4.995
41966SOL    HW225923   9.275   2.043   4.852
41967SOL     OW25924   7.876   2.286   4.244
41967SOL    HW125925   7.906   2.214   4.182
41967SOL    HW225926   7.837   2.246   4.327
41968SOL     OW25927   9.153   3.349   4.828
41968SOL    HW125928   9.060   3.324   4.801
41968SOL    HW225929   9.179   3.299   4.910
41969SOL     OW25930   7.765   2.409   5.004
41969SOL    HW125931   7.803   2.350   5.076
41969SOL    HW225932   7.805   2.383   4.916
41970SOL     OW25933   8.260   3.448   4.411
41970SOL    HW125934   8.292   3.458   4.317
41970SOL    HW225935   8.181   3.386   4.413
41971SOL     OW25936   8.872   2.076   4.836
41971SOL    HW125937   8.924   2.011   4.891
41971SOL    HW225938   8.823   2.139   4.897
41972SOL     OW25939   8.449   1.896   4.878
41972SOL    HW125940   8.386   1.824   4.847
41972SOL    HW225941   8.542   1.860   4.878
41973SOL     OW25942   8.218   3.192   4.025
41973SOL    HW125943   8.172   3.105   4.042
41973SOL    HW225944   8.309   3.189   4.066
41974SOL     OW25945   8.066   3.429   5.008
41974SOL    HW125946   8.061   3.511   5.065
41974SOL    HW225947   8.155   3.426   4.963
41975SOL     OW25948   8.800   1.914   3.892
41975SOL    HW125949   8.835   1.873   3.808
41975SOL    HW225950   8.710   1.876   3.912
41976SOL     OW25951   8.748   2.315   4.415
41976SOL    HW125952   8.689   2.395   4.419
41976SOL    HW225953   8.763   2.280   4.508
41977SOL     OW25954   9.041   2.083   4.606
41977SOL    HW125955   8.957   2.082   4.660
41977SOL    HW225956   9.043   2.166   4.550
41978SOL     OW25957   7.487   2.939   4.024
41978SOL    HW125958   7.586   2.928   4.015
41978SOL    HW225959   7.447   2.853   4.056
41979SOL     OW25960   8.323   3.508   4.061
41979SOL    HW125961   8.246   3.473   4.007
41979SOL    HW225962   8.291   3.579   4.123
41980SOL     OW25963   7.678   2.490   5.699
41980SOL    HW125964   7.585   2.488   5.736
41980SOL    HW225965   7.679   2.451   5.607
41981SOL     OW25966   7.673   2.137   6.582
41981SOL    HW125967   7.708   2.120   6.674
41981SOL    HW225968   7.585   2.092   6.570
41982SOL     OW25969   7.467   2.230   6.233
41982SOL    HW125970   7.385   2.273   6.272
41982SOL    HW225971   7.439   2.157   6.170
41983SOL     OW25972   8.017   3.137   6.751
41983SOL    HW125973   7.924   3.130   6.714
41983SOL    HW225974   8.028   3.226   6.795
41984SOL     OW25975   9.003   3.373   6.289
41984SOL    HW125976   8.946   3.357   6.370
41984SOL    HW225977   8.944   3.383   6.209
41985SOL     OW25978   8.583   2.565   6.303
41985SOL    HW125979   8.640   2.643   6.278
41985SOL    HW225980   8.523   2.591   6.379
41986SOL     OW25981   9.203   2.469   5.817
41986SOL    HW125982   9.191   2.456   5.718
41986SOL    HW225983   9.173   2.388   5.866
41987SOL     OW25984   8.216   3.006   6.609
41987SOL    HW125985   8.138   3.023   6.669
41987SOL    HW225986   8.250   3.093   6.573
41988SOL     OW25987   8.298   2.660   7.409
41988SOL    HW125988   8.294   2.736   7.474
41988SOL    HW225989   8.320   2.696   7.318
41989SOL     OW25990   8.133   2.874   6.251
41989SOL    HW125991   8.202   2.858   6.321
41989SOL    HW225992   8.060   2.931   6.289
41990SOL     OW25993   8.134   3.023   7.389
41990SOL    HW125994   8.194   3.102   7.403
41990SOL    HW225995   8.048   3.054   7.348
41991SOL     OW25996   7.783   3.297   6.647
41991SOL    HW125997   7.705   3.266   6.594
41991SOL    HW225998   7.841   3.355   6.590
41992SOL     OW25999   8.908   3.367   6.925
41992SOL    HW126000   8.932   3.461   6.951
41992SOL    HW226001   8.892   3.313   7.007
41993SOL     OW26002   7.886   2.254   7.085
41993SOL    HW126003   7.968   2.198   7.094
41993SOL    HW226004   7.805   2.196   7.089
41994SOL     OW26005   9.051   2.309   6.323
41994SOL    HW126006   8.977   2.355   6.273
41994SOL    HW226007   9.102   2.377   6.376
41995SOL     OW26008   7.679   3.575   6.069
41995SOL    HW126009   7.713   3.652   6.123
41995SOL    HW226010   7.723   3.575   5.979
41996SOL     OW26011   8.575   3.203   7.276
41996SOL    HW126012   8.622   3.203   7.364
41996SOL    HW226013   8.527   3.116   7.265
41997SOL     OW26014   7.678   3.296   6.124
41997SOL    HW126015   7.652   3.392   6.124
41997SOL    HW226016   7.607   3.242   6.169
41998SOL     OW26017   7.688   2.953   6.472
41998SOL    HW126018   7.702   2.869   6.524
41998SOL    HW226019   7.633   3.017   6.527
41999SOL     OW26020   8.068   3.648   7.025
41999SOL    HW126021   7.976   3.631   7.060
41999SOL    HW226022   8.096   3.740   7.051
42000SOL     OW26023   8.054   2.826   5.709
42000SOL    HW126024   8.061   2.910   5.655
42000SOL    HW226025   8.100   2.839   5.797
42001SOL     OW26026   9.042   1.976   7.066
42001SOL    HW126027   9.024   2.043   6.994
42001SOL    HW226028   9.039   2.022   7.155
42002SOL     OW26029   7.570   2.505   6.149
42002SOL    HW126030   7.525   2.417   6.166
42002SOL    HW226031   7.569   2.559   6.233
42003SOL     OW26032   9.290   3.629   5.945
42003SOL    HW126033   9.344   3.600   6.025
42003SOL    HW226034   9.320   3.719   5.916
42004SOL     OW26035   7.475   3.458   5.703
42004SOL    HW126036   7.456   3.362   5.724
42004SOL    HW226037   7.442   3.516   5.778
42005SOL     OW26038   9.137   2.784   6.198
42005SOL    HW126039   9.232   2.755   6.206
42005SOL    HW226040   9.129   2.849   6.123
42006SOL     OW26041   9.089   2.970   6.018
42006SOL    HW126042   9.175   2.972   5.966
42006SOL    HW226043   9.103   3.017   6.106
42007SOL     OW26044   7.561   2.599   7.183
42007SOL    HW126045   7.649   2.586   7.228
42007SOL    HW226046   7.548   2.696   7.161
42008SOL     OW26047   8.061   3.227   6.312
42008SOL    HW126048   8.012   3.140   6.321
42008SOL    HW226049   8.038   3.270   6.225
42009SOL     OW26050   8.741   3.090   7.009
42009SOL    HW126051   8.778   3.017   6.951
42009SOL    HW226052   8.793   3.095   7.094
42010SOL     OW26053   8.257   1.866   6.088
42010SOL    HW126054   8.297   1.957   6.079
42010SOL    HW226055   8.157   1.874   6.094
42011SOL     OW26056   7.645   2.838   6.850
42011SOL    HW126057   7.734   2.793   6.836
42011SOL    HW226058   7.572   2.773   6.831
42012SOL     OW26059   8.973   2.861   5.776
42012SOL    HW126060   8.910   2.785   5.789
42012SOL    HW226061   9.021   2.879   5.862
42013SOL     OW26062   8.635   3.654   7.202
42013SOL    HW126063   8.659   3.714   7.126
42013SOL    HW226064   8.642   3.559   7.172
42014SOL     OW26065   7.765   2.113   7.387
42014SOL    HW126066   7.836   2.184   7.393
42014SOL    HW226067   7.677   2.152   7.415
42015SOL     OW26068   8.914   3.279   6.539
42015SOL    HW126069   8.855   3.285   6.619
42015SOL    HW226070   8.899   3.191   6.493
42016SOL     OW26071   9.115   3.576   6.158
42016SOL    HW126072   9.074   3.553   6.070
42016SOL    HW226073   9.097   3.502   6.223
42017SOL     OW26074   8.046   2.591   5.856
42017SOL    HW126075   8.070   2.660   5.788
42017SOL    HW226076   7.968   2.624   5.910
42018SOL     OW26077   8.729   2.207   6.530
42018SOL    HW126078   8.643   2.157   6.517
42018SOL    HW226079   8.791   2.153   6.586
42019SOL     OW26080   9.024   3.524   5.893
42019SOL    HW126081   9.113   3.570   5.896
42019SOL    HW226082   9.003   3.500   5.798
42020SOL     OW26083   8.255   2.467   7.051
42020SOL    HW126084   8.208   2.464   7.140
42020SOL    HW226085   8.204   2.412   6.985
42021SOL     OW26086   8.842   2.331   7.260
42021SOL    HW126087   8.822   2.374   7.348
42021SOL    HW226088   8.920   2.269   7.269
42022SOL     OW26089   8.421   2.752   7.158
42022SOL    HW126090   8.467   2.668   7.129
42022SOL    HW226091   8.365   2.786   7.083
42023SOL     OW26092   8.439   2.272   6.828
42023SOL    HW126093   8.362   2.306   6.882
42023SOL    HW226094   8.405   2.221   6.749
42024SOL     OW26095   8.489   2.563   6.015
42024SOL    HW126096   8.515   2.559   6.111
42024SOL    HW226097   8.404   2.512   6.001
42025SOL     OW26098   7.524   2.673   6.375
42025SOL    HW126099   7.623   2.661   6.384
42025SOL    HW226100   7.500   2.768   6.396
42026SOL     OW26101   7.578   3.683   7.157
42026SOL    HW126102   7.568   3.668   7.256
42026SOL    HW226103   7.492   3.719   7.121
42027SOL     OW26104   8.313   2.210   5.781
42027SOL    HW126105   8.372   2.273   5.732
42027SOL    HW226106   8.332   2.116   5.752
42028SOL     OW26107   9.167   2.447   7.417
42028SOL    HW126108   9.141   2.536   7.381
42028SOL    HW226109   9.165   2.379   7.344
42029SOL     OW26110   8.810   3.006   6.131
42029SOL    HW126111   8.893   2.977   6.083
42029SOL    HW226112   8.761   3.073   6.075
42030SOL     OW26113   7.998   2.058   6.471
42030SOL    HW126114   7.993   2.053   6.571
42030SOL    HW226115   8.000   2.154   6.442
42031SOL     OW26116   8.456   3.318   6.063
42031SOL    HW126117   8.410   3.390   6.011
42031SOL    HW226118   8.452   3.338   6.161
42032SOL     OW26119   7.799   3.663   6.439
42032SOL    HW126120   7.849   3.577   6.445
42032SOL    HW226121   7.864   3.740   6.436
42033SOL     OW26122   9.243   2.928   6.459
42033SOL    HW126123   9.181   2.913   6.383
42033SOL    HW226124   9.191   2.939   6.544
42034SOL     OW26125   8.675   3.412   7.092
42034SOL    HW126126   8.681   3.335   7.156
42034SOL    HW226127   8.623   3.386   7.012
42035SOL     OW26128   7.769   2.805   5.828
42035SOL    HW126129   7.851   2.844   5.786
42035SOL    HW226130   7.742   2.723   5.779
42036SOL     OW26131   8.906   2.597   6.314
42036SOL    HW126132   8.901   2.532   6.389
42036SOL    HW226133   8.986   2.656   6.327
42037SOL     OW26134   7.909   3.128   7.313
42037SOL    HW126135   7.859   3.129   7.227
42037SOL    HW226136   7.846   3.110   7.389
42038SOL     OW26137   8.559   3.638   5.823
42038SOL    HW126138   8.499   3.576   5.873
42038SOL    HW226139   8.590   3.594   5.738
42039SOL     OW26140   7.650   2.147   7.084
42039SOL    HW126141   7.570   2.207   7.071
42039SOL    HW226142   7.640   2.098   7.170
42040SOL     OW26143   9.080   3.239   5.667
42040SOL    HW126144   9.048   3.333   5.657
42040SOL    HW226145   9.004   3.176   5.655
42041SOL     OW26146   7.912   3.605   5.909
42041SOL    HW126147   7.945   3.644   5.995
42041SOL    HW226148   7.988   3.598   5.844
42042SOL     OW26149   8.848   1.969   6.012
42042SOL    HW126150   8.824   1.932   5.922
42042SOL    HW226151   8.947   1.985   6.016
42043SOL     OW26152   7.697   3.647   6.827
42043SOL    HW126153   7.754   3.582   6.877
42043SOL    HW226154   7.681   3.614   6.734
42044SOL     OW26155   8.388   3.560   6.490
42044SOL    HW126156   8.468   3.503   6.511
42044SOL    HW226157   8.339   3.520   6.413
42045SOL     OW26158   7.830   2.562   6.066
42045SOL    HW126159   7.875   2.472   6.063
42045SOL    HW226160   7.736   2.551   6.099
42046SOL     OW26161   8.995   2.084   7.315
42046SOL    HW126162   8.990   2.121   7.407
42046SOL    HW226163   8.923   2.015   7.303
42047SOL     OW26164   8.062   1.984   5.703
42047SOL    HW126165   8.160   1.962   5.710
42047SOL    HW226166   8.031   1.967   5.610
42048SOL     OW26167   8.229   2.126   7.335
42048SOL    HW126168   8.296   2.065   7.378
42048SOL    HW226169   8.156   2.145   7.400
42049SOL     OW26170   8.336   3.376   6.781
42049SOL    HW126171   8.313   3.351   6.687
42049SOL    HW226172   8.397   3.307   6.820
42050SOL     OW26173   8.799   2.452   7.019
42050SOL    HW126174   8.827   2.409   7.104
42050SOL    HW226175   8.824   2.548   7.020
42051SOL     OW26176   8.251   3.264   6.510
42051SOL    HW126177   8.341   3.278   6.468
42051SOL    HW226178   8.180   3.266   6.439
42052SOL     OW26179   8.370   2.365   6.485
42052SOL    HW126180   8.345   2.356   6.389
42052SOL    HW226181   8.418   2.283   6.516
42053SOL     OW26182   7.987   1.926   6.098
42053SOL    HW126183   7.906   1.927   6.156
42053SOL    HW226184   7.990   2.009   6.043
42054SOL     OW26185   8.882   3.050   5.627
42054SOL    HW126186   8.914   2.974   5.684
42054SOL    HW226187   8.790   3.077   5.657
42055SOL     OW26188   7.745   1.897   5.757
42055SOL    HW126189   7.794   1.981   5.736
42055SOL    HW226190   7.807   1.832   5.802
42056SOL     OW26191   8.383   2.098   6.066
42056SOL    HW126192   8.335   2.139   5.988
42056SOL    HW226193   8.482   2.096   6.047
42057SOL     OW26194   8.524   2.545   7.050
42057SOL    HW126195   8.444   2.484   7.053
42057SOL    HW226196   8.605   2.492   7.026
42058SOL     OW26197   8.675   3.432   6.379
42058SOL    HW126198   8.696   3.506   6.314
42058SOL    HW226199   8.743   3.432   6.452
42059SOL     OW26200   7.907   3.014   6.327
42059SOL    HW126201   7.836   2.987   6.392
42059SOL    HW226202   7.881   2.986   6.234
42060SOL     OW26203   8.719   3.659   6.177
42060SOL    HW126204   8.763   3.723   6.113
42060SOL    HW226205   8.669   3.711   6.247
42061SOL     OW26206   8.480   2.411   5.602
42061SOL    HW126207   8.439   2.493   5.563
42061SOL    HW226208   8.544   2.437   5.675
42062SOL     OW26209   7.526   2.418   6.972
42062SOL    HW126210   7.618   2.417   6.931
42062SOL    HW226211   7.520   2.492   7.039
42063SOL     OW26212   8.009   2.084   6.733
42063SOL    HW126213   8.047   2.000   6.770
42063SOL    HW226214   7.921   2.103   6.777
42064SOL     OW26215   8.314   2.316   6.228
42064SOL    HW126216   8.282   2.388   6.166
42064SOL    HW226217   8.338   2.235   6.175
42065SOL     OW26218   8.465   1.901   6.339
42065SOL    HW126219   8.393   1.906   6.270
42065SOL    HW226220   8.441   1.832   6.408
42066SOL     OW26221   8.877   3.035   6.453
42066SOL    HW126222   8.822   2.951   6.446
42066SOL    HW226223   8.903   3.064   6.361
42067SOL     OW26224   8.914   2.452   6.578
42067SOL    HW126225   8.884   2.357   6.585
42067SOL    HW226226   8.987   2.468   6.644
42068SOL     OW26227   9.305   2.695   5.963
42068SOL    HW126228   9.347   2.631   6.027
42068SOL    HW226229   9.267   2.644   5.885
42069SOL     OW26230   7.936   3.247   5.760
42069SOL    HW126231   7.849   3.232   5.807
42069SOL    HW226232   7.919   3.273   5.665
42070SOL     OW26233   9.112   3.142   6.243
42070SOL    HW126234   9.211   3.150   6.257
42070SOL    HW226235   9.067   3.226   6.274
42071SOL     OW26236   8.838   2.437   5.664
42071SOL    HW126237   8.784   2.416   5.745
42071SOL    HW226238   8.929   2.396   5.673
42072SOL     OW26239   7.975   2.118   5.914
42072SOL    HW126240   8.002   2.059   5.839
42072SOL    HW226241   7.975   2.213   5.883
42073SOL     OW26242   9.202   3.085   7.174
42073SOL    HW126243   9.293   3.046   7.161
42073SOL    HW226244   9.210   3.181   7.198
42074SOL     OW26245   8.512   3.209   6.926
42074SOL    HW126246   8.432   3.186   6.981
42074SOL    HW226247   8.595   3.183   6.975
42075SOL     OW26248   9.040   3.491   7.211
42075SOL    HW126249   9.067   3.525   7.121
42075SOL    HW226250   9.119   3.453   7.257
42076SOL     OW26251   8.559   3.057   6.686
42076SOL    HW126252   8.519   3.101   6.767
42076SOL    HW226253   8.518   3.094   6.603
42077SOL     OW26254   9.086   2.961   6.665
42077SOL    HW126255   9.091   3.042   6.724
42077SOL    HW226256   9.000   2.963   6.614
42078SOL     OW26257   8.363   1.951   6.988
42078SOL    HW126258   8.388   1.931   6.893
42078SOL    HW226259   8.435   2.007   7.030
42079SOL     OW26260   8.428   2.978   7.305
42079SOL    HW126261   8.329   2.984   7.315
42079SOL    HW226262   8.451   2.898   7.249
42080SOL     OW26263   8.153   2.912   5.954
42080SOL    HW126264   8.139   2.919   6.053
42080SOL    HW226265   8.237   2.861   5.936
42081SOL     OW26266   7.858   2.675   6.837
42081SOL    HW126267   7.944   2.687   6.887
42081SOL    HW226268   7.816   2.588   6.864
42082SOL     OW26269   8.722   2.248   6.848
42082SOL    HW126270   8.743   2.322   6.912
42082SOL    HW226271   8.633   2.265   6.805
42083SOL     OW26272   7.512   3.426   6.917
42083SOL    HW126273   7.466   3.508   6.883
42083SOL    HW226274   7.610   3.445   6.926
42084SOL     OW26275   7.815   2.962   6.087
42084SOL    HW126276   7.808   3.045   6.031
42084SOL    HW226277   7.819   2.882   6.027
42085SOL     OW26278   8.014   2.399   6.451
42085SOL    HW126279   8.026   2.465   6.377
42085SOL    HW226280   8.060   2.433   6.534
42086SOL     OW26281   8.700   3.210   5.974
42086SOL    HW126282   8.750   3.287   6.014
42086SOL    HW226283   8.605   3.212   6.006
42087SOL     OW26284   8.720   3.307   6.728
42087SOL    HW126285   8.767   3.320   6.815
42087SOL    HW226286   8.654   3.233   6.737
42088SOL     OW26287   9.030   2.501   6.058
42088SOL    HW126288   8.999   2.562   6.131
42088SOL    HW226289   9.080   2.553   5.989
42089SOL     OW26290   7.802   3.372   6.915
42089SOL    HW126291   7.781   3.328   6.828
42089SOL    HW226292   7.899   3.398   6.918
42090SOL     OW26293   7.850   2.613   7.184
42090SOL    HW126294   7.918   2.668   7.137
42090SOL    HW226295   7.890   2.525   7.211
42091SOL     OW26296   8.461   1.967   7.356
42091SOL    HW126297   8.467   2.052   7.304
42091SOL    HW226298   8.493   1.891   7.299
42092SOL     OW26299   7.952   1.912   7.326
42092SOL    HW126300   7.910   1.855   7.256
42092SOL    HW226301   7.886   1.981   7.358
42093SOL     OW26302   8.021   2.732   6.615
42093SOL    HW126303   8.065   2.821   6.606
42093SOL    HW226304   7.958   2.732   6.692
42094SOL     OW26305   8.808   2.724   6.631
42094SOL    HW126306   8.733   2.724   6.565
42094SOL    HW226307   8.845   2.632   6.640
42095SOL     OW26308   8.657   2.387   5.861
42095SOL    HW126309   8.670   2.303   5.915
42095SOL    HW226310   8.628   2.461   5.921
42096SOL     OW26311   7.755   2.075   6.817
42096SOL    HW126312   7.732   2.112   6.907
42096SOL    HW226313   7.725   1.980   6.811
42097SOL     OW26314   7.485   3.172   6.868
42097SOL    HW126315   7.538   3.123   6.936
42097SOL    HW226316   7.507   3.270   6.873
42098SOL     OW26317   8.180   2.496   6.650
42098SOL    HW126318   8.239   2.470   6.574
42098SOL    HW226319   8.152   2.592   6.639
42099SOL     OW26320   9.176   2.797   7.440
42099SOL    HW126321   9.130   2.790   7.351
42099SOL    HW226322   9.114   2.841   7.506
42100SOL     OW26323   7.755   1.925   6.204
42100SOL    HW126324   7.744   2.019   6.237
42100SOL    HW226325   7.750   1.862   6.281
42101SOL     OW26326   9.070   2.229   5.960
42101SOL    HW126327   9.072   2.153   6.024
42101SOL    HW226328   9.022   2.306   6.000
42102SOL     OW26329   8.471   2.628   6.552
42102SOL    HW126330   8.486   2.649   6.648
42102SOL    HW226331   8.441   2.533   6.543
42103SOL     OW26332   8.428   3.435   7.286
42103SOL    HW126333   8.408   3.479   7.198
42103SOL    HW226334   8.467   3.344   7.270
42104SOL     OW26335   9.307   3.380   7.191
42104SOL    HW126336   9.321   3.407   7.096
42104SOL    HW226337   9.390   3.402   7.244
42105SOL     OW26338   7.798   2.760   7.390
42105SOL    HW126339   7.874   2.804   7.438
42105SOL    HW226340   7.833   2.713   7.308
42106SOL     OW26341   8.988   2.136   5.711
42106SOL    HW126342   8.927   2.061   5.734
42106SOL    HW226343   9.010   2.188   5.794
42107SOL     OW26344   8.751   2.700   5.628
42107SOL    HW126345   8.785   2.607   5.643
42107SOL    HW226346   8.769   2.727   5.533
42108SOL     OW26347   8.516   3.195   6.435
42108SOL    HW126348   8.523   3.111   6.380
42108SOL    HW226349   8.578   3.264   6.399
42109SOL     OW26350   7.767   2.672   6.535
42109SOL    HW126351   7.860   2.708   6.540
42109SOL    HW226352   7.761   2.587   6.587
42110SOL     OW26353   7.787   2.371   6.592
42110SOL    HW126354   7.735   2.288   6.575
42110SOL    HW226355   7.864   2.376   6.528
42111SOL     OW26356   8.586   2.242   7.264
42111SOL    HW126357   8.541   2.305   7.328
42111SOL    HW226358   8.679   2.273   7.247
42112SOL     OW26359   8.608   2.069   7.063
42112SOL    HW126360   8.608   2.133   7.140
42112SOL    HW226361   8.636   2.117   6.980
42113SOL     OW26362   7.456   3.188   5.786
42113SOL    HW126363   7.363   3.209   5.755
42113SOL    HW226364   7.466   3.089   5.799
42114SOL     OW26365   7.536   3.663   6.513
42114SOL    HW126366   7.494   3.577   6.486
42114SOL    HW226367   7.630   3.666   6.479
42115SOL     OW26368   7.952   3.430   6.496
42115SOL    HW126369   8.018   3.504   6.505
42115SOL    HW226370   7.996   3.351   6.454
42116SOL     OW26371   8.450   2.658   6.824
42116SOL    HW126372   8.491   2.626   6.910
42116SOL    HW226373   8.354   2.631   6.821
42117SOL     OW26374   7.488   2.406   6.700
42117SOL    HW126375   7.573   2.373   6.659
42117SOL    HW226376   7.501   2.421   6.798
42118SOL     OW26377   7.637   2.382   7.308
42118SOL    HW126378   7.696   2.342   7.238
42118SOL    HW226379   7.579   2.453   7.267
42119SOL     OW26380   8.817   2.812   7.246
42119SOL    HW126381   8.856   2.901   7.266
42119SOL    HW226382   8.827   2.792   7.149
42120SOL     OW26383   8.263   2.434   5.911
42120SOL    HW126384   8.270   2.345   5.865
42120SOL    HW226385   8.169   2.468   5.903
42121SOL     OW26386   9.105   2.466   6.792
42121SOL    HW126387   9.067   2.397   6.854
42121SOL    HW226388   9.187   2.430   6.748
42122SOL     OW26389   7.700   3.426   7.330
42122SOL    HW126390   7.670   3.483   7.406
42122SOL    HW226391   7.693   3.329   7.356
42123SOL     OW26392   8.119   2.326   6.855
42123SOL    HW126393   8.085   2.237   6.825
42123SOL    HW226394   8.145   2.380   6.775
42124SOL     OW26395   8.378   3.540   7.051
42124SOL    HW126396   8.354   3.522   6.956
42124SOL    HW226397   8.408   3.634   7.061
42125SOL     OW26398   7.921   2.362   5.777
42125SOL    HW126399   7.982   2.442   5.781
42125SOL    HW226400   7.826   2.393   5.784
42126SOL     OW26401   7.607   2.999   7.052
42126SOL    HW126402   7.629   2.938   7.128
42126SOL    HW226403   7.617   2.950   6.966
42127SOL     OW26404   8.795   2.921   6.820
42127SOL    HW126405   8.819   2.858   6.746
42127SOL    HW226406   8.705   2.961   6.802
42128SOL     OW26407   8.750   2.717   5.895
42128SOL    HW126408   8.664   2.686   5.937
42128SOL    HW226409   8.746   2.703   5.796
42129SOL     OW26410   9.207   3.609   6.740
42129SOL    HW126411   9.268   3.639   6.667
42129SOL    HW226412   9.169   3.520   6.718
42130SOL     OW26413   8.700   3.593   6.714
42130SOL    HW126414   8.784   3.598   6.660
42130SOL    HW226415   8.677   3.497   6.732
42131SOL     OW26416   7.531   3.120   6.608
42131SOL    HW126417   7.526   3.119   6.708
42131SOL    HW226418   7.448   3.079   6.570
42132SOL     OW26419   8.136   3.524   7.302
42132SOL    HW126420   8.080   3.605   7.311
42132SOL    HW226421   8.188   3.528   7.216
42133SOL     OW26422   9.174   1.997   6.109
42133SOL    HW126423   9.247   1.980   6.042
42133SOL    HW226424   9.143   1.910   6.147
42134SOL     OW26425   8.836   3.435   6.063
42134SOL    HW126426   8.903   3.447   5.989
42134SOL    HW226427   8.796   3.524   6.086
42135SOL     OW26428   7.578   3.656   7.437
42135SOL    HW126429   7.537   3.582   7.490
42135SOL    HW226430   7.642   3.707   7.495
42136SOL     OW26431   8.728   2.789   6.258
42136SOL    HW126432   8.788   2.708   6.260
42136SOL    HW226433   8.768   2.858   6.198
42137SOL     OW26434   8.278   3.135   7.008
42137SOL    HW126435   8.273   3.168   7.103
42137SOL    HW226436   8.192   3.154   6.962
42138SOL     OW26437   8.120   3.478   5.740
42138SOL    HW126438   8.129   3.488   5.641
42138SOL    HW226439   8.080   3.389   5.761
42139SOL     OW26440   9.098   3.582   6.980
42139SOL    HW126441   9.151   3.592   6.896
42139SOL    HW226442   9.071   3.672   7.014
42140SOL     OW26443   9.289   2.037   6.549
42140SOL    HW126444   9.328   1.952   6.513
42140SOL    HW226445   9.191   2.039   6.530
42141SOL     OW26446   7.711   2.188   6.306
42141SOL    HW126447   7.632   2.239   6.272
42141SOL    HW226448   7.702   2.173   6.404
42142SOL     OW26449   8.642   3.474   5.617
42142SOL    HW126450   8.648   3.381   5.654
42142SOL    HW226451   8.583   3.474   5.537
42143SOL     OW26452   8.270   2.864   6.958
42143SOL    HW126453   8.310   2.863   6.866
42143SOL    HW226454   8.280   2.956   6.998
42144SOL     OW26455   8.364   2.772   5.877
42144SOL    HW126456   8.427   2.810   5.809
42144SOL    HW226457   8.404   2.689   5.916
42145SOL     OW26458   8.952   3.469   5.630
42145SOL    HW126459   8.860   3.506   5.637
42145SOL    HW226460   8.990   3.489   5.540
42146SOL     OW26461   7.820   3.150   7.076
42146SOL    HW126462   7.807   3.243   7.042
42146SOL    HW226463   7.736   3.098   7.063
42147SOL     OW26464   9.062   3.154   6.875
42147SOL    HW126465   9.122   3.157   6.955
42147SOL    HW226466   8.987   3.218   6.888
42148SOL     OW26467   8.487   2.960   6.282
42148SOL    HW126468   8.417   2.913   6.336
42148SOL    HW226469   8.546   2.892   6.239
42149SOL     OW26470   8.462   2.098   6.557
42149SOL    HW126471   8.454   2.062   6.464
42149SOL    HW226472   8.460   2.022   6.622
42150SOL     OW26473   8.038   3.349   6.077
42150SOL    HW126474   8.080   3.291   6.007
42150SOL    HW226475   7.994   3.428   6.033
42151SOL     OW26476   9.157   2.247   6.967
42151SOL    HW126477   9.230   2.316   6.971
42151SOL    HW226478   9.185   2.172   6.908
42152SOL     OW26479   7.703   3.210   5.876
42152SOL    HW126480   7.607   3.211   5.849
42152SOL    HW226481   7.715   3.263   5.960
42153SOL     OW26482   7.553   2.875   7.312
42153SOL    HW126483   7.476   2.842   7.366
42153SOL    HW226484   7.638   2.845   7.354
42154SOL     OW26485   8.120   2.065   7.075
42154SOL    HW126486   8.210   2.049   7.035
42154SOL    HW226487   8.128   2.070   7.174
42155SOL     OW26488   7.523   2.207   5.619
42155SOL    HW126489   7.431   2.179   5.590
42155SOL    HW226490   7.554   2.284   5.563
42156SOL     OW26491   8.888   2.718   6.984
42156SOL    HW126492   8.831   2.770   6.921
42156SOL    HW226493   8.984   2.730   6.960
42157SOL     OW26494   7.520   2.028   5.904
42157SOL    HW126495   7.503   2.111   5.850
42157SOL    HW226496   7.610   1.991   5.882
42158SOL     OW26497   8.631   3.197   5.705
42158SOL    HW126498   8.532   3.186   5.707
42158SOL    HW226499   8.665   3.212   5.798
42159SOL     OW26500   8.061   2.704   7.017
42159SOL    HW126501   8.117   2.785   7.000
42159SOL    HW226502   8.120   2.624   7.020
42160SOL     OW26503   8.941   3.629   6.545
42160SOL    HW126504   8.974   3.693   6.476
42160SOL    HW226505   9.007   3.623   6.620
42161SOL     OW26506   8.164   2.427   7.294
42161SOL    HW126507   8.183   2.492   7.368
42161SOL    HW226508   8.224   2.347   7.303
42162SOL     OW26509   8.898   3.082   7.219
42162SOL    HW126510   8.889   3.072   7.318
42162SOL    HW226511   8.994   3.075   7.193
42163SOL     OW26512   7.838   3.603   7.146
42163SOL    HW126513   7.747   3.644   7.144
42163SOL    HW226514   7.831   3.509   7.178
42164SOL     OW26515   9.122   2.745   6.840
42164SOL    HW126516   9.095   2.656   6.803
42164SOL    HW226517   9.123   2.813   6.767
42165SOL     OW26518   8.673   2.187   6.035
42165SOL    HW126519   8.738   2.113   6.024
42165SOL    HW226520   8.693   2.237   6.119
42166SOL     OW26521   8.042   2.607   6.238
42166SOL    HW126522   8.092   2.692   6.219
42166SOL    HW226523   7.954   2.609   6.190
42167SOL     OW26524   9.225   2.204   7.228
42167SOL    HW126525   9.208   2.235   7.134
42167SOL    HW226526   9.141   2.167   7.266
42168SOL     OW26527   9.178   2.796   7.103
42168SOL    HW126528   9.216   2.887   7.118
42168SOL    HW226529   9.170   2.779   7.004
42169SOL     OW26530   8.307   3.236   5.602
42169SOL    HW126531   8.261   3.251   5.690
42169SOL    HW226532   8.351   3.321   5.572
42170SOL     OW26533   8.109   3.652   6.539
42170SOL    HW126534   8.063   3.740   6.526
42170SOL    HW226535   8.208   3.664   6.532
42171SOL     OW26536   8.307   2.818   6.447
42171SOL    HW126537   8.361   2.749   6.495
42171SOL    HW226538   8.275   2.887   6.513
42172SOL     OW26539   8.531   2.846   5.673
42172SOL    HW126540   8.508   2.899   5.591
42172SOL    HW226541   8.612   2.790   5.654
42173SOL     OW26542   9.309   3.431   6.437
42173SOL    HW126543   9.238   3.419   6.367
42173SOL    HW226544   9.310   3.352   6.497
42174SOL     OW26545   7.669   3.176   7.430
42174SOL    HW126546   7.604   3.103   7.409
42174SOL    HW226547   7.673   3.190   7.528
42175SOL     OW26548   7.527   3.102   6.239
42175SOL    HW126549   7.526   3.055   6.327
42175SOL    HW226550   7.609   3.074   6.188
42176SOL     OW26551   8.120   3.253   7.210
42176SOL    HW126552   8.042   3.203   7.248
42176SOL    HW226553   8.117   3.348   7.241
42177SOL     OW26554   9.272   2.054   6.813
42177SOL    HW126555   9.268   1.964   6.857
42177SOL    HW226556   9.275   2.043   6.714
42178SOL     OW26557   7.876   2.286   6.106
42178SOL    HW126558   7.906   2.214   6.044
42178SOL    HW226559   7.837   2.246   6.189
42179SOL     OW26560   9.153   3.349   6.690
42179SOL    HW126561   9.060   3.324   6.663
42179SOL    HW226562   9.179   3.299   6.772
42180SOL     OW26563   7.765   2.409   6.866
42180SOL    HW126564   7.803   2.350   6.938
42180SOL    HW226565   7.805   2.383   6.778
42181SOL     OW26566   8.260   3.448   6.273
42181SOL    HW126567   8.292   3.458   6.179
42181SOL    HW226568   8.181   3.386   6.275
42182SOL     OW26569   8.872   2.076   6.698
42182SOL    HW126570   8.924   2.011   6.753
42182SOL    HW226571   8.823   2.139   6.759
42183SOL     OW26572   8.449   1.896   6.740
42183SOL    HW126573   8.386   1.824   6.709
42183SOL    HW226574   8.542   1.860   6.740
42184SOL     OW26575   8.218   3.192   5.887
42184SOL    HW126576   8.172   3.105   5.904
42184SOL    HW226577   8.309   3.189   5.928
42185SOL     OW26578   8.066   3.429   6.870
42185SOL    HW126579   8.061   3.511   6.927
42185SOL    HW226580   8.155   3.426   6.825
42186SOL     OW26581   8.800   1.914   5.754
42186SOL    HW126582   8.835   1.873   5.670
42186SOL    HW226583   8.710   1.876   5.774
42187SOL     OW26584   8.748   2.315   6.277
42187SOL    HW126585   8.689   2.395   6.281
42187SOL    HW226586   8.763   2.280   6.370
42188SOL     OW26587   9.041   2.083   6.468
42188SOL    HW126588   8.957   2.082   6.522
42188SOL    HW226589   9.043   2.166   6.412
42189SOL     OW26590   7.487   2.939   5.886
42189SOL    HW126591   7.586   2.928   5.877
42189SOL    HW226592   7.447   2.853   5.918
42190SOL     OW26593   8.323   3.508   5.923
42190SOL    HW126594   8.246   3.473   5.869
42190SOL    HW226595   8.291   3.579   5.985
42191SOL     OW26596   7.678   2.490   7.561
42191SOL    HW126597   7.585   2.488   7.598
42191SOL    HW226598   7.679   2.451   7.469
42192SOL     OW26599   7.673   2.137   8.444
42192SOL    HW126600   7.708   2.120   8.536
42192SOL    HW226601   7.585   2.092   8.432
42193SOL     OW26602   7.467   2.230   8.095
42193SOL    HW126603   7.385   2.273   8.134
42193SOL    HW226604   7.439   2.157   8.032
42194SOL     OW26605   8.017   3.137   8.613
42194SOL    HW126606   7.924   3.130   8.576
42194SOL    HW226607   8.028   3.226   8.657
42195SOL     OW26608   9.003   3.373   8.151
42195SOL    HW126609   8.946   3.357   8.232
42195SOL    HW226610   8.944   3.383   8.071
42196SOL     OW26611   8.583   2.565   8.165
42196SOL    HW126612   8.640   2.643   8.140
42196SOL    HW226613   8.523   2.591   8.241
42197SOL     OW26614   9.203   2.469   7.679
42197SOL    HW126615   9.191   2.456   7.580
42197SOL    HW226616   9.173   2.388   7.728
42198SOL     OW26617   8.216   3.006   8.471
42198SOL    HW126618   8.138   3.023   8.531
42198SOL    HW226619   8.250   3.093   8.435
42199SOL     OW26620   8.298   2.660   9.271
42199SOL    HW126621   8.294   2.736   9.336
42199SOL    HW226622   8.320   2.696   9.180
42200SOL     OW26623   8.133   2.874   8.113
42200SOL    HW126624   8.202   2.858   8.183
42200SOL    HW226625   8.060   2.931   8.151
42201SOL     OW26626   8.134   3.023   9.251
42201SOL    HW126627   8.194   3.102   9.265
42201SOL    HW226628   8.048   3.054   9.210
42202SOL     OW26629   7.783   3.297   8.509
42202SOL    HW126630   7.705   3.266   8.456
42202SOL    HW226631   7.841   3.355   8.452
42203SOL     OW26632   8.908   3.367   8.787
42203SOL    HW126633   8.932   3.461   8.813
42203SOL    HW226634   8.892   3.313   8.869
42204SOL     OW26635   7.886   2.254   8.947
42204SOL    HW126636   7.968   2.198   8.956
42204SOL    HW226637   7.805   2.196   8.951
42205SOL     OW26638   9.051   2.309   8.185
42205SOL    HW126639   8.977   2.355   8.135
42205SOL    HW226640   9.102   2.377   8.238
42206SOL     OW26641   7.679   3.575   7.931
42206SOL    HW126642   7.713   3.652   7.985
42206SOL    HW226643   7.723   3.575   7.841
42207SOL     OW26644   8.575   3.203   9.138
42207SOL    HW126645   8.622   3.203   9.226
42207SOL    HW226646   8.527   3.116   9.127
42208SOL     OW26647   7.678   3.296   7.986
42208SOL    HW126648   7.652   3.392   7.986
42208SOL    HW226649   7.607   3.242   8.031
42209SOL     OW26650   7.688   2.953   8.334
42209SOL    HW126651   7.702   2.869   8.386
42209SOL    HW226652   7.633   3.017   8.389
42210SOL     OW26653   8.068   3.648   8.887
42210SOL    HW126654   7.976   3.631   8.922
42210SOL    HW226655   8.096   3.740   8.913
42211SOL     OW26656   8.054   2.826   7.571
42211SOL    HW126657   8.061   2.910   7.517
42211SOL    HW226658   8.100   2.839   7.659
42212SOL     OW26659   9.042   1.976   8.928
42212SOL    HW126660   9.024   2.043   8.856
42212SOL    HW226661   9.039   2.022   9.017
42213SOL     OW26662   7.570   2.505   8.011
42213SOL    HW126663   7.525   2.417   8.028
42213SOL    HW226664   7.569   2.559   8.095
42214SOL     OW26665   9.290   3.629   7.807
42214SOL    HW126666   9.344   3.600   7.887
42214SOL    HW226667   9.320   3.719   7.778
42215SOL     OW26668   7.475   3.458   7.565
42215SOL    HW126669   7.456   3.362   7.586
42215SOL    HW226670   7.442   3.516   7.640
42216SOL     OW26671   9.137   2.784   8.060
42216SOL    HW126672   9.232   2.755   8.068
42216SOL    HW226673   9.129   2.849   7.985
42217SOL     OW26674   9.089   2.970   7.880
42217SOL    HW126675   9.175   2.972   7.828
42217SOL    HW226676   9.103   3.017   7.968
42218SOL     OW26677   7.561   2.599   9.045
42218SOL    HW126678   7.649   2.586   9.090
42218SOL    HW226679   7.548   2.696   9.023
42219SOL     OW26680   8.061   3.227   8.174
42219SOL    HW126681   8.012   3.140   8.183
42219SOL    HW226682   8.038   3.270   8.087
42220SOL     OW26683   8.741   3.090   8.871
42220SOL    HW126684   8.778   3.017   8.813
42220SOL    HW226685   8.793   3.095   8.956
42221SOL     OW26686   8.257   1.866   7.950
42221SOL    HW126687   8.297   1.957   7.941
42221SOL    HW226688   8.157   1.874   7.956
42222SOL     OW26689   7.645   2.838   8.712
42222SOL    HW126690   7.734   2.793   8.698
42222SOL    HW226691   7.572   2.773   8.693
42223SOL     OW26692   8.973   2.861   7.638
42223SOL    HW126693   8.910   2.785   7.651
42223SOL    HW226694   9.021   2.879   7.724
42224SOL     OW26695   8.635   3.654   9.064
42224SOL    HW126696   8.659   3.714   8.988
42224SOL    HW226697   8.642   3.559   9.034
42225SOL     OW26698   7.765   2.113   9.249
42225SOL    HW126699   7.836   2.184   9.255
42225SOL    HW226700   7.677   2.152   9.277
42226SOL     OW26701   8.914   3.279   8.401
42226SOL    HW126702   8.855   3.285   8.481
42226SOL    HW226703   8.899   3.191   8.355
42227SOL     OW26704   9.115   3.576   8.020
42227SOL    HW126705   9.074   3.553   7.932
42227SOL    HW226706   9.097   3.502   8.085
42228SOL     OW26707   8.046   2.591   7.718
42228SOL    HW126708   8.070   2.660   7.650
42228SOL    HW226709   7.968   2.624   7.772
42229SOL     OW26710   8.729   2.207   8.392
42229SOL    HW126711   8.643   2.157   8.379
42229SOL    HW226712   8.791   2.153   8.448
42230SOL     OW26713   9.024   3.524   7.755
42230SOL    HW126714   9.113   3.570   7.758
42230SOL    HW226715   9.003   3.500   7.660
42231SOL     OW26716   8.255   2.467   8.913
42231SOL    HW126717   8.208   2.464   9.002
42231SOL    HW226718   8.204   2.412   8.847
42232SOL     OW26719   8.842   2.331   9.122
42232SOL    HW126720   8.822   2.374   9.210
42232SOL    HW226721   8.920   2.269   9.131
42233SOL     OW26722   8.421   2.752   9.020
42233SOL    HW126723   8.467   2.668   8.991
42233SOL    HW226724   8.365   2.786   8.945
42234SOL     OW26725   8.439   2.272   8.690
42234SOL    HW126726   8.362   2.306   8.744
42234SOL    HW226727   8.405   2.221   8.611
42235SOL     OW26728   8.489   2.563   7.877
42235SOL    HW126729   8.515   2.559   7.973
42235SOL    HW226730   8.404   2.512   7.863
42236SOL     OW26731   7.524   2.673   8.237
42236SOL    HW126732   7.623   2.661   8.246
42236SOL    HW226733   7.500   2.768   8.258
42237SOL     OW26734   7.578   3.683   9.019
42237SOL    HW126735   7.568   3.668   9.118
42237SOL    HW226736   7.492   3.719   8.983
42238SOL     OW26737   8.313   2.210   7.643
42238SOL    HW126738   8.372   2.273   7.594
42238SOL    HW226739   8.332   2.116   7.614
42239SOL     OW26740   9.167   2.447   9.279
42239SOL    HW126741   9.141   2.536   9.243
42239SOL    HW226742   9.165   2.379   9.206
42240SOL     OW26743   8.810   3.006   7.993
42240SOL    HW126744   8.893   2.977   7.945
42240SOL    HW226745   8.761   3.073   7.937
42241SOL     OW26746   7.998   2.058   8.333
42241SOL    HW126747   7.993   2.053   8.433
42241SOL    HW226748   8.000   2.154   8.304
42242SOL     OW26749   8.456   3.318   7.925
42242SOL    HW126750   8.410   3.390   7.873
42242SOL    HW226751   8.452   3.338   8.023
42243SOL     OW26752   7.799   3.663   8.301
42243SOL    HW126753   7.849   3.577   8.307
42243SOL    HW226754   7.864   3.740   8.298
42244SOL     OW26755   9.243   2.928   8.321
42244SOL    HW126756   9.181   2.913   8.245
42244SOL    HW226757   9.191   2.939   8.406
42245SOL     OW26758   8.675   3.412   8.954
42245SOL    HW126759   8.681   3.335   9.018
42245SOL    HW226760   8.623   3.386   8.874
42246SOL     OW26761   7.769   2.805   7.690
42246SOL    HW126762   7.851   2.844   7.648
42246SOL    HW226763   7.742   2.723   7.641
42247SOL     OW26764   8.906   2.597   8.176
42247SOL    HW126765   8.901   2.532   8.251
42247SOL    HW226766   8.986   2.656   8.189
42248SOL     OW26767   7.909   3.128   9.175
42248SOL    HW126768   7.859   3.129   9.089
42248SOL    HW226769   7.846   3.110   9.251
42249SOL     OW26770   8.559   3.638   7.685
42249SOL    HW126771   8.499   3.576   7.735
42249SOL    HW226772   8.590   3.594   7.600
42250SOL     OW26773   7.650   2.147   8.946
42250SOL    HW126774   7.570   2.207   8.933
42250SOL    HW226775   7.640   2.098   9.032
42251SOL     OW26776   9.080   3.239   7.529
42251SOL    HW126777   9.048   3.333   7.519
42251SOL    HW226778   9.004   3.176   7.517
42252SOL     OW26779   7.912   3.605   7.771
42252SOL    HW126780   7.945   3.644   7.857
42252SOL    HW226781   7.988   3.598   7.706
42253SOL     OW26782   8.848   1.969   7.874
42253SOL    HW126783   8.824   1.932   7.784
42253SOL    HW226784   8.947   1.985   7.878
42254SOL     OW26785   7.697   3.647   8.689
42254SOL    HW126786   7.754   3.582   8.739
42254SOL    HW226787   7.681   3.614   8.596
42255SOL     OW26788   8.388   3.560   8.352
42255SOL    HW126789   8.468   3.503   8.373
42255SOL    HW226790   8.339   3.520   8.275
42256SOL     OW26791   7.830   2.562   7.928
42256SOL    HW126792   7.875   2.472   7.925
42256SOL    HW226793   7.736   2.551   7.961
42257SOL     OW26794   8.995   2.084   9.177
42257SOL    HW126795   8.990   2.121   9.269
42257SOL    HW226796   8.923   2.015   9.165
42258SOL     OW26797   8.062   1.984   7.565
42258SOL    HW126798   8.160   1.962   7.572
42258SOL    HW226799   8.031   1.967   7.472
42259SOL     OW26800   8.229   2.126   9.197
42259SOL    HW126801   8.296   2.065   9.240
42259SOL    HW226802   8.156   2.145   9.262
42260SOL     OW26803   8.336   3.376   8.643
42260SOL    HW126804   8.313   3.351   8.549
42260SOL    HW226805   8.397   3.307   8.682
42261SOL     OW26806   8.799   2.452   8.881
42261SOL    HW126807   8.827   2.409   8.966
42261SOL    HW226808   8.824   2.548   8.882
42262SOL     OW26809   8.251   3.264   8.372
42262SOL    HW126810   8.341   3.278   8.330
42262SOL    HW226811   8.180   3.266   8.301
42263SOL     OW26812   8.370   2.365   8.347
42263SOL    HW126813   8.345   2.356   8.251
42263SOL    HW226814   8.418   2.283   8.378
42264SOL     OW26815   7.987   1.926   7.960
42264SOL    HW126816   7.906   1.927   8.018
42264SOL    HW226817   7.990   2.009   7.905
42265SOL     OW26818   8.882   3.050   7.489
42265SOL    HW126819   8.914   2.974   7.546
42265SOL    HW226820   8.790   3.077   7.519
42266SOL     OW26821   7.745   1.897   7.619
42266SOL    HW126822   7.794   1.981   7.598
42266SOL    HW226823   7.807   1.832   7.664
42267SOL     OW26824   8.383   2.098   7.928
42267SOL    HW126825   8.335   2.139   7.850
42267SOL    HW226826   8.482   2.096   7.909
42268SOL     OW26827   8.524   2.545   8.912
42268SOL    HW126828   8.444   2.484   8.915
42268SOL    HW226829   8.605   2.492   8.888
42269SOL     OW26830   8.675   3.432   8.241
42269SOL    HW126831   8.696   3.506   8.176
42269SOL    HW226832   8.743   3.432   8.314
42270SOL     OW26833   7.907   3.014   8.189
42270SOL    HW126834   7.836   2.987   8.254
42270SOL    HW226835   7.881   2.986   8.096
42271SOL     OW26836   8.719   3.659   8.039
42271SOL    HW126837   8.763   3.723   7.975
42271SOL    HW226838   8.669   3.711   8.109
42272SOL     OW26839   8.480   2.411   7.464
42272SOL    HW126840   8.439   2.493   7.425
42272SOL    HW226841   8.544   2.437   7.537
42273SOL     OW26842   7.526   2.418   8.834
42273SOL    HW126843   7.618   2.417   8.793
42273SOL    HW226844   7.520   2.492   8.901
42274SOL     OW26845   8.009   2.084   8.595
42274SOL    HW126846   8.047   2.000   8.632
42274SOL    HW226847   7.921   2.103   8.639
42275SOL     OW26848   8.314   2.316   8.090
42275SOL    HW126849   8.282   2.388   8.028
42275SOL    HW226850   8.338   2.235   8.037
42276SOL     OW26851   8.465   1.901   8.201
42276SOL    HW126852   8.393   1.906   8.132
42276SOL    HW226853   8.441   1.832   8.270
42277SOL     OW26854   8.877   3.035   8.315
42277SOL    HW126855   8.822   2.951   8.308
42277SOL    HW226856   8.903   3.064   8.223
42278SOL     OW26857   8.914   2.452   8.440
42278SOL    HW126858   8.884   2.357   8.447
42278SOL    HW226859   8.987   2.468   8.506
42279SOL     OW26860   9.305   2.695   7.825
42279SOL    HW126861   9.347   2.631   7.889
42279SOL    HW226862   9.267   2.644   7.747
42280SOL     OW26863   7.936   3.247   7.622
42280SOL    HW126864   7.849   3.232   7.669
42280SOL    HW226865   7.919   3.273   7.527
42281SOL     OW26866   9.112   3.142   8.105
42281SOL    HW126867   9.211   3.150   8.119
42281SOL    HW226868   9.067   3.226   8.136
42282SOL     OW26869   8.838   2.437   7.526
42282SOL    HW126870   8.784   2.416   7.607
42282SOL    HW226871   8.929   2.396   7.535
42283SOL     OW26872   7.975   2.118   7.776
42283SOL    HW126873   8.002   2.059   7.701
42283SOL    HW226874   7.975   2.213   7.745
42284SOL     OW26875   9.202   3.085   9.036
42284SOL    HW126876   9.293   3.046   9.023
42284SOL    HW226877   9.210   3.181   9.060
42285SOL     OW26878   8.512   3.209   8.788
42285SOL    HW126879   8.432   3.186   8.843
42285SOL    HW226880   8.595   3.183   8.837
42286SOL     OW26881   9.040   3.491   9.073
42286SOL    HW126882   9.067   3.525   8.983
42286SOL    HW226883   9.119   3.453   9.119
42287SOL     OW26884   8.559   3.057   8.548
42287SOL    HW126885   8.519   3.101   8.629
42287SOL    HW226886   8.518   3.094   8.465
42288SOL     OW26887   9.086   2.961   8.527
42288SOL    HW126888   9.091   3.042   8.586
42288SOL    HW226889   9.000   2.963   8.476
42289SOL     OW26890   8.363   1.951   8.850
42289SOL    HW126891   8.388   1.931   8.755
42289SOL    HW226892   8.435   2.007   8.892
42290SOL     OW26893   8.428   2.978   9.167
42290SOL    HW126894   8.329   2.984   9.177
42290SOL    HW226895   8.451   2.898   9.111
42291SOL     OW26896   8.153   2.912   7.816
42291SOL    HW126897   8.139   2.919   7.915
42291SOL    HW226898   8.237   2.861   7.798
42292SOL     OW26899   7.858   2.675   8.699
42292SOL    HW126900   7.944   2.687   8.749
42292SOL    HW226901   7.816   2.588   8.726
42293SOL     OW26902   8.722   2.248   8.710
42293SOL    HW126903   8.743   2.322   8.774
42293SOL    HW226904   8.633   2.265   8.667
42294SOL     OW26905   7.512   3.426   8.779
42294SOL    HW126906   7.466   3.508   8.745
42294SOL    HW226907   7.610   3.445   8.788
42295SOL     OW26908   7.815   2.962   7.949
42295SOL    HW126909   7.808   3.045   7.893
42295SOL    HW226910   7.819   2.882   7.889
42296SOL     OW26911   8.014   2.399   8.313
42296SOL    HW126912   8.026   2.465   8.239
42296SOL    HW226913   8.060   2.433   8.396
42297SOL     OW26914   8.700   3.210   7.836
42297SOL    HW126915   8.750   3.287   7.876
42297SOL    HW226916   8.605   3.212   7.868
42298SOL     OW26917   8.720   3.307   8.590
42298SOL    HW126918   8.767   3.320   8.677
42298SOL    HW226919   8.654   3.233   8.599
42299SOL     OW26920   9.030   2.501   7.920
42299SOL    HW126921   8.999   2.562   7.993
42299SOL    HW226922   9.080   2.553   7.851
42300SOL     OW26923   7.802   3.372   8.777
42300SOL    HW126924   7.781   3.328   8.690
42300SOL    HW226925   7.899   3.398   8.780
42301SOL     OW26926   7.850   2.613   9.046
42301SOL    HW126927   7.918   2.668   8.999
42301SOL    HW226928   7.890   2.525   9.073
42302SOL     OW26929   9.035   2.641   9.118
42302SOL    HW126930   8.943   2.679   9.113
42302SOL    HW226931   9.095   2.688   9.053
42303SOL     OW26932   8.461   1.967   9.218
42303SOL    HW126933   8.467   2.052   9.166
42303SOL    HW226934   8.493   1.891   9.161
42304SOL     OW26935   7.952   1.912   9.188
42304SOL    HW126936   7.910   1.855   9.118
42304SOL    HW226937   7.886   1.981   9.220
42305SOL     OW26938   8.021   2.732   8.477
42305SOL    HW126939   8.065   2.821   8.468
42305SOL    HW226940   7.958   2.732   8.554
42306SOL     OW26941   8.808   2.724   8.493
42306SOL    HW126942   8.733   2.724   8.427
42306SOL    HW226943   8.845   2.632   8.502
42307SOL     OW26944   8.657   2.387   7.723
42307SOL    HW126945   8.670   2.303   7.777
42307SOL    HW226946   8.628   2.461   7.783
42308SOL     OW26947   7.755   2.075   8.679
42308SOL    HW126948   7.732   2.112   8.769
42308SOL    HW226949   7.725   1.980   8.673
42309SOL     OW26950   7.485   3.172   8.730
42309SOL    HW126951   7.538   3.123   8.798
42309SOL    HW226952   7.507   3.270   8.735
42310SOL     OW26953   8.180   2.496   8.512
42310SOL    HW126954   8.239   2.470   8.436
42310SOL    HW226955   8.152   2.592   8.501
42311SOL     OW26956   9.176   2.797   9.302
42311SOL    HW126957   9.130   2.790   9.213
42311SOL    HW226958   9.114   2.841   9.368
42312SOL     OW26959   7.755   1.925   8.066
42312SOL    HW126960   7.744   2.019   8.099
42312SOL    HW226961   7.750   1.862   8.143
42313SOL     OW26962   9.070   2.229   7.822
42313SOL    HW126963   9.072   2.153   7.886
42313SOL    HW226964   9.022   2.306   7.862
42314SOL     OW26965   8.471   2.628   8.414
42314SOL    HW126966   8.486   2.649   8.510
42314SOL    HW226967   8.441   2.533   8.405
42315SOL     OW26968   8.428   3.435   9.148
42315SOL    HW126969   8.408   3.479   9.060
42315SOL    HW226970   8.467   3.344   9.132
42316SOL     OW26971   9.307   3.380   9.053
42316SOL    HW126972   9.321   3.407   8.958
42316SOL    HW226973   9.390   3.402   9.106
42317SOL     OW26974   7.798   2.760   9.252
42317SOL    HW126975   7.874   2.804   9.300
42317SOL    HW226976   7.833   2.713   9.170
42318SOL     OW26977   8.988   2.136   7.573
42318SOL    HW126978   8.927   2.061   7.596
42318SOL    HW226979   9.010   2.188   7.656
42319SOL     OW26980   8.751   2.700   7.490
42319SOL    HW126981   8.785   2.607   7.505
42319SOL    HW226982   8.769   2.727   7.395
42320SOL     OW26983   8.516   3.195   8.297
42320SOL    HW126984   8.523   3.111   8.242
42320SOL    HW226985   8.578   3.264   8.261
42321SOL     OW26986   7.767   2.672   8.397
42321SOL    HW126987   7.860   2.708   8.402
42321SOL    HW226988   7.761   2.587   8.449
42322SOL     OW26989   7.787   2.371   8.454
42322SOL    HW126990   7.735   2.288   8.437
42322SOL    HW226991   7.864   2.376   8.390
42323SOL     OW26992   8.586   2.242   9.126
42323SOL    HW126993   8.541   2.305   9.190
42323SOL    HW226994   8.679   2.273   9.109
42324SOL     OW26995   8.608   2.069   8.925
42324SOL    HW126996   8.608   2.133   9.002
42324SOL    HW226997   8.636   2.117   8.842
42325SOL     OW26998   7.456   3.188   7.648
42325SOL    HW126999   7.363   3.209   7.617
42325SOL    HW227000   7.466   3.089   7.661
42326SOL     OW27001   7.536   3.663   8.375
42326SOL    HW127002   7.494   3.577   8.348
42326SOL    HW227003   7.630   3.666   8.341
42327SOL     OW27004   7.952   3.430   8.358
42327SOL    HW127005   8.018   3.504   8.367
42327SOL    HW227006   7.996   3.351   8.316
42328SOL     OW27007   8.450   2.658   8.686
42328SOL    HW127008   8.491   2.626   8.772
42328SOL    HW227009   8.354   2.631   8.683
42329SOL     OW27010   7.488   2.406   8.562
42329SOL    HW127011   7.573   2.373   8.521
42329SOL    HW227012   7.501   2.421   8.660
42330SOL     OW27013   7.637   2.382   9.170
42330SOL    HW127014   7.696   2.342   9.100
42330SOL    HW227015   7.579   2.453   9.129
42331SOL     OW27016   8.817   2.812   9.108
42331SOL    HW127017   8.856   2.901   9.128
42331SOL    HW227018   8.827   2.792   9.011
42332SOL     OW27019   8.263   2.434   7.773
42332SOL    HW127020   8.270   2.345   7.727
42332SOL    HW227021   8.169   2.468   7.765
42333SOL     OW27022   9.105   2.466   8.654
42333SOL    HW127023   9.067   2.397   8.716
42333SOL    HW227024   9.187   2.430   8.610
42334SOL     OW27025   7.700   3.426   9.192
42334SOL    HW127026   7.670   3.483   9.268
42334SOL    HW227027   7.693   3.329   9.218
42335SOL     OW27028   8.119   2.326   8.717
42335SOL    HW127029   8.085   2.237   8.687
42335SOL    HW227030   8.145   2.380   8.637
42336SOL     OW27031   8.378   3.540   8.913
42336SOL    HW127032   8.354   3.522   8.818
42336SOL    HW227033   8.408   3.634   8.923
42337SOL     OW27034   7.921   2.362   7.639
42337SOL    HW127035   7.982   2.442   7.643
42337SOL    HW227036   7.826   2.393   7.646
42338SOL     OW27037   7.607   2.999   8.914
42338SOL    HW127038   7.629   2.938   8.990
42338SOL    HW227039   7.617   2.950   8.828
42339SOL     OW27040   8.795   2.921   8.682
42339SOL    HW127041   8.819   2.858   8.608
42339SOL    HW227042   8.705   2.961   8.664
42340SOL     OW27043   8.750   2.717   7.757
42340SOL    HW127044   8.664   2.686   7.799
42340SOL    HW227045   8.746   2.703   7.658
42341SOL     OW27046   9.207   3.609   8.602
42341SOL    HW127047   9.268   3.639   8.529
42341SOL    HW227048   9.169   3.520   8.580
42342SOL     OW27049   8.700   3.593   8.576
42342SOL    HW127050   8.784   3.598   8.522
42342SOL    HW227051   8.677   3.497   8.594
42343SOL     OW27052   7.531   3.120   8.470
42343SOL    HW127053   7.526   3.119   8.570
42343SOL    HW227054   7.448   3.079   8.432
42344SOL     OW27055   8.136   3.524   9.164
42344SOL    HW127056   8.080   3.605   9.173
42344SOL    HW227057   8.188   3.528   9.078
42345SOL     OW27058   9.174   1.997   7.971
42345SOL    HW127059   9.247   1.980   7.904
42345SOL    HW227060   9.143   1.910   8.009
42346SOL     OW27061   8.836   3.435   7.925
42346SOL    HW127062   8.903   3.447   7.851
42346SOL    HW227063   8.796   3.524   7.948
42347SOL     OW27064   7.578   3.656   9.299
42347SOL    HW127065   7.537   3.582   9.352
42347SOL    HW227066   7.642   3.707   9.357
42348SOL     OW27067   8.728   2.789   8.120
42348SOL    HW127068   8.788   2.708   8.122
42348SOL    HW227069   8.768   2.858   8.060
42349SOL     OW27070   8.278   3.135   8.870
42349SOL    HW127071   8.273   3.168   8.965
42349SOL    HW227072   8.192   3.154   8.824
42350SOL     OW27073   8.120   3.478   7.602
42350SOL    HW127074   8.129   3.488   7.503
42350SOL    HW227075   8.080   3.389   7.623
42351SOL     OW27076   9.098   3.582   8.842
42351SOL    HW127077   9.151   3.592   8.758
42351SOL    HW227078   9.071   3.672   8.876
42352SOL     OW27079   9.289   2.037   8.411
42352SOL    HW127080   9.328   1.952   8.375
42352SOL    HW227081   9.191   2.039   8.392
42353SOL     OW27082   7.711   2.188   8.168
42353SOL    HW127083   7.632   2.239   8.134
42353SOL    HW227084   7.702   2.173   8.266
42354SOL     OW27085   8.642   3.474   7.479
42354SOL    HW127086   8.648   3.381   7.516
42354SOL    HW227087   8.583   3.474   7.399
42355SOL     OW27088   8.270   2.864   8.820
42355SOL    HW127089   8.310   2.863   8.728
42355SOL    HW227090   8.280   2.956   8.860
42356SOL     OW27091   8.364   2.772   7.739
42356SOL    HW127092   8.427   2.810   7.671
42356SOL    HW227093   8.404   2.689   7.778
42357SOL     OW27094   8.952   3.469   7.492
42357SOL    HW127095   8.860   3.506   7.499
42357SOL    HW227096   8.990   3.489   7.402
42358SOL     OW27097   7.820   3.150   8.938
42358SOL    HW127098   7.807   3.243   8.904
42358SOL    HW227099   7.736   3.098   8.925
42359SOL     OW27100   9.062   3.154   8.737
42359SOL    HW127101   9.122   3.157   8.817
42359SOL    HW227102   8.987   3.218   8.750
42360SOL     OW27103   8.487   2.960   8.144
42360SOL    HW127104   8.417   2.913   8.198
42360SOL    HW227105   8.546   2.892   8.101
42361SOL     OW27106   8.462   2.098   8.419
42361SOL    HW127107   8.454   2.062   8.326
42361SOL    HW227108   8.460   2.022   8.484
42362SOL     OW27109   8.038   3.349   7.939
42362SOL    HW127110   8.080   3.291   7.869
42362SOL    HW227111   7.994   3.428   7.895
42363SOL     OW27112   9.157   2.247   8.829
42363SOL    HW127113   9.230   2.316   8.833
42363SOL    HW227114   9.185   2.172   8.770
42364SOL     OW27115   7.703   3.210   7.738
42364SOL    HW127116   7.607   3.211   7.711
42364SOL    HW227117   7.715   3.263   7.822
42365SOL     OW27118   7.553   2.875   9.174
42365SOL    HW127119   7.476   2.842   9.228
42365SOL    HW227120   7.638   2.845   9.216
42366SOL     OW27121   8.120   2.065   8.937
42366SOL    HW127122   8.210   2.049   8.897
42366SOL    HW227123   8.128   2.070   9.036
42367SOL     OW27124   7.523   2.207   7.481
42367SOL    HW127125   7.431   2.179   7.452
42367SOL    HW227126   7.554   2.284   7.425
42368SOL     OW27127   8.888   2.718   8.846
42368SOL    HW127128   8.831   2.770   8.783
42368SOL    HW227129   8.984   2.730   8.822
42369SOL     OW27130   7.520   2.028   7.766
42369SOL    HW127131   7.503   2.111   7.712
42369SOL    HW227132   7.610   1.991   7.744
42370SOL     OW27133   8.631   3.197   7.567
42370SOL    HW127134   8.532   3.186   7.569
42370SOL    HW227135   8.665   3.212   7.660
42371SOL     OW27136   8.061   2.704   8.879
42371SOL    HW127137   8.117   2.785   8.862
42371SOL    HW227138   8.120   2.624   8.882
42372SOL     OW27139   8.941   3.629   8.407
42372SOL    HW127140   8.974   3.693   8.338
42372SOL    HW227141   9.007   3.623   8.482
42373SOL     OW27142   8.164   2.427   9.156
42373SOL    HW127143   8.183   2.492   9.230
42373SOL    HW227144   8.224   2.347   9.165
42374SOL     OW27145   8.898   3.082   9.081
42374SOL    HW127146   8.889   3.072   9.180
42374SOL    HW227147   8.994   3.075   9.055
42375SOL     OW27148   7.838   3.603   9.008
42375SOL    HW127149   7.747   3.644   9.006
42375SOL    HW227150   7.831   3.509   9.040
42376SOL     OW27151   9.122   2.745   8.702
42376SOL    HW127152   9.095   2.656   8.665
42376SOL    HW227153   9.123   2.813   8.629
42377SOL     OW27154   8.673   2.187   7.897
42377SOL    HW127155   8.738   2.113   7.886
42377SOL    HW227156   8.693   2.237   7.981
42378SOL     OW27157   8.042   2.607   8.100
42378SOL    HW127158   8.092   2.692   8.081
42378SOL    HW227159   7.954   2.609   8.052
42379SOL     OW27160   9.225   2.204   9.090
42379SOL    HW127161   9.208   2.235   8.996
42379SOL    HW227162   9.141   2.167   9.128
42380SOL     OW27163   9.178   2.796   8.965
42380SOL    HW127164   9.216   2.887   8.980
42380SOL    HW227165   9.170   2.779   8.866
42381SOL     OW27166   8.307   3.236   7.464
42381SOL    HW127167   8.261   3.251   7.552
42381SOL    HW227168   8.351   3.321   7.434
42382SOL     OW27169   8.109   3.652   8.401
42382SOL    HW127170   8.063   3.740   8.388
42382SOL    HW227171   8.208   3.664   8.394
42383SOL     OW27172   8.307   2.818   8.309
42383SOL    HW127173   8.361   2.749   8.357
42383SOL    HW227174   8.275   2.887   8.375
42384SOL     OW27175   8.531   2.846   7.535
42384SOL    HW127176   8.508   2.899   7.453
42384SOL    HW227177   8.612   2.790   7.516
42385SOL     OW27178   9.309   3.431   8.299
42385SOL    HW127179   9.238   3.419   8.229
42385SOL    HW227180   9.310   3.352   8.359
42386SOL     OW27181   7.669   3.176   9.292
42386SOL    HW127182   7.604   3.103   9.271
42386SOL    HW227183   7.673   3.190   9.390
42387SOL     OW27184   7.527   3.102   8.101
42387SOL    HW127185   7.526   3.055   8.189
42387SOL    HW227186   7.609   3.074   8.050
42388SOL     OW27187   8.120   3.253   9.072
42388SOL    HW127188   8.042   3.203   9.110
42388SOL    HW227189   8.117   3.348   9.103
42389SOL     OW27190   9.272   2.054   8.675
42389SOL    HW127191   9.268   1.964   8.719
42389SOL    HW227192   9.275   2.043   8.576
42390SOL     OW27193   7.876   2.286   7.968
42390SOL    HW127194   7.906   2.214   7.906
42390SOL    HW227195   7.837   2.246   8.051
42391SOL     OW27196   9.153   3.349   8.552
42391SOL    HW127197   9.060   3.324   8.525
42391SOL    HW227198   9.179   3.299   8.634
42392SOL     OW27199   7.765   2.409   8.728
42392SOL    HW127200   7.803   2.350   8.800
42392SOL    HW227201   7.805   2.383   8.640
42393SOL     OW27202   8.260   3.448   8.135
42393SOL    HW127203   8.292   3.458   8.041
42393SOL    HW227204   8.181   3.386   8.137
42394SOL     OW27205   8.449   1.896   8.602
42394SOL    HW127206   8.386   1.824   8.571
42394SOL    HW227207   8.542   1.860   8.602
42395SOL     OW27208   8.218   3.192   7.749
42395SOL    HW127209   8.172   3.105   7.766
42395SOL    HW227210   8.309   3.189   7.790
42396SOL     OW27211   8.066   3.429   8.732
42396SOL    HW127212   8.061   3.511   8.789
42396SOL    HW227213   8.155   3.426   8.687
42397SOL     OW27214   8.800   1.914   7.616
42397SOL    HW127215   8.835   1.873   7.532
42397SOL    HW227216   8.710   1.876   7.636
42398SOL     OW27217   8.748   2.315   8.139
42398SOL    HW127218   8.689   2.395   8.143
42398SOL    HW227219   8.763   2.280   8.232
42399SOL     OW27220   9.041   2.083   8.330
42399SOL    HW127221   8.957   2.082   8.384
42399SOL    HW227222   9.043   2.166   8.274
42400SOL     OW27223   7.487   2.939   7.748
42400SOL    HW127224   7.586   2.928   7.739
42400SOL    HW227225   7.447   2.853   7.780
42401SOL     OW27226   8.323   3.508   7.785
42401SOL    HW127227   8.246   3.473   7.731
42401SOL    HW227228   8.291   3.579   7.847
42402SOL     OW27229   7.678   2.490   9.423
42402SOL    HW127230   7.585   2.488   9.460
42402SOL    HW227231   7.679   2.451   9.331
42403SOL     OW27232   7.673   2.137  10.306
42403SOL    HW127233   7.708   2.120  10.398
42403SOL    HW227234   7.585   2.092  10.294
42404SOL     OW27235   7.467   2.230   9.957
42404SOL    HW127236   7.385   2.273   9.996
42404SOL    HW227237   7.439   2.157   9.894
42405SOL     OW27238   8.017   3.137  10.475
42405SOL    HW127239   7.924   3.130  10.438
42405SOL    HW227240   8.028   3.226  10.519
42406SOL     OW27241   9.003   3.373  10.013
42406SOL    HW127242   8.946   3.357  10.094
42406SOL    HW227243   8.944   3.383   9.933
42407SOL     OW27244   8.583   2.565  10.027
42407SOL    HW127245   8.640   2.643  10.002
42407SOL    HW227246   8.523   2.591  10.103
42408SOL     OW27247   9.203   2.469   9.541
42408SOL    HW127248   9.191   2.456   9.442
42408SOL    HW227249   9.173   2.388   9.590
42409SOL     OW27250   8.216   3.006  10.333
42409SOL    HW127251   8.138   3.023  10.393
42409SOL    HW227252   8.250   3.093  10.297
42410SOL     OW27253   8.298   2.660  11.133
42410SOL    HW127254   8.294   2.736  11.198
42410SOL    HW227255   8.320   2.696  11.042
42411SOL     OW27256   8.133   2.874   9.975
42411SOL    HW127257   8.202   2.858  10.045
42411SOL    HW227258   8.060   2.931  10.013
42412SOL     OW27259   8.134   3.023  11.113
42412SOL    HW127260   8.194   3.102  11.127
42412SOL    HW227261   8.048   3.054  11.072
42413SOL     OW27262   7.783   3.297  10.371
42413SOL    HW127263   7.705   3.266  10.318
42413SOL    HW227264   7.841   3.355  10.314
42414SOL     OW27265   8.908   3.367  10.649
42414SOL    HW127266   8.932   3.461  10.675
42414SOL    HW227267   8.892   3.313  10.731
42415SOL     OW27268   7.886   2.254  10.809
42415SOL    HW127269   7.968   2.198  10.818
42415SOL    HW227270   7.805   2.196  10.813
42416SOL     OW27271   9.051   2.309  10.047
42416SOL    HW127272   8.977   2.355   9.997
42416SOL    HW227273   9.102   2.377  10.100
42417SOL     OW27274   7.679   3.575   9.793
42417SOL    HW127275   7.713   3.652   9.847
42417SOL    HW227276   7.723   3.575   9.703
42418SOL     OW27277   8.575   3.203  11.000
42418SOL    HW127278   8.622   3.203  11.088
42418SOL    HW227279   8.527   3.116  10.989
42419SOL     OW27280   7.678   3.296   9.848
42419SOL    HW127281   7.652   3.392   9.848
42419SOL    HW227282   7.607   3.242   9.893
42420SOL     OW27283   7.688   2.953  10.196
42420SOL    HW127284   7.702   2.869  10.248
42420SOL    HW227285   7.633   3.017  10.251
42421SOL     OW27286   8.068   3.648  10.749
42421SOL    HW127287   7.976   3.631  10.784
42421SOL    HW227288   8.096   3.740  10.775
42422SOL     OW27289   8.054   2.826   9.433
42422SOL    HW127290   8.061   2.910   9.379
42422SOL    HW227291   8.100   2.839   9.521
42423SOL     OW27292   9.042   1.976  10.790
42423SOL    HW127293   9.024   2.043  10.718
42423SOL    HW227294   9.039   2.022  10.879
42424SOL     OW27295   7.570   2.505   9.873
42424SOL    HW127296   7.525   2.417   9.890
42424SOL    HW227297   7.569   2.559   9.957
42425SOL     OW27298   9.290   3.629   9.669
42425SOL    HW127299   9.344   3.600   9.749
42425SOL    HW227300   9.320   3.719   9.640
42426SOL     OW27301   7.475   3.458   9.427
42426SOL    HW127302   7.456   3.362   9.448
42426SOL    HW227303   7.442   3.516   9.502
42427SOL     OW27304   9.137   2.784   9.922
42427SOL    HW127305   9.232   2.755   9.930
42427SOL    HW227306   9.129   2.849   9.847
42428SOL     OW27307   9.089   2.970   9.742
42428SOL    HW127308   9.175   2.972   9.690
42428SOL    HW227309   9.103   3.017   9.830
42429SOL     OW27310   7.561   2.599  10.907
42429SOL    HW127311   7.649   2.586  10.952
42429SOL    HW227312   7.548   2.696  10.885
42430SOL     OW27313   8.061   3.227  10.036
42430SOL    HW127314   8.012   3.140  10.045
42430SOL    HW227315   8.038   3.270   9.949
42431SOL     OW27316   8.741   3.090  10.733
42431SOL    HW127317   8.778   3.017  10.675
42431SOL    HW227318   8.793   3.095  10.818
42432SOL     OW27319   8.257   1.866   9.812
42432SOL    HW127320   8.297   1.957   9.803
42432SOL    HW227321   8.157   1.874   9.818
42433SOL     OW27322   7.645   2.838  10.574
42433SOL    HW127323   7.734   2.793  10.560
42433SOL    HW227324   7.572   2.773  10.555
42434SOL     OW27325   8.973   2.861   9.500
42434SOL    HW127326   8.910   2.785   9.513
42434SOL    HW227327   9.021   2.879   9.586
42435SOL     OW27328   8.635   3.654  10.926
42435SOL    HW127329   8.659   3.714  10.850
42435SOL    HW227330   8.642   3.559  10.896
42436SOL     OW27331   7.765   2.113  11.111
42436SOL    HW127332   7.836   2.184  11.117
42436SOL    HW227333   7.677   2.152  11.139
42437SOL     OW27334   8.914   3.279  10.263
42437SOL    HW127335   8.855   3.285  10.343
42437SOL    HW227336   8.899   3.191  10.217
42438SOL     OW27337   9.115   3.576   9.882
42438SOL    HW127338   9.074   3.553   9.794
42438SOL    HW227339   9.097   3.502   9.947
42439SOL     OW27340   8.046   2.591   9.580
42439SOL    HW127341   8.070   2.660   9.512
42439SOL    HW227342   7.968   2.624   9.634
42440SOL     OW27343   8.729   2.207  10.254
42440SOL    HW127344   8.643   2.157  10.241
42440SOL    HW227345   8.791   2.153  10.310
42441SOL     OW27346   9.024   3.524   9.617
42441SOL    HW127347   9.113   3.570   9.620
42441SOL    HW227348   9.003   3.500   9.522
42442SOL     OW27349   8.255   2.467  10.775
42442SOL    HW127350   8.208   2.464  10.864
42442SOL    HW227351   8.204   2.412  10.709
42443SOL     OW27352   8.842   2.331  10.984
42443SOL    HW127353   8.822   2.374  11.072
42443SOL    HW227354   8.920   2.269  10.993
42444SOL     OW27355   8.421   2.752  10.882
42444SOL    HW127356   8.467   2.668  10.853
42444SOL    HW227357   8.365   2.786  10.807
42445SOL     OW27358   8.439   2.272  10.552
42445SOL    HW127359   8.362   2.306  10.606
42445SOL    HW227360   8.405   2.221  10.473
42446SOL     OW27361   8.489   2.563   9.739
42446SOL    HW127362   8.515   2.559   9.835
42446SOL    HW227363   8.404   2.512   9.725
42447SOL     OW27364   7.524   2.673  10.099
42447SOL    HW127365   7.623   2.661  10.108
42447SOL    HW227366   7.500   2.768  10.120
42448SOL     OW27367   7.578   3.683  10.881
42448SOL    HW127368   7.568   3.668  10.980
42448SOL    HW227369   7.492   3.719  10.845
42449SOL     OW27370   8.313   2.210   9.505
42449SOL    HW127371   8.372   2.273   9.456
42449SOL    HW227372   8.332   2.116   9.476
42450SOL     OW27373   9.167   2.447  11.141
42450SOL    HW127374   9.141   2.536  11.105
42450SOL    HW227375   9.165   2.379  11.068
42451SOL     OW27376   7.998   2.058  10.195
42451SOL    HW127377   7.993   2.053  10.295
42451SOL    HW227378   8.000   2.154  10.166
42452SOL     OW27379   8.456   3.318   9.787
42452SOL    HW127380   8.410   3.390   9.735
42452SOL    HW227381   8.452   3.338   9.885
42453SOL     OW27382   7.799   3.663  10.163
42453SOL    HW127383   7.849   3.577  10.169
42453SOL    HW227384   7.864   3.740  10.160
42454SOL     OW27385   9.243   2.928  10.183
42454SOL    HW127386   9.181   2.913  10.107
42454SOL    HW227387   9.191   2.939  10.268
42455SOL     OW27388   8.675   3.412  10.816
42455SOL    HW127389   8.681   3.335  10.880
42455SOL    HW227390   8.623   3.386  10.736
42456SOL     OW27391   7.769   2.805   9.552
42456SOL    HW127392   7.851   2.844   9.510
42456SOL    HW227393   7.742   2.723   9.503
42457SOL     OW27394   8.906   2.597  10.038
42457SOL    HW127395   8.901   2.532  10.113
42457SOL    HW227396   8.986   2.656  10.051
42458SOL     OW27397   7.909   3.128  11.037
42458SOL    HW127398   7.859   3.129  10.951
42458SOL    HW227399   7.846   3.110  11.113
42459SOL     OW27400   7.650   2.147  10.808
42459SOL    HW127401   7.570   2.207  10.795
42459SOL    HW227402   7.640   2.098  10.894
42460SOL     OW27403   9.080   3.239   9.391
42460SOL    HW127404   9.048   3.333   9.381
42460SOL    HW227405   9.004   3.176   9.379
42461SOL     OW27406   7.912   3.605   9.633
42461SOL    HW127407   7.945   3.644   9.719
42461SOL    HW227408   7.988   3.598   9.568
42462SOL     OW27409   8.848   1.969   9.736
42462SOL    HW127410   8.824   1.932   9.646
42462SOL    HW227411   8.947   1.985   9.740
42463SOL     OW27412   7.697   3.647  10.551
42463SOL    HW127413   7.754   3.582  10.601
42463SOL    HW227414   7.681   3.614  10.458
42464SOL     OW27415   8.388   3.560  10.214
42464SOL    HW127416   8.468   3.503  10.235
42464SOL    HW227417   8.339   3.520  10.137
42465SOL     OW27418   7.830   2.562   9.790
42465SOL    HW127419   7.875   2.472   9.787
42465SOL    HW227420   7.736   2.551   9.823
42466SOL     OW27421   8.995   2.084  11.039
42466SOL    HW127422   8.990   2.121  11.131
42466SOL    HW227423   8.923   2.015  11.027
42467SOL     OW27424   8.062   1.984   9.427
42467SOL    HW127425   8.160   1.962   9.434
42467SOL    HW227426   8.031   1.967   9.334
42468SOL     OW27427   8.229   2.126  11.059
42468SOL    HW127428   8.296   2.065  11.102
42468SOL    HW227429   8.156   2.145  11.124
42469SOL     OW27430   8.336   3.376  10.505
42469SOL    HW127431   8.313   3.351  10.411
42469SOL    HW227432   8.397   3.307  10.544
42470SOL     OW27433   8.799   2.452  10.743
42470SOL    HW127434   8.827   2.409  10.828
42470SOL    HW227435   8.824   2.548  10.744
42471SOL     OW27436   8.251   3.264  10.234
42471SOL    HW127437   8.341   3.278  10.192
42471SOL    HW227438   8.180   3.266  10.163
42472SOL     OW27439   8.370   2.365  10.209
42472SOL    HW127440   8.345   2.356  10.113
42472SOL    HW227441   8.418   2.283  10.240
42473SOL     OW27442   7.987   1.926   9.822
42473SOL    HW127443   7.906   1.927   9.880
42473SOL    HW227444   7.990   2.009   9.767
42474SOL     OW27445   8.882   3.050   9.351
42474SOL    HW127446   8.914   2.974   9.408
42474SOL    HW227447   8.790   3.077   9.381
42475SOL     OW27448   7.745   1.897   9.481
42475SOL    HW127449   7.794   1.981   9.460
42475SOL    HW227450   7.807   1.832   9.526
42476SOL     OW27451   8.383   2.098   9.790
42476SOL    HW127452   8.335   2.139   9.712
42476SOL    HW227453   8.482   2.096   9.771
42477SOL     OW27454   8.524   2.545  10.774
42477SOL    HW127455   8.444   2.484  10.777
42477SOL    HW227456   8.605   2.492  10.750
42478SOL     OW27457   8.675   3.432  10.103
42478SOL    HW127458   8.696   3.506  10.038
42478SOL    HW227459   8.743   3.432  10.176
42479SOL     OW27460   7.907   3.014  10.051
42479SOL    HW127461   7.836   2.987  10.116
42479SOL    HW227462   7.881   2.986   9.958
42480SOL     OW27463   8.719   3.659   9.901
42480SOL    HW127464   8.763   3.723   9.837
42480SOL    HW227465   8.669   3.711   9.971
42481SOL     OW27466   8.480   2.411   9.326
42481SOL    HW127467   8.439   2.493   9.287
42481SOL    HW227468   8.544   2.437   9.399
42482SOL     OW27469   7.526   2.418  10.696
42482SOL    HW127470   7.618   2.417  10.655
42482SOL    HW227471   7.520   2.492  10.763
42483SOL     OW27472   8.009   2.084  10.457
42483SOL    HW127473   8.047   2.000  10.494
42483SOL    HW227474   7.921   2.103  10.501
42484SOL     OW27475   8.314   2.316   9.952
42484SOL    HW127476   8.282   2.388   9.890
42484SOL    HW227477   8.338   2.235   9.899
42485SOL     OW27478   8.465   1.901  10.063
42485SOL    HW127479   8.393   1.906   9.994
42485SOL    HW227480   8.441   1.832  10.132
42486SOL     OW27481   8.877   3.035  10.177
42486SOL    HW127482   8.822   2.951  10.170
42486SOL    HW227483   8.903   3.064  10.085
42487SOL     OW27484   8.914   2.452  10.302
42487SOL    HW127485   8.884   2.357  10.309
42487SOL    HW227486   8.987   2.468  10.368
42488SOL     OW27487   9.305   2.695   9.687
42488SOL    HW127488   9.347   2.631   9.751
42488SOL    HW227489   9.267   2.644   9.609
42489SOL     OW27490   7.936   3.247   9.484
42489SOL    HW127491   7.849   3.232   9.531
42489SOL    HW227492   7.919   3.273   9.389
42490SOL     OW27493   9.112   3.142   9.967
42490SOL    HW127494   9.211   3.150   9.981
42490SOL    HW227495   9.067   3.226   9.998
42491SOL     OW27496   8.838   2.437   9.388
42491SOL    HW127497   8.784   2.416   9.469
42491SOL    HW227498   8.929   2.396   9.397
42492SOL     OW27499   7.975   2.118   9.638
42492SOL    HW127500   8.002   2.059   9.563
42492SOL    HW227501   7.975   2.213   9.607
42493SOL     OW27502   9.202   3.085  10.898
42493SOL    HW127503   9.293   3.046  10.885
42493SOL    HW227504   9.210   3.181  10.922
42494SOL     OW27505   8.512   3.209  10.650
42494SOL    HW127506   8.432   3.186  10.705
42494SOL    HW227507   8.595   3.183  10.699
42495SOL     OW27508   9.040   3.491  10.935
42495SOL    HW127509   9.067   3.525  10.845
42495SOL    HW227510   9.119   3.453  10.981
42496SOL     OW27511   8.559   3.057  10.410
42496SOL    HW127512   8.519   3.101  10.491
42496SOL    HW227513   8.518   3.094  10.327
42497SOL     OW27514   9.086   2.961  10.389
42497SOL    HW127515   9.091   3.042  10.448
42497SOL    HW227516   9.000   2.963  10.338
42498SOL     OW27517   8.363   1.951  10.712
42498SOL    HW127518   8.388   1.931  10.617
42498SOL    HW227519   8.435   2.007  10.754
42499SOL     OW27520   8.428   2.978  11.029
42499SOL    HW127521   8.329   2.984  11.039
42499SOL    HW227522   8.451   2.898  10.973
42500SOL     OW27523   8.153   2.912   9.678
42500SOL    HW127524   8.139   2.919   9.777
42500SOL    HW227525   8.237   2.861   9.660
42501SOL     OW27526   7.858   2.675  10.561
42501SOL    HW127527   7.944   2.687  10.611
42501SOL    HW227528   7.816   2.588  10.588
42502SOL     OW27529   8.722   2.248  10.572
42502SOL    HW127530   8.743   2.322  10.636
42502SOL    HW227531   8.633   2.265  10.529
42503SOL     OW27532   7.512   3.426  10.641
42503SOL    HW127533   7.466   3.508  10.607
42503SOL    HW227534   7.610   3.445  10.650
42504SOL     OW27535   7.815   2.962   9.811
42504SOL    HW127536   7.808   3.045   9.755
42504SOL    HW227537   7.819   2.882   9.751
42505SOL     OW27538   8.014   2.399  10.175
42505SOL    HW127539   8.026   2.465  10.101
42505SOL    HW227540   8.060   2.433  10.258
42506SOL     OW27541   8.700   3.210   9.698
42506SOL    HW127542   8.750   3.287   9.738
42506SOL    HW227543   8.605   3.212   9.730
42507SOL     OW27544   8.720   3.307  10.452
42507SOL    HW127545   8.767   3.320  10.539
42507SOL    HW227546   8.654   3.233  10.461
42508SOL     OW27547   9.030   2.501   9.782
42508SOL    HW127548   8.999   2.562   9.855
42508SOL    HW227549   9.080   2.553   9.713
42509SOL     OW27550   7.802   3.372  10.639
42509SOL    HW127551   7.781   3.328  10.552
42509SOL    HW227552   7.899   3.398  10.642
42510SOL     OW27553   7.850   2.613  10.908
42510SOL    HW127554   7.918   2.668  10.861
42510SOL    HW227555   7.890   2.525  10.935
42511SOL     OW27556   9.035   2.641  10.980
42511SOL    HW127557   8.943   2.679  10.975
42511SOL    HW227558   9.095   2.688  10.915
42512SOL     OW27559   8.461   1.967  11.080
42512SOL    HW127560   8.467   2.052  11.028
42512SOL    HW227561   8.493   1.891  11.023
42513SOL     OW27562   7.952   1.912  11.050
42513SOL    HW127563   7.910   1.855  10.980
42513SOL    HW227564   7.886   1.981  11.082
42514SOL     OW27565   8.021   2.732  10.339
42514SOL    HW127566   8.065   2.821  10.330
42514SOL    HW227567   7.958   2.732  10.416
42515SOL     OW27568   8.808   2.724  10.355
42515SOL    HW127569   8.733   2.724  10.289
42515SOL    HW227570   8.845   2.632  10.364
42516SOL     OW27571   8.657   2.387   9.585
42516SOL    HW127572   8.670   2.303   9.639
42516SOL    HW227573   8.628   2.461   9.645
42517SOL     OW27574   7.755   2.075  10.541
42517SOL    HW127575   7.732   2.112  10.631
42517SOL    HW227576   7.725   1.980  10.535
42518SOL     OW27577   7.485   3.172  10.592
42518SOL    HW127578   7.538   3.123  10.660
42518SOL    HW227579   7.507   3.270  10.597
42519SOL     OW27580   8.180   2.496  10.374
42519SOL    HW127581   8.239   2.470  10.298
42519SOL    HW227582   8.152   2.592  10.363
42520SOL     OW27583   9.176   2.797  11.164
42520SOL    HW127584   9.130   2.790  11.075
42520SOL    HW227585   9.114   2.841  11.230
42521SOL     OW27586   7.755   1.925   9.928
42521SOL    HW127587   7.744   2.019   9.961
42521SOL    HW227588   7.750   1.862  10.005
42522SOL     OW27589   9.070   2.229   9.684
42522SOL    HW127590   9.072   2.153   9.748
42522SOL    HW227591   9.022   2.306   9.724
42523SOL     OW27592   8.471   2.628  10.276
42523SOL    HW127593   8.486   2.649  10.372
42523SOL    HW227594   8.441   2.533  10.267
42524SOL     OW27595   8.428   3.435  11.010
42524SOL    HW127596   8.408   3.479  10.922
42524SOL    HW227597   8.467   3.344  10.994
42525SOL     OW27598   9.307   3.380  10.915
42525SOL    HW127599   9.321   3.407  10.820
42525SOL    HW227600   9.390   3.402  10.968
42526SOL     OW27601   7.798   2.760  11.114
42526SOL    HW127602   7.874   2.804  11.162
42526SOL    HW227603   7.833   2.713  11.032
42527SOL     OW27604   8.988   2.136   9.435
42527SOL    HW127605   8.927   2.061   9.458
42527SOL    HW227606   9.010   2.188   9.518
42528SOL     OW27607   8.751   2.700   9.352
42528SOL    HW127608   8.785   2.607   9.367
42528SOL    HW227609   8.769   2.727   9.257
42529SOL     OW27610   8.516   3.195  10.159
42529SOL    HW127611   8.523   3.111  10.104
42529SOL    HW227612   8.578   3.264  10.123
42530SOL     OW27613   7.767   2.672  10.259
42530SOL    HW127614   7.860   2.708  10.264
42530SOL    HW227615   7.761   2.587  10.311
42531SOL     OW27616   7.787   2.371  10.316
42531SOL    HW127617   7.735   2.288  10.299
42531SOL    HW227618   7.864   2.376  10.252
42532SOL     OW27619   8.586   2.242  10.988
42532SOL    HW127620   8.541   2.305  11.052
42532SOL    HW227621   8.679   2.273  10.971
42533SOL     OW27622   8.608   2.069  10.787
42533SOL    HW127623   8.608   2.133  10.864
42533SOL    HW227624   8.636   2.117  10.704
42534SOL     OW27625   7.456   3.188   9.510
42534SOL    HW127626   7.363   3.209   9.479
42534SOL    HW227627   7.466   3.089   9.523
42535SOL     OW27628   7.536   3.663  10.237
42535SOL    HW127629   7.494   3.577  10.210
42535SOL    HW227630   7.630   3.666  10.203
42536SOL     OW27631   7.952   3.430  10.220
42536SOL    HW127632   8.018   3.504  10.229
42536SOL    HW227633   7.996   3.351  10.178
42537SOL     OW27634   8.450   2.658  10.548
42537SOL    HW127635   8.491   2.626  10.634
42537SOL    HW227636   8.354   2.631  10.545
42538SOL     OW27637   7.488   2.406  10.424
42538SOL    HW127638   7.573   2.373  10.383
42538SOL    HW227639   7.501   2.421  10.522
42539SOL     OW27640   7.637   2.382  11.032
42539SOL    HW127641   7.696   2.342  10.962
42539SOL    HW227642   7.579   2.453  10.991
42540SOL     OW27643   8.817   2.812  10.970
42540SOL    HW127644   8.856   2.901  10.990
42540SOL    HW227645   8.827   2.792  10.873
42541SOL     OW27646   8.263   2.434   9.635
42541SOL    HW127647   8.270   2.345   9.589
42541SOL    HW227648   8.169   2.468   9.627
42542SOL     OW27649   9.105   2.466  10.516
42542SOL    HW127650   9.067   2.397  10.578
42542SOL    HW227651   9.187   2.430  10.472
42543SOL     OW27652   7.700   3.426  11.054
42543SOL    HW127653   7.670   3.483  11.130
42543SOL    HW227654   7.693   3.329  11.080
42544SOL     OW27655   8.119   2.326  10.579
42544SOL    HW127656   8.085   2.237  10.549
42544SOL    HW227657   8.145   2.380  10.499
42545SOL     OW27658   8.378   3.540  10.775
42545SOL    HW127659   8.354   3.522  10.680
42545SOL    HW227660   8.408   3.634  10.785
42546SOL     OW27661   7.921   2.362   9.501
42546SOL    HW127662   7.982   2.442   9.505
42546SOL    HW227663   7.826   2.393   9.508
42547SOL     OW27664   7.607   2.999  10.776
42547SOL    HW127665   7.629   2.938  10.852
42547SOL    HW227666   7.617   2.950  10.690
42548SOL     OW27667   8.795   2.921  10.544
42548SOL    HW127668   8.819   2.858  10.470
42548SOL    HW227669   8.705   2.961  10.526
42549SOL     OW27670   8.750   2.717   9.619
42549SOL    HW127671   8.664   2.686   9.661
42549SOL    HW227672   8.746   2.703   9.520
42550SOL     OW27673   9.207   3.609  10.464
42550SOL    HW127674   9.268   3.639  10.391
42550SOL    HW227675   9.169   3.520  10.442
42551SOL     OW27676   8.700   3.593  10.438
42551SOL    HW127677   8.784   3.598  10.384
42551SOL    HW227678   8.677   3.497  10.456
42552SOL     OW27679   7.531   3.120  10.332
42552SOL    HW127680   7.526   3.119  10.432
42552SOL    HW227681   7.448   3.079  10.294
42553SOL     OW27682   8.136   3.524  11.026
42553SOL    HW127683   8.080   3.605  11.035
42553SOL    HW227684   8.188   3.528  10.940
42554SOL     OW27685   9.174   1.997   9.833
42554SOL    HW127686   9.247   1.980   9.766
42554SOL    HW227687   9.143   1.910   9.871
42555SOL     OW27688   8.836   3.435   9.787
42555SOL    HW127689   8.903   3.447   9.713
42555SOL    HW227690   8.796   3.524   9.810
42556SOL     OW27691   7.578   3.656  11.161
42556SOL    HW127692   7.537   3.582  11.214
42556SOL    HW227693   7.642   3.707  11.219
42557SOL     OW27694   8.728   2.789   9.982
42557SOL    HW127695   8.788   2.708   9.984
42557SOL    HW227696   8.768   2.858   9.922
42558SOL     OW27697   8.278   3.135  10.732
42558SOL    HW127698   8.273   3.168  10.827
42558SOL    HW227699   8.192   3.154  10.686
42559SOL     OW27700   8.120   3.478   9.464
42559SOL    HW127701   8.129   3.488   9.365
42559SOL    HW227702   8.080   3.389   9.485
42560SOL     OW27703   9.098   3.582  10.704
42560SOL    HW127704   9.151   3.592  10.620
42560SOL    HW227705   9.071   3.672  10.738
42561SOL     OW27706   9.289   2.037  10.273
42561SOL    HW127707   9.328   1.952  10.237
42561SOL    HW227708   9.191   2.039  10.254
42562SOL     OW27709   7.711   2.188  10.030
42562SOL    HW127710   7.632   2.239   9.996
42562SOL    HW227711   7.702   2.173  10.128
42563SOL     OW27712   8.642   3.474   9.341
42563SOL    HW127713   8.648   3.381   9.378
42563SOL    HW227714   8.583   3.474   9.261
42564SOL     OW27715   8.270   2.864  10.682
42564SOL    HW127716   8.310   2.863  10.590
42564SOL    HW227717   8.280   2.956  10.722
42565SOL     OW27718   8.364   2.772   9.601
42565SOL    HW127719   8.427   2.810   9.533
42565SOL    HW227720   8.404   2.689   9.640
42566SOL     OW27721   8.952   3.469   9.354
42566SOL    HW127722   8.860   3.506   9.361
42566SOL    HW227723   8.990   3.489   9.264
42567SOL     OW27724   7.820   3.150  10.800
42567SOL    HW127725   7.807   3.243  10.766
42567SOL    HW227726   7.736   3.098  10.787
42568SOL     OW27727   9.062   3.154  10.599
42568SOL    HW127728   9.122   3.157  10.679
42568SOL    HW227729   8.987   3.218  10.612
42569SOL     OW27730   8.487   2.960  10.006
42569SOL    HW127731   8.417   2.913  10.060
42569SOL    HW227732   8.546   2.892   9.963
42570SOL     OW27733   8.462   2.098  10.281
42570SOL    HW127734   8.454   2.062  10.188
42570SOL    HW227735   8.460   2.022  10.346
42571SOL     OW27736   8.038   3.349   9.801
42571SOL    HW127737   8.080   3.291   9.731
42571SOL    HW227738   7.994   3.428   9.757
42572SOL     OW27739   9.157   2.247  10.691
42572SOL    HW127740   9.230   2.316  10.695
42572SOL    HW227741   9.185   2.172  10.632
42573SOL     OW27742   7.703   3.210   9.600
42573SOL    HW127743   7.607   3.211   9.573
42573SOL    HW227744   7.715   3.263   9.684
42574SOL     OW27745   7.553   2.875  11.036
42574SOL    HW127746   7.476   2.842  11.090
42574SOL    HW227747   7.638   2.845  11.078
42575SOL     OW27748   8.120   2.065  10.799
42575SOL    HW127749   8.210   2.049  10.759
42575SOL    HW227750   8.128   2.070  10.898
42576SOL     OW27751   7.523   2.207   9.343
42576SOL    HW127752   7.431   2.179   9.314
42576SOL    HW227753   7.554   2.284   9.287
42577SOL     OW27754   8.888   2.718  10.708
42577SOL    HW127755   8.831   2.770  10.645
42577SOL    HW227756   8.984   2.730  10.684
42578SOL     OW27757   8.631   3.197   9.429
42578SOL    HW127758   8.532   3.186   9.431
42578SOL    HW227759   8.665   3.212   9.522
42579SOL     OW27760   8.061   2.704  10.741
42579SOL    HW127761   8.117   2.785  10.724
42579SOL    HW227762   8.120   2.624  10.744
42580SOL     OW27763   8.941   3.629  10.269
42580SOL    HW127764   8.974   3.693  10.200
42580SOL    HW227765   9.007   3.623  10.344
42581SOL     OW27766   8.164   2.427  11.018
42581SOL    HW127767   8.183   2.492  11.092
42581SOL    HW227768   8.224   2.347  11.027
42582SOL     OW27769   8.898   3.082  10.943
42582SOL    HW127770   8.889   3.072  11.042
42582SOL    HW227771   8.994   3.075  10.917
42583SOL     OW27772   7.838   3.603  10.870
42583SOL    HW127773   7.747   3.644  10.868
42583SOL    HW227774   7.831   3.509  10.902
42584SOL     OW27775   9.122   2.745  10.564
42584SOL    HW127776   9.095   2.656  10.527
42584SOL    HW227777   9.123   2.813  10.491
42585SOL     OW27778   8.673   2.187   9.759
42585SOL    HW127779   8.738   2.113   9.748
42585SOL    HW227780   8.693   2.237   9.843
42586SOL     OW27781   8.042   2.607   9.962
42586SOL    HW127782   8.092   2.692   9.943
42586SOL    HW227783   7.954   2.609   9.914
42587SOL     OW27784   9.225   2.204  10.952
42587SOL    HW127785   9.208   2.235  10.858
42587SOL    HW227786   9.141   2.167  10.990
42588SOL     OW27787   9.178   2.796  10.827
42588SOL    HW127788   9.216   2.887  10.842
42588SOL    HW227789   9.170   2.779  10.728
42589SOL     OW27790   8.307   3.236   9.326
42589SOL    HW127791   8.261   3.251   9.414
42589SOL    HW227792   8.351   3.321   9.296
42590SOL     OW27793   8.109   3.652  10.263
42590SOL    HW127794   8.063   3.740  10.250
42590SOL    HW227795   8.208   3.664  10.256
42591SOL     OW27796   8.307   2.818  10.171
42591SOL    HW127797   8.361   2.749  10.219
42591SOL    HW227798   8.275   2.887  10.237
42592SOL     OW27799   8.531   2.846   9.397
42592SOL    HW127800   8.508   2.899   9.315
42592SOL    HW227801   8.612   2.790   9.378
42593SOL     OW27802   9.309   3.431  10.161
42593SOL    HW127803   9.238   3.419  10.091
42593SOL    HW227804   9.310   3.352  10.221
42594SOL     OW27805   7.669   3.176  11.154
42594SOL    HW127806   7.604   3.103  11.133
42594SOL    HW227807   7.673   3.190  11.252
42595SOL     OW27808   7.527   3.102   9.963
42595SOL    HW127809   7.526   3.055  10.051
42595SOL    HW227810   7.609   3.074   9.912
42596SOL     OW27811   8.120   3.253  10.934
42596SOL    HW127812   8.042   3.203  10.972
42596SOL    HW227813   8.117   3.348  10.965
42597SOL     OW27814   9.272   2.054  10.537
42597SOL    HW127815   9.268   1.964  10.581
42597SOL    HW227816   9.275   2.043  10.438
42598SOL     OW27817   7.876   2.286   9.830
42598SOL    HW127818   7.906   2.214   9.768
42598SOL    HW227819   7.837   2.246   9.913
42599SOL     OW27820   9.153   3.349  10.414
42599SOL    HW127821   9.060   3.324  10.387
42599SOL    HW227822   9.179   3.299  10.496
42600SOL     OW27823   7.765   2.409  10.590
42600SOL    HW127824   7.803   2.350  10.662
42600SOL    HW227825   7.805   2.383  10.502
42601SOL     OW27826   8.260   3.448   9.997
42601SOL    HW127827   8.292   3.458   9.903
42601SOL    HW227828   8.181   3.386   9.999
42602SOL     OW27829   8.872   2.076  10.422
42602SOL    HW127830   8.924   2.011  10.477
42602SOL    HW227831   8.823   2.139  10.483
42603SOL     OW27832   8.449   1.896  10.464
42603SOL    HW127833   8.386   1.824  10.433
42603SOL    HW227834   8.542   1.860  10.464
42604SOL     OW27835   8.218   3.192   9.611
42604SOL    HW127836   8.172   3.105   9.628
42604SOL    HW227837   8.309   3.189   9.652
42605SOL     OW27838   8.066   3.429  10.594
42605SOL    HW127839   8.061   3.511  10.651
42605SOL    HW227840   8.155   3.426  10.549
42606SOL     OW27841   8.800   1.914   9.478
42606SOL    HW127842   8.835   1.873   9.394
42606SOL    HW227843   8.710   1.876   9.498
42607SOL     OW27844   8.748   2.315  10.001
42607SOL    HW127845   8.689   2.395  10.005
42607SOL    HW227846   8.763   2.280  10.094
42608SOL     OW27847   9.041   2.083  10.192
42608SOL    HW127848   8.957   2.082  10.246
42608SOL    HW227849   9.043   2.166  10.136
42609SOL     OW27850   7.487   2.939   9.610
42609SOL    HW127851   7.586   2.928   9.601
42609SOL    HW227852   7.447   2.853   9.642
42610SOL     OW27853   8.323   3.508   9.647
42610SOL    HW127854   8.246   3.473   9.593
42610SOL    HW227855   8.291   3.579   9.709
42611SOL     OW27856   7.678   2.490  11.285
42611SOL    HW127857   7.585   2.488  11.322
42611SOL    HW227858   7.679   2.451  11.193
42612SOL     OW27859   7.673   2.137  12.168
42612SOL    HW127860   7.708   2.120  12.260
42612SOL    HW227861   7.585   2.092  12.156
42613SOL     OW27862   7.467   2.230  11.819
42613SOL    HW127863   7.385   2.273  11.858
42613SOL    HW227864   7.439   2.157  11.756
42614SOL     OW27865   8.017   3.137  12.337
42614SOL    HW127866   7.924   3.130  12.300
42614SOL    HW227867   8.028   3.226  12.381
42615SOL     OW27868   9.003   3.373  11.875
42615SOL    HW127869   8.946   3.357  11.956
42615SOL    HW227870   8.944   3.383  11.795
42616SOL     OW27871   8.583   2.565  11.889
42616SOL    HW127872   8.640   2.643  11.864
42616SOL    HW227873   8.523   2.591  11.965
42617SOL     OW27874   9.203   2.469  11.403
42617SOL    HW127875   9.191   2.456  11.304
42617SOL    HW227876   9.173   2.388  11.452
42618SOL     OW27877   8.216   3.006  12.195
42618SOL    HW127878   8.138   3.023  12.255
42618SOL    HW227879   8.250   3.093  12.159
42619SOL     OW27880   8.133   2.874  11.837
42619SOL    HW127881   8.202   2.858  11.907
42619SOL    HW227882   8.060   2.931  11.875
42620SOL     OW27883   7.783   3.297  12.233
42620SOL    HW127884   7.705   3.266  12.180
42620SOL    HW227885   7.841   3.355  12.176
42621SOL     OW27886   8.908   3.367  12.511
42621SOL    HW127887   8.932   3.461  12.537
42621SOL    HW227888   8.892   3.313  12.593
42622SOL     OW27889   7.886   2.254  12.671
42622SOL    HW127890   7.968   2.198  12.680
42622SOL    HW227891   7.805   2.196  12.675
42623SOL     OW27892   9.051   2.309  11.909
42623SOL    HW127893   8.977   2.355  11.859
42623SOL    HW227894   9.102   2.377  11.962
42624SOL     OW27895   7.679   3.575  11.655
42624SOL    HW127896   7.713   3.652  11.709
42624SOL    HW227897   7.723   3.575  11.565
42625SOL     OW27898   7.678   3.296  11.710
42625SOL    HW127899   7.652   3.392  11.710
42625SOL    HW227900   7.607   3.242  11.755
42626SOL     OW27901   7.688   2.953  12.058
42626SOL    HW127902   7.702   2.869  12.110
42626SOL    HW227903   7.633   3.017  12.113
42627SOL     OW27904   8.068   3.648  12.611
42627SOL    HW127905   7.976   3.631  12.646
42627SOL    HW227906   8.096   3.740  12.637
42628SOL     OW27907   8.054   2.826  11.295
42628SOL    HW127908   8.061   2.910  11.241
42628SOL    HW227909   8.100   2.839  11.383
42629SOL     OW27910   9.042   1.976  12.652
42629SOL    HW127911   9.024   2.043  12.580
42629SOL    HW227912   9.039   2.022  12.741
42630SOL     OW27913   7.570   2.505  11.735
42630SOL    HW127914   7.525   2.417  11.752
42630SOL    HW227915   7.569   2.559  11.819
42631SOL     OW27916   9.290   3.629  11.531
42631SOL    HW127917   9.344   3.600  11.611
42631SOL    HW227918   9.320   3.719  11.502
42632SOL     OW27919   7.475   3.458  11.289
42632SOL    HW127920   7.456   3.362  11.310
42632SOL    HW227921   7.442   3.516  11.364
42633SOL     OW27922   9.137   2.784  11.784
42633SOL    HW127923   9.232   2.755  11.792
42633SOL    HW227924   9.129   2.849  11.709
42634SOL     OW27925   9.089   2.970  11.604
42634SOL    HW127926   9.175   2.972  11.552
42634SOL    HW227927   9.103   3.017  11.692
42635SOL     OW27928   7.561   2.599  12.769
42635SOL    HW127929   7.649   2.586  12.814
42635SOL    HW227930   7.548   2.696  12.747
42636SOL     OW27931   8.061   3.227  11.898
42636SOL    HW127932   8.012   3.140  11.907
42636SOL    HW227933   8.038   3.270  11.811
42637SOL     OW27934   8.741   3.090  12.595
42637SOL    HW127935   8.778   3.017  12.537
42637SOL    HW227936   8.793   3.095  12.680
42638SOL     OW27937   8.257   1.866  11.674
42638SOL    HW127938   8.297   1.957  11.665
42638SOL    HW227939   8.157   1.874  11.680
42639SOL     OW27940   7.645   2.838  12.436
42639SOL    HW127941   7.734   2.793  12.422
42639SOL    HW227942   7.572   2.773  12.417
42640SOL     OW27943   8.973   2.861  11.362
42640SOL    HW127944   8.910   2.785  11.375
42640SOL    HW227945   9.021   2.879  11.448
42641SOL     OW27946   8.914   3.279  12.125
42641SOL    HW127947   8.855   3.285  12.205
42641SOL    HW227948   8.899   3.191  12.079
42642SOL     OW27949   9.115   3.576  11.744
42642SOL    HW127950   9.074   3.553  11.656
42642SOL    HW227951   9.097   3.502  11.809
42643SOL     OW27952   8.046   2.591  11.442
42643SOL    HW127953   8.070   2.660  11.374
42643SOL    HW227954   7.968   2.624  11.496
42644SOL     OW27955   8.729   2.207  12.116
42644SOL    HW127956   8.643   2.157  12.103
42644SOL    HW227957   8.791   2.153  12.172
42645SOL     OW27958   9.024   3.524  11.479
42645SOL    HW127959   9.113   3.570  11.482
42645SOL    HW227960   9.003   3.500  11.384
42646SOL     OW27961   8.255   2.467  12.637
42646SOL    HW127962   8.208   2.464  12.726
42646SOL    HW227963   8.204   2.412  12.571
42647SOL     OW27964   8.421   2.752  12.744
42647SOL    HW127965   8.467   2.668  12.715
42647SOL    HW227966   8.365   2.786  12.669
42648SOL     OW27967   8.439   2.272  12.414
42648SOL    HW127968   8.362   2.306  12.468
42648SOL    HW227969   8.405   2.221  12.335
42649SOL     OW27970   8.489   2.563  11.601
42649SOL    HW127971   8.515   2.559  11.697
42649SOL    HW227972   8.404   2.512  11.587
42650SOL     OW27973   7.524   2.673  11.961
42650SOL    HW127974   7.623   2.661  11.970
42650SOL    HW227975   7.500   2.768  11.982
42651SOL     OW27976   7.578   3.683  12.743
42651SOL    HW127977   7.568   3.668  12.842
42651SOL    HW227978   7.492   3.719  12.707
42652SOL     OW27979   8.313   2.210  11.367
42652SOL    HW127980   8.372   2.273  11.318
42652SOL    HW227981   8.332   2.116  11.338
42653SOL     OW27982   8.810   3.006  11.717
42653SOL    HW127983   8.893   2.977  11.669
42653SOL    HW227984   8.761   3.073  11.661
42654SOL     OW27985   7.998   2.058  12.057
42654SOL    HW127986   7.993   2.053  12.157
42654SOL    HW227987   8.000   2.154  12.028
42655SOL     OW27988   8.456   3.318  11.649
42655SOL    HW127989   8.410   3.390  11.597
42655SOL    HW227990   8.452   3.338  11.747
42656SOL     OW27991   7.799   3.663  12.025
42656SOL    HW127992   7.849   3.577  12.031
42656SOL    HW227993   7.864   3.740  12.022
42657SOL     OW27994   9.243   2.928  12.045
42657SOL    HW127995   9.181   2.913  11.969
42657SOL    HW227996   9.191   2.939  12.130
42658SOL     OW27997   8.675   3.412  12.678
42658SOL    HW127998   8.681   3.335  12.742
42658SOL    HW227999   8.623   3.386  12.598
42659SOL     OW28000   7.769   2.805  11.414
42659SOL    HW128001   7.851   2.844  11.372
42659SOL    HW228002   7.742   2.723  11.365
42660SOL     OW28003   8.906   2.597  11.900
42660SOL    HW128004   8.901   2.532  11.975
42660SOL    HW228005   8.986   2.656  11.913
42661SOL     OW28006   8.559   3.638  11.409
42661SOL    HW128007   8.499   3.576  11.459
42661SOL    HW228008   8.590   3.594  11.324
42662SOL     OW28009   7.650   2.147  12.670
42662SOL    HW128010   7.570   2.207  12.657
42662SOL    HW228011   7.640   2.098  12.756
42663SOL     OW28012   9.080   3.239  11.253
42663SOL    HW128013   9.048   3.333  11.243
42663SOL    HW228014   9.004   3.176  11.241
42664SOL     OW28015   7.912   3.605  11.495
42664SOL    HW128016   7.945   3.644  11.581
42664SOL    HW228017   7.988   3.598  11.430
42665SOL     OW28018   8.848   1.969  11.598
42665SOL    HW128019   8.824   1.932  11.508
42665SOL    HW228020   8.947   1.985  11.602
42666SOL     OW28021   7.697   3.647  12.413
42666SOL    HW128022   7.754   3.582  12.463
42666SOL    HW228023   7.681   3.614  12.320
42667SOL     OW28024   8.388   3.560  12.076
42667SOL    HW128025   8.468   3.503  12.097
42667SOL    HW228026   8.339   3.520  11.999
42668SOL     OW28027   7.830   2.562  11.652
42668SOL    HW128028   7.875   2.472  11.649
42668SOL    HW228029   7.736   2.551  11.685
42669SOL     OW28030   8.062   1.984  11.289
42669SOL    HW128031   8.160   1.962  11.296
42669SOL    HW228032   8.031   1.967  11.196
42670SOL     OW28033   8.336   3.376  12.367
42670SOL    HW128034   8.313   3.351  12.273
42670SOL    HW228035   8.397   3.307  12.406
42671SOL     OW28036   8.799   2.452  12.605
42671SOL    HW128037   8.827   2.409  12.690
42671SOL    HW228038   8.824   2.548  12.606
42672SOL     OW28039   8.251   3.264  12.096
42672SOL    HW128040   8.341   3.278  12.054
42672SOL    HW228041   8.180   3.266  12.025
42673SOL     OW28042   8.370   2.365  12.071
42673SOL    HW128043   8.345   2.356  11.975
42673SOL    HW228044   8.418   2.283  12.102
42674SOL     OW28045   7.987   1.926  11.684
42674SOL    HW128046   7.906   1.927  11.742
42674SOL    HW228047   7.990   2.009  11.629
42675SOL     OW28048   8.882   3.050  11.213
42675SOL    HW128049   8.914   2.974  11.270
42675SOL    HW228050   8.790   3.077  11.243
42676SOL     OW28051   7.745   1.897  11.343
42676SOL    HW128052   7.794   1.981  11.322
42676SOL    HW228053   7.807   1.832  11.388
42677SOL     OW28054   8.383   2.098  11.652
42677SOL    HW128055   8.335   2.139  11.574
42677SOL    HW228056   8.482   2.096  11.633
42678SOL     OW28057   8.524   2.545  12.636
42678SOL    HW128058   8.444   2.484  12.639
42678SOL    HW228059   8.605   2.492  12.612
42679SOL     OW28060   8.675   3.432  11.965
42679SOL    HW128061   8.696   3.506  11.900
42679SOL    HW228062   8.743   3.432  12.038
42680SOL     OW28063   7.907   3.014  11.913
42680SOL    HW128064   7.836   2.987  11.978
42680SOL    HW228065   7.881   2.986  11.820
42681SOL     OW28066   8.719   3.659  11.763
42681SOL    HW128067   8.763   3.723  11.699
42681SOL    HW228068   8.669   3.711  11.833
42682SOL     OW28069   8.480   2.411  11.188
42682SOL    HW128070   8.439   2.493  11.149
42682SOL    HW228071   8.544   2.437  11.261
42683SOL     OW28072   7.526   2.418  12.558
42683SOL    HW128073   7.618   2.417  12.517
42683SOL    HW228074   7.520   2.492  12.625
42684SOL     OW28075   8.009   2.084  12.319
42684SOL    HW128076   8.047   2.000  12.356
42684SOL    HW228077   7.921   2.103  12.363
42685SOL     OW28078   8.314   2.316  11.814
42685SOL    HW128079   8.282   2.388  11.752
42685SOL    HW228080   8.338   2.235  11.761
42686SOL     OW28081   8.465   1.901  11.925
42686SOL    HW128082   8.393   1.906  11.856
42686SOL    HW228083   8.441   1.832  11.994
42687SOL     OW28084   8.877   3.035  12.039
42687SOL    HW128085   8.822   2.951  12.032
42687SOL    HW228086   8.903   3.064  11.947
42688SOL     OW28087   8.914   2.452  12.164
42688SOL    HW128088   8.884   2.357  12.171
42688SOL    HW228089   8.987   2.468  12.230
42689SOL     OW28090   9.305   2.695  11.549
42689SOL    HW128091   9.347   2.631  11.613
42689SOL    HW228092   9.267   2.644  11.471
42690SOL     OW28093   7.936   3.247  11.346
42690SOL    HW128094   7.849   3.232  11.393
42690SOL    HW228095   7.919   3.273  11.251
42691SOL     OW28096   9.112   3.142  11.829
42691SOL    HW128097   9.211   3.150  11.843
42691SOL    HW228098   9.067   3.226  11.860
42692SOL     OW28099   8.838   2.437  11.250
42692SOL    HW128100   8.784   2.416  11.331
42692SOL    HW228101   8.929   2.396  11.259
42693SOL     OW28102   7.975   2.118  11.500
42693SOL    HW128103   8.002   2.059  11.425
42693SOL    HW228104   7.975   2.213  11.469
42694SOL     OW28105   9.202   3.085  12.760
42694SOL    HW128106   9.293   3.046  12.747
42694SOL    HW228107   9.210   3.181  12.784
42695SOL     OW28108   8.512   3.209  12.512
42695SOL    HW128109   8.432   3.186  12.567
42695SOL    HW228110   8.595   3.183  12.561
42696SOL     OW28111   8.559   3.057  12.272
42696SOL    HW128112   8.519   3.101  12.353
42696SOL    HW228113   8.518   3.094  12.189
42697SOL     OW28114   9.086   2.961  12.251
42697SOL    HW128115   9.091   3.042  12.310
42697SOL    HW228116   9.000   2.963  12.200
42698SOL     OW28117   8.363   1.951  12.574
42698SOL    HW128118   8.388   1.931  12.479
42698SOL    HW228119   8.435   2.007  12.616
42699SOL     OW28120   8.153   2.912  11.540
42699SOL    HW128121   8.139   2.919  11.639
42699SOL    HW228122   8.237   2.861  11.522
42700SOL     OW28123   7.858   2.675  12.423
42700SOL    HW128124   7.944   2.687  12.473
42700SOL    HW228125   7.816   2.588  12.450
42701SOL     OW28126   8.722   2.248  12.434
42701SOL    HW128127   8.743   2.322  12.498
42701SOL    HW228128   8.633   2.265  12.391
42702SOL     OW28129   7.512   3.426  12.503
42702SOL    HW128130   7.466   3.508  12.469
42702SOL    HW228131   7.610   3.445  12.512
42703SOL     OW28132   7.815   2.962  11.673
42703SOL    HW128133   7.808   3.045  11.617
42703SOL    HW228134   7.819   2.882  11.613
42704SOL     OW28135   8.014   2.399  12.037
42704SOL    HW128136   8.026   2.465  11.963
42704SOL    HW228137   8.060   2.433  12.120
42705SOL     OW28138   8.700   3.210  11.560
42705SOL    HW128139   8.750   3.287  11.600
42705SOL    HW228140   8.605   3.212  11.592
42706SOL     OW28141   8.720   3.307  12.314
42706SOL    HW128142   8.767   3.320  12.401
42706SOL    HW228143   8.654   3.233  12.323
42707SOL     OW28144   9.030   2.501  11.644
42707SOL    HW128145   8.999   2.562  11.717
42707SOL    HW228146   9.080   2.553  11.575
42708SOL     OW28147   7.802   3.372  12.501
42708SOL    HW128148   7.781   3.328  12.414
42708SOL    HW228149   7.899   3.398  12.504
42709SOL     OW28150   7.850   2.613  12.770
42709SOL    HW128151   7.918   2.668  12.723
42709SOL    HW228152   7.890   2.525  12.797
42710SOL     OW28153   9.035   2.641  12.842
42710SOL    HW128154   8.943   2.679  12.837
42710SOL    HW228155   9.095   2.688  12.777
42711SOL     OW28156   8.021   2.732  12.201
42711SOL    HW128157   8.065   2.821  12.192
42711SOL    HW228158   7.958   2.732  12.278
42712SOL     OW28159   8.808   2.724  12.217
42712SOL    HW128160   8.733   2.724  12.151
42712SOL    HW228161   8.845   2.632  12.226
42713SOL     OW28162   8.657   2.387  11.447
42713SOL    HW128163   8.670   2.303  11.501
42713SOL    HW228164   8.628   2.461  11.507
42714SOL     OW28165   7.755   2.075  12.403
42714SOL    HW128166   7.732   2.112  12.493
42714SOL    HW228167   7.725   1.980  12.397
42715SOL     OW28168   7.485   3.172  12.454
42715SOL    HW128169   7.538   3.123  12.522
42715SOL    HW228170   7.507   3.270  12.459
42716SOL     OW28171   8.180   2.496  12.236
42716SOL    HW128172   8.239   2.470  12.160
42716SOL    HW228173   8.152   2.592  12.225
42717SOL     OW28174   7.755   1.925  11.790
42717SOL    HW128175   7.744   2.019  11.823
42717SOL    HW228176   7.750   1.862  11.867
42718SOL     OW28177   9.070   2.229  11.546
42718SOL    HW128178   9.072   2.153  11.610
42718SOL    HW228179   9.022   2.306  11.586
42719SOL     OW28180   8.471   2.628  12.138
42719SOL    HW128181   8.486   2.649  12.234
42719SOL    HW228182   8.441   2.533  12.129
42720SOL     OW28183   8.988   2.136  11.297
42720SOL    HW128184   8.927   2.061  11.320
42720SOL    HW228185   9.010   2.188  11.380
42721SOL     OW28186   8.751   2.700  11.214
42721SOL    HW128187   8.785   2.607  11.229
42721SOL    HW228188   8.769   2.727  11.119
42722SOL     OW28189   8.516   3.195  12.021
42722SOL    HW128190   8.523   3.111  11.966
42722SOL    HW228191   8.578   3.264  11.985
42723SOL     OW28192   7.767   2.672  12.121
42723SOL    HW128193   7.860   2.708  12.126
42723SOL    HW228194   7.761   2.587  12.173
42724SOL     OW28195   7.787   2.371  12.178
42724SOL    HW128196   7.735   2.288  12.161
42724SOL    HW228197   7.864   2.376  12.114
42725SOL     OW28198   8.608   2.069  12.649
42725SOL    HW128199   8.608   2.133  12.726
42725SOL    HW228200   8.636   2.117  12.566
42726SOL     OW28201   7.456   3.188  11.372
42726SOL    HW128202   7.363   3.209  11.341
42726SOL    HW228203   7.466   3.089  11.385
42727SOL     OW28204   7.536   3.663  12.099
42727SOL    HW128205   7.494   3.577  12.072
42727SOL    HW228206   7.630   3.666  12.065
42728SOL     OW28207   7.952   3.430  12.082
42728SOL    HW128208   8.018   3.504  12.091
42728SOL    HW228209   7.996   3.351  12.040
42729SOL     OW28210   8.450   2.658  12.410
42729SOL    HW128211   8.491   2.626  12.496
42729SOL    HW228212   8.354   2.631  12.407
42730SOL     OW28213   7.488   2.406  12.286
42730SOL    HW128214   7.573   2.373  12.245
42730SOL    HW228215   7.501   2.421  12.384
42731SOL     OW28216   8.263   2.434  11.497
42731SOL    HW128217   8.270   2.345  11.451
42731SOL    HW228218   8.169   2.468  11.489
42732SOL     OW28219   9.105   2.466  12.378
42732SOL    HW128220   9.067   2.397  12.440
42732SOL    HW228221   9.187   2.430  12.334
42733SOL     OW28222   7.700   3.426  12.916
42733SOL    HW128223   7.670   3.483  12.992
42733SOL    HW228224   7.693   3.329  12.942
42734SOL     OW28225   8.119   2.326  12.441
42734SOL    HW128226   8.085   2.237  12.411
42734SOL    HW228227   8.145   2.380  12.361
42735SOL     OW28228   8.378   3.540  12.637
42735SOL    HW128229   8.354   3.522  12.542
42735SOL    HW228230   8.408   3.634  12.647
42736SOL     OW28231   7.921   2.362  11.363
42736SOL    HW128232   7.982   2.442  11.367
42736SOL    HW228233   7.826   2.393  11.370
42737SOL     OW28234   7.607   2.999  12.638
42737SOL    HW128235   7.629   2.938  12.714
42737SOL    HW228236   7.617   2.950  12.552
42738SOL     OW28237   8.795   2.921  12.406
42738SOL    HW128238   8.819   2.858  12.332
42738SOL    HW228239   8.705   2.961  12.388
42739SOL     OW28240   8.750   2.717  11.481
42739SOL    HW128241   8.664   2.686  11.523
42739SOL    HW228242   8.746   2.703  11.382
42740SOL     OW28243   9.207   3.609  12.326
42740SOL    HW128244   9.268   3.639  12.253
42740SOL    HW228245   9.169   3.520  12.304
42741SOL     OW28246   8.700   3.593  12.300
42741SOL    HW128247   8.784   3.598  12.246
42741SOL    HW228248   8.677   3.497  12.318
42742SOL     OW28249   7.531   3.120  12.194
42742SOL    HW128250   7.526   3.119  12.294
42742SOL    HW228251   7.448   3.079  12.156
42743SOL     OW28252   9.174   1.997  11.695
42743SOL    HW128253   9.247   1.980  11.628
42743SOL    HW228254   9.143   1.910  11.733
42744SOL     OW28255   8.836   3.435  11.649
42744SOL    HW128256   8.903   3.447  11.575
42744SOL    HW228257   8.796   3.524  11.672
42745SOL     OW28258   8.728   2.789  11.844
42745SOL    HW128259   8.788   2.708  11.846
42745SOL    HW228260   8.768   2.858  11.784
42746SOL     OW28261   8.278   3.135  12.594
42746SOL    HW128262   8.273   3.168  12.689
42746SOL    HW228263   8.192   3.154  12.548
42747SOL     OW28264   8.120   3.478  11.326
42747SOL    HW128265   8.129   3.488  11.227
42747SOL    HW228266   8.080   3.389  11.347
42748SOL     OW28267   9.098   3.582  12.566
42748SOL    HW128268   9.151   3.592  12.482
42748SOL    HW228269   9.071   3.672  12.600
42749SOL     OW28270   9.289   2.037  12.135
42749SOL    HW128271   9.328   1.952  12.099
42749SOL    HW228272   9.191   2.039  12.116
42750SOL     OW28273   7.711   2.188  11.892
42750SOL    HW128274   7.632   2.239  11.858
42750SOL    HW228275   7.702   2.173  11.990
42751SOL     OW28276   8.642   3.474  11.203
42751SOL    HW128277   8.648   3.381  11.240
42751SOL    HW228278   8.583   3.474  11.123
42752SOL     OW28279   8.270   2.864  12.544
42752SOL    HW128280   8.310   2.863  12.452
42752SOL    HW228281   8.280   2.956  12.584
42753SOL     OW28282   8.364   2.772  11.463
42753SOL    HW128283   8.427   2.810  11.395
42753SOL    HW228284   8.404   2.689  11.502
42754SOL     OW28285   8.952   3.469  11.216
42754SOL    HW128286   8.860   3.506  11.223
42754SOL    HW228287   8.990   3.489  11.126
42755SOL     OW28288   7.820   3.150  12.662
42755SOL    HW128289   7.807   3.243  12.628
42755SOL    HW228290   7.736   3.098  12.649
42756SOL     OW28291   9.062   3.154  12.461
42756SOL    HW128292   9.122   3.157  12.541
42756SOL    HW228293   8.987   3.218  12.474
42757SOL     OW28294   8.487   2.960  11.868
42757SOL    HW128295   8.417   2.913  11.922
42757SOL    HW228296   8.546   2.892  11.825
42758SOL     OW28297   8.462   2.098  12.143
42758SOL    HW128298   8.454   2.062  12.050
42758SOL    HW228299   8.460   2.022  12.208
42759SOL     OW28300   8.038   3.349  11.663
42759SOL    HW128301   8.080   3.291  11.593
42759SOL    HW228302   7.994   3.428  11.619
42760SOL     OW28303   9.157   2.247  12.553
42760SOL    HW128304   9.230   2.316  12.557
42760SOL    HW228305   9.185   2.172  12.494
42761SOL     OW28306   7.703   3.210  11.462
42761SOL    HW128307   7.607   3.211  11.435
42761SOL    HW228308   7.715   3.263  11.546
42762SOL     OW28309   7.553   2.875  12.898
42762SOL    HW128310   7.476   2.842  12.952
42762SOL    HW228311   7.638   2.845  12.940
42763SOL     OW28312   8.120   2.065  12.661
42763SOL    HW128313   8.210   2.049  12.621
42763SOL    HW228314   8.128   2.070  12.760
42764SOL     OW28315   7.523   2.207  11.205
42764SOL    HW128316   7.431   2.179  11.176
42764SOL    HW228317   7.554   2.284  11.149
42765SOL     OW28318   8.888   2.718  12.570
42765SOL    HW128319   8.831   2.770  12.507
42765SOL    HW228320   8.984   2.730  12.546
42766SOL     OW28321   7.520   2.028  11.490
42766SOL    HW128322   7.503   2.111  11.436
42766SOL    HW228323   7.610   1.991  11.468
42767SOL     OW28324   8.631   3.197  11.291
42767SOL    HW128325   8.532   3.186  11.293
42767SOL    HW228326   8.665   3.212  11.384
42768SOL     OW28327   8.061   2.704  12.603
42768SOL    HW128328   8.117   2.785  12.586
42768SOL    HW228329   8.120   2.624  12.606
42769SOL     OW28330   8.941   3.629  12.131
42769SOL    HW128331   8.974   3.693  12.062
42769SOL    HW228332   9.007   3.623  12.206
42770SOL     OW28333   8.164   2.427  12.880
42770SOL    HW128334   8.183   2.492  12.954
42770SOL    HW228335   8.224   2.347  12.889
42771SOL     OW28336   7.838   3.603  12.732
42771SOL    HW128337   7.747   3.644  12.730
42771SOL    HW228338   7.831   3.509  12.764
42772SOL     OW28339   9.122   2.745  12.426
42772SOL    HW128340   9.095   2.656  12.389
42772SOL    HW228341   9.123   2.813  12.353
42773SOL     OW28342   8.673   2.187  11.621
42773SOL    HW128343   8.738   2.113  11.610
42773SOL    HW228344   8.693   2.237  11.705
42774SOL     OW28345   8.042   2.607  11.824
42774SOL    HW128346   8.092   2.692  11.805
42774SOL    HW228347   7.954   2.609  11.776
42775SOL     OW28348   9.225   2.204  12.814
42775SOL    HW128349   9.208   2.235  12.720
42775SOL    HW228350   9.141   2.167  12.852
42776SOL     OW28351   9.178   2.796  12.689
42776SOL    HW128352   9.216   2.887  12.704
42776SOL    HW228353   9.170   2.779  12.590
42777SOL     OW28354   8.307   3.236  11.188
42777SOL    HW128355   8.261   3.251  11.276
42777SOL    HW228356   8.351   3.321  11.158
42778SOL     OW28357   8.109   3.652  12.125
42778SOL    HW128358   8.063   3.740  12.112
42778SOL    HW228359   8.208   3.664  12.118
42779SOL     OW28360   8.307   2.818  12.033
42779SOL    HW128361   8.361   2.749  12.081
42779SOL    HW228362   8.275   2.887  12.099
42780SOL     OW28363   8.531   2.846  11.259
42780SOL    HW128364   8.508   2.899  11.177
42780SOL    HW228365   8.612   2.790  11.240
42781SOL     OW28366   9.309   3.431  12.023
42781SOL    HW128367   9.238   3.419  11.953
42781SOL    HW228368   9.310   3.352  12.083
42782SOL     OW28369   7.527   3.102  11.825
42782SOL    HW128370   7.526   3.055  11.913
42782SOL    HW228371   7.609   3.074  11.774
42783SOL     OW28372   8.120   3.253  12.796
42783SOL    HW128373   8.042   3.203  12.834
42783SOL    HW228374   8.117   3.348  12.827
42784SOL     OW28375   9.272   2.054  12.399
42784SOL    HW128376   9.268   1.964  12.443
42784SOL    HW228377   9.275   2.043  12.300
42785SOL     OW28378   7.876   2.286  11.692
42785SOL    HW128379   7.906   2.214  11.630
42785SOL    HW228380   7.837   2.246  11.775
42786SOL     OW28381   9.153   3.349  12.276
42786SOL    HW128382   9.060   3.324  12.249
42786SOL    HW228383   9.179   3.299  12.358
42787SOL     OW28384   7.765   2.409  12.452
42787SOL    HW128385   7.803   2.350  12.524
42787SOL    HW228386   7.805   2.383  12.364
42788SOL     OW28387   8.260   3.448  11.859
42788SOL    HW128388   8.292   3.458  11.765
42788SOL    HW228389   8.181   3.386  11.861
42789SOL     OW28390   8.872   2.076  12.284
42789SOL    HW128391   8.924   2.011  12.339
42789SOL    HW228392   8.823   2.139  12.345
42790SOL     OW28393   8.449   1.896  12.326
42790SOL    HW128394   8.386   1.824  12.295
42790SOL    HW228395   8.542   1.860  12.326
42791SOL     OW28396   8.218   3.192  11.473
42791SOL    HW128397   8.172   3.105  11.490
42791SOL    HW228398   8.309   3.189  11.514
42792SOL     OW28399   8.066   3.429  12.456
42792SOL    HW128400   8.061   3.511  12.513
42792SOL    HW228401   8.155   3.426  12.411
42793SOL     OW28402   8.800   1.914  11.340
42793SOL    HW128403   8.835   1.873  11.256
42793SOL    HW228404   8.710   1.876  11.360
42794SOL     OW28405   8.748   2.315  11.863
42794SOL    HW128406   8.689   2.395  11.867
42794SOL    HW228407   8.763   2.280  11.956
42795SOL     OW28408   9.041   2.083  12.054
42795SOL    HW128409   8.957   2.082  12.108
42795SOL    HW228410   9.043   2.166  11.998
42796SOL     OW28411   7.487   2.939  11.472
42796SOL    HW128412   7.586   2.928  11.463
42796SOL    HW228413   7.447   2.853  11.504
42797SOL     OW28414   8.323   3.508  11.509
42797SOL    HW128415   8.246   3.473  11.455
42797SOL    HW228416   8.291   3.579  11.571
42798SOL     OW28417   7.678   4.352   0.113
42798SOL    HW128418   7.585   4.350   0.150
42798SOL    HW228419   7.679   4.313   0.021
42799SOL     OW28420   7.673   3.999   0.996
42799SOL    HW128421   7.708   3.982   1.088
42799SOL    HW228422   7.585   3.954   0.984
42800SOL     OW28423   7.467   4.092   0.647
42800SOL    HW128424   7.385   4.135   0.686
42800SOL    HW228425   7.439   4.019   0.584
42801SOL     OW28426   8.017   4.999   1.165
42801SOL    HW128427   7.924   4.992   1.128
42801SOL    HW228428   8.028   5.088   1.209
42802SOL     OW28429   9.003   5.235   0.703
42802SOL    HW128430   8.946   5.219   0.784
42802SOL    HW228431   8.944   5.245   0.623
42803SOL     OW28432   8.583   4.427   0.717
42803SOL    HW128433   8.640   4.505   0.692
42803SOL    HW228434   8.523   4.453   0.793
42804SOL     OW28435   9.203   4.331   0.231
42804SOL    HW128436   9.191   4.318   0.132
42804SOL    HW228437   9.173   4.250   0.280
42805SOL     OW28438   8.216   4.868   1.023
42805SOL    HW128439   8.138   4.885   1.083
42805SOL    HW228440   8.250   4.955   0.987
42806SOL     OW28441   8.298   4.522   1.823
42806SOL    HW128442   8.294   4.598   1.888
42806SOL    HW228443   8.320   4.558   1.732
42807SOL     OW28444   8.133   4.736   0.665
42807SOL    HW128445   8.202   4.720   0.735
42807SOL    HW228446   8.060   4.793   0.703
42808SOL     OW28447   8.134   4.885   1.803
42808SOL    HW128448   8.194   4.964   1.817
42808SOL    HW228449   8.048   4.916   1.762
42809SOL     OW28450   7.783   5.159   1.061
42809SOL    HW128451   7.705   5.128   1.008
42809SOL    HW228452   7.841   5.217   1.004
42810SOL     OW28453   8.908   5.229   1.339
42810SOL    HW128454   8.932   5.323   1.365
42810SOL    HW228455   8.892   5.175   1.421
42811SOL     OW28456   7.886   4.116   1.499
42811SOL    HW128457   7.968   4.060   1.508
42811SOL    HW228458   7.805   4.058   1.503
42812SOL     OW28459   9.051   4.171   0.737
42812SOL    HW128460   8.977   4.217   0.687
42812SOL    HW228461   9.102   4.239   0.790
42813SOL     OW28462   7.679   5.437   0.483
42813SOL    HW128463   7.713   5.514   0.537
42813SOL    HW228464   7.723   5.437   0.393
42814SOL     OW28465   8.575   5.065   1.690
42814SOL    HW128466   8.622   5.065   1.778
42814SOL    HW228467   8.527   4.978   1.679
42815SOL     OW28468   7.678   5.158   0.538
42815SOL    HW128469   7.652   5.254   0.538
42815SOL    HW228470   7.607   5.104   0.583
42816SOL     OW28471   7.688   4.815   0.886
42816SOL    HW128472   7.702   4.731   0.938
42816SOL    HW228473   7.633   4.879   0.941
42817SOL     OW28474   8.068   5.510   1.439
42817SOL    HW128475   7.976   5.493   1.474
42817SOL    HW228476   8.096   5.602   1.465
42818SOL     OW28477   8.054   4.688   0.123
42818SOL    HW128478   8.061   4.772   0.069
42818SOL    HW228479   8.100   4.701   0.211
42819SOL     OW28480   9.042   3.838   1.480
42819SOL    HW128481   9.024   3.905   1.408
42819SOL    HW228482   9.039   3.884   1.569
42820SOL     OW28483   7.570   4.367   0.563
42820SOL    HW128484   7.525   4.279   0.580
42820SOL    HW228485   7.569   4.421   0.647
42821SOL     OW28486   9.290   5.491   0.359
42821SOL    HW128487   9.344   5.462   0.439
42821SOL    HW228488   9.320   5.581   0.330
42822SOL     OW28489   7.475   5.320   0.117
42822SOL    HW128490   7.456   5.224   0.138
42822SOL    HW228491   7.442   5.378   0.192
42823SOL     OW28492   9.137   4.646   0.612
42823SOL    HW128493   9.232   4.617   0.620
42823SOL    HW228494   9.129   4.711   0.537
42824SOL     OW28495   9.089   4.832   0.432
42824SOL    HW128496   9.175   4.834   0.380
42824SOL    HW228497   9.103   4.879   0.520
42825SOL     OW28498   7.561   4.461   1.597
42825SOL    HW128499   7.649   4.448   1.642
42825SOL    HW228500   7.548   4.558   1.575
42826SOL     OW28501   8.061   5.089   0.726
42826SOL    HW128502   8.012   5.002   0.735
42826SOL    HW228503   8.038   5.132   0.639
42827SOL     OW28504   8.741   4.952   1.423
42827SOL    HW128505   8.778   4.879   1.365
42827SOL    HW228506   8.793   4.957   1.508
42828SOL     OW28507   8.257   3.728   0.502
42828SOL    HW128508   8.297   3.819   0.493
42828SOL    HW228509   8.157   3.736   0.508
42829SOL     OW28510   7.645   4.700   1.264
42829SOL    HW128511   7.734   4.655   1.250
42829SOL    HW228512   7.572   4.635   1.245
42830SOL     OW28513   8.973   4.723   0.190
42830SOL    HW128514   8.910   4.647   0.203
42830SOL    HW228515   9.021   4.741   0.276
42831SOL     OW28516   8.635   5.516   1.616
42831SOL    HW128517   8.659   5.576   1.540
42831SOL    HW228518   8.642   5.421   1.586
42832SOL     OW28519   7.765   3.975   1.801
42832SOL    HW128520   7.836   4.046   1.807
42832SOL    HW228521   7.677   4.014   1.829
42833SOL     OW28522   8.914   5.141   0.953
42833SOL    HW128523   8.855   5.147   1.033
42833SOL    HW228524   8.899   5.053   0.907
42834SOL     OW28525   9.115   5.438   0.572
42834SOL    HW128526   9.074   5.415   0.484
42834SOL    HW228527   9.097   5.364   0.637
42835SOL     OW28528   8.046   4.453   0.270
42835SOL    HW128529   8.070   4.522   0.202
42835SOL    HW228530   7.968   4.486   0.324
42836SOL     OW28531   8.729   4.069   0.944
42836SOL    HW128532   8.643   4.019   0.931
42836SOL    HW228533   8.791   4.015   1.000
42837SOL     OW28534   9.024   5.386   0.307
42837SOL    HW128535   9.113   5.432   0.310
42837SOL    HW228536   9.003   5.362   0.212
42838SOL     OW28537   8.255   4.329   1.465
42838SOL    HW128538   8.208   4.326   1.554
42838SOL    HW228539   8.204   4.274   1.399
42839SOL     OW28540   8.842   4.193   1.674
42839SOL    HW128541   8.822   4.236   1.762
42839SOL    HW228542   8.920   4.131   1.683
42840SOL     OW28543   8.421   4.614   1.572
42840SOL    HW128544   8.467   4.530   1.543
42840SOL    HW228545   8.365   4.648   1.497
42841SOL     OW28546   8.439   4.134   1.242
42841SOL    HW128547   8.362   4.168   1.296
42841SOL    HW228548   8.405   4.083   1.163
42842SOL     OW28549   8.489   4.425   0.429
42842SOL    HW128550   8.515   4.421   0.525
42842SOL    HW228551   8.404   4.374   0.415
42843SOL     OW28552   7.524   4.535   0.789
42843SOL    HW128553   7.623   4.523   0.798
42843SOL    HW228554   7.500   4.630   0.810
42844SOL     OW28555   7.578   5.545   1.571
42844SOL    HW128556   7.568   5.530   1.670
42844SOL    HW228557   7.492   5.581   1.535
42845SOL     OW28558   8.313   4.072   0.195
42845SOL    HW128559   8.372   4.135   0.146
42845SOL    HW228560   8.332   3.978   0.166
42846SOL     OW28561   9.167   4.309   1.831
42846SOL    HW128562   9.141   4.398   1.795
42846SOL    HW228563   9.165   4.241   1.758
42847SOL     OW28564   8.810   4.868   0.545
42847SOL    HW128565   8.893   4.839   0.497
42847SOL    HW228566   8.761   4.935   0.489
42848SOL     OW28567   7.998   3.920   0.885
42848SOL    HW128568   7.993   3.915   0.985
42848SOL    HW228569   8.000   4.016   0.856
42849SOL     OW28570   8.456   5.180   0.477
42849SOL    HW128571   8.410   5.252   0.425
42849SOL    HW228572   8.452   5.200   0.575
42850SOL     OW28573   7.799   5.525   0.853
42850SOL    HW128574   7.849   5.439   0.859
42850SOL    HW228575   7.864   5.602   0.850
42851SOL     OW28576   9.243   4.790   0.873
42851SOL    HW128577   9.181   4.775   0.797
42851SOL    HW228578   9.191   4.801   0.958
42852SOL     OW28579   8.675   5.274   1.506
42852SOL    HW128580   8.681   5.197   1.570
42852SOL    HW228581   8.623   5.248   1.426
42853SOL     OW28582   7.769   4.667   0.242
42853SOL    HW128583   7.851   4.706   0.200
42853SOL    HW228584   7.742   4.585   0.193
42854SOL     OW28585   8.906   4.459   0.728
42854SOL    HW128586   8.901   4.394   0.803
42854SOL    HW228587   8.986   4.518   0.741
42855SOL     OW28588   7.909   4.990   1.727
42855SOL    HW128589   7.859   4.991   1.641
42855SOL    HW228590   7.846   4.972   1.803
42856SOL     OW28591   8.559   5.500   0.237
42856SOL    HW128592   8.499   5.438   0.287
42856SOL    HW228593   8.590   5.456   0.152
42857SOL     OW28594   7.650   4.009   1.498
42857SOL    HW128595   7.570   4.069   1.485
42857SOL    HW228596   7.640   3.960   1.584
42858SOL     OW28597   9.080   5.101   0.081
42858SOL    HW128598   9.048   5.195   0.071
42858SOL    HW228599   9.004   5.038   0.069
42859SOL     OW28600   7.912   5.467   0.323
42859SOL    HW128601   7.945   5.506   0.409
42859SOL    HW228602   7.988   5.460   0.258
42860SOL     OW28603   8.848   3.831   0.426
42860SOL    HW128604   8.824   3.794   0.336
42860SOL    HW228605   8.947   3.847   0.430
42861SOL     OW28606   7.697   5.509   1.241
42861SOL    HW128607   7.754   5.444   1.291
42861SOL    HW228608   7.681   5.476   1.148
42862SOL     OW28609   8.388   5.422   0.904
42862SOL    HW128610   8.468   5.365   0.925
42862SOL    HW228611   8.339   5.382   0.827
42863SOL     OW28612   7.830   4.424   0.480
42863SOL    HW128613   7.875   4.334   0.477
42863SOL    HW228614   7.736   4.413   0.513
42864SOL     OW28615   8.995   3.946   1.729
42864SOL    HW128616   8.990   3.983   1.821
42864SOL    HW228617   8.923   3.877   1.717
42865SOL     OW28618   8.062   3.846   0.117
42865SOL    HW128619   8.160   3.824   0.124
42865SOL    HW228620   8.031   3.829   0.024
42866SOL     OW28621   8.229   3.988   1.749
42866SOL    HW128622   8.296   3.927   1.792
42866SOL    HW228623   8.156   4.007   1.814
42867SOL     OW28624   8.336   5.238   1.195
42867SOL    HW128625   8.313   5.213   1.101
42867SOL    HW228626   8.397   5.169   1.234
42868SOL     OW28627   8.799   4.314   1.433
42868SOL    HW128628   8.827   4.271   1.518
42868SOL    HW228629   8.824   4.410   1.434
42869SOL     OW28630   8.251   5.126   0.924
42869SOL    HW128631   8.341   5.140   0.882
42869SOL    HW228632   8.180   5.128   0.853
42870SOL     OW28633   8.370   4.227   0.899
42870SOL    HW128634   8.345   4.218   0.803
42870SOL    HW228635   8.418   4.145   0.930
42871SOL     OW28636   7.987   3.788   0.512
42871SOL    HW128637   7.906   3.789   0.570
42871SOL    HW228638   7.990   3.871   0.457
42872SOL     OW28639   8.882   4.912   0.041
42872SOL    HW128640   8.914   4.836   0.098
42872SOL    HW228641   8.790   4.939   0.071
42873SOL     OW28642   7.745   3.759   0.171
42873SOL    HW128643   7.794   3.843   0.150
42873SOL    HW228644   7.807   3.694   0.216
42874SOL     OW28645   8.383   3.960   0.480
42874SOL    HW128646   8.335   4.001   0.402
42874SOL    HW228647   8.482   3.958   0.461
42875SOL     OW28648   8.524   4.407   1.464
42875SOL    HW128649   8.444   4.346   1.467
42875SOL    HW228650   8.605   4.354   1.440
42876SOL     OW28651   8.675   5.294   0.793
42876SOL    HW128652   8.696   5.368   0.728
42876SOL    HW228653   8.743   5.294   0.866
42877SOL     OW28654   7.907   4.876   0.741
42877SOL    HW128655   7.836   4.849   0.806
42877SOL    HW228656   7.881   4.848   0.648
42878SOL     OW28657   8.719   5.521   0.591
42878SOL    HW128658   8.763   5.585   0.527
42878SOL    HW228659   8.669   5.573   0.661
42879SOL     OW28660   8.480   4.273   0.016
42879SOL    HW128661   8.439   4.355  -0.023
42879SOL    HW228662   8.544   4.299   0.089
42880SOL     OW28663   7.526   4.280   1.386
42880SOL    HW128664   7.618   4.279   1.345
42880SOL    HW228665   7.520   4.354   1.453
42881SOL     OW28666   8.009   3.946   1.147
42881SOL    HW128667   8.047   3.862   1.184
42881SOL    HW228668   7.921   3.965   1.191
42882SOL     OW28669   8.314   4.178   0.642
42882SOL    HW128670   8.282   4.250   0.580
42882SOL    HW228671   8.338   4.097   0.589
42883SOL     OW28672   8.465   3.763   0.753
42883SOL    HW128673   8.393   3.768   0.684
42883SOL    HW228674   8.441   3.694   0.822
42884SOL     OW28675   8.877   4.897   0.867
42884SOL    HW128676   8.822   4.813   0.860
42884SOL    HW228677   8.903   4.926   0.775
42885SOL     OW28678   8.914   4.314   0.992
42885SOL    HW128679   8.884   4.219   0.999
42885SOL    HW228680   8.987   4.330   1.058
42886SOL     OW28681   9.305   4.557   0.377
42886SOL    HW128682   9.347   4.493   0.441
42886SOL    HW228683   9.267   4.506   0.299
42887SOL     OW28684   7.936   5.109   0.174
42887SOL    HW128685   7.849   5.094   0.221
42887SOL    HW228686   7.919   5.135   0.079
42888SOL     OW28687   9.112   5.004   0.657
42888SOL    HW128688   9.211   5.012   0.671
42888SOL    HW228689   9.067   5.088   0.688
42889SOL     OW28690   8.838   4.299   0.078
42889SOL    HW128691   8.784   4.278   0.159
42889SOL    HW228692   8.929   4.258   0.087
42890SOL     OW28693   7.975   3.980   0.328
42890SOL    HW128694   8.002   3.921   0.253
42890SOL    HW228695   7.975   4.075   0.297
42891SOL     OW28696   9.202   4.947   1.588
42891SOL    HW128697   9.293   4.908   1.575
42891SOL    HW228698   9.210   5.043   1.612
42892SOL     OW28699   8.512   5.071   1.340
42892SOL    HW128700   8.432   5.048   1.395
42892SOL    HW228701   8.595   5.045   1.389
42893SOL     OW28702   9.040   5.353   1.625
42893SOL    HW128703   9.067   5.387   1.535
42893SOL    HW228704   9.119   5.315   1.671
42894SOL     OW28705   8.559   4.919   1.100
42894SOL    HW128706   8.519   4.963   1.181
42894SOL    HW228707   8.518   4.956   1.017
42895SOL     OW28708   9.086   4.823   1.079
42895SOL    HW128709   9.091   4.904   1.138
42895SOL    HW228710   9.000   4.825   1.028
42896SOL     OW28711   8.363   3.813   1.402
42896SOL    HW128712   8.388   3.793   1.307
42896SOL    HW228713   8.435   3.869   1.444
42897SOL     OW28714   8.428   4.840   1.719
42897SOL    HW128715   8.329   4.846   1.729
42897SOL    HW228716   8.451   4.760   1.663
42898SOL     OW28717   8.153   4.774   0.368
42898SOL    HW128718   8.139   4.781   0.467
42898SOL    HW228719   8.237   4.723   0.350
42899SOL     OW28720   7.858   4.537   1.251
42899SOL    HW128721   7.944   4.549   1.301
42899SOL    HW228722   7.816   4.450   1.278
42900SOL     OW28723   8.722   4.110   1.262
42900SOL    HW128724   8.743   4.184   1.326
42900SOL    HW228725   8.633   4.127   1.219
42901SOL     OW28726   7.512   5.288   1.331
42901SOL    HW128727   7.466   5.370   1.297
42901SOL    HW228728   7.610   5.307   1.340
42902SOL     OW28729   7.815   4.824   0.501
42902SOL    HW128730   7.808   4.907   0.445
42902SOL    HW228731   7.819   4.744   0.441
42903SOL     OW28732   8.014   4.261   0.865
42903SOL    HW128733   8.026   4.327   0.791
42903SOL    HW228734   8.060   4.295   0.948
42904SOL     OW28735   8.700   5.072   0.388
42904SOL    HW128736   8.750   5.149   0.428
42904SOL    HW228737   8.605   5.074   0.420
42905SOL     OW28738   8.720   5.169   1.142
42905SOL    HW128739   8.767   5.182   1.229
42905SOL    HW228740   8.654   5.095   1.151
42906SOL     OW28741   9.030   4.363   0.472
42906SOL    HW128742   8.999   4.424   0.545
42906SOL    HW228743   9.080   4.415   0.403
42907SOL     OW28744   7.802   5.234   1.329
42907SOL    HW128745   7.781   5.190   1.242
42907SOL    HW228746   7.899   5.260   1.332
42908SOL     OW28747   7.850   4.475   1.598
42908SOL    HW128748   7.918   4.530   1.551
42908SOL    HW228749   7.890   4.387   1.625
42909SOL     OW28750   9.035   4.503   1.670
42909SOL    HW128751   8.943   4.541   1.665
42909SOL    HW228752   9.095   4.550   1.605
42910SOL     OW28753   8.461   3.829   1.770
42910SOL    HW128754   8.467   3.914   1.718
42910SOL    HW228755   8.493   3.753   1.713
42911SOL     OW28756   7.952   3.774   1.740
42911SOL    HW128757   7.910   3.717   1.670
42911SOL    HW228758   7.886   3.843   1.772
42912SOL     OW28759   8.021   4.594   1.029
42912SOL    HW128760   8.065   4.683   1.020
42912SOL    HW228761   7.958   4.594   1.106
42913SOL     OW28762   8.808   4.586   1.045
42913SOL    HW128763   8.733   4.586   0.979
42913SOL    HW228764   8.845   4.494   1.054
42914SOL     OW28765   8.657   4.249   0.275
42914SOL    HW128766   8.670   4.165   0.329
42914SOL    HW228767   8.628   4.323   0.335
42915SOL     OW28768   7.755   3.937   1.231
42915SOL    HW128769   7.732   3.974   1.321
42915SOL    HW228770   7.725   3.842   1.225
42916SOL     OW28771   7.485   5.034   1.282
42916SOL    HW128772   7.538   4.985   1.350
42916SOL    HW228773   7.507   5.132   1.287
42917SOL     OW28774   8.180   4.358   1.064
42917SOL    HW128775   8.239   4.332   0.988
42917SOL    HW228776   8.152   4.454   1.053
42918SOL     OW28777   9.176   4.659   1.854
42918SOL    HW128778   9.130   4.652   1.765
42918SOL    HW228779   9.114   4.703   1.920
42919SOL     OW28780   7.755   3.787   0.618
42919SOL    HW128781   7.744   3.881   0.651
42919SOL    HW228782   7.750   3.724   0.695
42920SOL     OW28783   9.070   4.091   0.374
42920SOL    HW128784   9.072   4.015   0.438
42920SOL    HW228785   9.022   4.168   0.414
42921SOL     OW28786   8.471   4.490   0.966
42921SOL    HW128787   8.486   4.511   1.062
42921SOL    HW228788   8.441   4.395   0.957
42922SOL     OW28789   8.428   5.297   1.700
42922SOL    HW128790   8.408   5.341   1.612
42922SOL    HW228791   8.467   5.206   1.684
42923SOL     OW28792   9.307   5.242   1.605
42923SOL    HW128793   9.321   5.269   1.510
42923SOL    HW228794   9.390   5.264   1.658
42924SOL     OW28795   7.798   4.622   1.804
42924SOL    HW128796   7.874   4.666   1.852
42924SOL    HW228797   7.833   4.575   1.722
42925SOL     OW28798   8.988   3.998   0.125
42925SOL    HW128799   8.927   3.923   0.148
42925SOL    HW228800   9.010   4.050   0.208
42926SOL     OW28801   8.751   4.562   0.042
42926SOL    HW128802   8.785   4.469   0.057
42926SOL    HW228803   8.769   4.589  -0.053
42927SOL     OW28804   8.516   5.057   0.849
42927SOL    HW128805   8.523   4.973   0.794
42927SOL    HW228806   8.578   5.126   0.813
42928SOL     OW28807   7.767   4.534   0.949
42928SOL    HW128808   7.860   4.570   0.954
42928SOL    HW228809   7.761   4.449   1.001
42929SOL     OW28810   7.787   4.233   1.006
42929SOL    HW128811   7.735   4.150   0.989
42929SOL    HW228812   7.864   4.238   0.942
42930SOL     OW28813   8.586   4.104   1.678
42930SOL    HW128814   8.541   4.167   1.742
42930SOL    HW228815   8.679   4.135   1.661
42931SOL     OW28816   8.608   3.931   1.477
42931SOL    HW128817   8.608   3.995   1.554
42931SOL    HW228818   8.636   3.979   1.394
42932SOL     OW28819   7.456   5.050   0.200
42932SOL    HW128820   7.363   5.071   0.169
42932SOL    HW228821   7.466   4.951   0.213
42933SOL     OW28822   7.536   5.525   0.927
42933SOL    HW128823   7.494   5.439   0.900
42933SOL    HW228824   7.630   5.528   0.893
42934SOL     OW28825   7.952   5.292   0.910
42934SOL    HW128826   8.018   5.366   0.919
42934SOL    HW228827   7.996   5.213   0.868
42935SOL     OW28828   8.450   4.520   1.238
42935SOL    HW128829   8.491   4.488   1.324
42935SOL    HW228830   8.354   4.493   1.235
42936SOL     OW28831   7.488   4.268   1.114
42936SOL    HW128832   7.573   4.235   1.073
42936SOL    HW228833   7.501   4.283   1.212
42937SOL     OW28834   7.637   4.244   1.722
42937SOL    HW128835   7.696   4.204   1.652
42937SOL    HW228836   7.579   4.315   1.681
42938SOL     OW28837   8.817   4.674   1.660
42938SOL    HW128838   8.856   4.763   1.680
42938SOL    HW228839   8.827   4.654   1.563
42939SOL     OW28840   9.105   4.328   1.206
42939SOL    HW128841   9.067   4.259   1.268
42939SOL    HW228842   9.187   4.292   1.162
42940SOL     OW28843   7.700   5.288   1.744
42940SOL    HW128844   7.670   5.345   1.820
42940SOL    HW228845   7.693   5.191   1.770
42941SOL     OW28846   8.119   4.188   1.269
42941SOL    HW128847   8.085   4.099   1.239
42941SOL    HW228848   8.145   4.242   1.189
42942SOL     OW28849   8.378   5.402   1.465
42942SOL    HW128850   8.354   5.384   1.370
42942SOL    HW228851   8.408   5.496   1.475
42943SOL     OW28852   7.921   4.224   0.191
42943SOL    HW128853   7.982   4.304   0.195
42943SOL    HW228854   7.826   4.255   0.198
42944SOL     OW28855   7.607   4.861   1.466
42944SOL    HW128856   7.629   4.800   1.542
42944SOL    HW228857   7.617   4.812   1.380
42945SOL     OW28858   8.795   4.783   1.234
42945SOL    HW128859   8.819   4.720   1.160
42945SOL    HW228860   8.705   4.823   1.216
42946SOL     OW28861   8.750   4.579   0.309
42946SOL    HW128862   8.664   4.548   0.351
42946SOL    HW228863   8.746   4.565   0.210
42947SOL     OW28864   9.207   5.471   1.154
42947SOL    HW128865   9.268   5.501   1.081
42947SOL    HW228866   9.169   5.382   1.132
42948SOL     OW28867   8.700   5.455   1.128
42948SOL    HW128868   8.784   5.460   1.074
42948SOL    HW228869   8.677   5.359   1.146
42949SOL     OW28870   7.531   4.982   1.022
42949SOL    HW128871   7.526   4.981   1.122
42949SOL    HW228872   7.448   4.941   0.984
42950SOL     OW28873   8.136   5.386   1.716
42950SOL    HW128874   8.080   5.467   1.725
42950SOL    HW228875   8.188   5.390   1.630
42951SOL     OW28876   8.351   3.810   0.133
42951SOL    HW128877   8.402   3.811   0.047
42951SOL    HW228878   8.407   3.768   0.204
42952SOL     OW28879   9.174   3.859   0.523
42952SOL    HW128880   9.247   3.842   0.456
42952SOL    HW228881   9.143   3.772   0.561
42953SOL     OW28882   8.836   5.297   0.477
42953SOL    HW128883   8.903   5.309   0.403
42953SOL    HW228884   8.796   5.386   0.500
42954SOL     OW28885   7.578   5.518   1.851
42954SOL    HW128886   7.537   5.444   1.904
42954SOL    HW228887   7.642   5.569   1.909
42955SOL     OW28888   8.728   4.651   0.672
42955SOL    HW128889   8.788   4.570   0.674
42955SOL    HW228890   8.768   4.720   0.612
42956SOL     OW28891   8.278   4.997   1.422
42956SOL    HW128892   8.273   5.030   1.517
42956SOL    HW228893   8.192   5.016   1.376
42957SOL     OW28894   8.120   5.340   0.154
42957SOL    HW128895   8.129   5.350   0.055
42957SOL    HW228896   8.080   5.251   0.175
42958SOL     OW28897   9.098   5.444   1.394
42958SOL    HW128898   9.151   5.454   1.310
42958SOL    HW228899   9.071   5.534   1.428
42959SOL     OW28900   9.289   3.899   0.963
42959SOL    HW128901   9.328   3.814   0.927
42959SOL    HW228902   9.191   3.901   0.944
42960SOL     OW28903   7.711   4.050   0.720
42960SOL    HW128904   7.632   4.101   0.686
42960SOL    HW228905   7.702   4.035   0.818
42961SOL     OW28906   8.642   5.336   0.031
42961SOL    HW128907   8.648   5.243   0.068
42961SOL    HW228908   8.583   5.336  -0.049
42962SOL     OW28909   8.270   4.726   1.372
42962SOL    HW128910   8.310   4.725   1.280
42962SOL    HW228911   8.280   4.818   1.412
42963SOL     OW28912   8.364   4.634   0.291
42963SOL    HW128913   8.427   4.672   0.223
42963SOL    HW228914   8.404   4.551   0.330
42964SOL     OW28915   8.952   5.331   0.044
42964SOL    HW128916   8.860   5.368   0.051
42964SOL    HW228917   8.990   5.351  -0.046
42965SOL     OW28918   7.820   5.012   1.490
42965SOL    HW128919   7.807   5.105   1.456
42965SOL    HW228920   7.736   4.960   1.477
42966SOL     OW28921   9.062   5.016   1.289
42966SOL    HW128922   9.122   5.019   1.369
42966SOL    HW228923   8.987   5.080   1.302
42967SOL     OW28924   8.487   4.822   0.696
42967SOL    HW128925   8.417   4.775   0.750
42967SOL    HW228926   8.546   4.754   0.653
42968SOL     OW28927   8.462   3.960   0.971
42968SOL    HW128928   8.454   3.924   0.878
42968SOL    HW228929   8.460   3.884   1.036
42969SOL     OW28930   8.038   5.211   0.491
42969SOL    HW128931   8.080   5.153   0.421
42969SOL    HW228932   7.994   5.290   0.447
42970SOL     OW28933   9.157   4.109   1.381
42970SOL    HW128934   9.230   4.178   1.385
42970SOL    HW228935   9.185   4.034   1.322
42971SOL     OW28936   7.703   5.072   0.290
42971SOL    HW128937   7.607   5.073   0.263
42971SOL    HW228938   7.715   5.125   0.374
42972SOL     OW28939   7.553   4.737   1.726
42972SOL    HW128940   7.476   4.704   1.780
42972SOL    HW228941   7.638   4.707   1.768
42973SOL     OW28942   8.120   3.927   1.489
42973SOL    HW128943   8.210   3.911   1.449
42973SOL    HW228944   8.128   3.932   1.588
42974SOL     OW28945   8.888   4.580   1.398
42974SOL    HW128946   8.831   4.632   1.335
42974SOL    HW228947   8.984   4.592   1.374
42975SOL     OW28948   7.520   3.890   0.318
42975SOL    HW128949   7.503   3.973   0.264
42975SOL    HW228950   7.610   3.853   0.296
42976SOL     OW28951   8.631   5.059   0.119
42976SOL    HW128952   8.532   5.048   0.121
42976SOL    HW228953   8.665   5.074   0.212
42977SOL     OW28954   8.061   4.566   1.431
42977SOL    HW128955   8.117   4.647   1.414
42977SOL    HW228956   8.120   4.486   1.434
42978SOL     OW28957   8.941   5.491   0.959
42978SOL    HW128958   8.974   5.555   0.890
42978SOL    HW228959   9.007   5.485   1.034
42979SOL     OW28960   8.164   4.289   1.708
42979SOL    HW128961   8.183   4.354   1.782
42979SOL    HW228962   8.224   4.209   1.717
42980SOL     OW28963   8.898   4.944   1.633
42980SOL    HW128964   8.889   4.934   1.732
42980SOL    HW228965   8.994   4.937   1.607
42981SOL     OW28966   7.838   5.465   1.560
42981SOL    HW128967   7.747   5.506   1.558
42981SOL    HW228968   7.831   5.371   1.592
42982SOL     OW28969   9.122   4.607   1.254
42982SOL    HW128970   9.095   4.518   1.217
42982SOL    HW228971   9.123   4.675   1.181
42983SOL     OW28972   8.673   4.049   0.449
42983SOL    HW128973   8.738   3.975   0.438
42983SOL    HW228974   8.693   4.099   0.533
42984SOL     OW28975   8.042   4.469   0.652
42984SOL    HW128976   8.092   4.554   0.633
42984SOL    HW228977   7.954   4.471   0.604
42985SOL     OW28978   9.225   4.066   1.642
42985SOL    HW128979   9.208   4.097   1.548
42985SOL    HW228980   9.141   4.029   1.680
42986SOL     OW28981   9.178   4.658   1.517
42986SOL    HW128982   9.216   4.749   1.532
42986SOL    HW228983   9.170   4.641   1.418
42987SOL     OW28984   8.307   5.098   0.016
42987SOL    HW128985   8.261   5.113   0.104
42987SOL    HW228986   8.351   5.183  -0.014
42988SOL     OW28987   8.109   5.514   0.953
42988SOL    HW128988   8.063   5.602   0.940
42988SOL    HW228989   8.208   5.526   0.946
42989SOL     OW28990   8.307   4.680   0.861
42989SOL    HW128991   8.361   4.611   0.909
42989SOL    HW228992   8.275   4.749   0.927
42990SOL     OW28993   8.531   4.708   0.087
42990SOL    HW128994   8.508   4.761   0.005
42990SOL    HW228995   8.612   4.652   0.068
42991SOL     OW28996   9.309   5.293   0.851
42991SOL    HW128997   9.238   5.281   0.781
42991SOL    HW228998   9.310   5.214   0.911
42992SOL     OW28999   7.669   5.038   1.844
42992SOL    HW129000   7.604   4.965   1.823
42992SOL    HW229001   7.673   5.052   1.942
42993SOL     OW29002   7.527   4.964   0.653
42993SOL    HW129003   7.526   4.917   0.741
42993SOL    HW229004   7.609   4.936   0.602
42994SOL     OW29005   8.120   5.115   1.624
42994SOL    HW129006   8.042   5.065   1.662
42994SOL    HW229007   8.117   5.210   1.655
42995SOL     OW29008   9.272   3.916   1.227
42995SOL    HW129009   9.268   3.826   1.271
42995SOL    HW229010   9.275   3.905   1.128
42996SOL     OW29011   7.876   4.148   0.520
42996SOL    HW129012   7.906   4.076   0.458
42996SOL    HW229013   7.837   4.108   0.603
42997SOL     OW29014   9.153   5.211   1.104
42997SOL    HW129015   9.060   5.186   1.077
42997SOL    HW229016   9.179   5.161   1.186
42998SOL     OW29017   7.765   4.271   1.280
42998SOL    HW129018   7.803   4.212   1.352
42998SOL    HW229019   7.805   4.245   1.192
42999SOL     OW29020   8.260   5.310   0.687
42999SOL    HW129021   8.292   5.320   0.593
42999SOL    HW229022   8.181   5.248   0.689
43000SOL     OW29023   8.872   3.938   1.112
43000SOL    HW129024   8.924   3.873   1.167
43000SOL    HW229025   8.823   4.001   1.173
43001SOL     OW29026   8.449   3.758   1.154
43001SOL    HW129027   8.386   3.686   1.123
43001SOL    HW229028   8.542   3.722   1.154
43002SOL     OW29029   8.218   5.054   0.301
43002SOL    HW129030   8.172   4.967   0.318
43002SOL    HW229031   8.309   5.051   0.342
43003SOL     OW29032   8.066   5.291   1.284
43003SOL    HW129033   8.061   5.373   1.341
43003SOL    HW229034   8.155   5.288   1.239
43004SOL     OW29035   8.800   3.776   0.168
43004SOL    HW129036   8.835   3.735   0.084
43004SOL    HW229037   8.710   3.738   0.188
43005SOL     OW29038   8.748   4.177   0.691
43005SOL    HW129039   8.689   4.257   0.695
43005SOL    HW229040   8.763   4.142   0.784
43006SOL     OW29041   9.041   3.945   0.882
43006SOL    HW129042   8.957   3.944   0.936
43006SOL    HW229043   9.043   4.028   0.826
43007SOL     OW29044   7.487   4.801   0.300
43007SOL    HW129045   7.586   4.790   0.291
43007SOL    HW229046   7.447   4.715   0.332
43008SOL     OW29047   8.323   5.370   0.337
43008SOL    HW129048   8.246   5.335   0.283
43008SOL    HW229049   8.291   5.441   0.399
43009SOL     OW29050   7.678   4.352   1.975
43009SOL    HW129051   7.585   4.350   2.012
43009SOL    HW229052   7.679   4.313   1.883
43010SOL     OW29053   7.673   3.999   2.858
43010SOL    HW129054   7.708   3.982   2.950
43010SOL    HW229055   7.585   3.954   2.846
43011SOL     OW29056   7.467   4.092   2.509
43011SOL    HW129057   7.385   4.135   2.548
43011SOL    HW229058   7.439   4.019   2.446
43012SOL     OW29059   8.017   4.999   3.027
43012SOL    HW129060   7.924   4.992   2.990
43012SOL    HW229061   8.028   5.088   3.071
43013SOL     OW29062   9.003   5.235   2.565
43013SOL    HW129063   8.946   5.219   2.646
43013SOL    HW229064   8.944   5.245   2.485
43014SOL     OW29065   8.583   4.427   2.579
43014SOL    HW129066   8.640   4.505   2.554
43014SOL    HW229067   8.523   4.453   2.655
43015SOL     OW29068   9.203   4.331   2.093
43015SOL    HW129069   9.191   4.318   1.994
43015SOL    HW229070   9.173   4.250   2.142
43016SOL     OW29071   8.216   4.868   2.885
43016SOL    HW129072   8.138   4.885   2.945
43016SOL    HW229073   8.250   4.955   2.849
43017SOL     OW29074   8.298   4.522   3.685
43017SOL    HW129075   8.294   4.598   3.750
43017SOL    HW229076   8.320   4.558   3.594
43018SOL     OW29077   8.133   4.736   2.527
43018SOL    HW129078   8.202   4.720   2.597
43018SOL    HW229079   8.060   4.793   2.565
43019SOL     OW29080   8.134   4.885   3.665
43019SOL    HW129081   8.194   4.964   3.679
43019SOL    HW229082   8.048   4.916   3.624
43020SOL     OW29083   7.783   5.159   2.923
43020SOL    HW129084   7.705   5.128   2.870
43020SOL    HW229085   7.841   5.217   2.866
43021SOL     OW29086   8.908   5.229   3.201
43021SOL    HW129087   8.932   5.323   3.227
43021SOL    HW229088   8.892   5.175   3.283
43022SOL     OW29089   7.886   4.116   3.361
43022SOL    HW129090   7.968   4.060   3.370
43022SOL    HW229091   7.805   4.058   3.365
43023SOL     OW29092   9.051   4.171   2.599
43023SOL    HW129093   8.977   4.217   2.549
43023SOL    HW229094   9.102   4.239   2.652
43024SOL     OW29095   7.679   5.437   2.345
43024SOL    HW129096   7.713   5.514   2.399
43024SOL    HW229097   7.723   5.437   2.255
43025SOL     OW29098   8.575   5.065   3.552
43025SOL    HW129099   8.622   5.065   3.640
43025SOL    HW229100   8.527   4.978   3.541
43026SOL     OW29101   7.678   5.158   2.400
43026SOL    HW129102   7.652   5.254   2.400
43026SOL    HW229103   7.607   5.104   2.445
43027SOL     OW29104   7.688   4.815   2.748
43027SOL    HW129105   7.702   4.731   2.800
43027SOL    HW229106   7.633   4.879   2.803
43028SOL     OW29107   8.068   5.510   3.301
43028SOL    HW129108   7.976   5.493   3.336
43028SOL    HW229109   8.096   5.602   3.327
43029SOL     OW29110   8.054   4.688   1.985
43029SOL    HW129111   8.061   4.772   1.931
43029SOL    HW229112   8.100   4.701   2.073
43030SOL     OW29113   9.042   3.838   3.342
43030SOL    HW129114   9.024   3.905   3.270
43030SOL    HW229115   9.039   3.884   3.431
43031SOL     OW29116   7.570   4.367   2.425
43031SOL    HW129117   7.525   4.279   2.442
43031SOL    HW229118   7.569   4.421   2.509
43032SOL     OW29119   9.290   5.491   2.221
43032SOL    HW129120   9.344   5.462   2.301
43032SOL    HW229121   9.320   5.581   2.192
43033SOL     OW29122   7.475   5.320   1.979
43033SOL    HW129123   7.456   5.224   2.000
43033SOL    HW229124   7.442   5.378   2.054
43034SOL     OW29125   9.137   4.646   2.474
43034SOL    HW129126   9.232   4.617   2.482
43034SOL    HW229127   9.129   4.711   2.399
43035SOL     OW29128   9.089   4.832   2.294
43035SOL    HW129129   9.175   4.834   2.242
43035SOL    HW229130   9.103   4.879   2.382
43036SOL     OW29131   7.561   4.461   3.459
43036SOL    HW129132   7.649   4.448   3.504
43036SOL    HW229133   7.548   4.558   3.437
43037SOL     OW29134   8.741   4.952   3.285
43037SOL    HW129135   8.778   4.879   3.227
43037SOL    HW229136   8.793   4.957   3.370
43038SOL     OW29137   8.257   3.728   2.364
43038SOL    HW129138   8.297   3.819   2.355
43038SOL    HW229139   8.157   3.736   2.370
43039SOL     OW29140   7.645   4.700   3.126
43039SOL    HW129141   7.734   4.655   3.112
43039SOL    HW229142   7.572   4.635   3.107
43040SOL     OW29143   8.973   4.723   2.052
43040SOL    HW129144   8.910   4.647   2.065
43040SOL    HW229145   9.021   4.741   2.138
43041SOL     OW29146   8.635   5.516   3.478
43041SOL    HW129147   8.659   5.576   3.402
43041SOL    HW229148   8.642   5.421   3.448
43042SOL     OW29149   7.765   3.975   3.663
43042SOL    HW129150   7.836   4.046   3.669
43042SOL    HW229151   7.677   4.014   3.691
43043SOL     OW29152   8.914   5.141   2.815
43043SOL    HW129153   8.855   5.147   2.895
43043SOL    HW229154   8.899   5.053   2.769
43044SOL     OW29155   9.115   5.438   2.434
43044SOL    HW129156   9.074   5.415   2.346
43044SOL    HW229157   9.097   5.364   2.499
43045SOL     OW29158   8.046   4.453   2.132
43045SOL    HW129159   8.070   4.522   2.064
43045SOL    HW229160   7.968   4.486   2.186
43046SOL     OW29161   8.729   4.069   2.806
43046SOL    HW129162   8.643   4.019   2.793
43046SOL    HW229163   8.791   4.015   2.862
43047SOL     OW29164   9.024   5.386   2.169
43047SOL    HW129165   9.113   5.432   2.172
43047SOL    HW229166   9.003   5.362   2.074
43048SOL     OW29167   8.255   4.329   3.327
43048SOL    HW129168   8.208   4.326   3.416
43048SOL    HW229169   8.204   4.274   3.261
43049SOL     OW29170   8.842   4.193   3.536
43049SOL    HW129171   8.822   4.236   3.624
43049SOL    HW229172   8.920   4.131   3.545
43050SOL     OW29173   8.421   4.614   3.434
43050SOL    HW129174   8.467   4.530   3.405
43050SOL    HW229175   8.365   4.648   3.359
43051SOL     OW29176   8.439   4.134   3.104
43051SOL    HW129177   8.362   4.168   3.158
43051SOL    HW229178   8.405   4.083   3.025
43052SOL     OW29179   8.489   4.425   2.291
43052SOL    HW129180   8.515   4.421   2.387
43052SOL    HW229181   8.404   4.374   2.277
43053SOL     OW29182   7.524   4.535   2.651
43053SOL    HW129183   7.623   4.523   2.660
43053SOL    HW229184   7.500   4.630   2.672
43054SOL     OW29185   7.578   5.545   3.433
43054SOL    HW129186   7.568   5.530   3.532
43054SOL    HW229187   7.492   5.581   3.397
43055SOL     OW29188   8.313   4.072   2.057
43055SOL    HW129189   8.372   4.135   2.008
43055SOL    HW229190   8.332   3.978   2.028
43056SOL     OW29191   9.167   4.309   3.693
43056SOL    HW129192   9.141   4.398   3.657
43056SOL    HW229193   9.165   4.241   3.620
43057SOL     OW29194   8.810   4.868   2.407
43057SOL    HW129195   8.893   4.839   2.359
43057SOL    HW229196   8.761   4.935   2.351
43058SOL     OW29197   7.998   3.920   2.747
43058SOL    HW129198   7.993   3.915   2.847
43058SOL    HW229199   8.000   4.016   2.718
43059SOL     OW29200   8.456   5.180   2.339
43059SOL    HW129201   8.410   5.252   2.287
43059SOL    HW229202   8.452   5.200   2.437
43060SOL     OW29203   7.799   5.525   2.715
43060SOL    HW129204   7.849   5.439   2.721
43060SOL    HW229205   7.864   5.602   2.712
43061SOL     OW29206   9.243   4.790   2.735
43061SOL    HW129207   9.181   4.775   2.659
43061SOL    HW229208   9.191   4.801   2.820
43062SOL     OW29209   8.675   5.274   3.368
43062SOL    HW129210   8.681   5.197   3.432
43062SOL    HW229211   8.623   5.248   3.288
43063SOL     OW29212   7.769   4.667   2.104
43063SOL    HW129213   7.851   4.706   2.062
43063SOL    HW229214   7.742   4.585   2.055
43064SOL     OW29215   8.906   4.459   2.590
43064SOL    HW129216   8.901   4.394   2.665
43064SOL    HW229217   8.986   4.518   2.603
43065SOL     OW29218   7.909   4.990   3.589
43065SOL    HW129219   7.859   4.991   3.503
43065SOL    HW229220   7.846   4.972   3.665
43066SOL     OW29221   8.559   5.500   2.099
43066SOL    HW129222   8.499   5.438   2.149
43066SOL    HW229223   8.590   5.456   2.014
43067SOL     OW29224   7.650   4.009   3.360
43067SOL    HW129225   7.570   4.069   3.347
43067SOL    HW229226   7.640   3.960   3.446
43068SOL     OW29227   9.080   5.101   1.943
43068SOL    HW129228   9.048   5.195   1.933
43068SOL    HW229229   9.004   5.038   1.931
43069SOL     OW29230   7.912   5.467   2.185
43069SOL    HW129231   7.945   5.506   2.271
43069SOL    HW229232   7.988   5.460   2.120
43070SOL     OW29233   8.848   3.831   2.288
43070SOL    HW129234   8.824   3.794   2.198
43070SOL    HW229235   8.947   3.847   2.292
43071SOL     OW29236   7.697   5.509   3.103
43071SOL    HW129237   7.754   5.444   3.153
43071SOL    HW229238   7.681   5.476   3.010
43072SOL     OW29239   8.388   5.422   2.766
43072SOL    HW129240   8.468   5.365   2.787
43072SOL    HW229241   8.339   5.382   2.689
43073SOL     OW29242   7.830   4.424   2.342
43073SOL    HW129243   7.875   4.334   2.339
43073SOL    HW229244   7.736   4.413   2.375
43074SOL     OW29245   8.995   3.946   3.591
43074SOL    HW129246   8.990   3.983   3.683
43074SOL    HW229247   8.923   3.877   3.579
43075SOL     OW29248   8.062   3.846   1.979
43075SOL    HW129249   8.160   3.824   1.986
43075SOL    HW229250   8.031   3.829   1.886
43076SOL     OW29251   8.229   3.988   3.611
43076SOL    HW129252   8.296   3.927   3.654
43076SOL    HW229253   8.156   4.007   3.676
43077SOL     OW29254   8.336   5.238   3.057
43077SOL    HW129255   8.313   5.213   2.963
43077SOL    HW229256   8.397   5.169   3.096
43078SOL     OW29257   8.799   4.314   3.295
43078SOL    HW129258   8.827   4.271   3.380
43078SOL    HW229259   8.824   4.410   3.296
43079SOL     OW29260   8.251   5.126   2.786
43079SOL    HW129261   8.341   5.140   2.744
43079SOL    HW229262   8.180   5.128   2.715
43080SOL     OW29263   8.370   4.227   2.761
43080SOL    HW129264   8.345   4.218   2.665
43080SOL    HW229265   8.418   4.145   2.792
43081SOL     OW29266   7.987   3.788   2.374
43081SOL    HW129267   7.906   3.789   2.432
43081SOL    HW229268   7.990   3.871   2.319
43082SOL     OW29269   8.882   4.912   1.903
43082SOL    HW129270   8.914   4.836   1.960
43082SOL    HW229271   8.790   4.939   1.933
43083SOL     OW29272   7.745   3.759   2.033
43083SOL    HW129273   7.794   3.843   2.012
43083SOL    HW229274   7.807   3.694   2.078
43084SOL     OW29275   8.383   3.960   2.342
43084SOL    HW129276   8.335   4.001   2.264
43084SOL    HW229277   8.482   3.958   2.323
43085SOL     OW29278   8.524   4.407   3.326
43085SOL    HW129279   8.444   4.346   3.329
43085SOL    HW229280   8.605   4.354   3.302
43086SOL     OW29281   8.675   5.294   2.655
43086SOL    HW129282   8.696   5.368   2.590
43086SOL    HW229283   8.743   5.294   2.728
43087SOL     OW29284   7.907   4.876   2.603
43087SOL    HW129285   7.836   4.849   2.668
43087SOL    HW229286   7.881   4.848   2.510
43088SOL     OW29287   8.719   5.521   2.453
43088SOL    HW129288   8.763   5.585   2.389
43088SOL    HW229289   8.669   5.573   2.523
43089SOL     OW29290   8.480   4.273   1.878
43089SOL    HW129291   8.439   4.355   1.839
43089SOL    HW229292   8.544   4.299   1.951
43090SOL     OW29293   7.526   4.280   3.248
43090SOL    HW129294   7.618   4.279   3.207
43090SOL    HW229295   7.520   4.354   3.315
43091SOL     OW29296   8.009   3.946   3.009
43091SOL    HW129297   8.047   3.862   3.046
43091SOL    HW229298   7.921   3.965   3.053
43092SOL     OW29299   8.314   4.178   2.504
43092SOL    HW129300   8.282   4.250   2.442
43092SOL    HW229301   8.338   4.097   2.451
43093SOL     OW29302   8.465   3.763   2.615
43093SOL    HW129303   8.393   3.768   2.546
43093SOL    HW229304   8.441   3.694   2.684
43094SOL     OW29305   8.877   4.897   2.729
43094SOL    HW129306   8.822   4.813   2.722
43094SOL    HW229307   8.903   4.926   2.637
43095SOL     OW29308   8.914   4.314   2.854
43095SOL    HW129309   8.884   4.219   2.861
43095SOL    HW229310   8.987   4.330   2.920
43096SOL     OW29311   9.305   4.557   2.239
43096SOL    HW129312   9.347   4.493   2.303
43096SOL    HW229313   9.267   4.506   2.161
43097SOL     OW29314   7.936   5.109   2.036
43097SOL    HW129315   7.849   5.094   2.083
43097SOL    HW229316   7.919   5.135   1.941
43098SOL     OW29317   9.112   5.004   2.519
43098SOL    HW129318   9.211   5.012   2.533
43098SOL    HW229319   9.067   5.088   2.550
43099SOL     OW29320   8.838   4.299   1.940
43099SOL    HW129321   8.784   4.278   2.021
43099SOL    HW229322   8.929   4.258   1.949
43100SOL     OW29323   7.975   3.980   2.190
43100SOL    HW129324   8.002   3.921   2.115
43100SOL    HW229325   7.975   4.075   2.159
43101SOL     OW29326   9.202   4.947   3.450
43101SOL    HW129327   9.293   4.908   3.437
43101SOL    HW229328   9.210   5.043   3.474
43102SOL     OW29329   8.512   5.071   3.202
43102SOL    HW129330   8.432   5.048   3.257
43102SOL    HW229331   8.595   5.045   3.251
43103SOL     OW29332   9.040   5.353   3.487
43103SOL    HW129333   9.067   5.387   3.397
43103SOL    HW229334   9.119   5.315   3.533
43104SOL     OW29335   8.559   4.919   2.962
43104SOL    HW129336   8.519   4.963   3.043
43104SOL    HW229337   8.518   4.956   2.879
43105SOL     OW29338   9.086   4.823   2.941
43105SOL    HW129339   9.091   4.904   3.000
43105SOL    HW229340   9.000   4.825   2.890
43106SOL     OW29341   8.363   3.813   3.264
43106SOL    HW129342   8.388   3.793   3.169
43106SOL    HW229343   8.435   3.869   3.306
43107SOL     OW29344   8.428   4.840   3.581
43107SOL    HW129345   8.329   4.846   3.591
43107SOL    HW229346   8.451   4.760   3.525
43108SOL     OW29347   8.153   4.774   2.230
43108SOL    HW129348   8.139   4.781   2.329
43108SOL    HW229349   8.237   4.723   2.212
43109SOL     OW29350   7.858   4.537   3.113
43109SOL    HW129351   7.944   4.549   3.163
43109SOL    HW229352   7.816   4.450   3.140
43110SOL     OW29353   8.722   4.110   3.124
43110SOL    HW129354   8.743   4.184   3.188
43110SOL    HW229355   8.633   4.127   3.081
43111SOL     OW29356   7.512   5.288   3.193
43111SOL    HW129357   7.466   5.370   3.159
43111SOL    HW229358   7.610   5.307   3.202
43112SOL     OW29359   7.815   4.824   2.363
43112SOL    HW129360   7.808   4.907   2.307
43112SOL    HW229361   7.819   4.744   2.303
43113SOL     OW29362   8.014   4.261   2.727
43113SOL    HW129363   8.026   4.327   2.653
43113SOL    HW229364   8.060   4.295   2.810
43114SOL     OW29365   8.700   5.072   2.250
43114SOL    HW129366   8.750   5.149   2.290
43114SOL    HW229367   8.605   5.074   2.282
43115SOL     OW29368   8.720   5.169   3.004
43115SOL    HW129369   8.767   5.182   3.091
43115SOL    HW229370   8.654   5.095   3.013
43116SOL     OW29371   9.030   4.363   2.334
43116SOL    HW129372   8.999   4.424   2.407
43116SOL    HW229373   9.080   4.415   2.265
43117SOL     OW29374   7.802   5.234   3.191
43117SOL    HW129375   7.781   5.190   3.104
43117SOL    HW229376   7.899   5.260   3.194
43118SOL     OW29377   7.850   4.475   3.460
43118SOL    HW129378   7.918   4.530   3.413
43118SOL    HW229379   7.890   4.387   3.487
43119SOL     OW29380   9.035   4.503   3.532
43119SOL    HW129381   8.943   4.541   3.527
43119SOL    HW229382   9.095   4.550   3.467
43120SOL     OW29383   8.461   3.829   3.632
43120SOL    HW129384   8.467   3.914   3.580
43120SOL    HW229385   8.493   3.753   3.575
43121SOL     OW29386   7.952   3.774   3.602
43121SOL    HW129387   7.910   3.717   3.532
43121SOL    HW229388   7.886   3.843   3.634
43122SOL     OW29389   8.021   4.594   2.891
43122SOL    HW129390   8.065   4.683   2.882
43122SOL    HW229391   7.958   4.594   2.968
43123SOL     OW29392   8.808   4.586   2.907
43123SOL    HW129393   8.733   4.586   2.841
43123SOL    HW229394   8.845   4.494   2.916
43124SOL     OW29395   8.657   4.249   2.137
43124SOL    HW129396   8.670   4.165   2.191
43124SOL    HW229397   8.628   4.323   2.197
43125SOL     OW29398   7.755   3.937   3.093
43125SOL    HW129399   7.732   3.974   3.183
43125SOL    HW229400   7.725   3.842   3.087
43126SOL     OW29401   7.485   5.034   3.144
43126SOL    HW129402   7.538   4.985   3.212
43126SOL    HW229403   7.507   5.132   3.149
43127SOL     OW29404   8.180   4.358   2.926
43127SOL    HW129405   8.239   4.332   2.850
43127SOL    HW229406   8.152   4.454   2.915
43128SOL     OW29407   9.176   4.659   3.716
43128SOL    HW129408   9.130   4.652   3.627
43128SOL    HW229409   9.114   4.703   3.782
43129SOL     OW29410   7.755   3.787   2.480
43129SOL    HW129411   7.744   3.881   2.513
43129SOL    HW229412   7.750   3.724   2.557
43130SOL     OW29413   9.070   4.091   2.236
43130SOL    HW129414   9.072   4.015   2.300
43130SOL    HW229415   9.022   4.168   2.276
43131SOL     OW29416   8.471   4.490   2.828
43131SOL    HW129417   8.486   4.511   2.924
43131SOL    HW229418   8.441   4.395   2.819
43132SOL     OW29419   8.428   5.297   3.562
43132SOL    HW129420   8.408   5.341   3.474
43132SOL    HW229421   8.467   5.206   3.546
43133SOL     OW29422   9.307   5.242   3.467
43133SOL    HW129423   9.321   5.269   3.372
43133SOL    HW229424   9.390   5.264   3.520
43134SOL     OW29425   7.798   4.622   3.666
43134SOL    HW129426   7.874   4.666   3.714
43134SOL    HW229427   7.833   4.575   3.584
43135SOL     OW29428   8.988   3.998   1.987
43135SOL    HW129429   8.927   3.923   2.010
43135SOL    HW229430   9.010   4.050   2.070
43136SOL     OW29431   8.751   4.562   1.904
43136SOL    HW129432   8.785   4.469   1.919
43136SOL    HW229433   8.769   4.589   1.809
43137SOL     OW29434   8.516   5.057   2.711
43137SOL    HW129435   8.523   4.973   2.656
43137SOL    HW229436   8.578   5.126   2.675
43138SOL     OW29437   7.767   4.534   2.811
43138SOL    HW129438   7.860   4.570   2.816
43138SOL    HW229439   7.761   4.449   2.863
43139SOL     OW29440   7.787   4.233   2.868
43139SOL    HW129441   7.735   4.150   2.851
43139SOL    HW229442   7.864   4.238   2.804
43140SOL     OW29443   8.586   4.104   3.540
43140SOL    HW129444   8.541   4.167   3.604
43140SOL    HW229445   8.679   4.135   3.523
43141SOL     OW29446   8.608   3.931   3.339
43141SOL    HW129447   8.608   3.995   3.416
43141SOL    HW229448   8.636   3.979   3.256
43142SOL     OW29449   7.456   5.050   2.062
43142SOL    HW129450   7.363   5.071   2.031
43142SOL    HW229451   7.466   4.951   2.075
43143SOL     OW29452   7.536   5.525   2.789
43143SOL    HW129453   7.494   5.439   2.762
43143SOL    HW229454   7.630   5.528   2.755
43144SOL     OW29455   7.952   5.292   2.772
43144SOL    HW129456   8.018   5.366   2.781
43144SOL    HW229457   7.996   5.213   2.730
43145SOL     OW29458   8.450   4.520   3.100
43145SOL    HW129459   8.491   4.488   3.186
43145SOL    HW229460   8.354   4.493   3.097
43146SOL     OW29461   7.488   4.268   2.976
43146SOL    HW129462   7.573   4.235   2.935
43146SOL    HW229463   7.501   4.283   3.074
43147SOL     OW29464   7.637   4.244   3.584
43147SOL    HW129465   7.696   4.204   3.514
43147SOL    HW229466   7.579   4.315   3.543
43148SOL     OW29467   8.817   4.674   3.522
43148SOL    HW129468   8.856   4.763   3.542
43148SOL    HW229469   8.827   4.654   3.425
43149SOL     OW29470   8.263   4.296   2.187
43149SOL    HW129471   8.270   4.207   2.141
43149SOL    HW229472   8.169   4.330   2.179
43150SOL     OW29473   9.105   4.328   3.068
43150SOL    HW129474   9.067   4.259   3.130
43150SOL    HW229475   9.187   4.292   3.024
43151SOL     OW29476   7.700   5.288   3.606
43151SOL    HW129477   7.670   5.345   3.682
43151SOL    HW229478   7.693   5.191   3.632
43152SOL     OW29479   8.119   4.188   3.131
43152SOL    HW129480   8.085   4.099   3.101
43152SOL    HW229481   8.145   4.242   3.051
43153SOL     OW29482   8.378   5.402   3.327
43153SOL    HW129483   8.354   5.384   3.232
43153SOL    HW229484   8.408   5.496   3.337
43154SOL     OW29485   7.921   4.224   2.053
43154SOL    HW129486   7.982   4.304   2.057
43154SOL    HW229487   7.826   4.255   2.060
43155SOL     OW29488   7.607   4.861   3.328
43155SOL    HW129489   7.629   4.800   3.404
43155SOL    HW229490   7.617   4.812   3.242
43156SOL     OW29491   8.795   4.783   3.096
43156SOL    HW129492   8.819   4.720   3.022
43156SOL    HW229493   8.705   4.823   3.078
43157SOL     OW29494   8.750   4.579   2.171
43157SOL    HW129495   8.664   4.548   2.213
43157SOL    HW229496   8.746   4.565   2.072
43158SOL     OW29497   9.207   5.471   3.016
43158SOL    HW129498   9.268   5.501   2.943
43158SOL    HW229499   9.169   5.382   2.994
43159SOL     OW29500   8.700   5.455   2.990
43159SOL    HW129501   8.784   5.460   2.936
43159SOL    HW229502   8.677   5.359   3.008
43160SOL     OW29503   7.531   4.982   2.884
43160SOL    HW129504   7.526   4.981   2.984
43160SOL    HW229505   7.448   4.941   2.846
43161SOL     OW29506   8.136   5.386   3.578
43161SOL    HW129507   8.080   5.467   3.587
43161SOL    HW229508   8.188   5.390   3.492
43162SOL     OW29509   9.174   3.859   2.385
43162SOL    HW129510   9.247   3.842   2.318
43162SOL    HW229511   9.143   3.772   2.423
43163SOL     OW29512   8.836   5.297   2.339
43163SOL    HW129513   8.903   5.309   2.265
43163SOL    HW229514   8.796   5.386   2.362
43164SOL     OW29515   7.578   5.518   3.713
43164SOL    HW129516   7.537   5.444   3.766
43164SOL    HW229517   7.642   5.569   3.771
43165SOL     OW29518   8.728   4.651   2.534
43165SOL    HW129519   8.788   4.570   2.536
43165SOL    HW229520   8.768   4.720   2.474
43166SOL     OW29521   8.278   4.997   3.284
43166SOL    HW129522   8.273   5.030   3.379
43166SOL    HW229523   8.192   5.016   3.238
43167SOL     OW29524   8.120   5.340   2.016
43167SOL    HW129525   8.129   5.350   1.917
43167SOL    HW229526   8.080   5.251   2.037
43168SOL     OW29527   9.098   5.444   3.256
43168SOL    HW129528   9.151   5.454   3.172
43168SOL    HW229529   9.071   5.534   3.290
43169SOL     OW29530   9.289   3.899   2.825
43169SOL    HW129531   9.328   3.814   2.789
43169SOL    HW229532   9.191   3.901   2.806
43170SOL     OW29533   7.711   4.050   2.582
43170SOL    HW129534   7.632   4.101   2.548
43170SOL    HW229535   7.702   4.035   2.680
43171SOL     OW29536   8.642   5.336   1.893
43171SOL    HW129537   8.648   5.243   1.930
43171SOL    HW229538   8.583   5.336   1.813
43172SOL     OW29539   8.270   4.726   3.234
43172SOL    HW129540   8.310   4.725   3.142
43172SOL    HW229541   8.280   4.818   3.274
43173SOL     OW29542   8.364   4.634   2.153
43173SOL    HW129543   8.427   4.672   2.085
43173SOL    HW229544   8.404   4.551   2.192
43174SOL     OW29545   8.952   5.331   1.906
43174SOL    HW129546   8.860   5.368   1.913
43174SOL    HW229547   8.990   5.351   1.816
43175SOL     OW29548   7.820   5.012   3.352
43175SOL    HW129549   7.807   5.105   3.318
43175SOL    HW229550   7.736   4.960   3.339
43176SOL     OW29551   9.062   5.016   3.151
43176SOL    HW129552   9.122   5.019   3.231
43176SOL    HW229553   8.987   5.080   3.164
43177SOL     OW29554   8.487   4.822   2.558
43177SOL    HW129555   8.417   4.775   2.612
43177SOL    HW229556   8.546   4.754   2.515
43178SOL     OW29557   8.462   3.960   2.833
43178SOL    HW129558   8.454   3.924   2.740
43178SOL    HW229559   8.460   3.884   2.898
43179SOL     OW29560   8.038   5.211   2.353
43179SOL    HW129561   8.080   5.153   2.283
43179SOL    HW229562   7.994   5.290   2.309
43180SOL     OW29563   9.157   4.109   3.243
43180SOL    HW129564   9.230   4.178   3.247
43180SOL    HW229565   9.185   4.034   3.184
43181SOL     OW29566   7.703   5.072   2.152
43181SOL    HW129567   7.607   5.073   2.125
43181SOL    HW229568   7.715   5.125   2.236
43182SOL     OW29569   7.553   4.737   3.588
43182SOL    HW129570   7.476   4.704   3.642
43182SOL    HW229571   7.638   4.707   3.630
43183SOL     OW29572   8.120   3.927   3.351
43183SOL    HW129573   8.210   3.911   3.311
43183SOL    HW229574   8.128   3.932   3.450
43184SOL     OW29575   7.523   4.069   1.895
43184SOL    HW129576   7.431   4.041   1.866
43184SOL    HW229577   7.554   4.146   1.839
43185SOL     OW29578   8.888   4.580   3.260
43185SOL    HW129579   8.831   4.632   3.197
43185SOL    HW229580   8.984   4.592   3.236
43186SOL     OW29581   7.520   3.890   2.180
43186SOL    HW129582   7.503   3.973   2.126
43186SOL    HW229583   7.610   3.853   2.158
43187SOL     OW29584   8.631   5.059   1.981
43187SOL    HW129585   8.532   5.048   1.983
43187SOL    HW229586   8.665   5.074   2.074
43188SOL     OW29587   8.061   4.566   3.293
43188SOL    HW129588   8.117   4.647   3.276
43188SOL    HW229589   8.120   4.486   3.296
43189SOL     OW29590   8.941   5.491   2.821
43189SOL    HW129591   8.974   5.555   2.752
43189SOL    HW229592   9.007   5.485   2.896
43190SOL     OW29593   8.164   4.289   3.570
43190SOL    HW129594   8.183   4.354   3.644
43190SOL    HW229595   8.224   4.209   3.579
43191SOL     OW29596   8.898   4.944   3.495
43191SOL    HW129597   8.889   4.934   3.594
43191SOL    HW229598   8.994   4.937   3.469
43192SOL     OW29599   7.838   5.465   3.422
43192SOL    HW129600   7.747   5.506   3.420
43192SOL    HW229601   7.831   5.371   3.454
43193SOL     OW29602   9.122   4.607   3.116
43193SOL    HW129603   9.095   4.518   3.079
43193SOL    HW229604   9.123   4.675   3.043
43194SOL     OW29605   8.673   4.049   2.311
43194SOL    HW129606   8.738   3.975   2.300
43194SOL    HW229607   8.693   4.099   2.395
43195SOL     OW29608   8.042   4.469   2.514
43195SOL    HW129609   8.092   4.554   2.495
43195SOL    HW229610   7.954   4.471   2.466
43196SOL     OW29611   9.225   4.066   3.504
43196SOL    HW129612   9.208   4.097   3.410
43196SOL    HW229613   9.141   4.029   3.542
43197SOL     OW29614   9.178   4.658   3.379
43197SOL    HW129615   9.216   4.749   3.394
43197SOL    HW229616   9.170   4.641   3.280
43198SOL     OW29617   8.307   5.098   1.878
43198SOL    HW129618   8.261   5.113   1.966
43198SOL    HW229619   8.351   5.183   1.848
43199SOL     OW29620   8.109   5.514   2.815
43199SOL    HW129621   8.063   5.602   2.802
43199SOL    HW229622   8.208   5.526   2.808
43200SOL     OW29623   8.307   4.680   2.723
43200SOL    HW129624   8.361   4.611   2.771
43200SOL    HW229625   8.275   4.749   2.789
43201SOL     OW29626   8.531   4.708   1.949
43201SOL    HW129627   8.508   4.761   1.867
43201SOL    HW229628   8.612   4.652   1.930
43202SOL     OW29629   9.309   5.293   2.713
43202SOL    HW129630   9.238   5.281   2.643
43202SOL    HW229631   9.310   5.214   2.773
43203SOL     OW29632   7.669   5.038   3.706
43203SOL    HW129633   7.604   4.965   3.685
43203SOL    HW229634   7.673   5.052   3.804
43204SOL     OW29635   7.527   4.964   2.515
43204SOL    HW129636   7.526   4.917   2.603
43204SOL    HW229637   7.609   4.936   2.464
43205SOL     OW29638   8.120   5.115   3.486
43205SOL    HW129639   8.042   5.065   3.524
43205SOL    HW229640   8.117   5.210   3.517
43206SOL     OW29641   9.272   3.916   3.089
43206SOL    HW129642   9.268   3.826   3.133
43206SOL    HW229643   9.275   3.905   2.990
43207SOL     OW29644   7.876   4.148   2.382
43207SOL    HW129645   7.906   4.076   2.320
43207SOL    HW229646   7.837   4.108   2.465
43208SOL     OW29647   9.153   5.211   2.966
43208SOL    HW129648   9.060   5.186   2.939
43208SOL    HW229649   9.179   5.161   3.048
43209SOL     OW29650   7.765   4.271   3.142
43209SOL    HW129651   7.803   4.212   3.214
43209SOL    HW229652   7.805   4.245   3.054
43210SOL     OW29653   8.260   5.310   2.549
43210SOL    HW129654   8.292   5.320   2.455
43210SOL    HW229655   8.181   5.248   2.551
43211SOL     OW29656   8.872   3.938   2.974
43211SOL    HW129657   8.924   3.873   3.029
43211SOL    HW229658   8.823   4.001   3.035
43212SOL     OW29659   8.449   3.758   3.016
43212SOL    HW129660   8.386   3.686   2.985
43212SOL    HW229661   8.542   3.722   3.016
43213SOL     OW29662   8.218   5.054   2.163
43213SOL    HW129663   8.172   4.967   2.180
43213SOL    HW229664   8.309   5.051   2.204
43214SOL     OW29665   8.066   5.291   3.146
43214SOL    HW129666   8.061   5.373   3.203
43214SOL    HW229667   8.155   5.288   3.101
43215SOL     OW29668   8.800   3.776   2.030
43215SOL    HW129669   8.835   3.735   1.946
43215SOL    HW229670   8.710   3.738   2.050
43216SOL     OW29671   8.748   4.177   2.553
43216SOL    HW129672   8.689   4.257   2.557
43216SOL    HW229673   8.763   4.142   2.646
43217SOL     OW29674   9.041   3.945   2.744
43217SOL    HW129675   8.957   3.944   2.798
43217SOL    HW229676   9.043   4.028   2.688
43218SOL     OW29677   7.487   4.801   2.162
43218SOL    HW129678   7.586   4.790   2.153
43218SOL    HW229679   7.447   4.715   2.194
43219SOL     OW29680   8.323   5.370   2.199
43219SOL    HW129681   8.246   5.335   2.145
43219SOL    HW229682   8.291   5.441   2.261
43220SOL     OW29683   7.678   4.352   3.837
43220SOL    HW129684   7.585   4.350   3.874
43220SOL    HW229685   7.679   4.313   3.745
43221SOL     OW29686   7.673   3.999   4.720
43221SOL    HW129687   7.708   3.982   4.812
43221SOL    HW229688   7.585   3.954   4.708
43222SOL     OW29689   7.467   4.092   4.371
43222SOL    HW129690   7.385   4.135   4.410
43222SOL    HW229691   7.439   4.019   4.308
43223SOL     OW29692   8.017   4.999   4.889
43223SOL    HW129693   7.924   4.992   4.852
43223SOL    HW229694   8.028   5.088   4.933
43224SOL     OW29695   9.003   5.235   4.427
43224SOL    HW129696   8.946   5.219   4.508
43224SOL    HW229697   8.944   5.245   4.347
43225SOL     OW29698   8.583   4.427   4.441
43225SOL    HW129699   8.640   4.505   4.416
43225SOL    HW229700   8.523   4.453   4.517
43226SOL     OW29701   9.203   4.331   3.955
43226SOL    HW129702   9.191   4.318   3.856
43226SOL    HW229703   9.173   4.250   4.004
43227SOL     OW29704   8.216   4.868   4.747
43227SOL    HW129705   8.138   4.885   4.807
43227SOL    HW229706   8.250   4.955   4.711
43228SOL     OW29707   8.298   4.522   5.547
43228SOL    HW129708   8.294   4.598   5.612
43228SOL    HW229709   8.320   4.558   5.456
43229SOL     OW29710   8.133   4.736   4.389
43229SOL    HW129711   8.202   4.720   4.459
43229SOL    HW229712   8.060   4.793   4.427
43230SOL     OW29713   8.134   4.885   5.527
43230SOL    HW129714   8.194   4.964   5.541
43230SOL    HW229715   8.048   4.916   5.486
43231SOL     OW29716   7.783   5.159   4.785
43231SOL    HW129717   7.705   5.128   4.732
43231SOL    HW229718   7.841   5.217   4.728
43232SOL     OW29719   8.908   5.229   5.063
43232SOL    HW129720   8.932   5.323   5.089
43232SOL    HW229721   8.892   5.175   5.145
43233SOL     OW29722   7.886   4.116   5.223
43233SOL    HW129723   7.968   4.060   5.232
43233SOL    HW229724   7.805   4.058   5.227
43234SOL     OW29725   9.051   4.171   4.461
43234SOL    HW129726   8.977   4.217   4.411
43234SOL    HW229727   9.102   4.239   4.514
43235SOL     OW29728   7.679   5.437   4.207
43235SOL    HW129729   7.713   5.514   4.261
43235SOL    HW229730   7.723   5.437   4.117
43236SOL     OW29731   8.575   5.065   5.414
43236SOL    HW129732   8.622   5.065   5.502
43236SOL    HW229733   8.527   4.978   5.403
43237SOL     OW29734   7.678   5.158   4.262
43237SOL    HW129735   7.652   5.254   4.262
43237SOL    HW229736   7.607   5.104   4.307
43238SOL     OW29737   7.688   4.815   4.610
43238SOL    HW129738   7.702   4.731   4.662
43238SOL    HW229739   7.633   4.879   4.665
43239SOL     OW29740   8.068   5.510   5.163
43239SOL    HW129741   7.976   5.493   5.198
43239SOL    HW229742   8.096   5.602   5.189
43240SOL     OW29743   8.054   4.688   3.847
43240SOL    HW129744   8.061   4.772   3.793
43240SOL    HW229745   8.100   4.701   3.935
43241SOL     OW29746   9.042   3.838   5.204
43241SOL    HW129747   9.024   3.905   5.132
43241SOL    HW229748   9.039   3.884   5.293
43242SOL     OW29749   7.570   4.367   4.287
43242SOL    HW129750   7.525   4.279   4.304
43242SOL    HW229751   7.569   4.421   4.371
43243SOL     OW29752   9.290   5.491   4.083
43243SOL    HW129753   9.344   5.462   4.163
43243SOL    HW229754   9.320   5.581   4.054
43244SOL     OW29755   7.475   5.320   3.841
43244SOL    HW129756   7.456   5.224   3.862
43244SOL    HW229757   7.442   5.378   3.916
43245SOL     OW29758   9.137   4.646   4.336
43245SOL    HW129759   9.232   4.617   4.344
43245SOL    HW229760   9.129   4.711   4.261
43246SOL     OW29761   9.089   4.832   4.156
43246SOL    HW129762   9.175   4.834   4.104
43246SOL    HW229763   9.103   4.879   4.244
43247SOL     OW29764   7.561   4.461   5.321
43247SOL    HW129765   7.649   4.448   5.366
43247SOL    HW229766   7.548   4.558   5.299
43248SOL     OW29767   8.061   5.089   4.450
43248SOL    HW129768   8.012   5.002   4.459
43248SOL    HW229769   8.038   5.132   4.363
43249SOL     OW29770   8.741   4.952   5.147
43249SOL    HW129771   8.778   4.879   5.089
43249SOL    HW229772   8.793   4.957   5.232
43250SOL     OW29773   8.257   3.728   4.226
43250SOL    HW129774   8.297   3.819   4.217
43250SOL    HW229775   8.157   3.736   4.232
43251SOL     OW29776   7.645   4.700   4.988
43251SOL    HW129777   7.734   4.655   4.974
43251SOL    HW229778   7.572   4.635   4.969
43252SOL     OW29779   8.973   4.723   3.914
43252SOL    HW129780   8.910   4.647   3.927
43252SOL    HW229781   9.021   4.741   4.000
43253SOL     OW29782   8.635   5.516   5.340
43253SOL    HW129783   8.659   5.576   5.264
43253SOL    HW229784   8.642   5.421   5.310
43254SOL     OW29785   7.765   3.975   5.525
43254SOL    HW129786   7.836   4.046   5.531
43254SOL    HW229787   7.677   4.014   5.553
43255SOL     OW29788   8.914   5.141   4.677
43255SOL    HW129789   8.855   5.147   4.757
43255SOL    HW229790   8.899   5.053   4.631
43256SOL     OW29791   9.115   5.438   4.296
43256SOL    HW129792   9.074   5.415   4.208
43256SOL    HW229793   9.097   5.364   4.361
43257SOL     OW29794   8.046   4.453   3.994
43257SOL    HW129795   8.070   4.522   3.926
43257SOL    HW229796   7.968   4.486   4.048
43258SOL     OW29797   8.729   4.069   4.668
43258SOL    HW129798   8.643   4.019   4.655
43258SOL    HW229799   8.791   4.015   4.724
43259SOL     OW29800   9.024   5.386   4.031
43259SOL    HW129801   9.113   5.432   4.034
43259SOL    HW229802   9.003   5.362   3.936
43260SOL     OW29803   8.255   4.329   5.189
43260SOL    HW129804   8.208   4.326   5.278
43260SOL    HW229805   8.204   4.274   5.123
43261SOL     OW29806   8.842   4.193   5.398
43261SOL    HW129807   8.822   4.236   5.486
43261SOL    HW229808   8.920   4.131   5.407
43262SOL     OW29809   8.421   4.614   5.296
43262SOL    HW129810   8.467   4.530   5.267
43262SOL    HW229811   8.365   4.648   5.221
43263SOL     OW29812   8.439   4.134   4.966
43263SOL    HW129813   8.362   4.168   5.020
43263SOL    HW229814   8.405   4.083   4.887
43264SOL     OW29815   8.489   4.425   4.153
43264SOL    HW129816   8.515   4.421   4.249
43264SOL    HW229817   8.404   4.374   4.139
43265SOL     OW29818   7.524   4.535   4.513
43265SOL    HW129819   7.623   4.523   4.522
43265SOL    HW229820   7.500   4.630   4.534
43266SOL     OW29821   7.578   5.545   5.295
43266SOL    HW129822   7.568   5.530   5.394
43266SOL    HW229823   7.492   5.581   5.259
43267SOL     OW29824   8.313   4.072   3.919
43267SOL    HW129825   8.372   4.135   3.870
43267SOL    HW229826   8.332   3.978   3.890
43268SOL     OW29827   9.167   4.309   5.555
43268SOL    HW129828   9.141   4.398   5.519
43268SOL    HW229829   9.165   4.241   5.482
43269SOL     OW29830   8.810   4.868   4.269
43269SOL    HW129831   8.893   4.839   4.221
43269SOL    HW229832   8.761   4.935   4.213
43270SOL     OW29833   7.998   3.920   4.609
43270SOL    HW129834   7.993   3.915   4.709
43270SOL    HW229835   8.000   4.016   4.580
43271SOL     OW29836   8.456   5.180   4.201
43271SOL    HW129837   8.410   5.252   4.149
43271SOL    HW229838   8.452   5.200   4.299
43272SOL     OW29839   7.799   5.525   4.577
43272SOL    HW129840   7.849   5.439   4.583
43272SOL    HW229841   7.864   5.602   4.574
43273SOL     OW29842   9.243   4.790   4.597
43273SOL    HW129843   9.181   4.775   4.521
43273SOL    HW229844   9.191   4.801   4.682
43274SOL     OW29845   8.675   5.274   5.230
43274SOL    HW129846   8.681   5.197   5.294
43274SOL    HW229847   8.623   5.248   5.150
43275SOL     OW29848   7.769   4.667   3.966
43275SOL    HW129849   7.851   4.706   3.924
43275SOL    HW229850   7.742   4.585   3.917
43276SOL     OW29851   8.906   4.459   4.452
43276SOL    HW129852   8.901   4.394   4.527
43276SOL    HW229853   8.986   4.518   4.465
43277SOL     OW29854   7.909   4.990   5.451
43277SOL    HW129855   7.859   4.991   5.365
43277SOL    HW229856   7.846   4.972   5.527
43278SOL     OW29857   8.559   5.500   3.961
43278SOL    HW129858   8.499   5.438   4.011
43278SOL    HW229859   8.590   5.456   3.876
43279SOL     OW29860   7.650   4.009   5.222
43279SOL    HW129861   7.570   4.069   5.209
43279SOL    HW229862   7.640   3.960   5.308
43280SOL     OW29863   9.080   5.101   3.805
43280SOL    HW129864   9.048   5.195   3.795
43280SOL    HW229865   9.004   5.038   3.793
43281SOL     OW29866   7.912   5.467   4.047
43281SOL    HW129867   7.945   5.506   4.133
43281SOL    HW229868   7.988   5.460   3.982
43282SOL     OW29869   8.848   3.831   4.150
43282SOL    HW129870   8.824   3.794   4.060
43282SOL    HW229871   8.947   3.847   4.154
43283SOL     OW29872   7.697   5.509   4.965
43283SOL    HW129873   7.754   5.444   5.015
43283SOL    HW229874   7.681   5.476   4.872
43284SOL     OW29875   8.388   5.422   4.628
43284SOL    HW129876   8.468   5.365   4.649
43284SOL    HW229877   8.339   5.382   4.551
43285SOL     OW29878   7.830   4.424   4.204
43285SOL    HW129879   7.875   4.334   4.201
43285SOL    HW229880   7.736   4.413   4.237
43286SOL     OW29881   8.995   3.946   5.453
43286SOL    HW129882   8.990   3.983   5.545
43286SOL    HW229883   8.923   3.877   5.441
43287SOL     OW29884   8.062   3.846   3.841
43287SOL    HW129885   8.160   3.824   3.848
43287SOL    HW229886   8.031   3.829   3.748
43288SOL     OW29887   8.229   3.988   5.473
43288SOL    HW129888   8.296   3.927   5.516
43288SOL    HW229889   8.156   4.007   5.538
43289SOL     OW29890   8.336   5.238   4.919
43289SOL    HW129891   8.313   5.213   4.825
43289SOL    HW229892   8.397   5.169   4.958
43290SOL     OW29893   8.799   4.314   5.157
43290SOL    HW129894   8.827   4.271   5.242
43290SOL    HW229895   8.824   4.410   5.158
43291SOL     OW29896   8.251   5.126   4.648
43291SOL    HW129897   8.341   5.140   4.606
43291SOL    HW229898   8.180   5.128   4.577
43292SOL     OW29899   8.370   4.227   4.623
43292SOL    HW129900   8.345   4.218   4.527
43292SOL    HW229901   8.418   4.145   4.654
43293SOL     OW29902   7.987   3.788   4.236
43293SOL    HW129903   7.906   3.789   4.294
43293SOL    HW229904   7.990   3.871   4.181
43294SOL     OW29905   8.882   4.912   3.765
43294SOL    HW129906   8.914   4.836   3.822
43294SOL    HW229907   8.790   4.939   3.795
43295SOL     OW29908   7.745   3.759   3.895
43295SOL    HW129909   7.794   3.843   3.874
43295SOL    HW229910   7.807   3.694   3.940
43296SOL     OW29911   8.383   3.960   4.204
43296SOL    HW129912   8.335   4.001   4.126
43296SOL    HW229913   8.482   3.958   4.185
43297SOL     OW29914   8.524   4.407   5.188
43297SOL    HW129915   8.444   4.346   5.191
43297SOL    HW229916   8.605   4.354   5.164
43298SOL     OW29917   8.675   5.294   4.517
43298SOL    HW129918   8.696   5.368   4.452
43298SOL    HW229919   8.743   5.294   4.590
43299SOL     OW29920   7.907   4.876   4.465
43299SOL    HW129921   7.836   4.849   4.530
43299SOL    HW229922   7.881   4.848   4.372
43300SOL     OW29923   8.719   5.521   4.315
43300SOL    HW129924   8.763   5.585   4.251
43300SOL    HW229925   8.669   5.573   4.385
43301SOL     OW29926   8.480   4.273   3.740
43301SOL    HW129927   8.439   4.355   3.701
43301SOL    HW229928   8.544   4.299   3.813
43302SOL     OW29929   7.526   4.280   5.110
43302SOL    HW129930   7.618   4.279   5.069
43302SOL    HW229931   7.520   4.354   5.177
43303SOL     OW29932   8.009   3.946   4.871
43303SOL    HW129933   8.047   3.862   4.908
43303SOL    HW229934   7.921   3.965   4.915
43304SOL     OW29935   8.314   4.178   4.366
43304SOL    HW129936   8.282   4.250   4.304
43304SOL    HW229937   8.338   4.097   4.313
43305SOL     OW29938   8.465   3.763   4.477
43305SOL    HW129939   8.393   3.768   4.408
43305SOL    HW229940   8.441   3.694   4.546
43306SOL     OW29941   8.877   4.897   4.591
43306SOL    HW129942   8.822   4.813   4.584
43306SOL    HW229943   8.903   4.926   4.499
43307SOL     OW29944   8.914   4.314   4.716
43307SOL    HW129945   8.884   4.219   4.723
43307SOL    HW229946   8.987   4.330   4.782
43308SOL     OW29947   9.305   4.557   4.101
43308SOL    HW129948   9.347   4.493   4.165
43308SOL    HW229949   9.267   4.506   4.023
43309SOL     OW29950   7.936   5.109   3.898
43309SOL    HW129951   7.849   5.094   3.945
43309SOL    HW229952   7.919   5.135   3.803
43310SOL     OW29953   9.112   5.004   4.381
43310SOL    HW129954   9.211   5.012   4.395
43310SOL    HW229955   9.067   5.088   4.412
43311SOL     OW29956   8.838   4.299   3.802
43311SOL    HW129957   8.784   4.278   3.883
43311SOL    HW229958   8.929   4.258   3.811
43312SOL     OW29959   7.975   3.980   4.052
43312SOL    HW129960   8.002   3.921   3.977
43312SOL    HW229961   7.975   4.075   4.021
43313SOL     OW29962   9.202   4.947   5.312
43313SOL    HW129963   9.293   4.908   5.299
43313SOL    HW229964   9.210   5.043   5.336
43314SOL     OW29965   8.512   5.071   5.064
43314SOL    HW129966   8.432   5.048   5.119
43314SOL    HW229967   8.595   5.045   5.113
43315SOL     OW29968   9.040   5.353   5.349
43315SOL    HW129969   9.067   5.387   5.259
43315SOL    HW229970   9.119   5.315   5.395
43316SOL     OW29971   8.559   4.919   4.824
43316SOL    HW129972   8.519   4.963   4.905
43316SOL    HW229973   8.518   4.956   4.741
43317SOL     OW29974   9.086   4.823   4.803
43317SOL    HW129975   9.091   4.904   4.862
43317SOL    HW229976   9.000   4.825   4.752
43318SOL     OW29977   8.363   3.813   5.126
43318SOL    HW129978   8.388   3.793   5.031
43318SOL    HW229979   8.435   3.869   5.168
43319SOL     OW29980   8.428   4.840   5.443
43319SOL    HW129981   8.329   4.846   5.453
43319SOL    HW229982   8.451   4.760   5.387
43320SOL     OW29983   8.153   4.774   4.092
43320SOL    HW129984   8.139   4.781   4.191
43320SOL    HW229985   8.237   4.723   4.074
43321SOL     OW29986   7.858   4.537   4.975
43321SOL    HW129987   7.944   4.549   5.025
43321SOL    HW229988   7.816   4.450   5.002
43322SOL     OW29989   8.722   4.110   4.986
43322SOL    HW129990   8.743   4.184   5.050
43322SOL    HW229991   8.633   4.127   4.943
43323SOL     OW29992   7.512   5.288   5.055
43323SOL    HW129993   7.466   5.370   5.021
43323SOL    HW229994   7.610   5.307   5.064
43324SOL     OW29995   7.815   4.824   4.225
43324SOL    HW129996   7.808   4.907   4.169
43324SOL    HW229997   7.819   4.744   4.165
43325SOL     OW29998   8.014   4.261   4.589
43325SOL    HW129999   8.026   4.327   4.515
43325SOL    HW230000   8.060   4.295   4.672
43326SOL     OW30001   8.700   5.072   4.112
43326SOL    HW130002   8.750   5.149   4.152
43326SOL    HW230003   8.605   5.074   4.144
43327SOL     OW30004   8.720   5.169   4.866
43327SOL    HW130005   8.767   5.182   4.953
43327SOL    HW230006   8.654   5.095   4.875
43328SOL     OW30007   9.030   4.363   4.196
43328SOL    HW130008   8.999   4.424   4.269
43328SOL    HW230009   9.080   4.415   4.127
43329SOL     OW30010   7.802   5.234   5.053
43329SOL    HW130011   7.781   5.190   4.966
43329SOL    HW230012   7.899   5.260   5.056
43330SOL     OW30013   7.850   4.475   5.322
43330SOL    HW130014   7.918   4.530   5.275
43330SOL    HW230015   7.890   4.387   5.349
43331SOL     OW30016   9.035   4.503   5.394
43331SOL    HW130017   8.943   4.541   5.389
43331SOL    HW230018   9.095   4.550   5.329
43332SOL     OW30019   8.461   3.829   5.494
43332SOL    HW130020   8.467   3.914   5.442
43332SOL    HW230021   8.493   3.753   5.437
43333SOL     OW30022   7.952   3.774   5.464
43333SOL    HW130023   7.910   3.717   5.394
43333SOL    HW230024   7.886   3.843   5.496
43334SOL     OW30025   8.021   4.594   4.753
43334SOL    HW130026   8.065   4.683   4.744
43334SOL    HW230027   7.958   4.594   4.830
43335SOL     OW30028   8.808   4.586   4.769
43335SOL    HW130029   8.733   4.586   4.703
43335SOL    HW230030   8.845   4.494   4.778
43336SOL     OW30031   8.657   4.249   3.999
43336SOL    HW130032   8.670   4.165   4.053
43336SOL    HW230033   8.628   4.323   4.059
43337SOL     OW30034   7.755   3.937   4.955
43337SOL    HW130035   7.732   3.974   5.045
43337SOL    HW230036   7.725   3.842   4.949
43338SOL     OW30037   7.485   5.034   5.006
43338SOL    HW130038   7.538   4.985   5.074
43338SOL    HW230039   7.507   5.132   5.011
43339SOL     OW30040   8.180   4.358   4.788
43339SOL    HW130041   8.239   4.332   4.712
43339SOL    HW230042   8.152   4.454   4.777
43340SOL     OW30043   9.176   4.659   5.578
43340SOL    HW130044   9.130   4.652   5.489
43340SOL    HW230045   9.114   4.703   5.644
43341SOL     OW30046   7.755   3.787   4.342
43341SOL    HW130047   7.744   3.881   4.375
43341SOL    HW230048   7.750   3.724   4.419
43342SOL     OW30049   9.070   4.091   4.098
43342SOL    HW130050   9.072   4.015   4.162
43342SOL    HW230051   9.022   4.168   4.138
43343SOL     OW30052   8.471   4.490   4.690
43343SOL    HW130053   8.486   4.511   4.786
43343SOL    HW230054   8.441   4.395   4.681
43344SOL     OW30055   8.428   5.297   5.424
43344SOL    HW130056   8.408   5.341   5.336
43344SOL    HW230057   8.467   5.206   5.408
43345SOL     OW30058   9.307   5.242   5.329
43345SOL    HW130059   9.321   5.269   5.234
43345SOL    HW230060   9.390   5.264   5.382
43346SOL     OW30061   7.798   4.622   5.528
43346SOL    HW130062   7.874   4.666   5.576
43346SOL    HW230063   7.833   4.575   5.446
43347SOL     OW30064   8.988   3.998   3.849
43347SOL    HW130065   8.927   3.923   3.872
43347SOL    HW230066   9.010   4.050   3.932
43348SOL     OW30067   8.751   4.562   3.766
43348SOL    HW130068   8.785   4.469   3.781
43348SOL    HW230069   8.769   4.589   3.671
43349SOL     OW30070   8.516   5.057   4.573
43349SOL    HW130071   8.523   4.973   4.518
43349SOL    HW230072   8.578   5.126   4.537
43350SOL     OW30073   7.767   4.534   4.673
43350SOL    HW130074   7.860   4.570   4.678
43350SOL    HW230075   7.761   4.449   4.725
43351SOL     OW30076   7.787   4.233   4.730
43351SOL    HW130077   7.735   4.150   4.713
43351SOL    HW230078   7.864   4.238   4.666
43352SOL     OW30079   8.586   4.104   5.402
43352SOL    HW130080   8.541   4.167   5.466
43352SOL    HW230081   8.679   4.135   5.385
43353SOL     OW30082   8.608   3.931   5.201
43353SOL    HW130083   8.608   3.995   5.278
43353SOL    HW230084   8.636   3.979   5.118
43354SOL     OW30085   7.456   5.050   3.924
43354SOL    HW130086   7.363   5.071   3.893
43354SOL    HW230087   7.466   4.951   3.937
43355SOL     OW30088   7.536   5.525   4.651
43355SOL    HW130089   7.494   5.439   4.624
43355SOL    HW230090   7.630   5.528   4.617
43356SOL     OW30091   7.952   5.292   4.634
43356SOL    HW130092   8.018   5.366   4.643
43356SOL    HW230093   7.996   5.213   4.592
43357SOL     OW30094   8.450   4.520   4.962
43357SOL    HW130095   8.491   4.488   5.048
43357SOL    HW230096   8.354   4.493   4.959
43358SOL     OW30097   7.488   4.268   4.838
43358SOL    HW130098   7.573   4.235   4.797
43358SOL    HW230099   7.501   4.283   4.936
43359SOL     OW30100   7.637   4.244   5.446
43359SOL    HW130101   7.696   4.204   5.376
43359SOL    HW230102   7.579   4.315   5.405
43360SOL     OW30103   8.817   4.674   5.384
43360SOL    HW130104   8.856   4.763   5.404
43360SOL    HW230105   8.827   4.654   5.287
43361SOL     OW30106   8.263   4.296   4.049
43361SOL    HW130107   8.270   4.207   4.003
43361SOL    HW230108   8.169   4.330   4.041
43362SOL     OW30109   9.105   4.328   4.930
43362SOL    HW130110   9.067   4.259   4.992
43362SOL    HW230111   9.187   4.292   4.886
43363SOL     OW30112   7.700   5.288   5.468
43363SOL    HW130113   7.670   5.345   5.544
43363SOL    HW230114   7.693   5.191   5.494
43364SOL     OW30115   8.119   4.188   4.993
43364SOL    HW130116   8.085   4.099   4.963
43364SOL    HW230117   8.145   4.242   4.913
43365SOL     OW30118   8.378   5.402   5.189
43365SOL    HW130119   8.354   5.384   5.094
43365SOL    HW230120   8.408   5.496   5.199
43366SOL     OW30121   7.921   4.224   3.915
43366SOL    HW130122   7.982   4.304   3.919
43366SOL    HW230123   7.826   4.255   3.922
43367SOL     OW30124   7.607   4.861   5.190
43367SOL    HW130125   7.629   4.800   5.266
43367SOL    HW230126   7.617   4.812   5.104
43368SOL     OW30127   8.795   4.783   4.958
43368SOL    HW130128   8.819   4.720   4.884
43368SOL    HW230129   8.705   4.823   4.940
43369SOL     OW30130   8.750   4.579   4.033
43369SOL    HW130131   8.664   4.548   4.075
43369SOL    HW230132   8.746   4.565   3.934
43370SOL     OW30133   9.207   5.471   4.878
43370SOL    HW130134   9.268   5.501   4.805
43370SOL    HW230135   9.169   5.382   4.856
43371SOL     OW30136   8.700   5.455   4.852
43371SOL    HW130137   8.784   5.460   4.798
43371SOL    HW230138   8.677   5.359   4.870
43372SOL     OW30139   7.531   4.982   4.746
43372SOL    HW130140   7.526   4.981   4.846
43372SOL    HW230141   7.448   4.941   4.708
43373SOL     OW30142   8.136   5.386   5.440
43373SOL    HW130143   8.080   5.467   5.449
43373SOL    HW230144   8.188   5.390   5.354
43374SOL     OW30145   9.174   3.859   4.247
43374SOL    HW130146   9.247   3.842   4.180
43374SOL    HW230147   9.143   3.772   4.285
43375SOL     OW30148   8.836   5.297   4.201
43375SOL    HW130149   8.903   5.309   4.127
43375SOL    HW230150   8.796   5.386   4.224
43376SOL     OW30151   7.578   5.518   5.575
43376SOL    HW130152   7.537   5.444   5.628
43376SOL    HW230153   7.642   5.569   5.633
43377SOL     OW30154   8.728   4.651   4.396
43377SOL    HW130155   8.788   4.570   4.398
43377SOL    HW230156   8.768   4.720   4.336
43378SOL     OW30157   8.278   4.997   5.146
43378SOL    HW130158   8.273   5.030   5.241
43378SOL    HW230159   8.192   5.016   5.100
43379SOL     OW30160   8.120   5.340   3.878
43379SOL    HW130161   8.129   5.350   3.779
43379SOL    HW230162   8.080   5.251   3.899
43380SOL     OW30163   9.098   5.444   5.118
43380SOL    HW130164   9.151   5.454   5.034
43380SOL    HW230165   9.071   5.534   5.152
43381SOL     OW30166   9.289   3.899   4.687
43381SOL    HW130167   9.328   3.814   4.651
43381SOL    HW230168   9.191   3.901   4.668
43382SOL     OW30169   7.711   4.050   4.444
43382SOL    HW130170   7.632   4.101   4.410
43382SOL    HW230171   7.702   4.035   4.542
43383SOL     OW30172   8.642   5.336   3.755
43383SOL    HW130173   8.648   5.243   3.792
43383SOL    HW230174   8.583   5.336   3.675
43384SOL     OW30175   8.270   4.726   5.096
43384SOL    HW130176   8.310   4.725   5.004
43384SOL    HW230177   8.280   4.818   5.136
43385SOL     OW30178   8.364   4.634   4.015
43385SOL    HW130179   8.427   4.672   3.947
43385SOL    HW230180   8.404   4.551   4.054
43386SOL     OW30181   8.952   5.331   3.768
43386SOL    HW130182   8.860   5.368   3.775
43386SOL    HW230183   8.990   5.351   3.678
43387SOL     OW30184   7.820   5.012   5.214
43387SOL    HW130185   7.807   5.105   5.180
43387SOL    HW230186   7.736   4.960   5.201
43388SOL     OW30187   9.062   5.016   5.013
43388SOL    HW130188   9.122   5.019   5.093
43388SOL    HW230189   8.987   5.080   5.026
43389SOL     OW30190   8.487   4.822   4.420
43389SOL    HW130191   8.417   4.775   4.474
43389SOL    HW230192   8.546   4.754   4.377
43390SOL     OW30193   8.462   3.960   4.695
43390SOL    HW130194   8.454   3.924   4.602
43390SOL    HW230195   8.460   3.884   4.760
43391SOL     OW30196   8.038   5.211   4.215
43391SOL    HW130197   8.080   5.153   4.145
43391SOL    HW230198   7.994   5.290   4.171
43392SOL     OW30199   9.157   4.109   5.105
43392SOL    HW130200   9.230   4.178   5.109
43392SOL    HW230201   9.185   4.034   5.046
43393SOL     OW30202   7.703   5.072   4.014
43393SOL    HW130203   7.607   5.073   3.987
43393SOL    HW230204   7.715   5.125   4.098
43394SOL     OW30205   7.553   4.737   5.450
43394SOL    HW130206   7.476   4.704   5.504
43394SOL    HW230207   7.638   4.707   5.492
43395SOL     OW30208   8.120   3.927   5.213
43395SOL    HW130209   8.210   3.911   5.173
43395SOL    HW230210   8.128   3.932   5.312
43396SOL     OW30211   7.523   4.069   3.757
43396SOL    HW130212   7.431   4.041   3.728
43396SOL    HW230213   7.554   4.146   3.701
43397SOL     OW30214   8.888   4.580   5.122
43397SOL    HW130215   8.831   4.632   5.059
43397SOL    HW230216   8.984   4.592   5.098
43398SOL     OW30217   7.520   3.890   4.042
43398SOL    HW130218   7.503   3.973   3.988
43398SOL    HW230219   7.610   3.853   4.020
43399SOL     OW30220   8.631   5.059   3.843
43399SOL    HW130221   8.532   5.048   3.845
43399SOL    HW230222   8.665   5.074   3.936
43400SOL     OW30223   8.061   4.566   5.155
43400SOL    HW130224   8.117   4.647   5.138
43400SOL    HW230225   8.120   4.486   5.158
43401SOL     OW30226   8.941   5.491   4.683
43401SOL    HW130227   8.974   5.555   4.614
43401SOL    HW230228   9.007   5.485   4.758
43402SOL     OW30229   8.164   4.289   5.432
43402SOL    HW130230   8.183   4.354   5.506
43402SOL    HW230231   8.224   4.209   5.441
43403SOL     OW30232   8.898   4.944   5.357
43403SOL    HW130233   8.889   4.934   5.456
43403SOL    HW230234   8.994   4.937   5.331
43404SOL     OW30235   7.838   5.465   5.284
43404SOL    HW130236   7.747   5.506   5.282
43404SOL    HW230237   7.831   5.371   5.316
43405SOL     OW30238   9.122   4.607   4.978
43405SOL    HW130239   9.095   4.518   4.941
43405SOL    HW230240   9.123   4.675   4.905
43406SOL     OW30241   8.673   4.049   4.173
43406SOL    HW130242   8.738   3.975   4.162
43406SOL    HW230243   8.693   4.099   4.257
43407SOL     OW30244   8.042   4.469   4.376
43407SOL    HW130245   8.092   4.554   4.357
43407SOL    HW230246   7.954   4.471   4.328
43408SOL     OW30247   9.225   4.066   5.366
43408SOL    HW130248   9.208   4.097   5.272
43408SOL    HW230249   9.141   4.029   5.404
43409SOL     OW30250   9.178   4.658   5.241
43409SOL    HW130251   9.216   4.749   5.256
43409SOL    HW230252   9.170   4.641   5.142
43410SOL     OW30253   8.307   5.098   3.740
43410SOL    HW130254   8.261   5.113   3.828
43410SOL    HW230255   8.351   5.183   3.710
43411SOL     OW30256   8.109   5.514   4.677
43411SOL    HW130257   8.063   5.602   4.664
43411SOL    HW230258   8.208   5.526   4.670
43412SOL     OW30259   8.307   4.680   4.585
43412SOL    HW130260   8.361   4.611   4.633
43412SOL    HW230261   8.275   4.749   4.651
43413SOL     OW30262   8.531   4.708   3.811
43413SOL    HW130263   8.508   4.761   3.729
43413SOL    HW230264   8.612   4.652   3.792
43414SOL     OW30265   9.309   5.293   4.575
43414SOL    HW130266   9.238   5.281   4.505
43414SOL    HW230267   9.310   5.214   4.635
43415SOL     OW30268   7.669   5.038   5.568
43415SOL    HW130269   7.604   4.965   5.547
43415SOL    HW230270   7.673   5.052   5.666
43416SOL     OW30271   7.527   4.964   4.377
43416SOL    HW130272   7.526   4.917   4.465
43416SOL    HW230273   7.609   4.936   4.326
43417SOL     OW30274   8.120   5.115   5.348
43417SOL    HW130275   8.042   5.065   5.386
43417SOL    HW230276   8.117   5.210   5.379
43418SOL     OW30277   9.272   3.916   4.951
43418SOL    HW130278   9.268   3.826   4.995
43418SOL    HW230279   9.275   3.905   4.852
43419SOL     OW30280   7.876   4.148   4.244
43419SOL    HW130281   7.906   4.076   4.182
43419SOL    HW230282   7.837   4.108   4.327
43420SOL     OW30283   9.153   5.211   4.828
43420SOL    HW130284   9.060   5.186   4.801
43420SOL    HW230285   9.179   5.161   4.910
43421SOL     OW30286   7.765   4.271   5.004
43421SOL    HW130287   7.803   4.212   5.076
43421SOL    HW230288   7.805   4.245   4.916
43422SOL     OW30289   8.260   5.310   4.411
43422SOL    HW130290   8.292   5.320   4.317
43422SOL    HW230291   8.181   5.248   4.413
43423SOL     OW30292   8.872   3.938   4.836
43423SOL    HW130293   8.924   3.873   4.891
43423SOL    HW230294   8.823   4.001   4.897
43424SOL     OW30295   8.449   3.758   4.878
43424SOL    HW130296   8.386   3.686   4.847
43424SOL    HW230297   8.542   3.722   4.878
43425SOL     OW30298   8.218   5.054   4.025
43425SOL    HW130299   8.172   4.967   4.042
43425SOL    HW230300   8.309   5.051   4.066
43426SOL     OW30301   8.066   5.291   5.008
43426SOL    HW130302   8.061   5.373   5.065
43426SOL    HW230303   8.155   5.288   4.963
43427SOL     OW30304   8.800   3.776   3.892
43427SOL    HW130305   8.835   3.735   3.808
43427SOL    HW230306   8.710   3.738   3.912
43428SOL     OW30307   8.748   4.177   4.415
43428SOL    HW130308   8.689   4.257   4.419
43428SOL    HW230309   8.763   4.142   4.508
43429SOL     OW30310   9.041   3.945   4.606
43429SOL    HW130311   8.957   3.944   4.660
43429SOL    HW230312   9.043   4.028   4.550
43430SOL     OW30313   7.487   4.801   4.024
43430SOL    HW130314   7.586   4.790   4.015
43430SOL    HW230315   7.447   4.715   4.056
43431SOL     OW30316   8.323   5.370   4.061
43431SOL    HW130317   8.246   5.335   4.007
43431SOL    HW230318   8.291   5.441   4.123
43432SOL     OW30319   7.678   4.352   5.699
43432SOL    HW130320   7.585   4.350   5.736
43432SOL    HW230321   7.679   4.313   5.607
43433SOL     OW30322   7.673   3.999   6.582
43433SOL    HW130323   7.708   3.982   6.674
43433SOL    HW230324   7.585   3.954   6.570
43434SOL     OW30325   7.467   4.092   6.233
43434SOL    HW130326   7.385   4.135   6.272
43434SOL    HW230327   7.439   4.019   6.170
43435SOL     OW30328   8.017   4.999   6.751
43435SOL    HW130329   7.924   4.992   6.714
43435SOL    HW230330   8.028   5.088   6.795
43436SOL     OW30331   9.003   5.235   6.289
43436SOL    HW130332   8.946   5.219   6.370
43436SOL    HW230333   8.944   5.245   6.209
43437SOL     OW30334   8.583   4.427   6.303
43437SOL    HW130335   8.640   4.505   6.278
43437SOL    HW230336   8.523   4.453   6.379
43438SOL     OW30337   9.203   4.331   5.817
43438SOL    HW130338   9.191   4.318   5.718
43438SOL    HW230339   9.173   4.250   5.866
43439SOL     OW30340   8.216   4.868   6.609
43439SOL    HW130341   8.138   4.885   6.669
43439SOL    HW230342   8.250   4.955   6.573
43440SOL     OW30343   8.298   4.522   7.409
43440SOL    HW130344   8.294   4.598   7.474
43440SOL    HW230345   8.320   4.558   7.318
43441SOL     OW30346   8.133   4.736   6.251
43441SOL    HW130347   8.202   4.720   6.321
43441SOL    HW230348   8.060   4.793   6.289
43442SOL     OW30349   8.134   4.885   7.389
43442SOL    HW130350   8.194   4.964   7.403
43442SOL    HW230351   8.048   4.916   7.348
43443SOL     OW30352   7.783   5.159   6.647
43443SOL    HW130353   7.705   5.128   6.594
43443SOL    HW230354   7.841   5.217   6.590
43444SOL     OW30355   8.908   5.229   6.925
43444SOL    HW130356   8.932   5.323   6.951
43444SOL    HW230357   8.892   5.175   7.007
43445SOL     OW30358   7.886   4.116   7.085
43445SOL    HW130359   7.968   4.060   7.094
43445SOL    HW230360   7.805   4.058   7.089
43446SOL     OW30361   9.051   4.171   6.323
43446SOL    HW130362   8.977   4.217   6.273
43446SOL    HW230363   9.102   4.239   6.376
43447SOL     OW30364   7.679   5.437   6.069
43447SOL    HW130365   7.713   5.514   6.123
43447SOL    HW230366   7.723   5.437   5.979
43448SOL     OW30367   8.575   5.065   7.276
43448SOL    HW130368   8.622   5.065   7.364
43448SOL    HW230369   8.527   4.978   7.265
43449SOL     OW30370   7.678   5.158   6.124
43449SOL    HW130371   7.652   5.254   6.124
43449SOL    HW230372   7.607   5.104   6.169
43450SOL     OW30373   7.688   4.815   6.472
43450SOL    HW130374   7.702   4.731   6.524
43450SOL    HW230375   7.633   4.879   6.527
43451SOL     OW30376   8.068   5.510   7.025
43451SOL    HW130377   7.976   5.493   7.060
43451SOL    HW230378   8.096   5.602   7.051
43452SOL     OW30379   8.054   4.688   5.709
43452SOL    HW130380   8.061   4.772   5.655
43452SOL    HW230381   8.100   4.701   5.797
43453SOL     OW30382   9.042   3.838   7.066
43453SOL    HW130383   9.024   3.905   6.994
43453SOL    HW230384   9.039   3.884   7.155
43454SOL     OW30385   7.570   4.367   6.149
43454SOL    HW130386   7.525   4.279   6.166
43454SOL    HW230387   7.569   4.421   6.233
43455SOL     OW30388   9.290   5.491   5.945
43455SOL    HW130389   9.344   5.462   6.025
43455SOL    HW230390   9.320   5.581   5.916
43456SOL     OW30391   7.475   5.320   5.703
43456SOL    HW130392   7.456   5.224   5.724
43456SOL    HW230393   7.442   5.378   5.778
43457SOL     OW30394   9.137   4.646   6.198
43457SOL    HW130395   9.232   4.617   6.206
43457SOL    HW230396   9.129   4.711   6.123
43458SOL     OW30397   9.089   4.832   6.018
43458SOL    HW130398   9.175   4.834   5.966
43458SOL    HW230399   9.103   4.879   6.106
43459SOL     OW30400   7.561   4.461   7.183
43459SOL    HW130401   7.649   4.448   7.228
43459SOL    HW230402   7.548   4.558   7.161
43460SOL     OW30403   8.061   5.089   6.312
43460SOL    HW130404   8.012   5.002   6.321
43460SOL    HW230405   8.038   5.132   6.225
43461SOL     OW30406   8.741   4.952   7.009
43461SOL    HW130407   8.778   4.879   6.951
43461SOL    HW230408   8.793   4.957   7.094
43462SOL     OW30409   8.257   3.728   6.088
43462SOL    HW130410   8.297   3.819   6.079
43462SOL    HW230411   8.157   3.736   6.094
43463SOL     OW30412   7.645   4.700   6.850
43463SOL    HW130413   7.734   4.655   6.836
43463SOL    HW230414   7.572   4.635   6.831
43464SOL     OW30415   8.973   4.723   5.776
43464SOL    HW130416   8.910   4.647   5.789
43464SOL    HW230417   9.021   4.741   5.862
43465SOL     OW30418   8.635   5.516   7.202
43465SOL    HW130419   8.659   5.576   7.126
43465SOL    HW230420   8.642   5.421   7.172
43466SOL     OW30421   7.765   3.975   7.387
43466SOL    HW130422   7.836   4.046   7.393
43466SOL    HW230423   7.677   4.014   7.415
43467SOL     OW30424   8.914   5.141   6.539
43467SOL    HW130425   8.855   5.147   6.619
43467SOL    HW230426   8.899   5.053   6.493
43468SOL     OW30427   9.115   5.438   6.158
43468SOL    HW130428   9.074   5.415   6.070
43468SOL    HW230429   9.097   5.364   6.223
43469SOL     OW30430   8.046   4.453   5.856
43469SOL    HW130431   8.070   4.522   5.788
43469SOL    HW230432   7.968   4.486   5.910
43470SOL     OW30433   8.729   4.069   6.530
43470SOL    HW130434   8.643   4.019   6.517
43470SOL    HW230435   8.791   4.015   6.586
43471SOL     OW30436   9.024   5.386   5.893
43471SOL    HW130437   9.113   5.432   5.896
43471SOL    HW230438   9.003   5.362   5.798
43472SOL     OW30439   8.255   4.329   7.051
43472SOL    HW130440   8.208   4.326   7.140
43472SOL    HW230441   8.204   4.274   6.985
43473SOL     OW30442   8.842   4.193   7.260
43473SOL    HW130443   8.822   4.236   7.348
43473SOL    HW230444   8.920   4.131   7.269
43474SOL     OW30445   8.421   4.614   7.158
43474SOL    HW130446   8.467   4.530   7.129
43474SOL    HW230447   8.365   4.648   7.083
43475SOL     OW30448   8.439   4.134   6.828
43475SOL    HW130449   8.362   4.168   6.882
43475SOL    HW230450   8.405   4.083   6.749
43476SOL     OW30451   8.489   4.425   6.015
43476SOL    HW130452   8.515   4.421   6.111
43476SOL    HW230453   8.404   4.374   6.001
43477SOL     OW30454   7.524   4.535   6.375
43477SOL    HW130455   7.623   4.523   6.384
43477SOL    HW230456   7.500   4.630   6.396
43478SOL     OW30457   7.578   5.545   7.157
43478SOL    HW130458   7.568   5.530   7.256
43478SOL    HW230459   7.492   5.581   7.121
43479SOL     OW30460   8.313   4.072   5.781
43479SOL    HW130461   8.372   4.135   5.732
43479SOL    HW230462   8.332   3.978   5.752
43480SOL     OW30463   9.167   4.309   7.417
43480SOL    HW130464   9.141   4.398   7.381
43480SOL    HW230465   9.165   4.241   7.344
43481SOL     OW30466   8.810   4.868   6.131
43481SOL    HW130467   8.893   4.839   6.083
43481SOL    HW230468   8.761   4.935   6.075
43482SOL     OW30469   7.998   3.920   6.471
43482SOL    HW130470   7.993   3.915   6.571
43482SOL    HW230471   8.000   4.016   6.442
43483SOL     OW30472   8.456   5.180   6.063
43483SOL    HW130473   8.410   5.252   6.011
43483SOL    HW230474   8.452   5.200   6.161
43484SOL     OW30475   7.799   5.525   6.439
43484SOL    HW130476   7.849   5.439   6.445
43484SOL    HW230477   7.864   5.602   6.436
43485SOL     OW30478   9.243   4.790   6.459
43485SOL    HW130479   9.181   4.775   6.383
43485SOL    HW230480   9.191   4.801   6.544
43486SOL     OW30481   8.675   5.274   7.092
43486SOL    HW130482   8.681   5.197   7.156
43486SOL    HW230483   8.623   5.248   7.012
43487SOL     OW30484   7.769   4.667   5.828
43487SOL    HW130485   7.851   4.706   5.786
43487SOL    HW230486   7.742   4.585   5.779
43488SOL     OW30487   8.906   4.459   6.314
43488SOL    HW130488   8.901   4.394   6.389
43488SOL    HW230489   8.986   4.518   6.327
43489SOL     OW30490   7.909   4.990   7.313
43489SOL    HW130491   7.859   4.991   7.227
43489SOL    HW230492   7.846   4.972   7.389
43490SOL     OW30493   8.559   5.500   5.823
43490SOL    HW130494   8.499   5.438   5.873
43490SOL    HW230495   8.590   5.456   5.738
43491SOL     OW30496   7.650   4.009   7.084
43491SOL    HW130497   7.570   4.069   7.071
43491SOL    HW230498   7.640   3.960   7.170
43492SOL     OW30499   9.080   5.101   5.667
43492SOL    HW130500   9.048   5.195   5.657
43492SOL    HW230501   9.004   5.038   5.655
43493SOL     OW30502   7.912   5.467   5.909
43493SOL    HW130503   7.945   5.506   5.995
43493SOL    HW230504   7.988   5.460   5.844
43494SOL     OW30505   8.848   3.831   6.012
43494SOL    HW130506   8.824   3.794   5.922
43494SOL    HW230507   8.947   3.847   6.016
43495SOL     OW30508   7.697   5.509   6.827
43495SOL    HW130509   7.754   5.444   6.877
43495SOL    HW230510   7.681   5.476   6.734
43496SOL     OW30511   8.388   5.422   6.490
43496SOL    HW130512   8.468   5.365   6.511
43496SOL    HW230513   8.339   5.382   6.413
43497SOL     OW30514   7.830   4.424   6.066
43497SOL    HW130515   7.875   4.334   6.063
43497SOL    HW230516   7.736   4.413   6.099
43498SOL     OW30517   8.995   3.946   7.315
43498SOL    HW130518   8.990   3.983   7.407
43498SOL    HW230519   8.923   3.877   7.303
43499SOL     OW30520   8.062   3.846   5.703
43499SOL    HW130521   8.160   3.824   5.710
43499SOL    HW230522   8.031   3.829   5.610
43500SOL     OW30523   8.229   3.988   7.335
43500SOL    HW130524   8.296   3.927   7.378
43500SOL    HW230525   8.156   4.007   7.400
43501SOL     OW30526   8.336   5.238   6.781
43501SOL    HW130527   8.313   5.213   6.687
43501SOL    HW230528   8.397   5.169   6.820
43502SOL     OW30529   8.799   4.314   7.019
43502SOL    HW130530   8.827   4.271   7.104
43502SOL    HW230531   8.824   4.410   7.020
43503SOL     OW30532   8.251   5.126   6.510
43503SOL    HW130533   8.341   5.140   6.468
43503SOL    HW230534   8.180   5.128   6.439
43504SOL     OW30535   8.370   4.227   6.485
43504SOL    HW130536   8.345   4.218   6.389
43504SOL    HW230537   8.418   4.145   6.516
43505SOL     OW30538   7.987   3.788   6.098
43505SOL    HW130539   7.906   3.789   6.156
43505SOL    HW230540   7.990   3.871   6.043
43506SOL     OW30541   8.882   4.912   5.627
43506SOL    HW130542   8.914   4.836   5.684
43506SOL    HW230543   8.790   4.939   5.657
43507SOL     OW30544   7.745   3.759   5.757
43507SOL    HW130545   7.794   3.843   5.736
43507SOL    HW230546   7.807   3.694   5.802
43508SOL     OW30547   8.383   3.960   6.066
43508SOL    HW130548   8.335   4.001   5.988
43508SOL    HW230549   8.482   3.958   6.047
43509SOL     OW30550   8.524   4.407   7.050
43509SOL    HW130551   8.444   4.346   7.053
43509SOL    HW230552   8.605   4.354   7.026
43510SOL     OW30553   8.675   5.294   6.379
43510SOL    HW130554   8.696   5.368   6.314
43510SOL    HW230555   8.743   5.294   6.452
43511SOL     OW30556   7.907   4.876   6.327
43511SOL    HW130557   7.836   4.849   6.392
43511SOL    HW230558   7.881   4.848   6.234
43512SOL     OW30559   8.719   5.521   6.177
43512SOL    HW130560   8.763   5.585   6.113
43512SOL    HW230561   8.669   5.573   6.247
43513SOL     OW30562   8.480   4.273   5.602
43513SOL    HW130563   8.439   4.355   5.563
43513SOL    HW230564   8.544   4.299   5.675
43514SOL     OW30565   7.526   4.280   6.972
43514SOL    HW130566   7.618   4.279   6.931
43514SOL    HW230567   7.520   4.354   7.039
43515SOL     OW30568   8.009   3.946   6.733
43515SOL    HW130569   8.047   3.862   6.770
43515SOL    HW230570   7.921   3.965   6.777
43516SOL     OW30571   8.314   4.178   6.228
43516SOL    HW130572   8.282   4.250   6.166
43516SOL    HW230573   8.338   4.097   6.175
43517SOL     OW30574   8.465   3.763   6.339
43517SOL    HW130575   8.393   3.768   6.270
43517SOL    HW230576   8.441   3.694   6.408
43518SOL     OW30577   8.877   4.897   6.453
43518SOL    HW130578   8.822   4.813   6.446
43518SOL    HW230579   8.903   4.926   6.361
43519SOL     OW30580   8.914   4.314   6.578
43519SOL    HW130581   8.884   4.219   6.585
43519SOL    HW230582   8.987   4.330   6.644
43520SOL     OW30583   9.305   4.557   5.963
43520SOL    HW130584   9.347   4.493   6.027
43520SOL    HW230585   9.267   4.506   5.885
43521SOL     OW30586   7.936   5.109   5.760
43521SOL    HW130587   7.849   5.094   5.807
43521SOL    HW230588   7.919   5.135   5.665
43522SOL     OW30589   9.112   5.004   6.243
43522SOL    HW130590   9.211   5.012   6.257
43522SOL    HW230591   9.067   5.088   6.274
43523SOL     OW30592   8.838   4.299   5.664
43523SOL    HW130593   8.784   4.278   5.745
43523SOL    HW230594   8.929   4.258   5.673
43524SOL     OW30595   7.975   3.980   5.914
43524SOL    HW130596   8.002   3.921   5.839
43524SOL    HW230597   7.975   4.075   5.883
43525SOL     OW30598   9.202   4.947   7.174
43525SOL    HW130599   9.293   4.908   7.161
43525SOL    HW230600   9.210   5.043   7.198
43526SOL     OW30601   8.512   5.071   6.926
43526SOL    HW130602   8.432   5.048   6.981
43526SOL    HW230603   8.595   5.045   6.975
43527SOL     OW30604   9.040   5.353   7.211
43527SOL    HW130605   9.067   5.387   7.121
43527SOL    HW230606   9.119   5.315   7.257
43528SOL     OW30607   8.559   4.919   6.686
43528SOL    HW130608   8.519   4.963   6.767
43528SOL    HW230609   8.518   4.956   6.603
43529SOL     OW30610   9.086   4.823   6.665
43529SOL    HW130611   9.091   4.904   6.724
43529SOL    HW230612   9.000   4.825   6.614
43530SOL     OW30613   8.363   3.813   6.988
43530SOL    HW130614   8.388   3.793   6.893
43530SOL    HW230615   8.435   3.869   7.030
43531SOL     OW30616   8.428   4.840   7.305
43531SOL    HW130617   8.329   4.846   7.315
43531SOL    HW230618   8.451   4.760   7.249
43532SOL     OW30619   8.153   4.774   5.954
43532SOL    HW130620   8.139   4.781   6.053
43532SOL    HW230621   8.237   4.723   5.936
43533SOL     OW30622   7.858   4.537   6.837
43533SOL    HW130623   7.944   4.549   6.887
43533SOL    HW230624   7.816   4.450   6.864
43534SOL     OW30625   8.722   4.110   6.848
43534SOL    HW130626   8.743   4.184   6.912
43534SOL    HW230627   8.633   4.127   6.805
43535SOL     OW30628   7.512   5.288   6.917
43535SOL    HW130629   7.466   5.370   6.883
43535SOL    HW230630   7.610   5.307   6.926
43536SOL     OW30631   7.815   4.824   6.087
43536SOL    HW130632   7.808   4.907   6.031
43536SOL    HW230633   7.819   4.744   6.027
43537SOL     OW30634   8.014   4.261   6.451
43537SOL    HW130635   8.026   4.327   6.377
43537SOL    HW230636   8.060   4.295   6.534
43538SOL     OW30637   8.700   5.072   5.974
43538SOL    HW130638   8.750   5.149   6.014
43538SOL    HW230639   8.605   5.074   6.006
43539SOL     OW30640   8.720   5.169   6.728
43539SOL    HW130641   8.767   5.182   6.815
43539SOL    HW230642   8.654   5.095   6.737
43540SOL     OW30643   9.030   4.363   6.058
43540SOL    HW130644   8.999   4.424   6.131
43540SOL    HW230645   9.080   4.415   5.989
43541SOL     OW30646   7.802   5.234   6.915
43541SOL    HW130647   7.781   5.190   6.828
43541SOL    HW230648   7.899   5.260   6.918
43542SOL     OW30649   7.850   4.475   7.184
43542SOL    HW130650   7.918   4.530   7.137
43542SOL    HW230651   7.890   4.387   7.211
43543SOL     OW30652   9.035   4.503   7.256
43543SOL    HW130653   8.943   4.541   7.251
43543SOL    HW230654   9.095   4.550   7.191
43544SOL     OW30655   8.461   3.829   7.356
43544SOL    HW130656   8.467   3.914   7.304
43544SOL    HW230657   8.493   3.753   7.299
43545SOL     OW30658   7.952   3.774   7.326
43545SOL    HW130659   7.910   3.717   7.256
43545SOL    HW230660   7.886   3.843   7.358
43546SOL     OW30661   8.021   4.594   6.615
43546SOL    HW130662   8.065   4.683   6.606
43546SOL    HW230663   7.958   4.594   6.692
43547SOL     OW30664   8.808   4.586   6.631
43547SOL    HW130665   8.733   4.586   6.565
43547SOL    HW230666   8.845   4.494   6.640
43548SOL     OW30667   8.657   4.249   5.861
43548SOL    HW130668   8.670   4.165   5.915
43548SOL    HW230669   8.628   4.323   5.921
43549SOL     OW30670   7.755   3.937   6.817
43549SOL    HW130671   7.732   3.974   6.907
43549SOL    HW230672   7.725   3.842   6.811
43550SOL     OW30673   7.485   5.034   6.868
43550SOL    HW130674   7.538   4.985   6.936
43550SOL    HW230675   7.507   5.132   6.873
43551SOL     OW30676   8.180   4.358   6.650
43551SOL    HW130677   8.239   4.332   6.574
43551SOL    HW230678   8.152   4.454   6.639
43552SOL     OW30679   9.176   4.659   7.440
43552SOL    HW130680   9.130   4.652   7.351
43552SOL    HW230681   9.114   4.703   7.506
43553SOL     OW30682   7.755   3.787   6.204
43553SOL    HW130683   7.744   3.881   6.237
43553SOL    HW230684   7.750   3.724   6.281
43554SOL     OW30685   9.070   4.091   5.960
43554SOL    HW130686   9.072   4.015   6.024
43554SOL    HW230687   9.022   4.168   6.000
43555SOL     OW30688   8.471   4.490   6.552
43555SOL    HW130689   8.486   4.511   6.648
43555SOL    HW230690   8.441   4.395   6.543
43556SOL     OW30691   8.428   5.297   7.286
43556SOL    HW130692   8.408   5.341   7.198
43556SOL    HW230693   8.467   5.206   7.270
43557SOL     OW30694   9.307   5.242   7.191
43557SOL    HW130695   9.321   5.269   7.096
43557SOL    HW230696   9.390   5.264   7.244
43558SOL     OW30697   7.798   4.622   7.390
43558SOL    HW130698   7.874   4.666   7.438
43558SOL    HW230699   7.833   4.575   7.308
43559SOL     OW30700   8.988   3.998   5.711
43559SOL    HW130701   8.927   3.923   5.734
43559SOL    HW230702   9.010   4.050   5.794
43560SOL     OW30703   8.751   4.562   5.628
43560SOL    HW130704   8.785   4.469   5.643
43560SOL    HW230705   8.769   4.589   5.533
43561SOL     OW30706   8.516   5.057   6.435
43561SOL    HW130707   8.523   4.973   6.380
43561SOL    HW230708   8.578   5.126   6.399
43562SOL     OW30709   7.767   4.534   6.535
43562SOL    HW130710   7.860   4.570   6.540
43562SOL    HW230711   7.761   4.449   6.587
43563SOL     OW30712   7.787   4.233   6.592
43563SOL    HW130713   7.735   4.150   6.575
43563SOL    HW230714   7.864   4.238   6.528
43564SOL     OW30715   8.586   4.104   7.264
43564SOL    HW130716   8.541   4.167   7.328
43564SOL    HW230717   8.679   4.135   7.247
43565SOL     OW30718   8.608   3.931   7.063
43565SOL    HW130719   8.608   3.995   7.140
43565SOL    HW230720   8.636   3.979   6.980
43566SOL     OW30721   7.456   5.050   5.786
43566SOL    HW130722   7.363   5.071   5.755
43566SOL    HW230723   7.466   4.951   5.799
43567SOL     OW30724   7.536   5.525   6.513
43567SOL    HW130725   7.494   5.439   6.486
43567SOL    HW230726   7.630   5.528   6.479
43568SOL     OW30727   8.450   4.520   6.824
43568SOL    HW130728   8.491   4.488   6.910
43568SOL    HW230729   8.354   4.493   6.821
43569SOL     OW30730   7.488   4.268   6.700
43569SOL    HW130731   7.573   4.235   6.659
43569SOL    HW230732   7.501   4.283   6.798
43570SOL     OW30733   7.637   4.244   7.308
43570SOL    HW130734   7.696   4.204   7.238
43570SOL    HW230735   7.579   4.315   7.267
43571SOL     OW30736   8.817   4.674   7.246
43571SOL    HW130737   8.856   4.763   7.266
43571SOL    HW230738   8.827   4.654   7.149
43572SOL     OW30739   8.263   4.296   5.911
43572SOL    HW130740   8.270   4.207   5.865
43572SOL    HW230741   8.169   4.330   5.903
43573SOL     OW30742   9.105   4.328   6.792
43573SOL    HW130743   9.067   4.259   6.854
43573SOL    HW230744   9.187   4.292   6.748
43574SOL     OW30745   7.700   5.288   7.330
43574SOL    HW130746   7.670   5.345   7.406
43574SOL    HW230747   7.693   5.191   7.356
43575SOL     OW30748   8.119   4.188   6.855
43575SOL    HW130749   8.085   4.099   6.825
43575SOL    HW230750   8.145   4.242   6.775
43576SOL     OW30751   8.378   5.402   7.051
43576SOL    HW130752   8.354   5.384   6.956
43576SOL    HW230753   8.408   5.496   7.061
43577SOL     OW30754   7.921   4.224   5.777
43577SOL    HW130755   7.982   4.304   5.781
43577SOL    HW230756   7.826   4.255   5.784
43578SOL     OW30757   7.607   4.861   7.052
43578SOL    HW130758   7.629   4.800   7.128
43578SOL    HW230759   7.617   4.812   6.966
43579SOL     OW30760   8.795   4.783   6.820
43579SOL    HW130761   8.819   4.720   6.746
43579SOL    HW230762   8.705   4.823   6.802
43580SOL     OW30763   8.750   4.579   5.895
43580SOL    HW130764   8.664   4.548   5.937
43580SOL    HW230765   8.746   4.565   5.796
43581SOL     OW30766   9.207   5.471   6.740
43581SOL    HW130767   9.268   5.501   6.667
43581SOL    HW230768   9.169   5.382   6.718
43582SOL     OW30769   8.700   5.455   6.714
43582SOL    HW130770   8.784   5.460   6.660
43582SOL    HW230771   8.677   5.359   6.732
43583SOL     OW30772   7.531   4.982   6.608
43583SOL    HW130773   7.526   4.981   6.708
43583SOL    HW230774   7.448   4.941   6.570
43584SOL     OW30775   8.136   5.386   7.302
43584SOL    HW130776   8.080   5.467   7.311
43584SOL    HW230777   8.188   5.390   7.216
43585SOL     OW30778   9.174   3.859   6.109
43585SOL    HW130779   9.247   3.842   6.042
43585SOL    HW230780   9.143   3.772   6.147
43586SOL     OW30781   8.836   5.297   6.063
43586SOL    HW130782   8.903   5.309   5.989
43586SOL    HW230783   8.796   5.386   6.086
43587SOL     OW30784   7.578   5.518   7.437
43587SOL    HW130785   7.537   5.444   7.490
43587SOL    HW230786   7.642   5.569   7.495
43588SOL     OW30787   8.728   4.651   6.258
43588SOL    HW130788   8.788   4.570   6.260
43588SOL    HW230789   8.768   4.720   6.198
43589SOL     OW30790   8.278   4.997   7.008
43589SOL    HW130791   8.273   5.030   7.103
43589SOL    HW230792   8.192   5.016   6.962
43590SOL     OW30793   8.120   5.340   5.740
43590SOL    HW130794   8.129   5.350   5.641
43590SOL    HW230795   8.080   5.251   5.761
43591SOL     OW30796   9.098   5.444   6.980
43591SOL    HW130797   9.151   5.454   6.896
43591SOL    HW230798   9.071   5.534   7.014
43592SOL     OW30799   9.289   3.899   6.549
43592SOL    HW130800   9.328   3.814   6.513
43592SOL    HW230801   9.191   3.901   6.530
43593SOL     OW30802   7.711   4.050   6.306
43593SOL    HW130803   7.632   4.101   6.272
43593SOL    HW230804   7.702   4.035   6.404
43594SOL     OW30805   8.642   5.336   5.617
43594SOL    HW130806   8.648   5.243   5.654
43594SOL    HW230807   8.583   5.336   5.537
43595SOL     OW30808   8.270   4.726   6.958
43595SOL    HW130809   8.310   4.725   6.866
43595SOL    HW230810   8.280   4.818   6.998
43596SOL     OW30811   8.364   4.634   5.877
43596SOL    HW130812   8.427   4.672   5.809
43596SOL    HW230813   8.404   4.551   5.916
43597SOL     OW30814   8.952   5.331   5.630
43597SOL    HW130815   8.860   5.368   5.637
43597SOL    HW230816   8.990   5.351   5.540
43598SOL     OW30817   7.820   5.012   7.076
43598SOL    HW130818   7.807   5.105   7.042
43598SOL    HW230819   7.736   4.960   7.063
43599SOL     OW30820   9.062   5.016   6.875
43599SOL    HW130821   9.122   5.019   6.955
43599SOL    HW230822   8.987   5.080   6.888
43600SOL     OW30823   8.487   4.822   6.282
43600SOL    HW130824   8.417   4.775   6.336
43600SOL    HW230825   8.546   4.754   6.239
43601SOL     OW30826   8.462   3.960   6.557
43601SOL    HW130827   8.454   3.924   6.464
43601SOL    HW230828   8.460   3.884   6.622
43602SOL     OW30829   8.038   5.211   6.077
43602SOL    HW130830   8.080   5.153   6.007
43602SOL    HW230831   7.994   5.290   6.033
43603SOL     OW30832   9.157   4.109   6.967
43603SOL    HW130833   9.230   4.178   6.971
43603SOL    HW230834   9.185   4.034   6.908
43604SOL     OW30835   7.703   5.072   5.876
43604SOL    HW130836   7.607   5.073   5.849
43604SOL    HW230837   7.715   5.125   5.960
43605SOL     OW30838   7.553   4.737   7.312
43605SOL    HW130839   7.476   4.704   7.366
43605SOL    HW230840   7.638   4.707   7.354
43606SOL     OW30841   8.120   3.927   7.075
43606SOL    HW130842   8.210   3.911   7.035
43606SOL    HW230843   8.128   3.932   7.174
43607SOL     OW30844   7.523   4.069   5.619
43607SOL    HW130845   7.431   4.041   5.590
43607SOL    HW230846   7.554   4.146   5.563
43608SOL     OW30847   8.888   4.580   6.984
43608SOL    HW130848   8.831   4.632   6.921
43608SOL    HW230849   8.984   4.592   6.960
43609SOL     OW30850   7.520   3.890   5.904
43609SOL    HW130851   7.503   3.973   5.850
43609SOL    HW230852   7.610   3.853   5.882
43610SOL     OW30853   8.631   5.059   5.705
43610SOL    HW130854   8.532   5.048   5.707
43610SOL    HW230855   8.665   5.074   5.798
43611SOL     OW30856   8.061   4.566   7.017
43611SOL    HW130857   8.117   4.647   7.000
43611SOL    HW230858   8.120   4.486   7.020
43612SOL     OW30859   8.941   5.491   6.545
43612SOL    HW130860   8.974   5.555   6.476
43612SOL    HW230861   9.007   5.485   6.620
43613SOL     OW30862   8.164   4.289   7.294
43613SOL    HW130863   8.183   4.354   7.368
43613SOL    HW230864   8.224   4.209   7.303
43614SOL     OW30865   8.898   4.944   7.219
43614SOL    HW130866   8.889   4.934   7.318
43614SOL    HW230867   8.994   4.937   7.193
43615SOL     OW30868   7.838   5.465   7.146
43615SOL    HW130869   7.747   5.506   7.144
43615SOL    HW230870   7.831   5.371   7.178
43616SOL     OW30871   9.122   4.607   6.840
43616SOL    HW130872   9.095   4.518   6.803
43616SOL    HW230873   9.123   4.675   6.767
43617SOL     OW30874   8.673   4.049   6.035
43617SOL    HW130875   8.738   3.975   6.024
43617SOL    HW230876   8.693   4.099   6.119
43618SOL     OW30877   8.042   4.469   6.238
43618SOL    HW130878   8.092   4.554   6.219
43618SOL    HW230879   7.954   4.471   6.190
43619SOL     OW30880   9.225   4.066   7.228
43619SOL    HW130881   9.208   4.097   7.134
43619SOL    HW230882   9.141   4.029   7.266
43620SOL     OW30883   9.178   4.658   7.103
43620SOL    HW130884   9.216   4.749   7.118
43620SOL    HW230885   9.170   4.641   7.004
43621SOL     OW30886   8.307   5.098   5.602
43621SOL    HW130887   8.261   5.113   5.690
43621SOL    HW230888   8.351   5.183   5.572
43622SOL     OW30889   8.109   5.514   6.539
43622SOL    HW130890   8.063   5.602   6.526
43622SOL    HW230891   8.208   5.526   6.532
43623SOL     OW30892   8.307   4.680   6.447
43623SOL    HW130893   8.361   4.611   6.495
43623SOL    HW230894   8.275   4.749   6.513
43624SOL     OW30895   8.531   4.708   5.673
43624SOL    HW130896   8.508   4.761   5.591
43624SOL    HW230897   8.612   4.652   5.654
43625SOL     OW30898   7.669   5.038   7.430
43625SOL    HW130899   7.604   4.965   7.409
43625SOL    HW230900   7.673   5.052   7.528
43626SOL     OW30901   7.527   4.964   6.239
43626SOL    HW130902   7.526   4.917   6.327
43626SOL    HW230903   7.609   4.936   6.188
43627SOL     OW30904   8.120   5.115   7.210
43627SOL    HW130905   8.042   5.065   7.248
43627SOL    HW230906   8.117   5.210   7.241
43628SOL     OW30907   9.272   3.916   6.813
43628SOL    HW130908   9.268   3.826   6.857
43628SOL    HW230909   9.275   3.905   6.714
43629SOL     OW30910   7.876   4.148   6.106
43629SOL    HW130911   7.906   4.076   6.044
43629SOL    HW230912   7.837   4.108   6.189
43630SOL     OW30913   9.153   5.211   6.690
43630SOL    HW130914   9.060   5.186   6.663
43630SOL    HW230915   9.179   5.161   6.772
43631SOL     OW30916   7.765   4.271   6.866
43631SOL    HW130917   7.803   4.212   6.938
43631SOL    HW230918   7.805   4.245   6.778
43632SOL     OW30919   8.260   5.310   6.273
43632SOL    HW130920   8.292   5.320   6.179
43632SOL    HW230921   8.181   5.248   6.275
43633SOL     OW30922   8.872   3.938   6.698
43633SOL    HW130923   8.924   3.873   6.753
43633SOL    HW230924   8.823   4.001   6.759
43634SOL     OW30925   8.449   3.758   6.740
43634SOL    HW130926   8.386   3.686   6.709
43634SOL    HW230927   8.542   3.722   6.740
43635SOL     OW30928   8.218   5.054   5.887
43635SOL    HW130929   8.172   4.967   5.904
43635SOL    HW230930   8.309   5.051   5.928
43636SOL     OW30931   8.066   5.291   6.870
43636SOL    HW130932   8.061   5.373   6.927
43636SOL    HW230933   8.155   5.288   6.825
43637SOL     OW30934   8.800   3.776   5.754
43637SOL    HW130935   8.835   3.735   5.670
43637SOL    HW230936   8.710   3.738   5.774
43638SOL     OW30937   8.748   4.177   6.277
43638SOL    HW130938   8.689   4.257   6.281
43638SOL    HW230939   8.763   4.142   6.370
43639SOL     OW30940   9.041   3.945   6.468
43639SOL    HW130941   8.957   3.944   6.522
43639SOL    HW230942   9.043   4.028   6.412
43640SOL     OW30943   7.487   4.801   5.886
43640SOL    HW130944   7.586   4.790   5.877
43640SOL    HW230945   7.447   4.715   5.918
43641SOL     OW30946   8.323   5.370   5.923
43641SOL    HW130947   8.246   5.335   5.869
43641SOL    HW230948   8.291   5.441   5.985
43642SOL     OW30949   7.678   4.352   7.561
43642SOL    HW130950   7.585   4.350   7.598
43642SOL    HW230951   7.679   4.313   7.469
43643SOL     OW30952   7.673   3.999   8.444
43643SOL    HW130953   7.708   3.982   8.536
43643SOL    HW230954   7.585   3.954   8.432
43644SOL     OW30955   7.467   4.092   8.095
43644SOL    HW130956   7.385   4.135   8.134
43644SOL    HW230957   7.439   4.019   8.032
43645SOL     OW30958   8.017   4.999   8.613
43645SOL    HW130959   7.924   4.992   8.576
43645SOL    HW230960   8.028   5.088   8.657
43646SOL     OW30961   9.003   5.235   8.151
43646SOL    HW130962   8.946   5.219   8.232
43646SOL    HW230963   8.944   5.245   8.071
43647SOL     OW30964   8.583   4.427   8.165
43647SOL    HW130965   8.640   4.505   8.140
43647SOL    HW230966   8.523   4.453   8.241
43648SOL     OW30967   9.203   4.331   7.679
43648SOL    HW130968   9.191   4.318   7.580
43648SOL    HW230969   9.173   4.250   7.728
43649SOL     OW30970   8.216   4.868   8.471
43649SOL    HW130971   8.138   4.885   8.531
43649SOL    HW230972   8.250   4.955   8.435
43650SOL     OW30973   8.298   4.522   9.271
43650SOL    HW130974   8.294   4.598   9.336
43650SOL    HW230975   8.320   4.558   9.180
43651SOL     OW30976   8.133   4.736   8.113
43651SOL    HW130977   8.202   4.720   8.183
43651SOL    HW230978   8.060   4.793   8.151
43652SOL     OW30979   8.134   4.885   9.251
43652SOL    HW130980   8.194   4.964   9.265
43652SOL    HW230981   8.048   4.916   9.210
43653SOL     OW30982   7.783   5.159   8.509
43653SOL    HW130983   7.705   5.128   8.456
43653SOL    HW230984   7.841   5.217   8.452
43654SOL     OW30985   8.908   5.229   8.787
43654SOL    HW130986   8.932   5.323   8.813
43654SOL    HW230987   8.892   5.175   8.869
43655SOL     OW30988   7.886   4.116   8.947
43655SOL    HW130989   7.968   4.060   8.956
43655SOL    HW230990   7.805   4.058   8.951
43656SOL     OW30991   9.051   4.171   8.185
43656SOL    HW130992   8.977   4.217   8.135
43656SOL    HW230993   9.102   4.239   8.238
43657SOL     OW30994   7.679   5.437   7.931
43657SOL    HW130995   7.713   5.514   7.985
43657SOL    HW230996   7.723   5.437   7.841
43658SOL     OW30997   8.575   5.065   9.138
43658SOL    HW130998   8.622   5.065   9.226
43658SOL    HW230999   8.527   4.978   9.127
43659SOL     OW31000   7.678   5.158   7.986
43659SOL    HW131001   7.652   5.254   7.986
43659SOL    HW231002   7.607   5.104   8.031
43660SOL     OW31003   7.688   4.815   8.334
43660SOL    HW131004   7.702   4.731   8.386
43660SOL    HW231005   7.633   4.879   8.389
43661SOL     OW31006   8.068   5.510   8.887
43661SOL    HW131007   7.976   5.493   8.922
43661SOL    HW231008   8.096   5.602   8.913
43662SOL     OW31009   8.054   4.688   7.571
43662SOL    HW131010   8.061   4.772   7.517
43662SOL    HW231011   8.100   4.701   7.659
43663SOL     OW31012   9.042   3.838   8.928
43663SOL    HW131013   9.024   3.905   8.856
43663SOL    HW231014   9.039   3.884   9.017
43664SOL     OW31015   7.570   4.367   8.011
43664SOL    HW131016   7.525   4.279   8.028
43664SOL    HW231017   7.569   4.421   8.095
43665SOL     OW31018   9.290   5.491   7.807
43665SOL    HW131019   9.344   5.462   7.887
43665SOL    HW231020   9.320   5.581   7.778
43666SOL     OW31021   7.475   5.320   7.565
43666SOL    HW131022   7.456   5.224   7.586
43666SOL    HW231023   7.442   5.378   7.640
43667SOL     OW31024   9.137   4.646   8.060
43667SOL    HW131025   9.232   4.617   8.068
43667SOL    HW231026   9.129   4.711   7.985
43668SOL     OW31027   9.089   4.832   7.880
43668SOL    HW131028   9.175   4.834   7.828
43668SOL    HW231029   9.103   4.879   7.968
43669SOL     OW31030   7.561   4.461   9.045
43669SOL    HW131031   7.649   4.448   9.090
43669SOL    HW231032   7.548   4.558   9.023
43670SOL     OW31033   8.061   5.089   8.174
43670SOL    HW131034   8.012   5.002   8.183
43670SOL    HW231035   8.038   5.132   8.087
43671SOL     OW31036   8.741   4.952   8.871
43671SOL    HW131037   8.778   4.879   8.813
43671SOL    HW231038   8.793   4.957   8.956
43672SOL     OW31039   8.257   3.728   7.950
43672SOL    HW131040   8.297   3.819   7.941
43672SOL    HW231041   8.157   3.736   7.956
43673SOL     OW31042   7.645   4.700   8.712
43673SOL    HW131043   7.734   4.655   8.698
43673SOL    HW231044   7.572   4.635   8.693
43674SOL     OW31045   8.973   4.723   7.638
43674SOL    HW131046   8.910   4.647   7.651
43674SOL    HW231047   9.021   4.741   7.724
43675SOL     OW31048   8.635   5.516   9.064
43675SOL    HW131049   8.659   5.576   8.988
43675SOL    HW231050   8.642   5.421   9.034
43676SOL     OW31051   7.765   3.975   9.249
43676SOL    HW131052   7.836   4.046   9.255
43676SOL    HW231053   7.677   4.014   9.277
43677SOL     OW31054   8.914   5.141   8.401
43677SOL    HW131055   8.855   5.147   8.481
43677SOL    HW231056   8.899   5.053   8.355
43678SOL     OW31057   9.115   5.438   8.020
43678SOL    HW131058   9.074   5.415   7.932
43678SOL    HW231059   9.097   5.364   8.085
43679SOL     OW31060   8.046   4.453   7.718
43679SOL    HW131061   8.070   4.522   7.650
43679SOL    HW231062   7.968   4.486   7.772
43680SOL     OW31063   8.729   4.069   8.392
43680SOL    HW131064   8.643   4.019   8.379
43680SOL    HW231065   8.791   4.015   8.448
43681SOL     OW31066   9.024   5.386   7.755
43681SOL    HW131067   9.113   5.432   7.758
43681SOL    HW231068   9.003   5.362   7.660
43682SOL     OW31069   8.255   4.329   8.913
43682SOL    HW131070   8.208   4.326   9.002
43682SOL    HW231071   8.204   4.274   8.847
43683SOL     OW31072   8.842   4.193   9.122
43683SOL    HW131073   8.822   4.236   9.210
43683SOL    HW231074   8.920   4.131   9.131
43684SOL     OW31075   8.421   4.614   9.020
43684SOL    HW131076   8.467   4.530   8.991
43684SOL    HW231077   8.365   4.648   8.945
43685SOL     OW31078   8.439   4.134   8.690
43685SOL    HW131079   8.362   4.168   8.744
43685SOL    HW231080   8.405   4.083   8.611
43686SOL     OW31081   8.489   4.425   7.877
43686SOL    HW131082   8.515   4.421   7.973
43686SOL    HW231083   8.404   4.374   7.863
43687SOL     OW31084   7.524   4.535   8.237
43687SOL    HW131085   7.623   4.523   8.246
43687SOL    HW231086   7.500   4.630   8.258
43688SOL     OW31087   7.578   5.545   9.019
43688SOL    HW131088   7.568   5.530   9.118
43688SOL    HW231089   7.492   5.581   8.983
43689SOL     OW31090   8.313   4.072   7.643
43689SOL    HW131091   8.372   4.135   7.594
43689SOL    HW231092   8.332   3.978   7.614
43690SOL     OW31093   9.167   4.309   9.279
43690SOL    HW131094   9.141   4.398   9.243
43690SOL    HW231095   9.165   4.241   9.206
43691SOL     OW31096   8.810   4.868   7.993
43691SOL    HW131097   8.893   4.839   7.945
43691SOL    HW231098   8.761   4.935   7.937
43692SOL     OW31099   7.998   3.920   8.333
43692SOL    HW131100   7.993   3.915   8.433
43692SOL    HW231101   8.000   4.016   8.304
43693SOL     OW31102   8.456   5.180   7.925
43693SOL    HW131103   8.410   5.252   7.873
43693SOL    HW231104   8.452   5.200   8.023
43694SOL     OW31105   7.799   5.525   8.301
43694SOL    HW131106   7.849   5.439   8.307
43694SOL    HW231107   7.864   5.602   8.298
43695SOL     OW31108   9.243   4.790   8.321
43695SOL    HW131109   9.181   4.775   8.245
43695SOL    HW231110   9.191   4.801   8.406
43696SOL     OW31111   8.675   5.274   8.954
43696SOL    HW131112   8.681   5.197   9.018
43696SOL    HW231113   8.623   5.248   8.874
43697SOL     OW31114   7.769   4.667   7.690
43697SOL    HW131115   7.851   4.706   7.648
43697SOL    HW231116   7.742   4.585   7.641
43698SOL     OW31117   8.906   4.459   8.176
43698SOL    HW131118   8.901   4.394   8.251
43698SOL    HW231119   8.986   4.518   8.189
43699SOL     OW31120   7.909   4.990   9.175
43699SOL    HW131121   7.859   4.991   9.089
43699SOL    HW231122   7.846   4.972   9.251
43700SOL     OW31123   8.559   5.500   7.685
43700SOL    HW131124   8.499   5.438   7.735
43700SOL    HW231125   8.590   5.456   7.600
43701SOL     OW31126   7.650   4.009   8.946
43701SOL    HW131127   7.570   4.069   8.933
43701SOL    HW231128   7.640   3.960   9.032
43702SOL     OW31129   9.080   5.101   7.529
43702SOL    HW131130   9.048   5.195   7.519
43702SOL    HW231131   9.004   5.038   7.517
43703SOL     OW31132   7.912   5.467   7.771
43703SOL    HW131133   7.945   5.506   7.857
43703SOL    HW231134   7.988   5.460   7.706
43704SOL     OW31135   8.848   3.831   7.874
43704SOL    HW131136   8.824   3.794   7.784
43704SOL    HW231137   8.947   3.847   7.878
43705SOL     OW31138   7.697   5.509   8.689
43705SOL    HW131139   7.754   5.444   8.739
43705SOL    HW231140   7.681   5.476   8.596
43706SOL     OW31141   8.388   5.422   8.352
43706SOL    HW131142   8.468   5.365   8.373
43706SOL    HW231143   8.339   5.382   8.275
43707SOL     OW31144   7.830   4.424   7.928
43707SOL    HW131145   7.875   4.334   7.925
43707SOL    HW231146   7.736   4.413   7.961
43708SOL     OW31147   8.995   3.946   9.177
43708SOL    HW131148   8.990   3.983   9.269
43708SOL    HW231149   8.923   3.877   9.165
43709SOL     OW31150   8.062   3.846   7.565
43709SOL    HW131151   8.160   3.824   7.572
43709SOL    HW231152   8.031   3.829   7.472
43710SOL     OW31153   8.229   3.988   9.197
43710SOL    HW131154   8.296   3.927   9.240
43710SOL    HW231155   8.156   4.007   9.262
43711SOL     OW31156   8.336   5.238   8.643
43711SOL    HW131157   8.313   5.213   8.549
43711SOL    HW231158   8.397   5.169   8.682
43712SOL     OW31159   8.799   4.314   8.881
43712SOL    HW131160   8.827   4.271   8.966
43712SOL    HW231161   8.824   4.410   8.882
43713SOL     OW31162   8.251   5.126   8.372
43713SOL    HW131163   8.341   5.140   8.330
43713SOL    HW231164   8.180   5.128   8.301
43714SOL     OW31165   8.370   4.227   8.347
43714SOL    HW131166   8.345   4.218   8.251
43714SOL    HW231167   8.418   4.145   8.378
43715SOL     OW31168   7.987   3.788   7.960
43715SOL    HW131169   7.906   3.789   8.018
43715SOL    HW231170   7.990   3.871   7.905
43716SOL     OW31171   8.882   4.912   7.489
43716SOL    HW131172   8.914   4.836   7.546
43716SOL    HW231173   8.790   4.939   7.519
43717SOL     OW31174   7.745   3.759   7.619
43717SOL    HW131175   7.794   3.843   7.598
43717SOL    HW231176   7.807   3.694   7.664
43718SOL     OW31177   8.383   3.960   7.928
43718SOL    HW131178   8.335   4.001   7.850
43718SOL    HW231179   8.482   3.958   7.909
43719SOL     OW31180   8.524   4.407   8.912
43719SOL    HW131181   8.444   4.346   8.915
43719SOL    HW231182   8.605   4.354   8.888
43720SOL     OW31183   8.675   5.294   8.241
43720SOL    HW131184   8.696   5.368   8.176
43720SOL    HW231185   8.743   5.294   8.314
43721SOL     OW31186   7.907   4.876   8.189
43721SOL    HW131187   7.836   4.849   8.254
43721SOL    HW231188   7.881   4.848   8.096
43722SOL     OW31189   8.719   5.521   8.039
43722SOL    HW131190   8.763   5.585   7.975
43722SOL    HW231191   8.669   5.573   8.109
43723SOL     OW31192   8.480   4.273   7.464
43723SOL    HW131193   8.439   4.355   7.425
43723SOL    HW231194   8.544   4.299   7.537
43724SOL     OW31195   7.526   4.280   8.834
43724SOL    HW131196   7.618   4.279   8.793
43724SOL    HW231197   7.520   4.354   8.901
43725SOL     OW31198   8.009   3.946   8.595
43725SOL    HW131199   8.047   3.862   8.632
43725SOL    HW231200   7.921   3.965   8.639
43726SOL     OW31201   8.314   4.178   8.090
43726SOL    HW131202   8.282   4.250   8.028
43726SOL    HW231203   8.338   4.097   8.037
43727SOL     OW31204   8.465   3.763   8.201
43727SOL    HW131205   8.393   3.768   8.132
43727SOL    HW231206   8.441   3.694   8.270
43728SOL     OW31207   8.877   4.897   8.315
43728SOL    HW131208   8.822   4.813   8.308
43728SOL    HW231209   8.903   4.926   8.223
43729SOL     OW31210   8.914   4.314   8.440
43729SOL    HW131211   8.884   4.219   8.447
43729SOL    HW231212   8.987   4.330   8.506
43730SOL     OW31213   9.305   4.557   7.825
43730SOL    HW131214   9.347   4.493   7.889
43730SOL    HW231215   9.267   4.506   7.747
43731SOL     OW31216   7.936   5.109   7.622
43731SOL    HW131217   7.849   5.094   7.669
43731SOL    HW231218   7.919   5.135   7.527
43732SOL     OW31219   9.112   5.004   8.105
43732SOL    HW131220   9.211   5.012   8.119
43732SOL    HW231221   9.067   5.088   8.136
43733SOL     OW31222   8.838   4.299   7.526
43733SOL    HW131223   8.784   4.278   7.607
43733SOL    HW231224   8.929   4.258   7.535
43734SOL     OW31225   7.975   3.980   7.776
43734SOL    HW131226   8.002   3.921   7.701
43734SOL    HW231227   7.975   4.075   7.745
43735SOL     OW31228   9.202   4.947   9.036
43735SOL    HW131229   9.293   4.908   9.023
43735SOL    HW231230   9.210   5.043   9.060
43736SOL     OW31231   8.512   5.071   8.788
43736SOL    HW131232   8.432   5.048   8.843
43736SOL    HW231233   8.595   5.045   8.837
43737SOL     OW31234   9.040   5.353   9.073
43737SOL    HW131235   9.067   5.387   8.983
43737SOL    HW231236   9.119   5.315   9.119
43738SOL     OW31237   8.559   4.919   8.548
43738SOL    HW131238   8.519   4.963   8.629
43738SOL    HW231239   8.518   4.956   8.465
43739SOL     OW31240   9.086   4.823   8.527
43739SOL    HW131241   9.091   4.904   8.586
43739SOL    HW231242   9.000   4.825   8.476
43740SOL     OW31243   8.363   3.813   8.850
43740SOL    HW131244   8.388   3.793   8.755
43740SOL    HW231245   8.435   3.869   8.892
43741SOL     OW31246   8.428   4.840   9.167
43741SOL    HW131247   8.329   4.846   9.177
43741SOL    HW231248   8.451   4.760   9.111
43742SOL     OW31249   8.153   4.774   7.816
43742SOL    HW131250   8.139   4.781   7.915
43742SOL    HW231251   8.237   4.723   7.798
43743SOL     OW31252   7.858   4.537   8.699
43743SOL    HW131253   7.944   4.549   8.749
43743SOL    HW231254   7.816   4.450   8.726
43744SOL     OW31255   8.722   4.110   8.710
43744SOL    HW131256   8.743   4.184   8.774
43744SOL    HW231257   8.633   4.127   8.667
43745SOL     OW31258   7.512   5.288   8.779
43745SOL    HW131259   7.466   5.370   8.745
43745SOL    HW231260   7.610   5.307   8.788
43746SOL     OW31261   7.815   4.824   7.949
43746SOL    HW131262   7.808   4.907   7.893
43746SOL    HW231263   7.819   4.744   7.889
43747SOL     OW31264   8.014   4.261   8.313
43747SOL    HW131265   8.026   4.327   8.239
43747SOL    HW231266   8.060   4.295   8.396
43748SOL     OW31267   8.700   5.072   7.836
43748SOL    HW131268   8.750   5.149   7.876
43748SOL    HW231269   8.605   5.074   7.868
43749SOL     OW31270   8.720   5.169   8.590
43749SOL    HW131271   8.767   5.182   8.677
43749SOL    HW231272   8.654   5.095   8.599
43750SOL     OW31273   9.030   4.363   7.920
43750SOL    HW131274   8.999   4.424   7.993
43750SOL    HW231275   9.080   4.415   7.851
43751SOL     OW31276   7.802   5.234   8.777
43751SOL    HW131277   7.781   5.190   8.690
43751SOL    HW231278   7.899   5.260   8.780
43752SOL     OW31279   7.850   4.475   9.046
43752SOL    HW131280   7.918   4.530   8.999
43752SOL    HW231281   7.890   4.387   9.073
43753SOL     OW31282   9.035   4.503   9.118
43753SOL    HW131283   8.943   4.541   9.113
43753SOL    HW231284   9.095   4.550   9.053
43754SOL     OW31285   8.461   3.829   9.218
43754SOL    HW131286   8.467   3.914   9.166
43754SOL    HW231287   8.493   3.753   9.161
43755SOL     OW31288   7.952   3.774   9.188
43755SOL    HW131289   7.910   3.717   9.118
43755SOL    HW231290   7.886   3.843   9.220
43756SOL     OW31291   8.021   4.594   8.477
43756SOL    HW131292   8.065   4.683   8.468
43756SOL    HW231293   7.958   4.594   8.554
43757SOL     OW31294   8.808   4.586   8.493
43757SOL    HW131295   8.733   4.586   8.427
43757SOL    HW231296   8.845   4.494   8.502
43758SOL     OW31297   8.657   4.249   7.723
43758SOL    HW131298   8.670   4.165   7.777
43758SOL    HW231299   8.628   4.323   7.783
43759SOL     OW31300   7.755   3.937   8.679
43759SOL    HW131301   7.732   3.974   8.769
43759SOL    HW231302   7.725   3.842   8.673
43760SOL     OW31303   7.485   5.034   8.730
43760SOL    HW131304   7.538   4.985   8.798
43760SOL    HW231305   7.507   5.132   8.735
43761SOL     OW31306   8.180   4.358   8.512
43761SOL    HW131307   8.239   4.332   8.436
43761SOL    HW231308   8.152   4.454   8.501
43762SOL     OW31309   9.176   4.659   9.302
43762SOL    HW131310   9.130   4.652   9.213
43762SOL    HW231311   9.114   4.703   9.368
43763SOL     OW31312   7.755   3.787   8.066
43763SOL    HW131313   7.744   3.881   8.099
43763SOL    HW231314   7.750   3.724   8.143
43764SOL     OW31315   9.070   4.091   7.822
43764SOL    HW131316   9.072   4.015   7.886
43764SOL    HW231317   9.022   4.168   7.862
43765SOL     OW31318   8.471   4.490   8.414
43765SOL    HW131319   8.486   4.511   8.510
43765SOL    HW231320   8.441   4.395   8.405
43766SOL     OW31321   8.428   5.297   9.148
43766SOL    HW131322   8.408   5.341   9.060
43766SOL    HW231323   8.467   5.206   9.132
43767SOL     OW31324   9.307   5.242   9.053
43767SOL    HW131325   9.321   5.269   8.958
43767SOL    HW231326   9.390   5.264   9.106
43768SOL     OW31327   7.798   4.622   9.252
43768SOL    HW131328   7.874   4.666   9.300
43768SOL    HW231329   7.833   4.575   9.170
43769SOL     OW31330   8.988   3.998   7.573
43769SOL    HW131331   8.927   3.923   7.596
43769SOL    HW231332   9.010   4.050   7.656
43770SOL     OW31333   8.751   4.562   7.490
43770SOL    HW131334   8.785   4.469   7.505
43770SOL    HW231335   8.769   4.589   7.395
43771SOL     OW31336   8.516   5.057   8.297
43771SOL    HW131337   8.523   4.973   8.242
43771SOL    HW231338   8.578   5.126   8.261
43772SOL     OW31339   7.767   4.534   8.397
43772SOL    HW131340   7.860   4.570   8.402
43772SOL    HW231341   7.761   4.449   8.449
43773SOL     OW31342   7.787   4.233   8.454
43773SOL    HW131343   7.735   4.150   8.437
43773SOL    HW231344   7.864   4.238   8.390
43774SOL     OW31345   8.586   4.104   9.126
43774SOL    HW131346   8.541   4.167   9.190
43774SOL    HW231347   8.679   4.135   9.109
43775SOL     OW31348   8.608   3.931   8.925
43775SOL    HW131349   8.608   3.995   9.002
43775SOL    HW231350   8.636   3.979   8.842
43776SOL     OW31351   7.456   5.050   7.648
43776SOL    HW131352   7.363   5.071   7.617
43776SOL    HW231353   7.466   4.951   7.661
43777SOL     OW31354   7.536   5.525   8.375
43777SOL    HW131355   7.494   5.439   8.348
43777SOL    HW231356   7.630   5.528   8.341
43778SOL     OW31357   7.952   5.292   8.358
43778SOL    HW131358   8.018   5.366   8.367
43778SOL    HW231359   7.996   5.213   8.316
43779SOL     OW31360   8.450   4.520   8.686
43779SOL    HW131361   8.491   4.488   8.772
43779SOL    HW231362   8.354   4.493   8.683
43780SOL     OW31363   7.488   4.268   8.562
43780SOL    HW131364   7.573   4.235   8.521
43780SOL    HW231365   7.501   4.283   8.660
43781SOL     OW31366   7.637   4.244   9.170
43781SOL    HW131367   7.696   4.204   9.100
43781SOL    HW231368   7.579   4.315   9.129
43782SOL     OW31369   8.817   4.674   9.108
43782SOL    HW131370   8.856   4.763   9.128
43782SOL    HW231371   8.827   4.654   9.011
43783SOL     OW31372   8.263   4.296   7.773
43783SOL    HW131373   8.270   4.207   7.727
43783SOL    HW231374   8.169   4.330   7.765
43784SOL     OW31375   9.105   4.328   8.654
43784SOL    HW131376   9.067   4.259   8.716
43784SOL    HW231377   9.187   4.292   8.610
43785SOL     OW31378   7.700   5.288   9.192
43785SOL    HW131379   7.670   5.345   9.268
43785SOL    HW231380   7.693   5.191   9.218
43786SOL     OW31381   8.119   4.188   8.717
43786SOL    HW131382   8.085   4.099   8.687
43786SOL    HW231383   8.145   4.242   8.637
43787SOL     OW31384   8.378   5.402   8.913
43787SOL    HW131385   8.354   5.384   8.818
43787SOL    HW231386   8.408   5.496   8.923
43788SOL     OW31387   7.921   4.224   7.639
43788SOL    HW131388   7.982   4.304   7.643
43788SOL    HW231389   7.826   4.255   7.646
43789SOL     OW31390   7.607   4.861   8.914
43789SOL    HW131391   7.629   4.800   8.990
43789SOL    HW231392   7.617   4.812   8.828
43790SOL     OW31393   8.795   4.783   8.682
43790SOL    HW131394   8.819   4.720   8.608
43790SOL    HW231395   8.705   4.823   8.664
43791SOL     OW31396   8.750   4.579   7.757
43791SOL    HW131397   8.664   4.548   7.799
43791SOL    HW231398   8.746   4.565   7.658
43792SOL     OW31399   9.207   5.471   8.602
43792SOL    HW131400   9.268   5.501   8.529
43792SOL    HW231401   9.169   5.382   8.580
43793SOL     OW31402   8.700   5.455   8.576
43793SOL    HW131403   8.784   5.460   8.522
43793SOL    HW231404   8.677   5.359   8.594
43794SOL     OW31405   7.531   4.982   8.470
43794SOL    HW131406   7.526   4.981   8.570
43794SOL    HW231407   7.448   4.941   8.432
43795SOL     OW31408   8.136   5.386   9.164
43795SOL    HW131409   8.080   5.467   9.173
43795SOL    HW231410   8.188   5.390   9.078
43796SOL     OW31411   9.174   3.859   7.971
43796SOL    HW131412   9.247   3.842   7.904
43796SOL    HW231413   9.143   3.772   8.009
43797SOL     OW31414   8.836   5.297   7.925
43797SOL    HW131415   8.903   5.309   7.851
43797SOL    HW231416   8.796   5.386   7.948
43798SOL     OW31417   7.578   5.518   9.299
43798SOL    HW131418   7.537   5.444   9.352
43798SOL    HW231419   7.642   5.569   9.357
43799SOL     OW31420   8.728   4.651   8.120
43799SOL    HW131421   8.788   4.570   8.122
43799SOL    HW231422   8.768   4.720   8.060
43800SOL     OW31423   8.278   4.997   8.870
43800SOL    HW131424   8.273   5.030   8.965
43800SOL    HW231425   8.192   5.016   8.824
43801SOL     OW31426   8.120   5.340   7.602
43801SOL    HW131427   8.129   5.350   7.503
43801SOL    HW231428   8.080   5.251   7.623
43802SOL     OW31429   9.098   5.444   8.842
43802SOL    HW131430   9.151   5.454   8.758
43802SOL    HW231431   9.071   5.534   8.876
43803SOL     OW31432   9.289   3.899   8.411
43803SOL    HW131433   9.328   3.814   8.375
43803SOL    HW231434   9.191   3.901   8.392
43804SOL     OW31435   7.711   4.050   8.168
43804SOL    HW131436   7.632   4.101   8.134
43804SOL    HW231437   7.702   4.035   8.266
43805SOL     OW31438   8.642   5.336   7.479
43805SOL    HW131439   8.648   5.243   7.516
43805SOL    HW231440   8.583   5.336   7.399
43806SOL     OW31441   8.270   4.726   8.820
43806SOL    HW131442   8.310   4.725   8.728
43806SOL    HW231443   8.280   4.818   8.860
43807SOL     OW31444   8.364   4.634   7.739
43807SOL    HW131445   8.427   4.672   7.671
43807SOL    HW231446   8.404   4.551   7.778
43808SOL     OW31447   8.952   5.331   7.492
43808SOL    HW131448   8.860   5.368   7.499
43808SOL    HW231449   8.990   5.351   7.402
43809SOL     OW31450   7.820   5.012   8.938
43809SOL    HW131451   7.807   5.105   8.904
43809SOL    HW231452   7.736   4.960   8.925
43810SOL     OW31453   9.062   5.016   8.737
43810SOL    HW131454   9.122   5.019   8.817
43810SOL    HW231455   8.987   5.080   8.750
43811SOL     OW31456   8.487   4.822   8.144
43811SOL    HW131457   8.417   4.775   8.198
43811SOL    HW231458   8.546   4.754   8.101
43812SOL     OW31459   8.462   3.960   8.419
43812SOL    HW131460   8.454   3.924   8.326
43812SOL    HW231461   8.460   3.884   8.484
43813SOL     OW31462   8.038   5.211   7.939
43813SOL    HW131463   8.080   5.153   7.869
43813SOL    HW231464   7.994   5.290   7.895
43814SOL     OW31465   9.157   4.109   8.829
43814SOL    HW131466   9.230   4.178   8.833
43814SOL    HW231467   9.185   4.034   8.770
43815SOL     OW31468   7.703   5.072   7.738
43815SOL    HW131469   7.607   5.073   7.711
43815SOL    HW231470   7.715   5.125   7.822
43816SOL     OW31471   7.553   4.737   9.174
43816SOL    HW131472   7.476   4.704   9.228
43816SOL    HW231473   7.638   4.707   9.216
43817SOL     OW31474   8.120   3.927   8.937
43817SOL    HW131475   8.210   3.911   8.897
43817SOL    HW231476   8.128   3.932   9.036
43818SOL     OW31477   7.523   4.069   7.481
43818SOL    HW131478   7.431   4.041   7.452
43818SOL    HW231479   7.554   4.146   7.425
43819SOL     OW31480   8.888   4.580   8.846
43819SOL    HW131481   8.831   4.632   8.783
43819SOL    HW231482   8.984   4.592   8.822
43820SOL     OW31483   7.520   3.890   7.766
43820SOL    HW131484   7.503   3.973   7.712
43820SOL    HW231485   7.610   3.853   7.744
43821SOL     OW31486   8.631   5.059   7.567
43821SOL    HW131487   8.532   5.048   7.569
43821SOL    HW231488   8.665   5.074   7.660
43822SOL     OW31489   8.061   4.566   8.879
43822SOL    HW131490   8.117   4.647   8.862
43822SOL    HW231491   8.120   4.486   8.882
43823SOL     OW31492   8.941   5.491   8.407
43823SOL    HW131493   8.974   5.555   8.338
43823SOL    HW231494   9.007   5.485   8.482
43824SOL     OW31495   8.164   4.289   9.156
43824SOL    HW131496   8.183   4.354   9.230
43824SOL    HW231497   8.224   4.209   9.165
43825SOL     OW31498   8.898   4.944   9.081
43825SOL    HW131499   8.889   4.934   9.180
43825SOL    HW231500   8.994   4.937   9.055
43826SOL     OW31501   7.838   5.465   9.008
43826SOL    HW131502   7.747   5.506   9.006
43826SOL    HW231503   7.831   5.371   9.040
43827SOL     OW31504   9.122   4.607   8.702
43827SOL    HW131505   9.095   4.518   8.665
43827SOL    HW231506   9.123   4.675   8.629
43828SOL     OW31507   8.673   4.049   7.897
43828SOL    HW131508   8.738   3.975   7.886
43828SOL    HW231509   8.693   4.099   7.981
43829SOL     OW31510   8.042   4.469   8.100
43829SOL    HW131511   8.092   4.554   8.081
43829SOL    HW231512   7.954   4.471   8.052
43830SOL     OW31513   9.225   4.066   9.090
43830SOL    HW131514   9.208   4.097   8.996
43830SOL    HW231515   9.141   4.029   9.128
43831SOL     OW31516   9.178   4.658   8.965
43831SOL    HW131517   9.216   4.749   8.980
43831SOL    HW231518   9.170   4.641   8.866
43832SOL     OW31519   8.307   5.098   7.464
43832SOL    HW131520   8.261   5.113   7.552
43832SOL    HW231521   8.351   5.183   7.434
43833SOL     OW31522   8.109   5.514   8.401
43833SOL    HW131523   8.063   5.602   8.388
43833SOL    HW231524   8.208   5.526   8.394
43834SOL     OW31525   8.307   4.680   8.309
43834SOL    HW131526   8.361   4.611   8.357
43834SOL    HW231527   8.275   4.749   8.375
43835SOL     OW31528   8.531   4.708   7.535
43835SOL    HW131529   8.508   4.761   7.453
43835SOL    HW231530   8.612   4.652   7.516
43836SOL     OW31531   9.309   5.293   8.299
43836SOL    HW131532   9.238   5.281   8.229
43836SOL    HW231533   9.310   5.214   8.359
43837SOL     OW31534   7.669   5.038   9.292
43837SOL    HW131535   7.604   4.965   9.271
43837SOL    HW231536   7.673   5.052   9.390
43838SOL     OW31537   7.527   4.964   8.101
43838SOL    HW131538   7.526   4.917   8.189
43838SOL    HW231539   7.609   4.936   8.050
43839SOL     OW31540   8.120   5.115   9.072
43839SOL    HW131541   8.042   5.065   9.110
43839SOL    HW231542   8.117   5.210   9.103
43840SOL     OW31543   9.272   3.916   8.675
43840SOL    HW131544   9.268   3.826   8.719
43840SOL    HW231545   9.275   3.905   8.576
43841SOL     OW31546   7.876   4.148   7.968
43841SOL    HW131547   7.906   4.076   7.906
43841SOL    HW231548   7.837   4.108   8.051
43842SOL     OW31549   9.153   5.211   8.552
43842SOL    HW131550   9.060   5.186   8.525
43842SOL    HW231551   9.179   5.161   8.634
43843SOL     OW31552   7.765   4.271   8.728
43843SOL    HW131553   7.803   4.212   8.800
43843SOL    HW231554   7.805   4.245   8.640
43844SOL     OW31555   8.260   5.310   8.135
43844SOL    HW131556   8.292   5.320   8.041
43844SOL    HW231557   8.181   5.248   8.137
43845SOL     OW31558   8.872   3.938   8.560
43845SOL    HW131559   8.924   3.873   8.615
43845SOL    HW231560   8.823   4.001   8.621
43846SOL     OW31561   8.449   3.758   8.602
43846SOL    HW131562   8.386   3.686   8.571
43846SOL    HW231563   8.542   3.722   8.602
43847SOL     OW31564   8.218   5.054   7.749
43847SOL    HW131565   8.172   4.967   7.766
43847SOL    HW231566   8.309   5.051   7.790
43848SOL     OW31567   8.066   5.291   8.732
43848SOL    HW131568   8.061   5.373   8.789
43848SOL    HW231569   8.155   5.288   8.687
43849SOL     OW31570   8.800   3.776   7.616
43849SOL    HW131571   8.835   3.735   7.532
43849SOL    HW231572   8.710   3.738   7.636
43850SOL     OW31573   8.748   4.177   8.139
43850SOL    HW131574   8.689   4.257   8.143
43850SOL    HW231575   8.763   4.142   8.232
43851SOL     OW31576   9.041   3.945   8.330
43851SOL    HW131577   8.957   3.944   8.384
43851SOL    HW231578   9.043   4.028   8.274
43852SOL     OW31579   7.487   4.801   7.748
43852SOL    HW131580   7.586   4.790   7.739
43852SOL    HW231581   7.447   4.715   7.780
43853SOL     OW31582   8.323   5.370   7.785
43853SOL    HW131583   8.246   5.335   7.731
43853SOL    HW231584   8.291   5.441   7.847
43854SOL     OW31585   7.678   4.352   9.423
43854SOL    HW131586   7.585   4.350   9.460
43854SOL    HW231587   7.679   4.313   9.331
43855SOL     OW31588   7.673   3.999  10.306
43855SOL    HW131589   7.708   3.982  10.398
43855SOL    HW231590   7.585   3.954  10.294
43856SOL     OW31591   7.467   4.092   9.957
43856SOL    HW131592   7.385   4.135   9.996
43856SOL    HW231593   7.439   4.019   9.894
43857SOL     OW31594   8.017   4.999  10.475
43857SOL    HW131595   7.924   4.992  10.438
43857SOL    HW231596   8.028   5.088  10.519
43858SOL     OW31597   9.003   5.235  10.013
43858SOL    HW131598   8.946   5.219  10.094
43858SOL    HW231599   8.944   5.245   9.933
43859SOL     OW31600   8.583   4.427  10.027
43859SOL    HW131601   8.640   4.505  10.002
43859SOL    HW231602   8.523   4.453  10.103
43860SOL     OW31603   9.203   4.331   9.541
43860SOL    HW131604   9.191   4.318   9.442
43860SOL    HW231605   9.173   4.250   9.590
43861SOL     OW31606   8.216   4.868  10.333
43861SOL    HW131607   8.138   4.885  10.393
43861SOL    HW231608   8.250   4.955  10.297
43862SOL     OW31609   8.298   4.522  11.133
43862SOL    HW131610   8.294   4.598  11.198
43862SOL    HW231611   8.320   4.558  11.042
43863SOL     OW31612   8.133   4.736   9.975
43863SOL    HW131613   8.202   4.720  10.045
43863SOL    HW231614   8.060   4.793  10.013
43864SOL     OW31615   7.783   5.159  10.371
43864SOL    HW131616   7.705   5.128  10.318
43864SOL    HW231617   7.841   5.217  10.314
43865SOL     OW31618   8.908   5.229  10.649
43865SOL    HW131619   8.932   5.323  10.675
43865SOL    HW231620   8.892   5.175  10.731
43866SOL     OW31621   7.886   4.116  10.809
43866SOL    HW131622   7.968   4.060  10.818
43866SOL    HW231623   7.805   4.058  10.813
43867SOL     OW31624   9.051   4.171  10.047
43867SOL    HW131625   8.977   4.217   9.997
43867SOL    HW231626   9.102   4.239  10.100
43868SOL     OW31627   7.679   5.437   9.793
43868SOL    HW131628   7.713   5.514   9.847
43868SOL    HW231629   7.723   5.437   9.703
43869SOL     OW31630   8.575   5.065  11.000
43869SOL    HW131631   8.622   5.065  11.088
43869SOL    HW231632   8.527   4.978  10.989
43870SOL     OW31633   7.678   5.158   9.848
43870SOL    HW131634   7.652   5.254   9.848
43870SOL    HW231635   7.607   5.104   9.893
43871SOL     OW31636   7.688   4.815  10.196
43871SOL    HW131637   7.702   4.731  10.248
43871SOL    HW231638   7.633   4.879  10.251
43872SOL     OW31639   8.068   5.510  10.749
43872SOL    HW131640   7.976   5.493  10.784
43872SOL    HW231641   8.096   5.602  10.775
43873SOL     OW31642   8.054   4.688   9.433
43873SOL    HW131643   8.061   4.772   9.379
43873SOL    HW231644   8.100   4.701   9.521
43874SOL     OW31645   9.042   3.838  10.790
43874SOL    HW131646   9.024   3.905  10.718
43874SOL    HW231647   9.039   3.884  10.879
43875SOL     OW31648   7.570   4.367   9.873
43875SOL    HW131649   7.525   4.279   9.890
43875SOL    HW231650   7.569   4.421   9.957
43876SOL     OW31651   9.290   5.491   9.669
43876SOL    HW131652   9.344   5.462   9.749
43876SOL    HW231653   9.320   5.581   9.640
43877SOL     OW31654   7.475   5.320   9.427
43877SOL    HW131655   7.456   5.224   9.448
43877SOL    HW231656   7.442   5.378   9.502
43878SOL     OW31657   9.137   4.646   9.922
43878SOL    HW131658   9.232   4.617   9.930
43878SOL    HW231659   9.129   4.711   9.847
43879SOL     OW31660   9.089   4.832   9.742
43879SOL    HW131661   9.175   4.834   9.690
43879SOL    HW231662   9.103   4.879   9.830
43880SOL     OW31663   7.561   4.461  10.907
43880SOL    HW131664   7.649   4.448  10.952
43880SOL    HW231665   7.548   4.558  10.885
43881SOL     OW31666   8.061   5.089  10.036
43881SOL    HW131667   8.012   5.002  10.045
43881SOL    HW231668   8.038   5.132   9.949
43882SOL     OW31669   8.741   4.952  10.733
43882SOL    HW131670   8.778   4.879  10.675
43882SOL    HW231671   8.793   4.957  10.818
43883SOL     OW31672   8.257   3.728   9.812
43883SOL    HW131673   8.297   3.819   9.803
43883SOL    HW231674   8.157   3.736   9.818
43884SOL     OW31675   7.645   4.700  10.574
43884SOL    HW131676   7.734   4.655  10.560
43884SOL    HW231677   7.572   4.635  10.555
43885SOL     OW31678   8.973   4.723   9.500
43885SOL    HW131679   8.910   4.647   9.513
43885SOL    HW231680   9.021   4.741   9.586
43886SOL     OW31681   8.635   5.516  10.926
43886SOL    HW131682   8.659   5.576  10.850
43886SOL    HW231683   8.642   5.421  10.896
43887SOL     OW31684   7.765   3.975  11.111
43887SOL    HW131685   7.836   4.046  11.117
43887SOL    HW231686   7.677   4.014  11.139
43888SOL     OW31687   8.914   5.141  10.263
43888SOL    HW131688   8.855   5.147  10.343
43888SOL    HW231689   8.899   5.053  10.217
43889SOL     OW31690   9.115   5.438   9.882
43889SOL    HW131691   9.074   5.415   9.794
43889SOL    HW231692   9.097   5.364   9.947
43890SOL     OW31693   8.046   4.453   9.580
43890SOL    HW131694   8.070   4.522   9.512
43890SOL    HW231695   7.968   4.486   9.634
43891SOL     OW31696   8.729   4.069  10.254
43891SOL    HW131697   8.643   4.019  10.241
43891SOL    HW231698   8.791   4.015  10.310
43892SOL     OW31699   9.024   5.386   9.617
43892SOL    HW131700   9.113   5.432   9.620
43892SOL    HW231701   9.003   5.362   9.522
43893SOL     OW31702   8.255   4.329  10.775
43893SOL    HW131703   8.208   4.326  10.864
43893SOL    HW231704   8.204   4.274  10.709
43894SOL     OW31705   8.842   4.193  10.984
43894SOL    HW131706   8.822   4.236  11.072
43894SOL    HW231707   8.920   4.131  10.993
43895SOL     OW31708   8.421   4.614  10.882
43895SOL    HW131709   8.467   4.530  10.853
43895SOL    HW231710   8.365   4.648  10.807
43896SOL     OW31711   8.439   4.134  10.552
43896SOL    HW131712   8.362   4.168  10.606
43896SOL    HW231713   8.405   4.083  10.473
43897SOL     OW31714   8.489   4.425   9.739
43897SOL    HW131715   8.515   4.421   9.835
43897SOL    HW231716   8.404   4.374   9.725
43898SOL     OW31717   7.524   4.535  10.099
43898SOL    HW131718   7.623   4.523  10.108
43898SOL    HW231719   7.500   4.630  10.120
43899SOL     OW31720   7.578   5.545  10.881
43899SOL    HW131721   7.568   5.530  10.980
43899SOL    HW231722   7.492   5.581  10.845
43900SOL     OW31723   8.313   4.072   9.505
43900SOL    HW131724   8.372   4.135   9.456
43900SOL    HW231725   8.332   3.978   9.476
43901SOL     OW31726   9.167   4.309  11.141
43901SOL    HW131727   9.141   4.398  11.105
43901SOL    HW231728   9.165   4.241  11.068
43902SOL     OW31729   8.810   4.868   9.855
43902SOL    HW131730   8.893   4.839   9.807
43902SOL    HW231731   8.761   4.935   9.799
43903SOL     OW31732   7.998   3.920  10.195
43903SOL    HW131733   7.993   3.915  10.295
43903SOL    HW231734   8.000   4.016  10.166
43904SOL     OW31735   8.456   5.180   9.787
43904SOL    HW131736   8.410   5.252   9.735
43904SOL    HW231737   8.452   5.200   9.885
43905SOL     OW31738   7.799   5.525  10.163
43905SOL    HW131739   7.849   5.439  10.169
43905SOL    HW231740   7.864   5.602  10.160
43906SOL     OW31741   9.243   4.790  10.183
43906SOL    HW131742   9.181   4.775  10.107
43906SOL    HW231743   9.191   4.801  10.268
43907SOL     OW31744   8.675   5.274  10.816
43907SOL    HW131745   8.681   5.197  10.880
43907SOL    HW231746   8.623   5.248  10.736
43908SOL     OW31747   7.769   4.667   9.552
43908SOL    HW131748   7.851   4.706   9.510
43908SOL    HW231749   7.742   4.585   9.503
43909SOL     OW31750   8.906   4.459  10.038
43909SOL    HW131751   8.901   4.394  10.113
43909SOL    HW231752   8.986   4.518  10.051
43910SOL     OW31753   7.909   4.990  11.037
43910SOL    HW131754   7.859   4.991  10.951
43910SOL    HW231755   7.846   4.972  11.113
43911SOL     OW31756   8.559   5.500   9.547
43911SOL    HW131757   8.499   5.438   9.597
43911SOL    HW231758   8.590   5.456   9.462
43912SOL     OW31759   7.650   4.009  10.808
43912SOL    HW131760   7.570   4.069  10.795
43912SOL    HW231761   7.640   3.960  10.894
43913SOL     OW31762   9.080   5.101   9.391
43913SOL    HW131763   9.048   5.195   9.381
43913SOL    HW231764   9.004   5.038   9.379
43914SOL     OW31765   7.912   5.467   9.633
43914SOL    HW131766   7.945   5.506   9.719
43914SOL    HW231767   7.988   5.460   9.568
43915SOL     OW31768   8.848   3.831   9.736
43915SOL    HW131769   8.824   3.794   9.646
43915SOL    HW231770   8.947   3.847   9.740
43916SOL     OW31771   7.697   5.509  10.551
43916SOL    HW131772   7.754   5.444  10.601
43916SOL    HW231773   7.681   5.476  10.458
43917SOL     OW31774   8.388   5.422  10.214
43917SOL    HW131775   8.468   5.365  10.235
43917SOL    HW231776   8.339   5.382  10.137
43918SOL     OW31777   7.830   4.424   9.790
43918SOL    HW131778   7.875   4.334   9.787
43918SOL    HW231779   7.736   4.413   9.823
43919SOL     OW31780   8.995   3.946  11.039
43919SOL    HW131781   8.990   3.983  11.131
43919SOL    HW231782   8.923   3.877  11.027
43920SOL     OW31783   8.062   3.846   9.427
43920SOL    HW131784   8.160   3.824   9.434
43920SOL    HW231785   8.031   3.829   9.334
43921SOL     OW31786   8.229   3.988  11.059
43921SOL    HW131787   8.296   3.927  11.102
43921SOL    HW231788   8.156   4.007  11.124
43922SOL     OW31789   8.336   5.238  10.505
43922SOL    HW131790   8.313   5.213  10.411
43922SOL    HW231791   8.397   5.169  10.544
43923SOL     OW31792   8.799   4.314  10.743
43923SOL    HW131793   8.827   4.271  10.828
43923SOL    HW231794   8.824   4.410  10.744
43924SOL     OW31795   8.251   5.126  10.234
43924SOL    HW131796   8.341   5.140  10.192
43924SOL    HW231797   8.180   5.128  10.163
43925SOL     OW31798   8.370   4.227  10.209
43925SOL    HW131799   8.345   4.218  10.113
43925SOL    HW231800   8.418   4.145  10.240
43926SOL     OW31801   7.987   3.788   9.822
43926SOL    HW131802   7.906   3.789   9.880
43926SOL    HW231803   7.990   3.871   9.767
43927SOL     OW31804   8.882   4.912   9.351
43927SOL    HW131805   8.914   4.836   9.408
43927SOL    HW231806   8.790   4.939   9.381
43928SOL     OW31807   7.745   3.759   9.481
43928SOL    HW131808   7.794   3.843   9.460
43928SOL    HW231809   7.807   3.694   9.526
43929SOL     OW31810   8.383   3.960   9.790
43929SOL    HW131811   8.335   4.001   9.712
43929SOL    HW231812   8.482   3.958   9.771
43930SOL     OW31813   8.524   4.407  10.774
43930SOL    HW131814   8.444   4.346  10.777
43930SOL    HW231815   8.605   4.354  10.750
43931SOL     OW31816   8.675   5.294  10.103
43931SOL    HW131817   8.696   5.368  10.038
43931SOL    HW231818   8.743   5.294  10.176
43932SOL     OW31819   7.907   4.876  10.051
43932SOL    HW131820   7.836   4.849  10.116
43932SOL    HW231821   7.881   4.848   9.958
43933SOL     OW31822   8.719   5.521   9.901
43933SOL    HW131823   8.763   5.585   9.837
43933SOL    HW231824   8.669   5.573   9.971
43934SOL     OW31825   8.480   4.273   9.326
43934SOL    HW131826   8.439   4.355   9.287
43934SOL    HW231827   8.544   4.299   9.399
43935SOL     OW31828   7.526   4.280  10.696
43935SOL    HW131829   7.618   4.279  10.655
43935SOL    HW231830   7.520   4.354  10.763
43936SOL     OW31831   8.009   3.946  10.457
43936SOL    HW131832   8.047   3.862  10.494
43936SOL    HW231833   7.921   3.965  10.501
43937SOL     OW31834   8.314   4.178   9.952
43937SOL    HW131835   8.282   4.250   9.890
43937SOL    HW231836   8.338   4.097   9.899
43938SOL     OW31837   8.465   3.763  10.063
43938SOL    HW131838   8.393   3.768   9.994
43938SOL    HW231839   8.441   3.694  10.132
43939SOL     OW31840   8.877   4.897  10.177
43939SOL    HW131841   8.822   4.813  10.170
43939SOL    HW231842   8.903   4.926  10.085
43940SOL     OW31843   8.914   4.314  10.302
43940SOL    HW131844   8.884   4.219  10.309
43940SOL    HW231845   8.987   4.330  10.368
43941SOL     OW31846   9.305   4.557   9.687
43941SOL    HW131847   9.347   4.493   9.751
43941SOL    HW231848   9.267   4.506   9.609
43942SOL     OW31849   7.936   5.109   9.484
43942SOL    HW131850   7.849   5.094   9.531
43942SOL    HW231851   7.919   5.135   9.389
43943SOL     OW31852   9.112   5.004   9.967
43943SOL    HW131853   9.211   5.012   9.981
43943SOL    HW231854   9.067   5.088   9.998
43944SOL     OW31855   8.838   4.299   9.388
43944SOL    HW131856   8.784   4.278   9.469
43944SOL    HW231857   8.929   4.258   9.397
43945SOL     OW31858   7.975   3.980   9.638
43945SOL    HW131859   8.002   3.921   9.563
43945SOL    HW231860   7.975   4.075   9.607
43946SOL     OW31861   9.202   4.947  10.898
43946SOL    HW131862   9.293   4.908  10.885
43946SOL    HW231863   9.210   5.043  10.922
43947SOL     OW31864   8.512   5.071  10.650
43947SOL    HW131865   8.432   5.048  10.705
43947SOL    HW231866   8.595   5.045  10.699
43948SOL     OW31867   9.040   5.353  10.935
43948SOL    HW131868   9.067   5.387  10.845
43948SOL    HW231869   9.119   5.315  10.981
43949SOL     OW31870   8.559   4.919  10.410
43949SOL    HW131871   8.519   4.963  10.491
43949SOL    HW231872   8.518   4.956  10.327
43950SOL     OW31873   9.086   4.823  10.389
43950SOL    HW131874   9.091   4.904  10.448
43950SOL    HW231875   9.000   4.825  10.338
43951SOL     OW31876   8.363   3.813  10.712
43951SOL    HW131877   8.388   3.793  10.617
43951SOL    HW231878   8.435   3.869  10.754
43952SOL     OW31879   8.428   4.840  11.029
43952SOL    HW131880   8.329   4.846  11.039
43952SOL    HW231881   8.451   4.760  10.973
43953SOL     OW31882   8.153   4.774   9.678
43953SOL    HW131883   8.139   4.781   9.777
43953SOL    HW231884   8.237   4.723   9.660
43954SOL     OW31885   7.858   4.537  10.561
43954SOL    HW131886   7.944   4.549  10.611
43954SOL    HW231887   7.816   4.450  10.588
43955SOL     OW31888   8.722   4.110  10.572
43955SOL    HW131889   8.743   4.184  10.636
43955SOL    HW231890   8.633   4.127  10.529
43956SOL     OW31891   7.512   5.288  10.641
43956SOL    HW131892   7.466   5.370  10.607
43956SOL    HW231893   7.610   5.307  10.650
43957SOL     OW31894   7.815   4.824   9.811
43957SOL    HW131895   7.808   4.907   9.755
43957SOL    HW231896   7.819   4.744   9.751
43958SOL     OW31897   8.014   4.261  10.175
43958SOL    HW131898   8.026   4.327  10.101
43958SOL    HW231899   8.060   4.295  10.258
43959SOL     OW31900   8.700   5.072   9.698
43959SOL    HW131901   8.750   5.149   9.738
43959SOL    HW231902   8.605   5.074   9.730
43960SOL     OW31903   8.720   5.169  10.452
43960SOL    HW131904   8.767   5.182  10.539
43960SOL    HW231905   8.654   5.095  10.461
43961SOL     OW31906   9.030   4.363   9.782
43961SOL    HW131907   8.999   4.424   9.855
43961SOL    HW231908   9.080   4.415   9.713
43962SOL     OW31909   7.802   5.234  10.639
43962SOL    HW131910   7.781   5.190  10.552
43962SOL    HW231911   7.899   5.260  10.642
43963SOL     OW31912   7.850   4.475  10.908
43963SOL    HW131913   7.918   4.530  10.861
43963SOL    HW231914   7.890   4.387  10.935
43964SOL     OW31915   9.035   4.503  10.980
43964SOL    HW131916   8.943   4.541  10.975
43964SOL    HW231917   9.095   4.550  10.915
43965SOL     OW31918   8.461   3.829  11.080
43965SOL    HW131919   8.467   3.914  11.028
43965SOL    HW231920   8.493   3.753  11.023
43966SOL     OW31921   7.952   3.774  11.050
43966SOL    HW131922   7.910   3.717  10.980
43966SOL    HW231923   7.886   3.843  11.082
43967SOL     OW31924   8.021   4.594  10.339
43967SOL    HW131925   8.065   4.683  10.330
43967SOL    HW231926   7.958   4.594  10.416
43968SOL     OW31927   8.808   4.586  10.355
43968SOL    HW131928   8.733   4.586  10.289
43968SOL    HW231929   8.845   4.494  10.364
43969SOL     OW31930   8.657   4.249   9.585
43969SOL    HW131931   8.670   4.165   9.639
43969SOL    HW231932   8.628   4.323   9.645
43970SOL     OW31933   7.755   3.937  10.541
43970SOL    HW131934   7.732   3.974  10.631
43970SOL    HW231935   7.725   3.842  10.535
43971SOL     OW31936   7.485   5.034  10.592
43971SOL    HW131937   7.538   4.985  10.660
43971SOL    HW231938   7.507   5.132  10.597
43972SOL     OW31939   8.180   4.358  10.374
43972SOL    HW131940   8.239   4.332  10.298
43972SOL    HW231941   8.152   4.454  10.363
43973SOL     OW31942   9.176   4.659  11.164
43973SOL    HW131943   9.130   4.652  11.075
43973SOL    HW231944   9.114   4.703  11.230
43974SOL     OW31945   7.755   3.787   9.928
43974SOL    HW131946   7.744   3.881   9.961
43974SOL    HW231947   7.750   3.724  10.005
43975SOL     OW31948   9.070   4.091   9.684
43975SOL    HW131949   9.072   4.015   9.748
43975SOL    HW231950   9.022   4.168   9.724
43976SOL     OW31951   8.471   4.490  10.276
43976SOL    HW131952   8.486   4.511  10.372
43976SOL    HW231953   8.441   4.395  10.267
43977SOL     OW31954   8.428   5.297  11.010
43977SOL    HW131955   8.408   5.341  10.922
43977SOL    HW231956   8.467   5.206  10.994
43978SOL     OW31957   9.307   5.242  10.915
43978SOL    HW131958   9.321   5.269  10.820
43978SOL    HW231959   9.390   5.264  10.968
43979SOL     OW31960   7.798   4.622  11.114
43979SOL    HW131961   7.874   4.666  11.162
43979SOL    HW231962   7.833   4.575  11.032
43980SOL     OW31963   8.988   3.998   9.435
43980SOL    HW131964   8.927   3.923   9.458
43980SOL    HW231965   9.010   4.050   9.518
43981SOL     OW31966   8.751   4.562   9.352
43981SOL    HW131967   8.785   4.469   9.367
43981SOL    HW231968   8.769   4.589   9.257
43982SOL     OW31969   8.516   5.057  10.159
43982SOL    HW131970   8.523   4.973  10.104
43982SOL    HW231971   8.578   5.126  10.123
43983SOL     OW31972   7.767   4.534  10.259
43983SOL    HW131973   7.860   4.570  10.264
43983SOL    HW231974   7.761   4.449  10.311
43984SOL     OW31975   7.787   4.233  10.316
43984SOL    HW131976   7.735   4.150  10.299
43984SOL    HW231977   7.864   4.238  10.252
43985SOL     OW31978   8.586   4.104  10.988
43985SOL    HW131979   8.541   4.167  11.052
43985SOL    HW231980   8.679   4.135  10.971
43986SOL     OW31981   8.608   3.931  10.787
43986SOL    HW131982   8.608   3.995  10.864
43986SOL    HW231983   8.636   3.979  10.704
43987SOL     OW31984   7.456   5.050   9.510
43987SOL    HW131985   7.363   5.071   9.479
43987SOL    HW231986   7.466   4.951   9.523
43988SOL     OW31987   7.536   5.525  10.237
43988SOL    HW131988   7.494   5.439  10.210
43988SOL    HW231989   7.630   5.528  10.203
43989SOL     OW31990   7.952   5.292  10.220
43989SOL    HW131991   8.018   5.366  10.229
43989SOL    HW231992   7.996   5.213  10.178
43990SOL     OW31993   8.450   4.520  10.548
43990SOL    HW131994   8.491   4.488  10.634
43990SOL    HW231995   8.354   4.493  10.545
43991SOL     OW31996   7.488   4.268  10.424
43991SOL    HW131997   7.573   4.235  10.383
43991SOL    HW231998   7.501   4.283  10.522
43992SOL     OW31999   7.637   4.244  11.032
43992SOL    HW132000   7.696   4.204  10.962
43992SOL    HW232001   7.579   4.315  10.991
43993SOL     OW32002   8.817   4.674  10.970
43993SOL    HW132003   8.856   4.763  10.990
43993SOL    HW232004   8.827   4.654  10.873
43994SOL     OW32005   8.263   4.296   9.635
43994SOL    HW132006   8.270   4.207   9.589
43994SOL    HW232007   8.169   4.330   9.627
43995SOL     OW32008   9.105   4.328  10.516
43995SOL    HW132009   9.067   4.259  10.578
43995SOL    HW232010   9.187   4.292  10.472
43996SOL     OW32011   7.700   5.288  11.054
43996SOL    HW132012   7.670   5.345  11.130
43996SOL    HW232013   7.693   5.191  11.080
43997SOL     OW32014   8.119   4.188  10.579
43997SOL    HW132015   8.085   4.099  10.549
43997SOL    HW232016   8.145   4.242  10.499
43998SOL     OW32017   8.378   5.402  10.775
43998SOL    HW132018   8.354   5.384  10.680
43998SOL    HW232019   8.408   5.496  10.785
43999SOL     OW32020   7.921   4.224   9.501
43999SOL    HW132021   7.982   4.304   9.505
43999SOL    HW232022   7.826   4.255   9.508
44000SOL     OW32023   7.607   4.861  10.776
44000SOL    HW132024   7.629   4.800  10.852
44000SOL    HW232025   7.617   4.812  10.690
44001SOL     OW32026   8.795   4.783  10.544
44001SOL    HW132027   8.819   4.720  10.470
44001SOL    HW232028   8.705   4.823  10.526
44002SOL     OW32029   8.750   4.579   9.619
44002SOL    HW132030   8.664   4.548   9.661
44002SOL    HW232031   8.746   4.565   9.520
44003SOL     OW32032   9.207   5.471  10.464
44003SOL    HW132033   9.268   5.501  10.391
44003SOL    HW232034   9.169   5.382  10.442
44004SOL     OW32035   8.700   5.455  10.438
44004SOL    HW132036   8.784   5.460  10.384
44004SOL    HW232037   8.677   5.359  10.456
44005SOL     OW32038   7.531   4.982  10.332
44005SOL    HW132039   7.526   4.981  10.432
44005SOL    HW232040   7.448   4.941  10.294
44006SOL     OW32041   8.136   5.386  11.026
44006SOL    HW132042   8.080   5.467  11.035
44006SOL    HW232043   8.188   5.390  10.940
44007SOL     OW32044   9.174   3.859   9.833
44007SOL    HW132045   9.247   3.842   9.766
44007SOL    HW232046   9.143   3.772   9.871
44008SOL     OW32047   8.836   5.297   9.787
44008SOL    HW132048   8.903   5.309   9.713
44008SOL    HW232049   8.796   5.386   9.810
44009SOL     OW32050   7.578   5.518  11.161
44009SOL    HW132051   7.537   5.444  11.214
44009SOL    HW232052   7.642   5.569  11.219
44010SOL     OW32053   8.728   4.651   9.982
44010SOL    HW132054   8.788   4.570   9.984
44010SOL    HW232055   8.768   4.720   9.922
44011SOL     OW32056   8.278   4.997  10.732
44011SOL    HW132057   8.273   5.030  10.827
44011SOL    HW232058   8.192   5.016  10.686
44012SOL     OW32059   8.120   5.340   9.464
44012SOL    HW132060   8.129   5.350   9.365
44012SOL    HW232061   8.080   5.251   9.485
44013SOL     OW32062   9.098   5.444  10.704
44013SOL    HW132063   9.151   5.454  10.620
44013SOL    HW232064   9.071   5.534  10.738
44014SOL     OW32065   9.289   3.899  10.273
44014SOL    HW132066   9.328   3.814  10.237
44014SOL    HW232067   9.191   3.901  10.254
44015SOL     OW32068   7.711   4.050  10.030
44015SOL    HW132069   7.632   4.101   9.996
44015SOL    HW232070   7.702   4.035  10.128
44016SOL     OW32071   8.642   5.336   9.341
44016SOL    HW132072   8.648   5.243   9.378
44016SOL    HW232073   8.583   5.336   9.261
44017SOL     OW32074   8.270   4.726  10.682
44017SOL    HW132075   8.310   4.725  10.590
44017SOL    HW232076   8.280   4.818  10.722
44018SOL     OW32077   8.364   4.634   9.601
44018SOL    HW132078   8.427   4.672   9.533
44018SOL    HW232079   8.404   4.551   9.640
44019SOL     OW32080   8.952   5.331   9.354
44019SOL    HW132081   8.860   5.368   9.361
44019SOL    HW232082   8.990   5.351   9.264
44020SOL     OW32083   7.820   5.012  10.800
44020SOL    HW132084   7.807   5.105  10.766
44020SOL    HW232085   7.736   4.960  10.787
44021SOL     OW32086   9.062   5.016  10.599
44021SOL    HW132087   9.122   5.019  10.679
44021SOL    HW232088   8.987   5.080  10.612
44022SOL     OW32089   8.487   4.822  10.006
44022SOL    HW132090   8.417   4.775  10.060
44022SOL    HW232091   8.546   4.754   9.963
44023SOL     OW32092   8.462   3.960  10.281
44023SOL    HW132093   8.454   3.924  10.188
44023SOL    HW232094   8.460   3.884  10.346
44024SOL     OW32095   8.038   5.211   9.801
44024SOL    HW132096   8.080   5.153   9.731
44024SOL    HW232097   7.994   5.290   9.757
44025SOL     OW32098   9.157   4.109  10.691
44025SOL    HW132099   9.230   4.178  10.695
44025SOL    HW232100   9.185   4.034  10.632
44026SOL     OW32101   7.703   5.072   9.600
44026SOL    HW132102   7.607   5.073   9.573
44026SOL    HW232103   7.715   5.125   9.684
44027SOL     OW32104   7.553   4.737  11.036
44027SOL    HW132105   7.476   4.704  11.090
44027SOL    HW232106   7.638   4.707  11.078
44028SOL     OW32107   8.120   3.927  10.799
44028SOL    HW132108   8.210   3.911  10.759
44028SOL    HW232109   8.128   3.932  10.898
44029SOL     OW32110   7.523   4.069   9.343
44029SOL    HW132111   7.431   4.041   9.314
44029SOL    HW232112   7.554   4.146   9.287
44030SOL     OW32113   8.888   4.580  10.708
44030SOL    HW132114   8.831   4.632  10.645
44030SOL    HW232115   8.984   4.592  10.684
44031SOL     OW32116   7.520   3.890   9.628
44031SOL    HW132117   7.503   3.973   9.574
44031SOL    HW232118   7.610   3.853   9.606
44032SOL     OW32119   8.631   5.059   9.429
44032SOL    HW132120   8.532   5.048   9.431
44032SOL    HW232121   8.665   5.074   9.522
44033SOL     OW32122   8.061   4.566  10.741
44033SOL    HW132123   8.117   4.647  10.724
44033SOL    HW232124   8.120   4.486  10.744
44034SOL     OW32125   8.941   5.491  10.269
44034SOL    HW132126   8.974   5.555  10.200
44034SOL    HW232127   9.007   5.485  10.344
44035SOL     OW32128   8.164   4.289  11.018
44035SOL    HW132129   8.183   4.354  11.092
44035SOL    HW232130   8.224   4.209  11.027
44036SOL     OW32131   8.898   4.944  10.943
44036SOL    HW132132   8.889   4.934  11.042
44036SOL    HW232133   8.994   4.937  10.917
44037SOL     OW32134   7.838   5.465  10.870
44037SOL    HW132135   7.747   5.506  10.868
44037SOL    HW232136   7.831   5.371  10.902
44038SOL     OW32137   9.122   4.607  10.564
44038SOL    HW132138   9.095   4.518  10.527
44038SOL    HW232139   9.123   4.675  10.491
44039SOL     OW32140   8.673   4.049   9.759
44039SOL    HW132141   8.738   3.975   9.748
44039SOL    HW232142   8.693   4.099   9.843
44040SOL     OW32143   8.042   4.469   9.962
44040SOL    HW132144   8.092   4.554   9.943
44040SOL    HW232145   7.954   4.471   9.914
44041SOL     OW32146   9.225   4.066  10.952
44041SOL    HW132147   9.208   4.097  10.858
44041SOL    HW232148   9.141   4.029  10.990
44042SOL     OW32149   9.178   4.658  10.827
44042SOL    HW132150   9.216   4.749  10.842
44042SOL    HW232151   9.170   4.641  10.728
44043SOL     OW32152   8.307   5.098   9.326
44043SOL    HW132153   8.261   5.113   9.414
44043SOL    HW232154   8.351   5.183   9.296
44044SOL     OW32155   8.109   5.514  10.263
44044SOL    HW132156   8.063   5.602  10.250
44044SOL    HW232157   8.208   5.526  10.256
44045SOL     OW32158   8.307   4.680  10.171
44045SOL    HW132159   8.361   4.611  10.219
44045SOL    HW232160   8.275   4.749  10.237
44046SOL     OW32161   8.531   4.708   9.397
44046SOL    HW132162   8.508   4.761   9.315
44046SOL    HW232163   8.612   4.652   9.378
44047SOL     OW32164   9.309   5.293  10.161
44047SOL    HW132165   9.238   5.281  10.091
44047SOL    HW232166   9.310   5.214  10.221
44048SOL     OW32167   7.669   5.038  11.154
44048SOL    HW132168   7.604   4.965  11.133
44048SOL    HW232169   7.673   5.052  11.252
44049SOL     OW32170   7.527   4.964   9.963
44049SOL    HW132171   7.526   4.917  10.051
44049SOL    HW232172   7.609   4.936   9.912
44050SOL     OW32173   8.120   5.115  10.934
44050SOL    HW132174   8.042   5.065  10.972
44050SOL    HW232175   8.117   5.210  10.965
44051SOL     OW32176   9.272   3.916  10.537
44051SOL    HW132177   9.268   3.826  10.581
44051SOL    HW232178   9.275   3.905  10.438
44052SOL     OW32179   7.876   4.148   9.830
44052SOL    HW132180   7.906   4.076   9.768
44052SOL    HW232181   7.837   4.108   9.913
44053SOL     OW32182   9.153   5.211  10.414
44053SOL    HW132183   9.060   5.186  10.387
44053SOL    HW232184   9.179   5.161  10.496
44054SOL     OW32185   7.765   4.271  10.590
44054SOL    HW132186   7.803   4.212  10.662
44054SOL    HW232187   7.805   4.245  10.502
44055SOL     OW32188   8.260   5.310   9.997
44055SOL    HW132189   8.292   5.320   9.903
44055SOL    HW232190   8.181   5.248   9.999
44056SOL     OW32191   8.872   3.938  10.422
44056SOL    HW132192   8.924   3.873  10.477
44056SOL    HW232193   8.823   4.001  10.483
44057SOL     OW32194   8.449   3.758  10.464
44057SOL    HW132195   8.386   3.686  10.433
44057SOL    HW232196   8.542   3.722  10.464
44058SOL     OW32197   8.218   5.054   9.611
44058SOL    HW132198   8.172   4.967   9.628
44058SOL    HW232199   8.309   5.051   9.652
44059SOL     OW32200   8.066   5.291  10.594
44059SOL    HW132201   8.061   5.373  10.651
44059SOL    HW232202   8.155   5.288  10.549
44060SOL     OW32203   8.800   3.776   9.478
44060SOL    HW132204   8.835   3.735   9.394
44060SOL    HW232205   8.710   3.738   9.498
44061SOL     OW32206   8.748   4.177  10.001
44061SOL    HW132207   8.689   4.257  10.005
44061SOL    HW232208   8.763   4.142  10.094
44062SOL     OW32209   9.041   3.945  10.192
44062SOL    HW132210   8.957   3.944  10.246
44062SOL    HW232211   9.043   4.028  10.136
44063SOL     OW32212   7.487   4.801   9.610
44063SOL    HW132213   7.586   4.790   9.601
44063SOL    HW232214   7.447   4.715   9.642
44064SOL     OW32215   8.323   5.370   9.647
44064SOL    HW132216   8.246   5.335   9.593
44064SOL    HW232217   8.291   5.441   9.709
44065SOL     OW32218   7.678   4.352  11.285
44065SOL    HW132219   7.585   4.350  11.322
44065SOL    HW232220   7.679   4.313  11.193
44066SOL     OW32221   7.673   3.999  12.168
44066SOL    HW132222   7.708   3.982  12.260
44066SOL    HW232223   7.585   3.954  12.156
44067SOL     OW32224   7.467   4.092  11.819
44067SOL    HW132225   7.385   4.135  11.858
44067SOL    HW232226   7.439   4.019  11.756
44068SOL     OW32227   8.017   4.999  12.337
44068SOL    HW132228   7.924   4.992  12.300
44068SOL    HW232229   8.028   5.088  12.381
44069SOL     OW32230   9.003   5.235  11.875
44069SOL    HW132231   8.946   5.219  11.956
44069SOL    HW232232   8.944   5.245  11.795
44070SOL     OW32233   8.583   4.427  11.889
44070SOL    HW132234   8.640   4.505  11.864
44070SOL    HW232235   8.523   4.453  11.965
44071SOL     OW32236   9.203   4.331  11.403
44071SOL    HW132237   9.191   4.318  11.304
44071SOL    HW232238   9.173   4.250  11.452
44072SOL     OW32239   8.216   4.868  12.195
44072SOL    HW132240   8.138   4.885  12.255
44072SOL    HW232241   8.250   4.955  12.159
44073SOL     OW32242   8.133   4.736  11.837
44073SOL    HW132243   8.202   4.720  11.907
44073SOL    HW232244   8.060   4.793  11.875
44074SOL     OW32245   7.783   5.159  12.233
44074SOL    HW132246   7.705   5.128  12.180
44074SOL    HW232247   7.841   5.217  12.176
44075SOL     OW32248   8.908   5.229  12.511
44075SOL    HW132249   8.932   5.323  12.537
44075SOL    HW232250   8.892   5.175  12.593
44076SOL     OW32251   7.886   4.116  12.671
44076SOL    HW132252   7.968   4.060  12.680
44076SOL    HW232253   7.805   4.058  12.675
44077SOL     OW32254   9.051   4.171  11.909
44077SOL    HW132255   8.977   4.217  11.859
44077SOL    HW232256   9.102   4.239  11.962
44078SOL     OW32257   7.679   5.437  11.655
44078SOL    HW132258   7.713   5.514  11.709
44078SOL    HW232259   7.723   5.437  11.565
44079SOL     OW32260   7.678   5.158  11.710
44079SOL    HW132261   7.652   5.254  11.710
44079SOL    HW232262   7.607   5.104  11.755
44080SOL     OW32263   7.688   4.815  12.058
44080SOL    HW132264   7.702   4.731  12.110
44080SOL    HW232265   7.633   4.879  12.113
44081SOL     OW32266   8.068   5.510  12.611
44081SOL    HW132267   7.976   5.493  12.646
44081SOL    HW232268   8.096   5.602  12.637
44082SOL     OW32269   8.054   4.688  11.295
44082SOL    HW132270   8.061   4.772  11.241
44082SOL    HW232271   8.100   4.701  11.383
44083SOL     OW32272   9.042   3.838  12.652
44083SOL    HW132273   9.024   3.905  12.580
44083SOL    HW232274   9.039   3.884  12.741
44084SOL     OW32275   7.570   4.367  11.735
44084SOL    HW132276   7.525   4.279  11.752
44084SOL    HW232277   7.569   4.421  11.819
44085SOL     OW32278   9.290   5.491  11.531
44085SOL    HW132279   9.344   5.462  11.611
44085SOL    HW232280   9.320   5.581  11.502
44086SOL     OW32281   7.475   5.320  11.289
44086SOL    HW132282   7.456   5.224  11.310
44086SOL    HW232283   7.442   5.378  11.364
44087SOL     OW32284   9.137   4.646  11.784
44087SOL    HW132285   9.232   4.617  11.792
44087SOL    HW232286   9.129   4.711  11.709
44088SOL     OW32287   9.089   4.832  11.604
44088SOL    HW132288   9.175   4.834  11.552
44088SOL    HW232289   9.103   4.879  11.692
44089SOL     OW32290   7.561   4.461  12.769
44089SOL    HW132291   7.649   4.448  12.814
44089SOL    HW232292   7.548   4.558  12.747
44090SOL     OW32293   8.061   5.089  11.898
44090SOL    HW132294   8.012   5.002  11.907
44090SOL    HW232295   8.038   5.132  11.811
44091SOL     OW32296   8.741   4.952  12.595
44091SOL    HW132297   8.778   4.879  12.537
44091SOL    HW232298   8.793   4.957  12.680
44092SOL     OW32299   8.257   3.728  11.674
44092SOL    HW132300   8.297   3.819  11.665
44092SOL    HW232301   8.157   3.736  11.680
44093SOL     OW32302   7.645   4.700  12.436
44093SOL    HW132303   7.734   4.655  12.422
44093SOL    HW232304   7.572   4.635  12.417
44094SOL     OW32305   8.973   4.723  11.362
44094SOL    HW132306   8.910   4.647  11.375
44094SOL    HW232307   9.021   4.741  11.448
44095SOL     OW32308   8.914   5.141  12.125
44095SOL    HW132309   8.855   5.147  12.205
44095SOL    HW232310   8.899   5.053  12.079
44096SOL     OW32311   9.115   5.438  11.744
44096SOL    HW132312   9.074   5.415  11.656
44096SOL    HW232313   9.097   5.364  11.809
44097SOL     OW32314   8.046   4.453  11.442
44097SOL    HW132315   8.070   4.522  11.374
44097SOL    HW232316   7.968   4.486  11.496
44098SOL     OW32317   8.729   4.069  12.116
44098SOL    HW132318   8.643   4.019  12.103
44098SOL    HW232319   8.791   4.015  12.172
44099SOL     OW32320   9.024   5.386  11.479
44099SOL    HW132321   9.113   5.432  11.482
44099SOL    HW232322   9.003   5.362  11.384
44100SOL     OW32323   8.255   4.329  12.637
44100SOL    HW132324   8.208   4.326  12.726
44100SOL    HW232325   8.204   4.274  12.571
44101SOL     OW32326   8.421   4.614  12.744
44101SOL    HW132327   8.467   4.530  12.715
44101SOL    HW232328   8.365   4.648  12.669
44102SOL     OW32329   8.439   4.134  12.414
44102SOL    HW132330   8.362   4.168  12.468
44102SOL    HW232331   8.405   4.083  12.335
44103SOL     OW32332   8.489   4.425  11.601
44103SOL    HW132333   8.515   4.421  11.697
44103SOL    HW232334   8.404   4.374  11.587
44104SOL     OW32335   7.524   4.535  11.961
44104SOL    HW132336   7.623   4.523  11.970
44104SOL    HW232337   7.500   4.630  11.982
44105SOL     OW32338   7.578   5.545  12.743
44105SOL    HW132339   7.568   5.530  12.842
44105SOL    HW232340   7.492   5.581  12.707
44106SOL     OW32341   8.313   4.072  11.367
44106SOL    HW132342   8.372   4.135  11.318
44106SOL    HW232343   8.332   3.978  11.338
44107SOL     OW32344   8.810   4.868  11.717
44107SOL    HW132345   8.893   4.839  11.669
44107SOL    HW232346   8.761   4.935  11.661
44108SOL     OW32347   7.998   3.920  12.057
44108SOL    HW132348   7.993   3.915  12.157
44108SOL    HW232349   8.000   4.016  12.028
44109SOL     OW32350   8.456   5.180  11.649
44109SOL    HW132351   8.410   5.252  11.597
44109SOL    HW232352   8.452   5.200  11.747
44110SOL     OW32353   7.799   5.525  12.025
44110SOL    HW132354   7.849   5.439  12.031
44110SOL    HW232355   7.864   5.602  12.022
44111SOL     OW32356   9.243   4.790  12.045
44111SOL    HW132357   9.181   4.775  11.969
44111SOL    HW232358   9.191   4.801  12.130
44112SOL     OW32359   8.675   5.274  12.678
44112SOL    HW132360   8.681   5.197  12.742
44112SOL    HW232361   8.623   5.248  12.598
44113SOL     OW32362   7.769   4.667  11.414
44113SOL    HW132363   7.851   4.706  11.372
44113SOL    HW232364   7.742   4.585  11.365
44114SOL     OW32365   8.906   4.459  11.900
44114SOL    HW132366   8.901   4.394  11.975
44114SOL    HW232367   8.986   4.518  11.913
44115SOL     OW32368   8.559   5.500  11.409
44115SOL    HW132369   8.499   5.438  11.459
44115SOL    HW232370   8.590   5.456  11.324
44116SOL     OW32371   7.650   4.009  12.670
44116SOL    HW132372   7.570   4.069  12.657
44116SOL    HW232373   7.640   3.960  12.756
44117SOL     OW32374   9.080   5.101  11.253
44117SOL    HW132375   9.048   5.195  11.243
44117SOL    HW232376   9.004   5.038  11.241
44118SOL     OW32377   7.912   5.467  11.495
44118SOL    HW132378   7.945   5.506  11.581
44118SOL    HW232379   7.988   5.460  11.430
44119SOL     OW32380   8.848   3.831  11.598
44119SOL    HW132381   8.824   3.794  11.508
44119SOL    HW232382   8.947   3.847  11.602
44120SOL     OW32383   7.697   5.509  12.413
44120SOL    HW132384   7.754   5.444  12.463
44120SOL    HW232385   7.681   5.476  12.320
44121SOL     OW32386   8.388   5.422  12.076
44121SOL    HW132387   8.468   5.365  12.097
44121SOL    HW232388   8.339   5.382  11.999
44122SOL     OW32389   7.830   4.424  11.652
44122SOL    HW132390   7.875   4.334  11.649
44122SOL    HW232391   7.736   4.413  11.685
44123SOL     OW32392   8.062   3.846  11.289
44123SOL    HW132393   8.160   3.824  11.296
44123SOL    HW232394   8.031   3.829  11.196
44124SOL     OW32395   8.336   5.238  12.367
44124SOL    HW132396   8.313   5.213  12.273
44124SOL    HW232397   8.397   5.169  12.406
44125SOL     OW32398   8.799   4.314  12.605
44125SOL    HW132399   8.827   4.271  12.690
44125SOL    HW232400   8.824   4.410  12.606
44126SOL     OW32401   8.251   5.126  12.096
44126SOL    HW132402   8.341   5.140  12.054
44126SOL    HW232403   8.180   5.128  12.025
44127SOL     OW32404   8.370   4.227  12.071
44127SOL    HW132405   8.345   4.218  11.975
44127SOL    HW232406   8.418   4.145  12.102
44128SOL     OW32407   7.987   3.788  11.684
44128SOL    HW132408   7.906   3.789  11.742
44128SOL    HW232409   7.990   3.871  11.629
44129SOL     OW32410   8.882   4.912  11.213
44129SOL    HW132411   8.914   4.836  11.270
44129SOL    HW232412   8.790   4.939  11.243
44130SOL     OW32413   7.745   3.759  11.343
44130SOL    HW132414   7.794   3.843  11.322
44130SOL    HW232415   7.807   3.694  11.388
44131SOL     OW32416   8.383   3.960  11.652
44131SOL    HW132417   8.335   4.001  11.574
44131SOL    HW232418   8.482   3.958  11.633
44132SOL     OW32419   8.524   4.407  12.636
44132SOL    HW132420   8.444   4.346  12.639
44132SOL    HW232421   8.605   4.354  12.612
44133SOL     OW32422   8.675   5.294  11.965
44133SOL    HW132423   8.696   5.368  11.900
44133SOL    HW232424   8.743   5.294  12.038
44134SOL     OW32425   7.907   4.876  11.913
44134SOL    HW132426   7.836   4.849  11.978
44134SOL    HW232427   7.881   4.848  11.820
44135SOL     OW32428   8.719   5.521  11.763
44135SOL    HW132429   8.763   5.585  11.699
44135SOL    HW232430   8.669   5.573  11.833
44136SOL     OW32431   8.480   4.273  11.188
44136SOL    HW132432   8.439   4.355  11.149
44136SOL    HW232433   8.544   4.299  11.261
44137SOL     OW32434   7.526   4.280  12.558
44137SOL    HW132435   7.618   4.279  12.517
44137SOL    HW232436   7.520   4.354  12.625
44138SOL     OW32437   8.009   3.946  12.319
44138SOL    HW132438   8.047   3.862  12.356
44138SOL    HW232439   7.921   3.965  12.363
44139SOL     OW32440   8.314   4.178  11.814
44139SOL    HW132441   8.282   4.250  11.752
44139SOL    HW232442   8.338   4.097  11.761
44140SOL     OW32443   8.465   3.763  11.925
44140SOL    HW132444   8.393   3.768  11.856
44140SOL    HW232445   8.441   3.694  11.994
44141SOL     OW32446   8.877   4.897  12.039
44141SOL    HW132447   8.822   4.813  12.032
44141SOL    HW232448   8.903   4.926  11.947
44142SOL     OW32449   8.914   4.314  12.164
44142SOL    HW132450   8.884   4.219  12.171
44142SOL    HW232451   8.987   4.330  12.230
44143SOL     OW32452   9.305   4.557  11.549
44143SOL    HW132453   9.347   4.493  11.613
44143SOL    HW232454   9.267   4.506  11.471
44144SOL     OW32455   7.936   5.109  11.346
44144SOL    HW132456   7.849   5.094  11.393
44144SOL    HW232457   7.919   5.135  11.251
44145SOL     OW32458   9.112   5.004  11.829
44145SOL    HW132459   9.211   5.012  11.843
44145SOL    HW232460   9.067   5.088  11.860
44146SOL     OW32461   8.838   4.299  11.250
44146SOL    HW132462   8.784   4.278  11.331
44146SOL    HW232463   8.929   4.258  11.259
44147SOL     OW32464   7.975   3.980  11.500
44147SOL    HW132465   8.002   3.921  11.425
44147SOL    HW232466   7.975   4.075  11.469
44148SOL     OW32467   9.202   4.947  12.760
44148SOL    HW132468   9.293   4.908  12.747
44148SOL    HW232469   9.210   5.043  12.784
44149SOL     OW32470   8.512   5.071  12.512
44149SOL    HW132471   8.432   5.048  12.567
44149SOL    HW232472   8.595   5.045  12.561
44150SOL     OW32473   8.559   4.919  12.272
44150SOL    HW132474   8.519   4.963  12.353
44150SOL    HW232475   8.518   4.956  12.189
44151SOL     OW32476   9.086   4.823  12.251
44151SOL    HW132477   9.091   4.904  12.310
44151SOL    HW232478   9.000   4.825  12.200
44152SOL     OW32479   8.363   3.813  12.574
44152SOL    HW132480   8.388   3.793  12.479
44152SOL    HW232481   8.435   3.869  12.616
44153SOL     OW32482   8.153   4.774  11.540
44153SOL    HW132483   8.139   4.781  11.639
44153SOL    HW232484   8.237   4.723  11.522
44154SOL     OW32485   7.858   4.537  12.423
44154SOL    HW132486   7.944   4.549  12.473
44154SOL    HW232487   7.816   4.450  12.450
44155SOL     OW32488   8.722   4.110  12.434
44155SOL    HW132489   8.743   4.184  12.498
44155SOL    HW232490   8.633   4.127  12.391
44156SOL     OW32491   7.512   5.288  12.503
44156SOL    HW132492   7.466   5.370  12.469
44156SOL    HW232493   7.610   5.307  12.512
44157SOL     OW32494   7.815   4.824  11.673
44157SOL    HW132495   7.808   4.907  11.617
44157SOL    HW232496   7.819   4.744  11.613
44158SOL     OW32497   8.014   4.261  12.037
44158SOL    HW132498   8.026   4.327  11.963
44158SOL    HW232499   8.060   4.295  12.120
44159SOL     OW32500   8.700   5.072  11.560
44159SOL    HW132501   8.750   5.149  11.600
44159SOL    HW232502   8.605   5.074  11.592
44160SOL     OW32503   8.720   5.169  12.314
44160SOL    HW132504   8.767   5.182  12.401
44160SOL    HW232505   8.654   5.095  12.323
44161SOL     OW32506   9.030   4.363  11.644
44161SOL    HW132507   8.999   4.424  11.717
44161SOL    HW232508   9.080   4.415  11.575
44162SOL     OW32509   7.802   5.234  12.501
44162SOL    HW132510   7.781   5.190  12.414
44162SOL    HW232511   7.899   5.260  12.504
44163SOL     OW32512   7.850   4.475  12.770
44163SOL    HW132513   7.918   4.530  12.723
44163SOL    HW232514   7.890   4.387  12.797
44164SOL     OW32515   9.035   4.503  12.842
44164SOL    HW132516   8.943   4.541  12.837
44164SOL    HW232517   9.095   4.550  12.777
44165SOL     OW32518   8.021   4.594  12.201
44165SOL    HW132519   8.065   4.683  12.192
44165SOL    HW232520   7.958   4.594  12.278
44166SOL     OW32521   8.808   4.586  12.217
44166SOL    HW132522   8.733   4.586  12.151
44166SOL    HW232523   8.845   4.494  12.226
44167SOL     OW32524   8.657   4.249  11.447
44167SOL    HW132525   8.670   4.165  11.501
44167SOL    HW232526   8.628   4.323  11.507
44168SOL     OW32527   7.755   3.937  12.403
44168SOL    HW132528   7.732   3.974  12.493
44168SOL    HW232529   7.725   3.842  12.397
44169SOL     OW32530   7.485   5.034  12.454
44169SOL    HW132531   7.538   4.985  12.522
44169SOL    HW232532   7.507   5.132  12.459
44170SOL     OW32533   8.180   4.358  12.236
44170SOL    HW132534   8.239   4.332  12.160
44170SOL    HW232535   8.152   4.454  12.225
44171SOL     OW32536   7.755   3.787  11.790
44171SOL    HW132537   7.744   3.881  11.823
44171SOL    HW232538   7.750   3.724  11.867
44172SOL     OW32539   8.471   4.490  12.138
44172SOL    HW132540   8.486   4.511  12.234
44172SOL    HW232541   8.441   4.395  12.129
44173SOL     OW32542   8.988   3.998  11.297
44173SOL    HW132543   8.927   3.923  11.320
44173SOL    HW232544   9.010   4.050  11.380
44174SOL     OW32545   8.751   4.562  11.214
44174SOL    HW132546   8.785   4.469  11.229
44174SOL    HW232547   8.769   4.589  11.119
44175SOL     OW32548   8.516   5.057  12.021
44175SOL    HW132549   8.523   4.973  11.966
44175SOL    HW232550   8.578   5.126  11.985
44176SOL     OW32551   7.767   4.534  12.121
44176SOL    HW132552   7.860   4.570  12.126
44176SOL    HW232553   7.761   4.449  12.173
44177SOL     OW32554   7.787   4.233  12.178
44177SOL    HW132555   7.735   4.150  12.161
44177SOL    HW232556   7.864   4.238  12.114
44178SOL     OW32557   8.608   3.931  12.649
44178SOL    HW132558   8.608   3.995  12.726
44178SOL    HW232559   8.636   3.979  12.566
44179SOL     OW32560   7.456   5.050  11.372
44179SOL    HW132561   7.363   5.071  11.341
44179SOL    HW232562   7.466   4.951  11.385
44180SOL     OW32563   7.536   5.525  12.099
44180SOL    HW132564   7.494   5.439  12.072
44180SOL    HW232565   7.630   5.528  12.065
44181SOL     OW32566   7.952   5.292  12.082
44181SOL    HW132567   8.018   5.366  12.091
44181SOL    HW232568   7.996   5.213  12.040
44182SOL     OW32569   8.450   4.520  12.410
44182SOL    HW132570   8.491   4.488  12.496
44182SOL    HW232571   8.354   4.493  12.407
44183SOL     OW32572   7.488   4.268  12.286
44183SOL    HW132573   7.573   4.235  12.245
44183SOL    HW232574   7.501   4.283  12.384
44184SOL     OW32575   8.263   4.296  11.497
44184SOL    HW132576   8.270   4.207  11.451
44184SOL    HW232577   8.169   4.330  11.489
44185SOL     OW32578   9.105   4.328  12.378
44185SOL    HW132579   9.067   4.259  12.440
44185SOL    HW232580   9.187   4.292  12.334
44186SOL     OW32581   7.700   5.288  12.916
44186SOL    HW132582   7.670   5.345  12.992
44186SOL    HW232583   7.693   5.191  12.942
44187SOL     OW32584   8.119   4.188  12.441
44187SOL    HW132585   8.085   4.099  12.411
44187SOL    HW232586   8.145   4.242  12.361
44188SOL     OW32587   8.378   5.402  12.637
44188SOL    HW132588   8.354   5.384  12.542
44188SOL    HW232589   8.408   5.496  12.647
44189SOL     OW32590   7.921   4.224  11.363
44189SOL    HW132591   7.982   4.304  11.367
44189SOL    HW232592   7.826   4.255  11.370
44190SOL     OW32593   7.607   4.861  12.638
44190SOL    HW132594   7.629   4.800  12.714
44190SOL    HW232595   7.617   4.812  12.552
44191SOL     OW32596   8.795   4.783  12.406
44191SOL    HW132597   8.819   4.720  12.332
44191SOL    HW232598   8.705   4.823  12.388
44192SOL     OW32599   8.750   4.579  11.481
44192SOL    HW132600   8.664   4.548  11.523
44192SOL    HW232601   8.746   4.565  11.382
44193SOL     OW32602   9.207   5.471  12.326
44193SOL    HW132603   9.268   5.501  12.253
44193SOL    HW232604   9.169   5.382  12.304
44194SOL     OW32605   8.700   5.455  12.300
44194SOL    HW132606   8.784   5.460  12.246
44194SOL    HW232607   8.677   5.359  12.318
44195SOL     OW32608   7.531   4.982  12.194
44195SOL    HW132609   7.526   4.981  12.294
44195SOL    HW232610   7.448   4.941  12.156
44196SOL     OW32611   9.174   3.859  11.695
44196SOL    HW132612   9.247   3.842  11.628
44196SOL    HW232613   9.143   3.772  11.733
44197SOL     OW32614   8.728   4.651  11.844
44197SOL    HW132615   8.788   4.570  11.846
44197SOL    HW232616   8.768   4.720  11.784
44198SOL     OW32617   8.278   4.997  12.594
44198SOL    HW132618   8.273   5.030  12.689
44198SOL    HW232619   8.192   5.016  12.548
44199SOL     OW32620   8.120   5.340  11.326
44199SOL    HW132621   8.129   5.350  11.227
44199SOL    HW232622   8.080   5.251  11.347
44200SOL     OW32623   9.098   5.444  12.566
44200SOL    HW132624   9.151   5.454  12.482
44200SOL    HW232625   9.071   5.534  12.600
44201SOL     OW32626   9.289   3.899  12.135
44201SOL    HW132627   9.328   3.814  12.099
44201SOL    HW232628   9.191   3.901  12.116
44202SOL     OW32629   7.711   4.050  11.892
44202SOL    HW132630   7.632   4.101  11.858
44202SOL    HW232631   7.702   4.035  11.990
44203SOL     OW32632   8.642   5.336  11.203
44203SOL    HW132633   8.648   5.243  11.240
44203SOL    HW232634   8.583   5.336  11.123
44204SOL     OW32635   8.270   4.726  12.544
44204SOL    HW132636   8.310   4.725  12.452
44204SOL    HW232637   8.280   4.818  12.584
44205SOL     OW32638   8.364   4.634  11.463
44205SOL    HW132639   8.427   4.672  11.395
44205SOL    HW232640   8.404   4.551  11.502
44206SOL     OW32641   8.952   5.331  11.216
44206SOL    HW132642   8.860   5.368  11.223
44206SOL    HW232643   8.990   5.351  11.126
44207SOL     OW32644   7.820   5.012  12.662
44207SOL    HW132645   7.807   5.105  12.628
44207SOL    HW232646   7.736   4.960  12.649
44208SOL     OW32647   9.062   5.016  12.461
44208SOL    HW132648   9.122   5.019  12.541
44208SOL    HW232649   8.987   5.080  12.474
44209SOL     OW32650   8.487   4.822  11.868
44209SOL    HW132651   8.417   4.775  11.922
44209SOL    HW232652   8.546   4.754  11.825
44210SOL     OW32653   8.462   3.960  12.143
44210SOL    HW132654   8.454   3.924  12.050
44210SOL    HW232655   8.460   3.884  12.208
44211SOL     OW32656   8.038   5.211  11.663
44211SOL    HW132657   8.080   5.153  11.593
44211SOL    HW232658   7.994   5.290  11.619
44212SOL     OW32659   9.157   4.109  12.553
44212SOL    HW132660   9.230   4.178  12.557
44212SOL    HW232661   9.185   4.034  12.494
44213SOL     OW32662   7.703   5.072  11.462
44213SOL    HW132663   7.607   5.073  11.435
44213SOL    HW232664   7.715   5.125  11.546
44214SOL     OW32665   7.553   4.737  12.898
44214SOL    HW132666   7.476   4.704  12.952
44214SOL    HW232667   7.638   4.707  12.940
44215SOL     OW32668   8.120   3.927  12.661
44215SOL    HW132669   8.210   3.911  12.621
44215SOL    HW232670   8.128   3.932  12.760
44216SOL     OW32671   7.523   4.069  11.205
44216SOL    HW132672   7.431   4.041  11.176
44216SOL    HW232673   7.554   4.146  11.149
44217SOL     OW32674   8.888   4.580  12.570
44217SOL    HW132675   8.831   4.632  12.507
44217SOL    HW232676   8.984   4.592  12.546
44218SOL     OW32677   7.520   3.890  11.490
44218SOL    HW132678   7.503   3.973  11.436
44218SOL    HW232679   7.610   3.853  11.468
44219SOL     OW32680   8.631   5.059  11.291
44219SOL    HW132681   8.532   5.048  11.293
44219SOL    HW232682   8.665   5.074  11.384
44220SOL     OW32683   8.061   4.566  12.603
44220SOL    HW132684   8.117   4.647  12.586
44220SOL    HW232685   8.120   4.486  12.606
44221SOL     OW32686   8.941   5.491  12.131
44221SOL    HW132687   8.974   5.555  12.062
44221SOL    HW232688   9.007   5.485  12.206
44222SOL     OW32689   8.164   4.289  12.880
44222SOL    HW132690   8.183   4.354  12.954
44222SOL    HW232691   8.224   4.209  12.889
44223SOL     OW32692   7.838   5.465  12.732
44223SOL    HW132693   7.747   5.506  12.730
44223SOL    HW232694   7.831   5.371  12.764
44224SOL     OW32695   9.122   4.607  12.426
44224SOL    HW132696   9.095   4.518  12.389
44224SOL    HW232697   9.123   4.675  12.353
44225SOL     OW32698   8.673   4.049  11.621
44225SOL    HW132699   8.738   3.975  11.610
44225SOL    HW232700   8.693   4.099  11.705
44226SOL     OW32701   8.042   4.469  11.824
44226SOL    HW132702   8.092   4.554  11.805
44226SOL    HW232703   7.954   4.471  11.776
44227SOL     OW32704   9.225   4.066  12.814
44227SOL    HW132705   9.208   4.097  12.720
44227SOL    HW232706   9.141   4.029  12.852
44228SOL     OW32707   9.178   4.658  12.689
44228SOL    HW132708   9.216   4.749  12.704
44228SOL    HW232709   9.170   4.641  12.590
44229SOL     OW32710   8.307   5.098  11.188
44229SOL    HW132711   8.261   5.113  11.276
44229SOL    HW232712   8.351   5.183  11.158
44230SOL     OW32713   8.109   5.514  12.125
44230SOL    HW132714   8.063   5.602  12.112
44230SOL    HW232715   8.208   5.526  12.118
44231SOL     OW32716   8.307   4.680  12.033
44231SOL    HW132717   8.361   4.611  12.081
44231SOL    HW232718   8.275   4.749  12.099
44232SOL     OW32719   8.531   4.708  11.259
44232SOL    HW132720   8.508   4.761  11.177
44232SOL    HW232721   8.612   4.652  11.240
44233SOL     OW32722   9.309   5.293  12.023
44233SOL    HW132723   9.238   5.281  11.953
44233SOL    HW232724   9.310   5.214  12.083
44234SOL     OW32725   7.527   4.964  11.825
44234SOL    HW132726   7.526   4.917  11.913
44234SOL    HW232727   7.609   4.936  11.774
44235SOL     OW32728   8.120   5.115  12.796
44235SOL    HW132729   8.042   5.065  12.834
44235SOL    HW232730   8.117   5.210  12.827
44236SOL     OW32731   9.272   3.916  12.399
44236SOL    HW132732   9.268   3.826  12.443
44236SOL    HW232733   9.275   3.905  12.300
44237SOL     OW32734   7.876   4.148  11.692
44237SOL    HW132735   7.906   4.076  11.630
44237SOL    HW232736   7.837   4.108  11.775
44238SOL     OW32737   9.153   5.211  12.276
44238SOL    HW132738   9.060   5.186  12.249
44238SOL    HW232739   9.179   5.161  12.358
44239SOL     OW32740   7.765   4.271  12.452
44239SOL    HW132741   7.803   4.212  12.524
44239SOL    HW232742   7.805   4.245  12.364
44240SOL     OW32743   8.260   5.310  11.859
44240SOL    HW132744   8.292   5.320  11.765
44240SOL    HW232745   8.181   5.248  11.861
44241SOL     OW32746   8.872   3.938  12.284
44241SOL    HW132747   8.924   3.873  12.339
44241SOL    HW232748   8.823   4.001  12.345
44242SOL     OW32749   8.449   3.758  12.326
44242SOL    HW132750   8.386   3.686  12.295
44242SOL    HW232751   8.542   3.722  12.326
44243SOL     OW32752   8.218   5.054  11.473
44243SOL    HW132753   8.172   4.967  11.490
44243SOL    HW232754   8.309   5.051  11.514
44244SOL     OW32755   8.066   5.291  12.456
44244SOL    HW132756   8.061   5.373  12.513
44244SOL    HW232757   8.155   5.288  12.411
44245SOL     OW32758   8.800   3.776  11.340
44245SOL    HW132759   8.835   3.735  11.256
44245SOL    HW232760   8.710   3.738  11.360
44246SOL     OW32761   8.748   4.177  11.863
44246SOL    HW132762   8.689   4.257  11.867
44246SOL    HW232763   8.763   4.142  11.956
44247SOL     OW32764   9.041   3.945  12.054
44247SOL    HW132765   8.957   3.944  12.108
44247SOL    HW232766   9.043   4.028  11.998
44248SOL     OW32767   7.487   4.801  11.472
44248SOL    HW132768   7.586   4.790  11.463
44248SOL    HW232769   7.447   4.715  11.504
44249SOL     OW32770   8.323   5.370  11.509
44249SOL    HW132771   8.246   5.335  11.455
44249SOL    HW232772   8.291   5.441  11.571
44250SOL     OW32773   7.678   6.214   0.113
44250SOL    HW132774   7.585   6.212   0.150
44250SOL    HW232775   7.679   6.175   0.021
44251SOL     OW32776   7.673   5.861   0.996
44251SOL    HW132777   7.708   5.844   1.088
44251SOL    HW232778   7.585   5.816   0.984
44252SOL     OW32779   8.017   6.861   1.165
44252SOL    HW132780   7.924   6.854   1.128
44252SOL    HW232781   8.028   6.950   1.209
44253SOL     OW32782   9.003   7.097   0.703
44253SOL    HW132783   8.946   7.081   0.784
44253SOL    HW232784   8.944   7.107   0.623
44254SOL     OW32785   8.583   6.289   0.717
44254SOL    HW132786   8.640   6.367   0.692
44254SOL    HW232787   8.523   6.315   0.793
44255SOL     OW32788   9.203   6.193   0.231
44255SOL    HW132789   9.191   6.180   0.132
44255SOL    HW232790   9.173   6.112   0.280
44256SOL     OW32791   8.216   6.730   1.023
44256SOL    HW132792   8.138   6.747   1.083
44256SOL    HW232793   8.250   6.817   0.987
44257SOL     OW32794   8.298   6.384   1.823
44257SOL    HW132795   8.294   6.460   1.888
44257SOL    HW232796   8.320   6.420   1.732
44258SOL     OW32797   8.133   6.598   0.665
44258SOL    HW132798   8.202   6.582   0.735
44258SOL    HW232799   8.060   6.655   0.703
44259SOL     OW32800   8.134   6.747   1.803
44259SOL    HW132801   8.194   6.826   1.817
44259SOL    HW232802   8.048   6.778   1.762
44260SOL     OW32803   7.783   7.021   1.061
44260SOL    HW132804   7.705   6.990   1.008
44260SOL    HW232805   7.841   7.079   1.004
44261SOL     OW32806   8.908   7.091   1.339
44261SOL    HW132807   8.932   7.185   1.365
44261SOL    HW232808   8.892   7.037   1.421
44262SOL     OW32809   7.886   5.978   1.499
44262SOL    HW132810   7.968   5.922   1.508
44262SOL    HW232811   7.805   5.920   1.503
44263SOL     OW32812   9.051   6.033   0.737
44263SOL    HW132813   8.977   6.079   0.687
44263SOL    HW232814   9.102   6.101   0.790
44264SOL     OW32815   7.679   7.299   0.483
44264SOL    HW132816   7.713   7.376   0.537
44264SOL    HW232817   7.723   7.299   0.393
44265SOL     OW32818   8.575   6.927   1.690
44265SOL    HW132819   8.622   6.927   1.778
44265SOL    HW232820   8.527   6.840   1.679
44266SOL     OW32821   7.678   7.020   0.538
44266SOL    HW132822   7.652   7.116   0.538
44266SOL    HW232823   7.607   6.966   0.583
44267SOL     OW32824   7.688   6.677   0.886
44267SOL    HW132825   7.702   6.593   0.938
44267SOL    HW232826   7.633   6.741   0.941
44268SOL     OW32827   8.068   7.372   1.439
44268SOL    HW132828   7.976   7.355   1.474
44268SOL    HW232829   8.096   7.464   1.465
44269SOL     OW32830   8.054   6.550   0.123
44269SOL    HW132831   8.061   6.634   0.069
44269SOL    HW232832   8.100   6.563   0.211
44270SOL     OW32833   9.042   5.700   1.480
44270SOL    HW132834   9.024   5.767   1.408
44270SOL    HW232835   9.039   5.746   1.569
44271SOL     OW32836   7.570   6.229   0.563
44271SOL    HW132837   7.525   6.141   0.580
44271SOL    HW232838   7.569   6.283   0.647
44272SOL     OW32839   9.290   7.353   0.359
44272SOL    HW132840   9.344   7.324   0.439
44272SOL    HW232841   9.320   7.443   0.330
44273SOL     OW32842   7.475   7.182   0.117
44273SOL    HW132843   7.456   7.086   0.138
44273SOL    HW232844   7.442   7.240   0.192
44274SOL     OW32845   9.137   6.508   0.612
44274SOL    HW132846   9.232   6.479   0.620
44274SOL    HW232847   9.129   6.573   0.537
44275SOL     OW32848   9.089   6.694   0.432
44275SOL    HW132849   9.175   6.696   0.380
44275SOL    HW232850   9.103   6.741   0.520
44276SOL     OW32851   7.561   6.323   1.597
44276SOL    HW132852   7.649   6.310   1.642
44276SOL    HW232853   7.548   6.420   1.575
44277SOL     OW32854   8.061   6.951   0.726
44277SOL    HW132855   8.012   6.864   0.735
44277SOL    HW232856   8.038   6.994   0.639
44278SOL     OW32857   8.741   6.814   1.423
44278SOL    HW132858   8.778   6.741   1.365
44278SOL    HW232859   8.793   6.819   1.508
44279SOL     OW32860   8.257   5.590   0.502
44279SOL    HW132861   8.297   5.681   0.493
44279SOL    HW232862   8.157   5.598   0.508
44280SOL     OW32863   7.645   6.562   1.264
44280SOL    HW132864   7.734   6.517   1.250
44280SOL    HW232865   7.572   6.497   1.245
44281SOL     OW32866   8.973   6.585   0.190
44281SOL    HW132867   8.910   6.509   0.203
44281SOL    HW232868   9.021   6.603   0.276
44282SOL     OW32869   8.635   7.378   1.616
44282SOL    HW132870   8.659   7.438   1.540
44282SOL    HW232871   8.642   7.283   1.586
44283SOL     OW32872   7.765   5.837   1.801
44283SOL    HW132873   7.836   5.908   1.807
44283SOL    HW232874   7.677   5.876   1.829
44284SOL     OW32875   8.914   7.003   0.953
44284SOL    HW132876   8.855   7.009   1.033
44284SOL    HW232877   8.899   6.915   0.907
44285SOL     OW32878   9.115   7.300   0.572
44285SOL    HW132879   9.074   7.277   0.484
44285SOL    HW232880   9.097   7.226   0.637
44286SOL     OW32881   8.046   6.315   0.270
44286SOL    HW132882   8.070   6.384   0.202
44286SOL    HW232883   7.968   6.348   0.324
44287SOL     OW32884   8.729   5.931   0.944
44287SOL    HW132885   8.643   5.881   0.931
44287SOL    HW232886   8.791   5.877   1.000
44288SOL     OW32887   9.024   7.248   0.307
44288SOL    HW132888   9.113   7.294   0.310
44288SOL    HW232889   9.003   7.224   0.212
44289SOL     OW32890   8.255   6.191   1.465
44289SOL    HW132891   8.208   6.188   1.554
44289SOL    HW232892   8.204   6.136   1.399
44290SOL     OW32893   8.842   6.055   1.674
44290SOL    HW132894   8.822   6.098   1.762
44290SOL    HW232895   8.920   5.993   1.683
44291SOL     OW32896   8.421   6.476   1.572
44291SOL    HW132897   8.467   6.392   1.543
44291SOL    HW232898   8.365   6.510   1.497
44292SOL     OW32899   8.439   5.996   1.242
44292SOL    HW132900   8.362   6.030   1.296
44292SOL    HW232901   8.405   5.945   1.163
44293SOL     OW32902   8.489   6.287   0.429
44293SOL    HW132903   8.515   6.283   0.525
44293SOL    HW232904   8.404   6.236   0.415
44294SOL     OW32905   7.524   6.397   0.789
44294SOL    HW132906   7.623   6.385   0.798
44294SOL    HW232907   7.500   6.492   0.810
44295SOL     OW32908   7.578   7.407   1.571
44295SOL    HW132909   7.568   7.392   1.670
44295SOL    HW232910   7.492   7.443   1.535
44296SOL     OW32911   8.313   5.934   0.195
44296SOL    HW132912   8.372   5.997   0.146
44296SOL    HW232913   8.332   5.840   0.166
44297SOL     OW32914   9.167   6.171   1.831
44297SOL    HW132915   9.141   6.260   1.795
44297SOL    HW232916   9.165   6.103   1.758
44298SOL     OW32917   8.810   6.730   0.545
44298SOL    HW132918   8.893   6.701   0.497
44298SOL    HW232919   8.761   6.797   0.489
44299SOL     OW32920   7.998   5.782   0.885
44299SOL    HW132921   7.993   5.777   0.985
44299SOL    HW232922   8.000   5.878   0.856
44300SOL     OW32923   8.456   7.042   0.477
44300SOL    HW132924   8.410   7.114   0.425
44300SOL    HW232925   8.452   7.062   0.575
44301SOL     OW32926   7.799   7.387   0.853
44301SOL    HW132927   7.849   7.301   0.859
44301SOL    HW232928   7.864   7.464   0.850
44302SOL     OW32929   9.243   6.652   0.873
44302SOL    HW132930   9.181   6.637   0.797
44302SOL    HW232931   9.191   6.663   0.958
44303SOL     OW32932   8.675   7.136   1.506
44303SOL    HW132933   8.681   7.059   1.570
44303SOL    HW232934   8.623   7.110   1.426
44304SOL     OW32935   7.769   6.529   0.242
44304SOL    HW132936   7.851   6.568   0.200
44304SOL    HW232937   7.742   6.447   0.193
44305SOL     OW32938   8.906   6.321   0.728
44305SOL    HW132939   8.901   6.256   0.803
44305SOL    HW232940   8.986   6.380   0.741
44306SOL     OW32941   7.909   6.852   1.727
44306SOL    HW132942   7.859   6.853   1.641
44306SOL    HW232943   7.846   6.834   1.803
44307SOL     OW32944   8.559   7.362   0.237
44307SOL    HW132945   8.499   7.300   0.287
44307SOL    HW232946   8.590   7.318   0.152
44308SOL     OW32947   7.650   5.871   1.498
44308SOL    HW132948   7.570   5.931   1.485
44308SOL    HW232949   7.640   5.822   1.584
44309SOL     OW32950   9.080   6.963   0.081
44309SOL    HW132951   9.048   7.057   0.071
44309SOL    HW232952   9.004   6.900   0.069
44310SOL     OW32953   7.912   7.329   0.323
44310SOL    HW132954   7.945   7.368   0.409
44310SOL    HW232955   7.988   7.322   0.258
44311SOL     OW32956   8.848   5.693   0.426
44311SOL    HW132957   8.824   5.656   0.336
44311SOL    HW232958   8.947   5.709   0.430
44312SOL     OW32959   7.697   7.371   1.241
44312SOL    HW132960   7.754   7.306   1.291
44312SOL    HW232961   7.681   7.338   1.148
44313SOL     OW32962   8.388   7.284   0.904
44313SOL    HW132963   8.468   7.227   0.925
44313SOL    HW232964   8.339   7.244   0.827
44314SOL     OW32965   7.830   6.286   0.480
44314SOL    HW132966   7.875   6.196   0.477
44314SOL    HW232967   7.736   6.275   0.513
44315SOL     OW32968   8.995   5.808   1.729
44315SOL    HW132969   8.990   5.845   1.821
44315SOL    HW232970   8.923   5.739   1.717
44316SOL     OW32971   8.062   5.708   0.117
44316SOL    HW132972   8.160   5.686   0.124
44316SOL    HW232973   8.031   5.691   0.024
44317SOL     OW32974   8.229   5.850   1.749
44317SOL    HW132975   8.296   5.789   1.792
44317SOL    HW232976   8.156   5.869   1.814
44318SOL     OW32977   8.336   7.100   1.195
44318SOL    HW132978   8.313   7.075   1.101
44318SOL    HW232979   8.397   7.031   1.234
44319SOL     OW32980   8.799   6.176   1.433
44319SOL    HW132981   8.827   6.133   1.518
44319SOL    HW232982   8.824   6.272   1.434
44320SOL     OW32983   8.251   6.988   0.924
44320SOL    HW132984   8.341   7.002   0.882
44320SOL    HW232985   8.180   6.990   0.853
44321SOL     OW32986   8.370   6.089   0.899
44321SOL    HW132987   8.345   6.080   0.803
44321SOL    HW232988   8.418   6.007   0.930
44322SOL     OW32989   7.987   5.650   0.512
44322SOL    HW132990   7.906   5.651   0.570
44322SOL    HW232991   7.990   5.733   0.457
44323SOL     OW32992   8.882   6.774   0.041
44323SOL    HW132993   8.914   6.698   0.098
44323SOL    HW232994   8.790   6.801   0.071
44324SOL     OW32995   7.745   5.621   0.171
44324SOL    HW132996   7.794   5.705   0.150
44324SOL    HW232997   7.807   5.556   0.216
44325SOL     OW32998   8.383   5.822   0.480
44325SOL    HW132999   8.335   5.863   0.402
44325SOL    HW233000   8.482   5.820   0.461
44326SOL     OW33001   8.524   6.269   1.464
44326SOL    HW133002   8.444   6.208   1.467
44326SOL    HW233003   8.605   6.216   1.440
44327SOL     OW33004   8.675   7.156   0.793
44327SOL    HW133005   8.696   7.230   0.728
44327SOL    HW233006   8.743   7.156   0.866
44328SOL     OW33007   7.907   6.738   0.741
44328SOL    HW133008   7.836   6.711   0.806
44328SOL    HW233009   7.881   6.710   0.648
44329SOL     OW33010   8.719   7.383   0.591
44329SOL    HW133011   8.763   7.447   0.527
44329SOL    HW233012   8.669   7.435   0.661
44330SOL     OW33013   8.480   6.135   0.016
44330SOL    HW133014   8.439   6.217  -0.023
44330SOL    HW233015   8.544   6.161   0.089
44331SOL     OW33016   7.526   6.142   1.386
44331SOL    HW133017   7.618   6.141   1.345
44331SOL    HW233018   7.520   6.216   1.453
44332SOL     OW33019   8.009   5.808   1.147
44332SOL    HW133020   8.047   5.724   1.184
44332SOL    HW233021   7.921   5.827   1.191
44333SOL     OW33022   8.314   6.040   0.642
44333SOL    HW133023   8.282   6.112   0.580
44333SOL    HW233024   8.338   5.959   0.589
44334SOL     OW33025   8.465   5.625   0.753
44334SOL    HW133026   8.393   5.630   0.684
44334SOL    HW233027   8.441   5.556   0.822
44335SOL     OW33028   8.877   6.759   0.867
44335SOL    HW133029   8.822   6.675   0.860
44335SOL    HW233030   8.903   6.788   0.775
44336SOL     OW33031   8.914   6.176   0.992
44336SOL    HW133032   8.884   6.081   0.999
44336SOL    HW233033   8.987   6.192   1.058
44337SOL     OW33034   9.305   6.419   0.377
44337SOL    HW133035   9.347   6.355   0.441
44337SOL    HW233036   9.267   6.368   0.299
44338SOL     OW33037   7.936   6.971   0.174
44338SOL    HW133038   7.849   6.956   0.221
44338SOL    HW233039   7.919   6.997   0.079
44339SOL     OW33040   9.112   6.866   0.657
44339SOL    HW133041   9.211   6.874   0.671
44339SOL    HW233042   9.067   6.950   0.688
44340SOL     OW33043   8.838   6.161   0.078
44340SOL    HW133044   8.784   6.140   0.159
44340SOL    HW233045   8.929   6.120   0.087
44341SOL     OW33046   7.975   5.842   0.328
44341SOL    HW133047   8.002   5.783   0.253
44341SOL    HW233048   7.975   5.937   0.297
44342SOL     OW33049   9.202   6.809   1.588
44342SOL    HW133050   9.293   6.770   1.575
44342SOL    HW233051   9.210   6.905   1.612
44343SOL     OW33052   8.512   6.933   1.340
44343SOL    HW133053   8.432   6.910   1.395
44343SOL    HW233054   8.595   6.907   1.389
44344SOL     OW33055   9.040   7.215   1.625
44344SOL    HW133056   9.067   7.249   1.535
44344SOL    HW233057   9.119   7.177   1.671
44345SOL     OW33058   8.559   6.781   1.100
44345SOL    HW133059   8.519   6.825   1.181
44345SOL    HW233060   8.518   6.818   1.017
44346SOL     OW33061   9.086   6.685   1.079
44346SOL    HW133062   9.091   6.766   1.138
44346SOL    HW233063   9.000   6.687   1.028
44347SOL     OW33064   8.363   5.675   1.402
44347SOL    HW133065   8.388   5.655   1.307
44347SOL    HW233066   8.435   5.731   1.444
44348SOL     OW33067   8.428   6.702   1.719
44348SOL    HW133068   8.329   6.708   1.729
44348SOL    HW233069   8.451   6.622   1.663
44349SOL     OW33070   8.153   6.636   0.368
44349SOL    HW133071   8.139   6.643   0.467
44349SOL    HW233072   8.237   6.585   0.350
44350SOL     OW33073   7.858   6.399   1.251
44350SOL    HW133074   7.944   6.411   1.301
44350SOL    HW233075   7.816   6.312   1.278
44351SOL     OW33076   8.722   5.972   1.262
44351SOL    HW133077   8.743   6.046   1.326
44351SOL    HW233078   8.633   5.989   1.219
44352SOL     OW33079   7.512   7.150   1.331
44352SOL    HW133080   7.466   7.232   1.297
44352SOL    HW233081   7.610   7.169   1.340
44353SOL     OW33082   7.815   6.686   0.501
44353SOL    HW133083   7.808   6.769   0.445
44353SOL    HW233084   7.819   6.606   0.441
44354SOL     OW33085   8.014   6.123   0.865
44354SOL    HW133086   8.026   6.189   0.791
44354SOL    HW233087   8.060   6.157   0.948
44355SOL     OW33088   8.700   6.934   0.388
44355SOL    HW133089   8.750   7.011   0.428
44355SOL    HW233090   8.605   6.936   0.420
44356SOL     OW33091   8.720   7.031   1.142
44356SOL    HW133092   8.767   7.044   1.229
44356SOL    HW233093   8.654   6.957   1.151
44357SOL     OW33094   9.030   6.225   0.472
44357SOL    HW133095   8.999   6.286   0.545
44357SOL    HW233096   9.080   6.277   0.403
44358SOL     OW33097   7.802   7.096   1.329
44358SOL    HW133098   7.781   7.052   1.242
44358SOL    HW233099   7.899   7.122   1.332
44359SOL     OW33100   7.850   6.337   1.598
44359SOL    HW133101   7.918   6.392   1.551
44359SOL    HW233102   7.890   6.249   1.625
44360SOL     OW33103   9.035   6.365   1.670
44360SOL    HW133104   8.943   6.403   1.665
44360SOL    HW233105   9.095   6.412   1.605
44361SOL     OW33106   8.461   5.691   1.770
44361SOL    HW133107   8.467   5.776   1.718
44361SOL    HW233108   8.493   5.615   1.713
44362SOL     OW33109   7.952   5.636   1.740
44362SOL    HW133110   7.910   5.579   1.670
44362SOL    HW233111   7.886   5.705   1.772
44363SOL     OW33112   8.021   6.456   1.029
44363SOL    HW133113   8.065   6.545   1.020
44363SOL    HW233114   7.958   6.456   1.106
44364SOL     OW33115   8.808   6.448   1.045
44364SOL    HW133116   8.733   6.448   0.979
44364SOL    HW233117   8.845   6.356   1.054
44365SOL     OW33118   8.657   6.111   0.275
44365SOL    HW133119   8.670   6.027   0.329
44365SOL    HW233120   8.628   6.185   0.335
44366SOL     OW33121   7.755   5.799   1.231
44366SOL    HW133122   7.732   5.836   1.321
44366SOL    HW233123   7.725   5.704   1.225
44367SOL     OW33124   7.485   6.896   1.282
44367SOL    HW133125   7.538   6.847   1.350
44367SOL    HW233126   7.507   6.994   1.287
44368SOL     OW33127   8.180   6.220   1.064
44368SOL    HW133128   8.239   6.194   0.988
44368SOL    HW233129   8.152   6.316   1.053
44369SOL     OW33130   9.176   6.521   1.854
44369SOL    HW133131   9.130   6.514   1.765
44369SOL    HW233132   9.114   6.565   1.920
44370SOL     OW33133   7.755   5.649   0.618
44370SOL    HW133134   7.744   5.743   0.651
44370SOL    HW233135   7.750   5.586   0.695
44371SOL     OW33136   9.070   5.953   0.374
44371SOL    HW133137   9.072   5.877   0.438
44371SOL    HW233138   9.022   6.030   0.414
44372SOL     OW33139   8.471   6.352   0.966
44372SOL    HW133140   8.486   6.373   1.062
44372SOL    HW233141   8.441   6.257   0.957
44373SOL     OW33142   8.428   7.159   1.700
44373SOL    HW133143   8.408   7.203   1.612
44373SOL    HW233144   8.467   7.068   1.684
44374SOL     OW33145   9.307   7.104   1.605
44374SOL    HW133146   9.321   7.131   1.510
44374SOL    HW233147   9.390   7.126   1.658
44375SOL     OW33148   7.798   6.484   1.804
44375SOL    HW133149   7.874   6.528   1.852
44375SOL    HW233150   7.833   6.437   1.722
44376SOL     OW33151   8.988   5.860   0.125
44376SOL    HW133152   8.927   5.785   0.148
44376SOL    HW233153   9.010   5.912   0.208
44377SOL     OW33154   8.751   6.424   0.042
44377SOL    HW133155   8.785   6.331   0.057
44377SOL    HW233156   8.769   6.451  -0.053
44378SOL     OW33157   8.516   6.919   0.849
44378SOL    HW133158   8.523   6.835   0.794
44378SOL    HW233159   8.578   6.988   0.813
44379SOL     OW33160   7.767   6.396   0.949
44379SOL    HW133161   7.860   6.432   0.954
44379SOL    HW233162   7.761   6.311   1.001
44380SOL     OW33163   7.787   6.095   1.006
44380SOL    HW133164   7.735   6.012   0.989
44380SOL    HW233165   7.864   6.100   0.942
44381SOL     OW33166   8.586   5.966   1.678
44381SOL    HW133167   8.541   6.029   1.742
44381SOL    HW233168   8.679   5.997   1.661
44382SOL     OW33169   8.608   5.793   1.477
44382SOL    HW133170   8.608   5.857   1.554
44382SOL    HW233171   8.636   5.841   1.394
44383SOL     OW33172   7.456   6.912   0.200
44383SOL    HW133173   7.363   6.933   0.169
44383SOL    HW233174   7.466   6.813   0.213
44384SOL     OW33175   7.536   7.387   0.927
44384SOL    HW133176   7.494   7.301   0.900
44384SOL    HW233177   7.630   7.390   0.893
44385SOL     OW33178   7.952   7.154   0.910
44385SOL    HW133179   8.018   7.228   0.919
44385SOL    HW233180   7.996   7.075   0.868
44386SOL     OW33181   8.450   6.382   1.238
44386SOL    HW133182   8.491   6.350   1.324
44386SOL    HW233183   8.354   6.355   1.235
44387SOL     OW33184   7.488   6.130   1.114
44387SOL    HW133185   7.573   6.097   1.073
44387SOL    HW233186   7.501   6.145   1.212
44388SOL     OW33187   7.637   6.106   1.722
44388SOL    HW133188   7.696   6.066   1.652
44388SOL    HW233189   7.579   6.177   1.681
44389SOL     OW33190   8.817   6.536   1.660
44389SOL    HW133191   8.856   6.625   1.680
44389SOL    HW233192   8.827   6.516   1.563
44390SOL     OW33193   8.263   6.158   0.325
44390SOL    HW133194   8.270   6.069   0.279
44390SOL    HW233195   8.169   6.192   0.317
44391SOL     OW33196   9.105   6.190   1.206
44391SOL    HW133197   9.067   6.121   1.268
44391SOL    HW233198   9.187   6.154   1.162
44392SOL     OW33199   7.700   7.150   1.744
44392SOL    HW133200   7.670   7.207   1.820
44392SOL    HW233201   7.693   7.053   1.770
44393SOL     OW33202   8.119   6.050   1.269
44393SOL    HW133203   8.085   5.961   1.239
44393SOL    HW233204   8.145   6.104   1.189
44394SOL     OW33205   8.378   7.264   1.465
44394SOL    HW133206   8.354   7.246   1.370
44394SOL    HW233207   8.408   7.358   1.475
44395SOL     OW33208   7.921   6.086   0.191
44395SOL    HW133209   7.982   6.166   0.195
44395SOL    HW233210   7.826   6.117   0.198
44396SOL     OW33211   7.607   6.723   1.466
44396SOL    HW133212   7.629   6.662   1.542
44396SOL    HW233213   7.617   6.674   1.380
44397SOL     OW33214   8.795   6.645   1.234
44397SOL    HW133215   8.819   6.582   1.160
44397SOL    HW233216   8.705   6.685   1.216
44398SOL     OW33217   8.750   6.441   0.309
44398SOL    HW133218   8.664   6.410   0.351
44398SOL    HW233219   8.746   6.427   0.210
44399SOL     OW33220   9.207   7.333   1.154
44399SOL    HW133221   9.268   7.363   1.081
44399SOL    HW233222   9.169   7.244   1.132
44400SOL     OW33223   8.700   7.317   1.128
44400SOL    HW133224   8.784   7.322   1.074
44400SOL    HW233225   8.677   7.221   1.146
44401SOL     OW33226   7.531   6.844   1.022
44401SOL    HW133227   7.526   6.843   1.122
44401SOL    HW233228   7.448   6.803   0.984
44402SOL     OW33229   8.136   7.248   1.716
44402SOL    HW133230   8.080   7.329   1.725
44402SOL    HW233231   8.188   7.252   1.630
44403SOL     OW33232   8.351   5.672   0.133
44403SOL    HW133233   8.402   5.673   0.047
44403SOL    HW233234   8.407   5.630   0.204
44404SOL     OW33235   9.174   5.721   0.523
44404SOL    HW133236   9.247   5.704   0.456
44404SOL    HW233237   9.143   5.634   0.561
44405SOL     OW33238   8.836   7.159   0.477
44405SOL    HW133239   8.903   7.171   0.403
44405SOL    HW233240   8.796   7.248   0.500
44406SOL     OW33241   7.578   7.380   1.851
44406SOL    HW133242   7.537   7.306   1.904
44406SOL    HW233243   7.642   7.431   1.909
44407SOL     OW33244   8.728   6.513   0.672
44407SOL    HW133245   8.788   6.432   0.674
44407SOL    HW233246   8.768   6.582   0.612
44408SOL     OW33247   8.278   6.859   1.422
44408SOL    HW133248   8.273   6.892   1.517
44408SOL    HW233249   8.192   6.878   1.376
44409SOL     OW33250   8.120   7.202   0.154
44409SOL    HW133251   8.129   7.212   0.055
44409SOL    HW233252   8.080   7.113   0.175
44410SOL     OW33253   9.098   7.306   1.394
44410SOL    HW133254   9.151   7.316   1.310
44410SOL    HW233255   9.071   7.396   1.428
44411SOL     OW33256   9.289   5.761   0.963
44411SOL    HW133257   9.328   5.676   0.927
44411SOL    HW233258   9.191   5.763   0.944
44412SOL     OW33259   7.711   5.912   0.720
44412SOL    HW133260   7.632   5.963   0.686
44412SOL    HW233261   7.702   5.897   0.818
44413SOL     OW33262   8.642   7.198   0.031
44413SOL    HW133263   8.648   7.105   0.068
44413SOL    HW233264   8.583   7.198  -0.049
44414SOL     OW33265   8.270   6.588   1.372
44414SOL    HW133266   8.310   6.587   1.280
44414SOL    HW233267   8.280   6.680   1.412
44415SOL     OW33268   8.364   6.496   0.291
44415SOL    HW133269   8.427   6.534   0.223
44415SOL    HW233270   8.404   6.413   0.330
44416SOL     OW33271   8.952   7.193   0.044
44416SOL    HW133272   8.860   7.230   0.051
44416SOL    HW233273   8.990   7.213  -0.046
44417SOL     OW33274   7.820   6.874   1.490
44417SOL    HW133275   7.807   6.967   1.456
44417SOL    HW233276   7.736   6.822   1.477
44418SOL     OW33277   9.062   6.878   1.289
44418SOL    HW133278   9.122   6.881   1.369
44418SOL    HW233279   8.987   6.942   1.302
44419SOL     OW33280   8.487   6.684   0.696
44419SOL    HW133281   8.417   6.637   0.750
44419SOL    HW233282   8.546   6.616   0.653
44420SOL     OW33283   8.462   5.822   0.971
44420SOL    HW133284   8.454   5.786   0.878
44420SOL    HW233285   8.460   5.746   1.036
44421SOL     OW33286   8.038   7.073   0.491
44421SOL    HW133287   8.080   7.015   0.421
44421SOL    HW233288   7.994   7.152   0.447
44422SOL     OW33289   9.157   5.971   1.381
44422SOL    HW133290   9.230   6.040   1.385
44422SOL    HW233291   9.185   5.896   1.322
44423SOL     OW33292   7.703   6.934   0.290
44423SOL    HW133293   7.607   6.935   0.263
44423SOL    HW233294   7.715   6.987   0.374
44424SOL     OW33295   7.553   6.599   1.726
44424SOL    HW133296   7.476   6.566   1.780
44424SOL    HW233297   7.638   6.569   1.768
44425SOL     OW33298   8.120   5.789   1.489
44425SOL    HW133299   8.210   5.773   1.449
44425SOL    HW233300   8.128   5.794   1.588
44426SOL     OW33301   8.888   6.442   1.398
44426SOL    HW133302   8.831   6.494   1.335
44426SOL    HW233303   8.984   6.454   1.374
44427SOL     OW33304   7.520   5.752   0.318
44427SOL    HW133305   7.503   5.835   0.264
44427SOL    HW233306   7.610   5.715   0.296
44428SOL     OW33307   8.631   6.921   0.119
44428SOL    HW133308   8.532   6.910   0.121
44428SOL    HW233309   8.665   6.936   0.212
44429SOL     OW33310   8.061   6.428   1.431
44429SOL    HW133311   8.117   6.509   1.414
44429SOL    HW233312   8.120   6.348   1.434
44430SOL     OW33313   8.941   7.353   0.959
44430SOL    HW133314   8.974   7.417   0.890
44430SOL    HW233315   9.007   7.347   1.034
44431SOL     OW33316   8.164   6.151   1.708
44431SOL    HW133317   8.183   6.216   1.782
44431SOL    HW233318   8.224   6.071   1.717
44432SOL     OW33319   8.898   6.806   1.633
44432SOL    HW133320   8.889   6.796   1.732
44432SOL    HW233321   8.994   6.799   1.607
44433SOL     OW33322   7.838   7.327   1.560
44433SOL    HW133323   7.747   7.368   1.558
44433SOL    HW233324   7.831   7.233   1.592
44434SOL     OW33325   9.122   6.469   1.254
44434SOL    HW133326   9.095   6.380   1.217
44434SOL    HW233327   9.123   6.537   1.181
44435SOL     OW33328   8.673   5.911   0.449
44435SOL    HW133329   8.738   5.837   0.438
44435SOL    HW233330   8.693   5.961   0.533
44436SOL     OW33331   9.225   5.928   1.642
44436SOL    HW133332   9.208   5.959   1.548
44436SOL    HW233333   9.141   5.891   1.680
44437SOL     OW33334   9.178   6.520   1.517
44437SOL    HW133335   9.216   6.611   1.532
44437SOL    HW233336   9.170   6.503   1.418
44438SOL     OW33337   8.307   6.960   0.016
44438SOL    HW133338   8.261   6.975   0.104
44438SOL    HW233339   8.351   7.045  -0.014
44439SOL     OW33340   8.109   7.376   0.953
44439SOL    HW133341   8.063   7.464   0.940
44439SOL    HW233342   8.208   7.388   0.946
44440SOL     OW33343   8.307   6.542   0.861
44440SOL    HW133344   8.361   6.473   0.909
44440SOL    HW233345   8.275   6.611   0.927
44441SOL     OW33346   8.531   6.570   0.087
44441SOL    HW133347   8.508   6.623   0.005
44441SOL    HW233348   8.612   6.514   0.068
44442SOL     OW33349   9.309   7.155   0.851
44442SOL    HW133350   9.238   7.143   0.781
44442SOL    HW233351   9.310   7.076   0.911
44443SOL     OW33352   7.669   6.900   1.844
44443SOL    HW133353   7.604   6.827   1.823
44443SOL    HW233354   7.673   6.914   1.942
44444SOL     OW33355   7.527   6.826   0.653
44444SOL    HW133356   7.526   6.779   0.741
44444SOL    HW233357   7.609   6.798   0.602
44445SOL     OW33358   8.120   6.977   1.624
44445SOL    HW133359   8.042   6.927   1.662
44445SOL    HW233360   8.117   7.072   1.655
44446SOL     OW33361   9.272   5.778   1.227
44446SOL    HW133362   9.268   5.688   1.271
44446SOL    HW233363   9.275   5.767   1.128
44447SOL     OW33364   7.876   6.010   0.520
44447SOL    HW133365   7.906   5.938   0.458
44447SOL    HW233366   7.837   5.970   0.603
44448SOL     OW33367   9.153   7.073   1.104
44448SOL    HW133368   9.060   7.048   1.077
44448SOL    HW233369   9.179   7.023   1.186
44449SOL     OW33370   7.765   6.133   1.280
44449SOL    HW133371   7.803   6.074   1.352
44449SOL    HW233372   7.805   6.107   1.192
44450SOL     OW33373   8.260   7.172   0.687
44450SOL    HW133374   8.292   7.182   0.593
44450SOL    HW233375   8.181   7.110   0.689
44451SOL     OW33376   8.872   5.800   1.112
44451SOL    HW133377   8.924   5.735   1.167
44451SOL    HW233378   8.823   5.863   1.173
44452SOL     OW33379   8.449   5.620   1.154
44452SOL    HW133380   8.386   5.548   1.123
44452SOL    HW233381   8.542   5.584   1.154
44453SOL     OW33382   8.218   6.916   0.301
44453SOL    HW133383   8.172   6.829   0.318
44453SOL    HW233384   8.309   6.913   0.342
44454SOL     OW33385   8.066   7.153   1.284
44454SOL    HW133386   8.061   7.235   1.341
44454SOL    HW233387   8.155   7.150   1.239
44455SOL     OW33388   8.800   5.638   0.168
44455SOL    HW133389   8.835   5.597   0.084
44455SOL    HW233390   8.710   5.600   0.188
44456SOL     OW33391   8.748   6.039   0.691
44456SOL    HW133392   8.689   6.119   0.695
44456SOL    HW233393   8.763   6.004   0.784
44457SOL     OW33394   9.041   5.807   0.882
44457SOL    HW133395   8.957   5.806   0.936
44457SOL    HW233396   9.043   5.890   0.826
44458SOL     OW33397   7.487   6.663   0.300
44458SOL    HW133398   7.586   6.652   0.291
44458SOL    HW233399   7.447   6.577   0.332
44459SOL     OW33400   8.323   7.232   0.337
44459SOL    HW133401   8.246   7.197   0.283
44459SOL    HW233402   8.291   7.303   0.399
44460SOL     OW33403   7.678   6.214   1.975
44460SOL    HW133404   7.585   6.212   2.012
44460SOL    HW233405   7.679   6.175   1.883
44461SOL     OW33406   7.673   5.861   2.858
44461SOL    HW133407   7.708   5.844   2.950
44461SOL    HW233408   7.585   5.816   2.846
44462SOL     OW33409   7.467   5.954   2.509
44462SOL    HW133410   7.385   5.997   2.548
44462SOL    HW233411   7.439   5.881   2.446
44463SOL     OW33412   8.017   6.861   3.027
44463SOL    HW133413   7.924   6.854   2.990
44463SOL    HW233414   8.028   6.950   3.071
44464SOL     OW33415   9.003   7.097   2.565
44464SOL    HW133416   8.946   7.081   2.646
44464SOL    HW233417   8.944   7.107   2.485
44465SOL     OW33418   8.583   6.289   2.579
44465SOL    HW133419   8.640   6.367   2.554
44465SOL    HW233420   8.523   6.315   2.655
44466SOL     OW33421   9.203   6.193   2.093
44466SOL    HW133422   9.191   6.180   1.994
44466SOL    HW233423   9.173   6.112   2.142
44467SOL     OW33424   8.216   6.730   2.885
44467SOL    HW133425   8.138   6.747   2.945
44467SOL    HW233426   8.250   6.817   2.849
44468SOL     OW33427   8.298   6.384   3.685
44468SOL    HW133428   8.294   6.460   3.750
44468SOL    HW233429   8.320   6.420   3.594
44469SOL     OW33430   8.133   6.598   2.527
44469SOL    HW133431   8.202   6.582   2.597
44469SOL    HW233432   8.060   6.655   2.565
44470SOL     OW33433   8.134   6.747   3.665
44470SOL    HW133434   8.194   6.826   3.679
44470SOL    HW233435   8.048   6.778   3.624
44471SOL     OW33436   7.783   7.021   2.923
44471SOL    HW133437   7.705   6.990   2.870
44471SOL    HW233438   7.841   7.079   2.866
44472SOL     OW33439   8.908   7.091   3.201
44472SOL    HW133440   8.932   7.185   3.227
44472SOL    HW233441   8.892   7.037   3.283
44473SOL     OW33442   7.886   5.978   3.361
44473SOL    HW133443   7.968   5.922   3.370
44473SOL    HW233444   7.805   5.920   3.365
44474SOL     OW33445   9.051   6.033   2.599
44474SOL    HW133446   8.977   6.079   2.549
44474SOL    HW233447   9.102   6.101   2.652
44475SOL     OW33448   7.679   7.299   2.345
44475SOL    HW133449   7.713   7.376   2.399
44475SOL    HW233450   7.723   7.299   2.255
44476SOL     OW33451   8.575   6.927   3.552
44476SOL    HW133452   8.622   6.927   3.640
44476SOL    HW233453   8.527   6.840   3.541
44477SOL     OW33454   7.678   7.020   2.400
44477SOL    HW133455   7.652   7.116   2.400
44477SOL    HW233456   7.607   6.966   2.445
44478SOL     OW33457   7.688   6.677   2.748
44478SOL    HW133458   7.702   6.593   2.800
44478SOL    HW233459   7.633   6.741   2.803
44479SOL     OW33460   8.068   7.372   3.301
44479SOL    HW133461   7.976   7.355   3.336
44479SOL    HW233462   8.096   7.464   3.327
44480SOL     OW33463   8.054   6.550   1.985
44480SOL    HW133464   8.061   6.634   1.931
44480SOL    HW233465   8.100   6.563   2.073
44481SOL     OW33466   9.042   5.700   3.342
44481SOL    HW133467   9.024   5.767   3.270
44481SOL    HW233468   9.039   5.746   3.431
44482SOL     OW33469   7.570   6.229   2.425
44482SOL    HW133470   7.525   6.141   2.442
44482SOL    HW233471   7.569   6.283   2.509
44483SOL     OW33472   9.290   7.353   2.221
44483SOL    HW133473   9.344   7.324   2.301
44483SOL    HW233474   9.320   7.443   2.192
44484SOL     OW33475   7.475   7.182   1.979
44484SOL    HW133476   7.456   7.086   2.000
44484SOL    HW233477   7.442   7.240   2.054
44485SOL     OW33478   9.137   6.508   2.474
44485SOL    HW133479   9.232   6.479   2.482
44485SOL    HW233480   9.129   6.573   2.399
44486SOL     OW33481   9.089   6.694   2.294
44486SOL    HW133482   9.175   6.696   2.242
44486SOL    HW233483   9.103   6.741   2.382
44487SOL     OW33484   7.561   6.323   3.459
44487SOL    HW133485   7.649   6.310   3.504
44487SOL    HW233486   7.548   6.420   3.437
44488SOL     OW33487   8.061   6.951   2.588
44488SOL    HW133488   8.012   6.864   2.597
44488SOL    HW233489   8.038   6.994   2.501
44489SOL     OW33490   8.741   6.814   3.285
44489SOL    HW133491   8.778   6.741   3.227
44489SOL    HW233492   8.793   6.819   3.370
44490SOL     OW33493   8.257   5.590   2.364
44490SOL    HW133494   8.297   5.681   2.355
44490SOL    HW233495   8.157   5.598   2.370
44491SOL     OW33496   7.645   6.562   3.126
44491SOL    HW133497   7.734   6.517   3.112
44491SOL    HW233498   7.572   6.497   3.107
44492SOL     OW33499   8.973   6.585   2.052
44492SOL    HW133500   8.910   6.509   2.065
44492SOL    HW233501   9.021   6.603   2.138
44493SOL     OW33502   8.635   7.378   3.478
44493SOL    HW133503   8.659   7.438   3.402
44493SOL    HW233504   8.642   7.283   3.448
44494SOL     OW33505   7.765   5.837   3.663
44494SOL    HW133506   7.836   5.908   3.669
44494SOL    HW233507   7.677   5.876   3.691
44495SOL     OW33508   8.914   7.003   2.815
44495SOL    HW133509   8.855   7.009   2.895
44495SOL    HW233510   8.899   6.915   2.769
44496SOL     OW33511   9.115   7.300   2.434
44496SOL    HW133512   9.074   7.277   2.346
44496SOL    HW233513   9.097   7.226   2.499
44497SOL     OW33514   8.046   6.315   2.132
44497SOL    HW133515   8.070   6.384   2.064
44497SOL    HW233516   7.968   6.348   2.186
44498SOL     OW33517   8.729   5.931   2.806
44498SOL    HW133518   8.643   5.881   2.793
44498SOL    HW233519   8.791   5.877   2.862
44499SOL     OW33520   9.024   7.248   2.169
44499SOL    HW133521   9.113   7.294   2.172
44499SOL    HW233522   9.003   7.224   2.074
44500SOL     OW33523   8.255   6.191   3.327
44500SOL    HW133524   8.208   6.188   3.416
44500SOL    HW233525   8.204   6.136   3.261
44501SOL     OW33526   8.842   6.055   3.536
44501SOL    HW133527   8.822   6.098   3.624
44501SOL    HW233528   8.920   5.993   3.545
44502SOL     OW33529   8.421   6.476   3.434
44502SOL    HW133530   8.467   6.392   3.405
44502SOL    HW233531   8.365   6.510   3.359
44503SOL     OW33532   8.439   5.996   3.104
44503SOL    HW133533   8.362   6.030   3.158
44503SOL    HW233534   8.405   5.945   3.025
44504SOL     OW33535   8.489   6.287   2.291
44504SOL    HW133536   8.515   6.283   2.387
44504SOL    HW233537   8.404   6.236   2.277
44505SOL     OW33538   7.524   6.397   2.651
44505SOL    HW133539   7.623   6.385   2.660
44505SOL    HW233540   7.500   6.492   2.672
44506SOL     OW33541   7.578   7.407   3.433
44506SOL    HW133542   7.568   7.392   3.532
44506SOL    HW233543   7.492   7.443   3.397
44507SOL     OW33544   8.313   5.934   2.057
44507SOL    HW133545   8.372   5.997   2.008
44507SOL    HW233546   8.332   5.840   2.028
44508SOL     OW33547   9.167   6.171   3.693
44508SOL    HW133548   9.141   6.260   3.657
44508SOL    HW233549   9.165   6.103   3.620
44509SOL     OW33550   8.810   6.730   2.407
44509SOL    HW133551   8.893   6.701   2.359
44509SOL    HW233552   8.761   6.797   2.351
44510SOL     OW33553   7.998   5.782   2.747
44510SOL    HW133554   7.993   5.777   2.847
44510SOL    HW233555   8.000   5.878   2.718
44511SOL     OW33556   8.456   7.042   2.339
44511SOL    HW133557   8.410   7.114   2.287
44511SOL    HW233558   8.452   7.062   2.437
44512SOL     OW33559   7.799   7.387   2.715
44512SOL    HW133560   7.849   7.301   2.721
44512SOL    HW233561   7.864   7.464   2.712
44513SOL     OW33562   9.243   6.652   2.735
44513SOL    HW133563   9.181   6.637   2.659
44513SOL    HW233564   9.191   6.663   2.820
44514SOL     OW33565   8.675   7.136   3.368
44514SOL    HW133566   8.681   7.059   3.432
44514SOL    HW233567   8.623   7.110   3.288
44515SOL     OW33568   7.769   6.529   2.104
44515SOL    HW133569   7.851   6.568   2.062
44515SOL    HW233570   7.742   6.447   2.055
44516SOL     OW33571   8.906   6.321   2.590
44516SOL    HW133572   8.901   6.256   2.665
44516SOL    HW233573   8.986   6.380   2.603
44517SOL     OW33574   7.909   6.852   3.589
44517SOL    HW133575   7.859   6.853   3.503
44517SOL    HW233576   7.846   6.834   3.665
44518SOL     OW33577   8.559   7.362   2.099
44518SOL    HW133578   8.499   7.300   2.149
44518SOL    HW233579   8.590   7.318   2.014
44519SOL     OW33580   7.650   5.871   3.360
44519SOL    HW133581   7.570   5.931   3.347
44519SOL    HW233582   7.640   5.822   3.446
44520SOL     OW33583   9.080   6.963   1.943
44520SOL    HW133584   9.048   7.057   1.933
44520SOL    HW233585   9.004   6.900   1.931
44521SOL     OW33586   7.912   7.329   2.185
44521SOL    HW133587   7.945   7.368   2.271
44521SOL    HW233588   7.988   7.322   2.120
44522SOL     OW33589   8.848   5.693   2.288
44522SOL    HW133590   8.824   5.656   2.198
44522SOL    HW233591   8.947   5.709   2.292
44523SOL     OW33592   7.697   7.371   3.103
44523SOL    HW133593   7.754   7.306   3.153
44523SOL    HW233594   7.681   7.338   3.010
44524SOL     OW33595   8.388   7.284   2.766
44524SOL    HW133596   8.468   7.227   2.787
44524SOL    HW233597   8.339   7.244   2.689
44525SOL     OW33598   7.830   6.286   2.342
44525SOL    HW133599   7.875   6.196   2.339
44525SOL    HW233600   7.736   6.275   2.375
44526SOL     OW33601   8.995   5.808   3.591
44526SOL    HW133602   8.990   5.845   3.683
44526SOL    HW233603   8.923   5.739   3.579
44527SOL     OW33604   8.062   5.708   1.979
44527SOL    HW133605   8.160   5.686   1.986
44527SOL    HW233606   8.031   5.691   1.886
44528SOL     OW33607   8.229   5.850   3.611
44528SOL    HW133608   8.296   5.789   3.654
44528SOL    HW233609   8.156   5.869   3.676
44529SOL     OW33610   8.336   7.100   3.057
44529SOL    HW133611   8.313   7.075   2.963
44529SOL    HW233612   8.397   7.031   3.096
44530SOL     OW33613   8.799   6.176   3.295
44530SOL    HW133614   8.827   6.133   3.380
44530SOL    HW233615   8.824   6.272   3.296
44531SOL     OW33616   8.251   6.988   2.786
44531SOL    HW133617   8.341   7.002   2.744
44531SOL    HW233618   8.180   6.990   2.715
44532SOL     OW33619   8.370   6.089   2.761
44532SOL    HW133620   8.345   6.080   2.665
44532SOL    HW233621   8.418   6.007   2.792
44533SOL     OW33622   7.987   5.650   2.374
44533SOL    HW133623   7.906   5.651   2.432
44533SOL    HW233624   7.990   5.733   2.319
44534SOL     OW33625   8.882   6.774   1.903
44534SOL    HW133626   8.914   6.698   1.960
44534SOL    HW233627   8.790   6.801   1.933
44535SOL     OW33628   7.745   5.621   2.033
44535SOL    HW133629   7.794   5.705   2.012
44535SOL    HW233630   7.807   5.556   2.078
44536SOL     OW33631   8.383   5.822   2.342
44536SOL    HW133632   8.335   5.863   2.264
44536SOL    HW233633   8.482   5.820   2.323
44537SOL     OW33634   8.524   6.269   3.326
44537SOL    HW133635   8.444   6.208   3.329
44537SOL    HW233636   8.605   6.216   3.302
44538SOL     OW33637   8.675   7.156   2.655
44538SOL    HW133638   8.696   7.230   2.590
44538SOL    HW233639   8.743   7.156   2.728
44539SOL     OW33640   7.907   6.738   2.603
44539SOL    HW133641   7.836   6.711   2.668
44539SOL    HW233642   7.881   6.710   2.510
44540SOL     OW33643   8.719   7.383   2.453
44540SOL    HW133644   8.763   7.447   2.389
44540SOL    HW233645   8.669   7.435   2.523
44541SOL     OW33646   7.526   6.142   3.248
44541SOL    HW133647   7.618   6.141   3.207
44541SOL    HW233648   7.520   6.216   3.315
44542SOL     OW33649   8.009   5.808   3.009
44542SOL    HW133650   8.047   5.724   3.046
44542SOL    HW233651   7.921   5.827   3.053
44543SOL     OW33652   8.314   6.040   2.504
44543SOL    HW133653   8.282   6.112   2.442
44543SOL    HW233654   8.338   5.959   2.451
44544SOL     OW33655   8.465   5.625   2.615
44544SOL    HW133656   8.393   5.630   2.546
44544SOL    HW233657   8.441   5.556   2.684
44545SOL     OW33658   8.877   6.759   2.729
44545SOL    HW133659   8.822   6.675   2.722
44545SOL    HW233660   8.903   6.788   2.637
44546SOL     OW33661   8.914   6.176   2.854
44546SOL    HW133662   8.884   6.081   2.861
44546SOL    HW233663   8.987   6.192   2.920
44547SOL     OW33664   9.305   6.419   2.239
44547SOL    HW133665   9.347   6.355   2.303
44547SOL    HW233666   9.267   6.368   2.161
44548SOL     OW33667   7.936   6.971   2.036
44548SOL    HW133668   7.849   6.956   2.083
44548SOL    HW233669   7.919   6.997   1.941
44549SOL     OW33670   9.112   6.866   2.519
44549SOL    HW133671   9.211   6.874   2.533
44549SOL    HW233672   9.067   6.950   2.550
44550SOL     OW33673   8.838   6.161   1.940
44550SOL    HW133674   8.784   6.140   2.021
44550SOL    HW233675   8.929   6.120   1.949
44551SOL     OW33676   7.975   5.842   2.190
44551SOL    HW133677   8.002   5.783   2.115
44551SOL    HW233678   7.975   5.937   2.159
44552SOL     OW33679   9.202   6.809   3.450
44552SOL    HW133680   9.293   6.770   3.437
44552SOL    HW233681   9.210   6.905   3.474
44553SOL     OW33682   8.512   6.933   3.202
44553SOL    HW133683   8.432   6.910   3.257
44553SOL    HW233684   8.595   6.907   3.251
44554SOL     OW33685   9.040   7.215   3.487
44554SOL    HW133686   9.067   7.249   3.397
44554SOL    HW233687   9.119   7.177   3.533
44555SOL     OW33688   8.559   6.781   2.962
44555SOL    HW133689   8.519   6.825   3.043
44555SOL    HW233690   8.518   6.818   2.879
44556SOL     OW33691   9.086   6.685   2.941
44556SOL    HW133692   9.091   6.766   3.000
44556SOL    HW233693   9.000   6.687   2.890
44557SOL     OW33694   8.363   5.675   3.264
44557SOL    HW133695   8.388   5.655   3.169
44557SOL    HW233696   8.435   5.731   3.306
44558SOL     OW33697   8.428   6.702   3.581
44558SOL    HW133698   8.329   6.708   3.591
44558SOL    HW233699   8.451   6.622   3.525
44559SOL     OW33700   8.153   6.636   2.230
44559SOL    HW133701   8.139   6.643   2.329
44559SOL    HW233702   8.237   6.585   2.212
44560SOL     OW33703   7.858   6.399   3.113
44560SOL    HW133704   7.944   6.411   3.163
44560SOL    HW233705   7.816   6.312   3.140
44561SOL     OW33706   8.722   5.972   3.124
44561SOL    HW133707   8.743   6.046   3.188
44561SOL    HW233708   8.633   5.989   3.081
44562SOL     OW33709   7.512   7.150   3.193
44562SOL    HW133710   7.466   7.232   3.159
44562SOL    HW233711   7.610   7.169   3.202
44563SOL     OW33712   7.815   6.686   2.363
44563SOL    HW133713   7.808   6.769   2.307
44563SOL    HW233714   7.819   6.606   2.303
44564SOL     OW33715   8.014   6.123   2.727
44564SOL    HW133716   8.026   6.189   2.653
44564SOL    HW233717   8.060   6.157   2.810
44565SOL     OW33718   8.720   7.031   3.004
44565SOL    HW133719   8.767   7.044   3.091
44565SOL    HW233720   8.654   6.957   3.013
44566SOL     OW33721   9.030   6.225   2.334
44566SOL    HW133722   8.999   6.286   2.407
44566SOL    HW233723   9.080   6.277   2.265
44567SOL     OW33724   7.802   7.096   3.191
44567SOL    HW133725   7.781   7.052   3.104
44567SOL    HW233726   7.899   7.122   3.194
44568SOL     OW33727   7.850   6.337   3.460
44568SOL    HW133728   7.918   6.392   3.413
44568SOL    HW233729   7.890   6.249   3.487
44569SOL     OW33730   9.035   6.365   3.532
44569SOL    HW133731   8.943   6.403   3.527
44569SOL    HW233732   9.095   6.412   3.467
44570SOL     OW33733   8.461   5.691   3.632
44570SOL    HW133734   8.467   5.776   3.580
44570SOL    HW233735   8.493   5.615   3.575
44571SOL     OW33736   7.952   5.636   3.602
44571SOL    HW133737   7.910   5.579   3.532
44571SOL    HW233738   7.886   5.705   3.634
44572SOL     OW33739   8.021   6.456   2.891
44572SOL    HW133740   8.065   6.545   2.882
44572SOL    HW233741   7.958   6.456   2.968
44573SOL     OW33742   8.808   6.448   2.907
44573SOL    HW133743   8.733   6.448   2.841
44573SOL    HW233744   8.845   6.356   2.916
44574SOL     OW33745   8.657   6.111   2.137
44574SOL    HW133746   8.670   6.027   2.191
44574SOL    HW233747   8.628   6.185   2.197
44575SOL     OW33748   7.755   5.799   3.093
44575SOL    HW133749   7.732   5.836   3.183
44575SOL    HW233750   7.725   5.704   3.087
44576SOL     OW33751   7.485   6.896   3.144
44576SOL    HW133752   7.538   6.847   3.212
44576SOL    HW233753   7.507   6.994   3.149
44577SOL     OW33754   8.180   6.220   2.926
44577SOL    HW133755   8.239   6.194   2.850
44577SOL    HW233756   8.152   6.316   2.915
44578SOL     OW33757   9.176   6.521   3.716
44578SOL    HW133758   9.130   6.514   3.627
44578SOL    HW233759   9.114   6.565   3.782
44579SOL     OW33760   7.755   5.649   2.480
44579SOL    HW133761   7.744   5.743   2.513
44579SOL    HW233762   7.750   5.586   2.557
44580SOL     OW33763   9.070   5.953   2.236
44580SOL    HW133764   9.072   5.877   2.300
44580SOL    HW233765   9.022   6.030   2.276
44581SOL     OW33766   8.471   6.352   2.828
44581SOL    HW133767   8.486   6.373   2.924
44581SOL    HW233768   8.441   6.257   2.819
44582SOL     OW33769   8.428   7.159   3.562
44582SOL    HW133770   8.408   7.203   3.474
44582SOL    HW233771   8.467   7.068   3.546
44583SOL     OW33772   9.307   7.104   3.467
44583SOL    HW133773   9.321   7.131   3.372
44583SOL    HW233774   9.390   7.126   3.520
44584SOL     OW33775   7.798   6.484   3.666
44584SOL    HW133776   7.874   6.528   3.714
44584SOL    HW233777   7.833   6.437   3.584
44585SOL     OW33778   8.988   5.860   1.987
44585SOL    HW133779   8.927   5.785   2.010
44585SOL    HW233780   9.010   5.912   2.070
44586SOL     OW33781   8.751   6.424   1.904
44586SOL    HW133782   8.785   6.331   1.919
44586SOL    HW233783   8.769   6.451   1.809
44587SOL     OW33784   8.516   6.919   2.711
44587SOL    HW133785   8.523   6.835   2.656
44587SOL    HW233786   8.578   6.988   2.675
44588SOL     OW33787   7.767   6.396   2.811
44588SOL    HW133788   7.860   6.432   2.816
44588SOL    HW233789   7.761   6.311   2.863
44589SOL     OW33790   7.787   6.095   2.868
44589SOL    HW133791   7.735   6.012   2.851
44589SOL    HW233792   7.864   6.100   2.804
44590SOL     OW33793   8.586   5.966   3.540
44590SOL    HW133794   8.541   6.029   3.604
44590SOL    HW233795   8.679   5.997   3.523
44591SOL     OW33796   8.608   5.793   3.339
44591SOL    HW133797   8.608   5.857   3.416
44591SOL    HW233798   8.636   5.841   3.256
44592SOL     OW33799   7.456   6.912   2.062
44592SOL    HW133800   7.363   6.933   2.031
44592SOL    HW233801   7.466   6.813   2.075
44593SOL     OW33802   7.536   7.387   2.789
44593SOL    HW133803   7.494   7.301   2.762
44593SOL    HW233804   7.630   7.390   2.755
44594SOL     OW33805   7.952   7.154   2.772
44594SOL    HW133806   8.018   7.228   2.781
44594SOL    HW233807   7.996   7.075   2.730
44595SOL     OW33808   8.450   6.382   3.100
44595SOL    HW133809   8.491   6.350   3.186
44595SOL    HW233810   8.354   6.355   3.097
44596SOL     OW33811   7.488   6.130   2.976
44596SOL    HW133812   7.573   6.097   2.935
44596SOL    HW233813   7.501   6.145   3.074
44597SOL     OW33814   7.637   6.106   3.584
44597SOL    HW133815   7.696   6.066   3.514
44597SOL    HW233816   7.579   6.177   3.543
44598SOL     OW33817   8.817   6.536   3.522
44598SOL    HW133818   8.856   6.625   3.542
44598SOL    HW233819   8.827   6.516   3.425
44599SOL     OW33820   8.263   6.158   2.187
44599SOL    HW133821   8.270   6.069   2.141
44599SOL    HW233822   8.169   6.192   2.179
44600SOL     OW33823   9.105   6.190   3.068
44600SOL    HW133824   9.067   6.121   3.130
44600SOL    HW233825   9.187   6.154   3.024
44601SOL     OW33826   7.700   7.150   3.606
44601SOL    HW133827   7.670   7.207   3.682
44601SOL    HW233828   7.693   7.053   3.632
44602SOL     OW33829   8.119   6.050   3.131
44602SOL    HW133830   8.085   5.961   3.101
44602SOL    HW233831   8.145   6.104   3.051
44603SOL     OW33832   8.378   7.264   3.327
44603SOL    HW133833   8.354   7.246   3.232
44603SOL    HW233834   8.408   7.358   3.337
44604SOL     OW33835   7.921   6.086   2.053
44604SOL    HW133836   7.982   6.166   2.057
44604SOL    HW233837   7.826   6.117   2.060
44605SOL     OW33838   7.607   6.723   3.328
44605SOL    HW133839   7.629   6.662   3.404
44605SOL    HW233840   7.617   6.674   3.242
44606SOL     OW33841   8.795   6.645   3.096
44606SOL    HW133842   8.819   6.582   3.022
44606SOL    HW233843   8.705   6.685   3.078
44607SOL     OW33844   8.750   6.441   2.171
44607SOL    HW133845   8.664   6.410   2.213
44607SOL    HW233846   8.746   6.427   2.072
44608SOL     OW33847   9.207   7.333   3.016
44608SOL    HW133848   9.268   7.363   2.943
44608SOL    HW233849   9.169   7.244   2.994
44609SOL     OW33850   8.700   7.317   2.990
44609SOL    HW133851   8.784   7.322   2.936
44609SOL    HW233852   8.677   7.221   3.008
44610SOL     OW33853   7.531   6.844   2.884
44610SOL    HW133854   7.526   6.843   2.984
44610SOL    HW233855   7.448   6.803   2.846
44611SOL     OW33856   8.136   7.248   3.578
44611SOL    HW133857   8.080   7.329   3.587
44611SOL    HW233858   8.188   7.252   3.492
44612SOL     OW33859   9.174   5.721   2.385
44612SOL    HW133860   9.247   5.704   2.318
44612SOL    HW233861   9.143   5.634   2.423
44613SOL     OW33862   8.836   7.159   2.339
44613SOL    HW133863   8.903   7.171   2.265
44613SOL    HW233864   8.796   7.248   2.362
44614SOL     OW33865   7.578   7.380   3.713
44614SOL    HW133866   7.537   7.306   3.766
44614SOL    HW233867   7.642   7.431   3.771
44615SOL     OW33868   8.728   6.513   2.534
44615SOL    HW133869   8.788   6.432   2.536
44615SOL    HW233870   8.768   6.582   2.474
44616SOL     OW33871   8.278   6.859   3.284
44616SOL    HW133872   8.273   6.892   3.379
44616SOL    HW233873   8.192   6.878   3.238
44617SOL     OW33874   8.120   7.202   2.016
44617SOL    HW133875   8.129   7.212   1.917
44617SOL    HW233876   8.080   7.113   2.037
44618SOL     OW33877   9.098   7.306   3.256
44618SOL    HW133878   9.151   7.316   3.172
44618SOL    HW233879   9.071   7.396   3.290
44619SOL     OW33880   9.289   5.761   2.825
44619SOL    HW133881   9.328   5.676   2.789
44619SOL    HW233882   9.191   5.763   2.806
44620SOL     OW33883   7.711   5.912   2.582
44620SOL    HW133884   7.632   5.963   2.548
44620SOL    HW233885   7.702   5.897   2.680
44621SOL     OW33886   8.642   7.198   1.893
44621SOL    HW133887   8.648   7.105   1.930
44621SOL    HW233888   8.583   7.198   1.813
44622SOL     OW33889   8.270   6.588   3.234
44622SOL    HW133890   8.310   6.587   3.142
44622SOL    HW233891   8.280   6.680   3.274
44623SOL     OW33892   8.364   6.496   2.153
44623SOL    HW133893   8.427   6.534   2.085
44623SOL    HW233894   8.404   6.413   2.192
44624SOL     OW33895   8.952   7.193   1.906
44624SOL    HW133896   8.860   7.230   1.913
44624SOL    HW233897   8.990   7.213   1.816
44625SOL     OW33898   7.820   6.874   3.352
44625SOL    HW133899   7.807   6.967   3.318
44625SOL    HW233900   7.736   6.822   3.339
44626SOL     OW33901   9.062   6.878   3.151
44626SOL    HW133902   9.122   6.881   3.231
44626SOL    HW233903   8.987   6.942   3.164
44627SOL     OW33904   8.487   6.684   2.558
44627SOL    HW133905   8.417   6.637   2.612
44627SOL    HW233906   8.546   6.616   2.515
44628SOL     OW33907   8.462   5.822   2.833
44628SOL    HW133908   8.454   5.786   2.740
44628SOL    HW233909   8.460   5.746   2.898
44629SOL     OW33910   8.038   7.073   2.353
44629SOL    HW133911   8.080   7.015   2.283
44629SOL    HW233912   7.994   7.152   2.309
44630SOL     OW33913   9.157   5.971   3.243
44630SOL    HW133914   9.230   6.040   3.247
44630SOL    HW233915   9.185   5.896   3.184
44631SOL     OW33916   7.703   6.934   2.152
44631SOL    HW133917   7.607   6.935   2.125
44631SOL    HW233918   7.715   6.987   2.236
44632SOL     OW33919   7.553   6.599   3.588
44632SOL    HW133920   7.476   6.566   3.642
44632SOL    HW233921   7.638   6.569   3.630
44633SOL     OW33922   8.120   5.789   3.351
44633SOL    HW133923   8.210   5.773   3.311
44633SOL    HW233924   8.128   5.794   3.450
44634SOL     OW33925   7.523   5.931   1.895
44634SOL    HW133926   7.431   5.903   1.866
44634SOL    HW233927   7.554   6.008   1.839
44635SOL     OW33928   8.888   6.442   3.260
44635SOL    HW133929   8.831   6.494   3.197
44635SOL    HW233930   8.984   6.454   3.236
44636SOL     OW33931   7.520   5.752   2.180
44636SOL    HW133932   7.503   5.835   2.126
44636SOL    HW233933   7.610   5.715   2.158
44637SOL     OW33934   8.631   6.921   1.981
44637SOL    HW133935   8.532   6.910   1.983
44637SOL    HW233936   8.665   6.936   2.074
44638SOL     OW33937   8.061   6.428   3.293
44638SOL    HW133938   8.117   6.509   3.276
44638SOL    HW233939   8.120   6.348   3.296
44639SOL     OW33940   8.941   7.353   2.821
44639SOL    HW133941   8.974   7.417   2.752
44639SOL    HW233942   9.007   7.347   2.896
44640SOL     OW33943   8.164   6.151   3.570
44640SOL    HW133944   8.183   6.216   3.644
44640SOL    HW233945   8.224   6.071   3.579
44641SOL     OW33946   8.898   6.806   3.495
44641SOL    HW133947   8.889   6.796   3.594
44641SOL    HW233948   8.994   6.799   3.469
44642SOL     OW33949   7.838   7.327   3.422
44642SOL    HW133950   7.747   7.368   3.420
44642SOL    HW233951   7.831   7.233   3.454
44643SOL     OW33952   9.122   6.469   3.116
44643SOL    HW133953   9.095   6.380   3.079
44643SOL    HW233954   9.123   6.537   3.043
44644SOL     OW33955   8.673   5.911   2.311
44644SOL    HW133956   8.738   5.837   2.300
44644SOL    HW233957   8.693   5.961   2.395
44645SOL     OW33958   8.042   6.331   2.514
44645SOL    HW133959   8.092   6.416   2.495
44645SOL    HW233960   7.954   6.333   2.466
44646SOL     OW33961   9.225   5.928   3.504
44646SOL    HW133962   9.208   5.959   3.410
44646SOL    HW233963   9.141   5.891   3.542
44647SOL     OW33964   9.178   6.520   3.379
44647SOL    HW133965   9.216   6.611   3.394
44647SOL    HW233966   9.170   6.503   3.280
44648SOL     OW33967   8.307   6.960   1.878
44648SOL    HW133968   8.261   6.975   1.966
44648SOL    HW233969   8.351   7.045   1.848
44649SOL     OW33970   8.109   7.376   2.815
44649SOL    HW133971   8.063   7.464   2.802
44649SOL    HW233972   8.208   7.388   2.808
44650SOL     OW33973   8.307   6.542   2.723
44650SOL    HW133974   8.361   6.473   2.771
44650SOL    HW233975   8.275   6.611   2.789
44651SOL     OW33976   8.531   6.570   1.949
44651SOL    HW133977   8.508   6.623   1.867
44651SOL    HW233978   8.612   6.514   1.930
44652SOL     OW33979   9.309   7.155   2.713
44652SOL    HW133980   9.238   7.143   2.643
44652SOL    HW233981   9.310   7.076   2.773
44653SOL     OW33982   7.669   6.900   3.706
44653SOL    HW133983   7.604   6.827   3.685
44653SOL    HW233984   7.673   6.914   3.804
44654SOL     OW33985   7.527   6.826   2.515
44654SOL    HW133986   7.526   6.779   2.603
44654SOL    HW233987   7.609   6.798   2.464
44655SOL     OW33988   8.120   6.977   3.486
44655SOL    HW133989   8.042   6.927   3.524
44655SOL    HW233990   8.117   7.072   3.517
44656SOL     OW33991   9.272   5.778   3.089
44656SOL    HW133992   9.268   5.688   3.133
44656SOL    HW233993   9.275   5.767   2.990
44657SOL     OW33994   7.876   6.010   2.382
44657SOL    HW133995   7.906   5.938   2.320
44657SOL    HW233996   7.837   5.970   2.465
44658SOL     OW33997   9.153   7.073   2.966
44658SOL    HW133998   9.060   7.048   2.939
44658SOL    HW233999   9.179   7.023   3.048
44659SOL     OW34000   7.765   6.133   3.142
44659SOL    HW134001   7.803   6.074   3.214
44659SOL    HW234002   7.805   6.107   3.054
44660SOL     OW34003   8.260   7.172   2.549
44660SOL    HW134004   8.292   7.182   2.455
44660SOL    HW234005   8.181   7.110   2.551
44661SOL     OW34006   8.872   5.800   2.974
44661SOL    HW134007   8.924   5.735   3.029
44661SOL    HW234008   8.823   5.863   3.035
44662SOL     OW34009   8.449   5.620   3.016
44662SOL    HW134010   8.386   5.548   2.985
44662SOL    HW234011   8.542   5.584   3.016
44663SOL     OW34012   8.218   6.916   2.163
44663SOL    HW134013   8.172   6.829   2.180
44663SOL    HW234014   8.309   6.913   2.204
44664SOL     OW34015   8.066   7.153   3.146
44664SOL    HW134016   8.061   7.235   3.203
44664SOL    HW234017   8.155   7.150   3.101
44665SOL     OW34018   8.800   5.638   2.030
44665SOL    HW134019   8.835   5.597   1.946
44665SOL    HW234020   8.710   5.600   2.050
44666SOL     OW34021   8.748   6.039   2.553
44666SOL    HW134022   8.689   6.119   2.557
44666SOL    HW234023   8.763   6.004   2.646
44667SOL     OW34024   9.041   5.807   2.744
44667SOL    HW134025   8.957   5.806   2.798
44667SOL    HW234026   9.043   5.890   2.688
44668SOL     OW34027   7.487   6.663   2.162
44668SOL    HW134028   7.586   6.652   2.153
44668SOL    HW234029   7.447   6.577   2.194
44669SOL     OW34030   8.323   7.232   2.199
44669SOL    HW134031   8.246   7.197   2.145
44669SOL    HW234032   8.291   7.303   2.261
44670SOL     OW34033   7.678   6.214   3.837
44670SOL    HW134034   7.585   6.212   3.874
44670SOL    HW234035   7.679   6.175   3.745
44671SOL     OW34036   7.673   5.861   4.720
44671SOL    HW134037   7.708   5.844   4.812
44671SOL    HW234038   7.585   5.816   4.708
44672SOL     OW34039   7.467   5.954   4.371
44672SOL    HW134040   7.385   5.997   4.410
44672SOL    HW234041   7.439   5.881   4.308
44673SOL     OW34042   8.017   6.861   4.889
44673SOL    HW134043   7.924   6.854   4.852
44673SOL    HW234044   8.028   6.950   4.933
44674SOL     OW34045   9.003   7.097   4.427
44674SOL    HW134046   8.946   7.081   4.508
44674SOL    HW234047   8.944   7.107   4.347
44675SOL     OW34048   8.583   6.289   4.441
44675SOL    HW134049   8.640   6.367   4.416
44675SOL    HW234050   8.523   6.315   4.517
44676SOL     OW34051   9.203   6.193   3.955
44676SOL    HW134052   9.191   6.180   3.856
44676SOL    HW234053   9.173   6.112   4.004
44677SOL     OW34054   8.216   6.730   4.747
44677SOL    HW134055   8.138   6.747   4.807
44677SOL    HW234056   8.250   6.817   4.711
44678SOL     OW34057   8.298   6.384   5.547
44678SOL    HW134058   8.294   6.460   5.612
44678SOL    HW234059   8.320   6.420   5.456
44679SOL     OW34060   8.133   6.598   4.389
44679SOL    HW134061   8.202   6.582   4.459
44679SOL    HW234062   8.060   6.655   4.427
44680SOL     OW34063   8.134   6.747   5.527
44680SOL    HW134064   8.194   6.826   5.541
44680SOL    HW234065   8.048   6.778   5.486
44681SOL     OW34066   7.783   7.021   4.785
44681SOL    HW134067   7.705   6.990   4.732
44681SOL    HW234068   7.841   7.079   4.728
44682SOL     OW34069   8.908   7.091   5.063
44682SOL    HW134070   8.932   7.185   5.089
44682SOL    HW234071   8.892   7.037   5.145
44683SOL     OW34072   7.886   5.978   5.223
44683SOL    HW134073   7.968   5.922   5.232
44683SOL    HW234074   7.805   5.920   5.227
44684SOL     OW34075   9.051   6.033   4.461
44684SOL    HW134076   8.977   6.079   4.411
44684SOL    HW234077   9.102   6.101   4.514
44685SOL     OW34078   7.679   7.299   4.207
44685SOL    HW134079   7.713   7.376   4.261
44685SOL    HW234080   7.723   7.299   4.117
44686SOL     OW34081   8.575   6.927   5.414
44686SOL    HW134082   8.622   6.927   5.502
44686SOL    HW234083   8.527   6.840   5.403
44687SOL     OW34084   7.678   7.020   4.262
44687SOL    HW134085   7.652   7.116   4.262
44687SOL    HW234086   7.607   6.966   4.307
44688SOL     OW34087   7.688   6.677   4.610
44688SOL    HW134088   7.702   6.593   4.662
44688SOL    HW234089   7.633   6.741   4.665
44689SOL     OW34090   8.068   7.372   5.163
44689SOL    HW134091   7.976   7.355   5.198
44689SOL    HW234092   8.096   7.464   5.189
44690SOL     OW34093   8.054   6.550   3.847
44690SOL    HW134094   8.061   6.634   3.793
44690SOL    HW234095   8.100   6.563   3.935
44691SOL     OW34096   9.042   5.700   5.204
44691SOL    HW134097   9.024   5.767   5.132
44691SOL    HW234098   9.039   5.746   5.293
44692SOL     OW34099   7.570   6.229   4.287
44692SOL    HW134100   7.525   6.141   4.304
44692SOL    HW234101   7.569   6.283   4.371
44693SOL     OW34102   9.290   7.353   4.083
44693SOL    HW134103   9.344   7.324   4.163
44693SOL    HW234104   9.320   7.443   4.054
44694SOL     OW34105   7.475   7.182   3.841
44694SOL    HW134106   7.456   7.086   3.862
44694SOL    HW234107   7.442   7.240   3.916
44695SOL     OW34108   9.137   6.508   4.336
44695SOL    HW134109   9.232   6.479   4.344
44695SOL    HW234110   9.129   6.573   4.261
44696SOL     OW34111   9.089   6.694   4.156
44696SOL    HW134112   9.175   6.696   4.104
44696SOL    HW234113   9.103   6.741   4.244
44697SOL     OW34114   7.561   6.323   5.321
44697SOL    HW134115   7.649   6.310   5.366
44697SOL    HW234116   7.548   6.420   5.299
44698SOL     OW34117   8.061   6.951   4.450
44698SOL    HW134118   8.012   6.864   4.459
44698SOL    HW234119   8.038   6.994   4.363
44699SOL     OW34120   8.741   6.814   5.147
44699SOL    HW134121   8.778   6.741   5.089
44699SOL    HW234122   8.793   6.819   5.232
44700SOL     OW34123   8.257   5.590   4.226
44700SOL    HW134124   8.297   5.681   4.217
44700SOL    HW234125   8.157   5.598   4.232
44701SOL     OW34126   7.645   6.562   4.988
44701SOL    HW134127   7.734   6.517   4.974
44701SOL    HW234128   7.572   6.497   4.969
44702SOL     OW34129   8.973   6.585   3.914
44702SOL    HW134130   8.910   6.509   3.927
44702SOL    HW234131   9.021   6.603   4.000
44703SOL     OW34132   8.635   7.378   5.340
44703SOL    HW134133   8.659   7.438   5.264
44703SOL    HW234134   8.642   7.283   5.310
44704SOL     OW34135   7.765   5.837   5.525
44704SOL    HW134136   7.836   5.908   5.531
44704SOL    HW234137   7.677   5.876   5.553
44705SOL     OW34138   8.914   7.003   4.677
44705SOL    HW134139   8.855   7.009   4.757
44705SOL    HW234140   8.899   6.915   4.631
44706SOL     OW34141   9.115   7.300   4.296
44706SOL    HW134142   9.074   7.277   4.208
44706SOL    HW234143   9.097   7.226   4.361
44707SOL     OW34144   8.046   6.315   3.994
44707SOL    HW134145   8.070   6.384   3.926
44707SOL    HW234146   7.968   6.348   4.048
44708SOL     OW34147   8.729   5.931   4.668
44708SOL    HW134148   8.643   5.881   4.655
44708SOL    HW234149   8.791   5.877   4.724
44709SOL     OW34150   9.024   7.248   4.031
44709SOL    HW134151   9.113   7.294   4.034
44709SOL    HW234152   9.003   7.224   3.936
44710SOL     OW34153   8.255   6.191   5.189
44710SOL    HW134154   8.208   6.188   5.278
44710SOL    HW234155   8.204   6.136   5.123
44711SOL     OW34156   8.842   6.055   5.398
44711SOL    HW134157   8.822   6.098   5.486
44711SOL    HW234158   8.920   5.993   5.407
44712SOL     OW34159   8.421   6.476   5.296
44712SOL    HW134160   8.467   6.392   5.267
44712SOL    HW234161   8.365   6.510   5.221
44713SOL     OW34162   8.439   5.996   4.966
44713SOL    HW134163   8.362   6.030   5.020
44713SOL    HW234164   8.405   5.945   4.887
44714SOL     OW34165   8.489   6.287   4.153
44714SOL    HW134166   8.515   6.283   4.249
44714SOL    HW234167   8.404   6.236   4.139
44715SOL     OW34168   7.524   6.397   4.513
44715SOL    HW134169   7.623   6.385   4.522
44715SOL    HW234170   7.500   6.492   4.534
44716SOL     OW34171   7.578   7.407   5.295
44716SOL    HW134172   7.568   7.392   5.394
44716SOL    HW234173   7.492   7.443   5.259
44717SOL     OW34174   8.313   5.934   3.919
44717SOL    HW134175   8.372   5.997   3.870
44717SOL    HW234176   8.332   5.840   3.890
44718SOL     OW34177   9.167   6.171   5.555
44718SOL    HW134178   9.141   6.260   5.519
44718SOL    HW234179   9.165   6.103   5.482
44719SOL     OW34180   8.810   6.730   4.269
44719SOL    HW134181   8.893   6.701   4.221
44719SOL    HW234182   8.761   6.797   4.213
44720SOL     OW34183   7.998   5.782   4.609
44720SOL    HW134184   7.993   5.777   4.709
44720SOL    HW234185   8.000   5.878   4.580
44721SOL     OW34186   8.456   7.042   4.201
44721SOL    HW134187   8.410   7.114   4.149
44721SOL    HW234188   8.452   7.062   4.299
44722SOL     OW34189   7.799   7.387   4.577
44722SOL    HW134190   7.849   7.301   4.583
44722SOL    HW234191   7.864   7.464   4.574
44723SOL     OW34192   9.243   6.652   4.597
44723SOL    HW134193   9.181   6.637   4.521
44723SOL    HW234194   9.191   6.663   4.682
44724SOL     OW34195   8.675   7.136   5.230
44724SOL    HW134196   8.681   7.059   5.294
44724SOL    HW234197   8.623   7.110   5.150
44725SOL     OW34198   7.769   6.529   3.966
44725SOL    HW134199   7.851   6.568   3.924
44725SOL    HW234200   7.742   6.447   3.917
44726SOL     OW34201   8.906   6.321   4.452
44726SOL    HW134202   8.901   6.256   4.527
44726SOL    HW234203   8.986   6.380   4.465
44727SOL     OW34204   7.909   6.852   5.451
44727SOL    HW134205   7.859   6.853   5.365
44727SOL    HW234206   7.846   6.834   5.527
44728SOL     OW34207   8.559   7.362   3.961
44728SOL    HW134208   8.499   7.300   4.011
44728SOL    HW234209   8.590   7.318   3.876
44729SOL     OW34210   7.650   5.871   5.222
44729SOL    HW134211   7.570   5.931   5.209
44729SOL    HW234212   7.640   5.822   5.308
44730SOL     OW34213   9.080   6.963   3.805
44730SOL    HW134214   9.048   7.057   3.795
44730SOL    HW234215   9.004   6.900   3.793
44731SOL     OW34216   7.912   7.329   4.047
44731SOL    HW134217   7.945   7.368   4.133
44731SOL    HW234218   7.988   7.322   3.982
44732SOL     OW34219   8.848   5.693   4.150
44732SOL    HW134220   8.824   5.656   4.060
44732SOL    HW234221   8.947   5.709   4.154
44733SOL     OW34222   7.697   7.371   4.965
44733SOL    HW134223   7.754   7.306   5.015
44733SOL    HW234224   7.681   7.338   4.872
44734SOL     OW34225   8.388   7.284   4.628
44734SOL    HW134226   8.468   7.227   4.649
44734SOL    HW234227   8.339   7.244   4.551
44735SOL     OW34228   7.830   6.286   4.204
44735SOL    HW134229   7.875   6.196   4.201
44735SOL    HW234230   7.736   6.275   4.237
44736SOL     OW34231   8.995   5.808   5.453
44736SOL    HW134232   8.990   5.845   5.545
44736SOL    HW234233   8.923   5.739   5.441
44737SOL     OW34234   8.062   5.708   3.841
44737SOL    HW134235   8.160   5.686   3.848
44737SOL    HW234236   8.031   5.691   3.748
44738SOL     OW34237   8.229   5.850   5.473
44738SOL    HW134238   8.296   5.789   5.516
44738SOL    HW234239   8.156   5.869   5.538
44739SOL     OW34240   8.336   7.100   4.919
44739SOL    HW134241   8.313   7.075   4.825
44739SOL    HW234242   8.397   7.031   4.958
44740SOL     OW34243   8.799   6.176   5.157
44740SOL    HW134244   8.827   6.133   5.242
44740SOL    HW234245   8.824   6.272   5.158
44741SOL     OW34246   8.251   6.988   4.648
44741SOL    HW134247   8.341   7.002   4.606
44741SOL    HW234248   8.180   6.990   4.577
44742SOL     OW34249   8.370   6.089   4.623
44742SOL    HW134250   8.345   6.080   4.527
44742SOL    HW234251   8.418   6.007   4.654
44743SOL     OW34252   7.987   5.650   4.236
44743SOL    HW134253   7.906   5.651   4.294
44743SOL    HW234254   7.990   5.733   4.181
44744SOL     OW34255   8.882   6.774   3.765
44744SOL    HW134256   8.914   6.698   3.822
44744SOL    HW234257   8.790   6.801   3.795
44745SOL     OW34258   7.745   5.621   3.895
44745SOL    HW134259   7.794   5.705   3.874
44745SOL    HW234260   7.807   5.556   3.940
44746SOL     OW34261   8.383   5.822   4.204
44746SOL    HW134262   8.335   5.863   4.126
44746SOL    HW234263   8.482   5.820   4.185
44747SOL     OW34264   8.524   6.269   5.188
44747SOL    HW134265   8.444   6.208   5.191
44747SOL    HW234266   8.605   6.216   5.164
44748SOL     OW34267   8.675   7.156   4.517
44748SOL    HW134268   8.696   7.230   4.452
44748SOL    HW234269   8.743   7.156   4.590
44749SOL     OW34270   7.907   6.738   4.465
44749SOL    HW134271   7.836   6.711   4.530
44749SOL    HW234272   7.881   6.710   4.372
44750SOL     OW34273   8.719   7.383   4.315
44750SOL    HW134274   8.763   7.447   4.251
44750SOL    HW234275   8.669   7.435   4.385
44751SOL     OW34276   8.480   6.135   3.740
44751SOL    HW134277   8.439   6.217   3.701
44751SOL    HW234278   8.544   6.161   3.813
44752SOL     OW34279   7.526   6.142   5.110
44752SOL    HW134280   7.618   6.141   5.069
44752SOL    HW234281   7.520   6.216   5.177
44753SOL     OW34282   8.009   5.808   4.871
44753SOL    HW134283   8.047   5.724   4.908
44753SOL    HW234284   7.921   5.827   4.915
44754SOL     OW34285   8.314   6.040   4.366
44754SOL    HW134286   8.282   6.112   4.304
44754SOL    HW234287   8.338   5.959   4.313
44755SOL     OW34288   8.465   5.625   4.477
44755SOL    HW134289   8.393   5.630   4.408
44755SOL    HW234290   8.441   5.556   4.546
44756SOL     OW34291   8.877   6.759   4.591
44756SOL    HW134292   8.822   6.675   4.584
44756SOL    HW234293   8.903   6.788   4.499
44757SOL     OW34294   8.914   6.176   4.716
44757SOL    HW134295   8.884   6.081   4.723
44757SOL    HW234296   8.987   6.192   4.782
44758SOL     OW34297   9.305   6.419   4.101
44758SOL    HW134298   9.347   6.355   4.165
44758SOL    HW234299   9.267   6.368   4.023
44759SOL     OW34300   7.936   6.971   3.898
44759SOL    HW134301   7.849   6.956   3.945
44759SOL    HW234302   7.919   6.997   3.803
44760SOL     OW34303   9.112   6.866   4.381
44760SOL    HW134304   9.211   6.874   4.395
44760SOL    HW234305   9.067   6.950   4.412
44761SOL     OW34306   8.838   6.161   3.802
44761SOL    HW134307   8.784   6.140   3.883
44761SOL    HW234308   8.929   6.120   3.811
44762SOL     OW34309   7.975   5.842   4.052
44762SOL    HW134310   8.002   5.783   3.977
44762SOL    HW234311   7.975   5.937   4.021
44763SOL     OW34312   9.202   6.809   5.312
44763SOL    HW134313   9.293   6.770   5.299
44763SOL    HW234314   9.210   6.905   5.336
44764SOL     OW34315   8.512   6.933   5.064
44764SOL    HW134316   8.432   6.910   5.119
44764SOL    HW234317   8.595   6.907   5.113
44765SOL     OW34318   9.040   7.215   5.349
44765SOL    HW134319   9.067   7.249   5.259
44765SOL    HW234320   9.119   7.177   5.395
44766SOL     OW34321   8.559   6.781   4.824
44766SOL    HW134322   8.519   6.825   4.905
44766SOL    HW234323   8.518   6.818   4.741
44767SOL     OW34324   9.086   6.685   4.803
44767SOL    HW134325   9.091   6.766   4.862
44767SOL    HW234326   9.000   6.687   4.752
44768SOL     OW34327   8.363   5.675   5.126
44768SOL    HW134328   8.388   5.655   5.031
44768SOL    HW234329   8.435   5.731   5.168
44769SOL     OW34330   8.428   6.702   5.443
44769SOL    HW134331   8.329   6.708   5.453
44769SOL    HW234332   8.451   6.622   5.387
44770SOL     OW34333   8.153   6.636   4.092
44770SOL    HW134334   8.139   6.643   4.191
44770SOL    HW234335   8.237   6.585   4.074
44771SOL     OW34336   7.858   6.399   4.975
44771SOL    HW134337   7.944   6.411   5.025
44771SOL    HW234338   7.816   6.312   5.002
44772SOL     OW34339   8.722   5.972   4.986
44772SOL    HW134340   8.743   6.046   5.050
44772SOL    HW234341   8.633   5.989   4.943
44773SOL     OW34342   7.512   7.150   5.055
44773SOL    HW134343   7.466   7.232   5.021
44773SOL    HW234344   7.610   7.169   5.064
44774SOL     OW34345   7.815   6.686   4.225
44774SOL    HW134346   7.808   6.769   4.169
44774SOL    HW234347   7.819   6.606   4.165
44775SOL     OW34348   8.014   6.123   4.589
44775SOL    HW134349   8.026   6.189   4.515
44775SOL    HW234350   8.060   6.157   4.672
44776SOL     OW34351   8.700   6.934   4.112
44776SOL    HW134352   8.750   7.011   4.152
44776SOL    HW234353   8.605   6.936   4.144
44777SOL     OW34354   8.720   7.031   4.866
44777SOL    HW134355   8.767   7.044   4.953
44777SOL    HW234356   8.654   6.957   4.875
44778SOL     OW34357   9.030   6.225   4.196
44778SOL    HW134358   8.999   6.286   4.269
44778SOL    HW234359   9.080   6.277   4.127
44779SOL     OW34360   7.802   7.096   5.053
44779SOL    HW134361   7.781   7.052   4.966
44779SOL    HW234362   7.899   7.122   5.056
44780SOL     OW34363   7.850   6.337   5.322
44780SOL    HW134364   7.918   6.392   5.275
44780SOL    HW234365   7.890   6.249   5.349
44781SOL     OW34366   9.035   6.365   5.394
44781SOL    HW134367   8.943   6.403   5.389
44781SOL    HW234368   9.095   6.412   5.329
44782SOL     OW34369   8.461   5.691   5.494
44782SOL    HW134370   8.467   5.776   5.442
44782SOL    HW234371   8.493   5.615   5.437
44783SOL     OW34372   7.952   5.636   5.464
44783SOL    HW134373   7.910   5.579   5.394
44783SOL    HW234374   7.886   5.705   5.496
44784SOL     OW34375   8.021   6.456   4.753
44784SOL    HW134376   8.065   6.545   4.744
44784SOL    HW234377   7.958   6.456   4.830
44785SOL     OW34378   8.808   6.448   4.769
44785SOL    HW134379   8.733   6.448   4.703
44785SOL    HW234380   8.845   6.356   4.778
44786SOL     OW34381   8.657   6.111   3.999
44786SOL    HW134382   8.670   6.027   4.053
44786SOL    HW234383   8.628   6.185   4.059
44787SOL     OW34384   7.755   5.799   4.955
44787SOL    HW134385   7.732   5.836   5.045
44787SOL    HW234386   7.725   5.704   4.949
44788SOL     OW34387   7.485   6.896   5.006
44788SOL    HW134388   7.538   6.847   5.074
44788SOL    HW234389   7.507   6.994   5.011
44789SOL     OW34390   8.180   6.220   4.788
44789SOL    HW134391   8.239   6.194   4.712
44789SOL    HW234392   8.152   6.316   4.777
44790SOL     OW34393   9.176   6.521   5.578
44790SOL    HW134394   9.130   6.514   5.489
44790SOL    HW234395   9.114   6.565   5.644
44791SOL     OW34396   7.755   5.649   4.342
44791SOL    HW134397   7.744   5.743   4.375
44791SOL    HW234398   7.750   5.586   4.419
44792SOL     OW34399   9.070   5.953   4.098
44792SOL    HW134400   9.072   5.877   4.162
44792SOL    HW234401   9.022   6.030   4.138
44793SOL     OW34402   8.471   6.352   4.690
44793SOL    HW134403   8.486   6.373   4.786
44793SOL    HW234404   8.441   6.257   4.681
44794SOL     OW34405   8.428   7.159   5.424
44794SOL    HW134406   8.408   7.203   5.336
44794SOL    HW234407   8.467   7.068   5.408
44795SOL     OW34408   9.307   7.104   5.329
44795SOL    HW134409   9.321   7.131   5.234
44795SOL    HW234410   9.390   7.126   5.382
44796SOL     OW34411   7.798   6.484   5.528
44796SOL    HW134412   7.874   6.528   5.576
44796SOL    HW234413   7.833   6.437   5.446
44797SOL     OW34414   8.988   5.860   3.849
44797SOL    HW134415   8.927   5.785   3.872
44797SOL    HW234416   9.010   5.912   3.932
44798SOL     OW34417   8.751   6.424   3.766
44798SOL    HW134418   8.785   6.331   3.781
44798SOL    HW234419   8.769   6.451   3.671
44799SOL     OW34420   8.516   6.919   4.573
44799SOL    HW134421   8.523   6.835   4.518
44799SOL    HW234422   8.578   6.988   4.537
44800SOL     OW34423   7.767   6.396   4.673
44800SOL    HW134424   7.860   6.432   4.678
44800SOL    HW234425   7.761   6.311   4.725
44801SOL     OW34426   7.787   6.095   4.730
44801SOL    HW134427   7.735   6.012   4.713
44801SOL    HW234428   7.864   6.100   4.666
44802SOL     OW34429   8.586   5.966   5.402
44802SOL    HW134430   8.541   6.029   5.466
44802SOL    HW234431   8.679   5.997   5.385
44803SOL     OW34432   8.608   5.793   5.201
44803SOL    HW134433   8.608   5.857   5.278
44803SOL    HW234434   8.636   5.841   5.118
44804SOL     OW34435   7.456   6.912   3.924
44804SOL    HW134436   7.363   6.933   3.893
44804SOL    HW234437   7.466   6.813   3.937
44805SOL     OW34438   7.536   7.387   4.651
44805SOL    HW134439   7.494   7.301   4.624
44805SOL    HW234440   7.630   7.390   4.617
44806SOL     OW34441   7.952   7.154   4.634
44806SOL    HW134442   8.018   7.228   4.643
44806SOL    HW234443   7.996   7.075   4.592
44807SOL     OW34444   8.450   6.382   4.962
44807SOL    HW134445   8.491   6.350   5.048
44807SOL    HW234446   8.354   6.355   4.959
44808SOL     OW34447   7.488   6.130   4.838
44808SOL    HW134448   7.573   6.097   4.797
44808SOL    HW234449   7.501   6.145   4.936
44809SOL     OW34450   7.637   6.106   5.446
44809SOL    HW134451   7.696   6.066   5.376
44809SOL    HW234452   7.579   6.177   5.405
44810SOL     OW34453   8.817   6.536   5.384
44810SOL    HW134454   8.856   6.625   5.404
44810SOL    HW234455   8.827   6.516   5.287
44811SOL     OW34456   8.263   6.158   4.049
44811SOL    HW134457   8.270   6.069   4.003
44811SOL    HW234458   8.169   6.192   4.041
44812SOL     OW34459   9.105   6.190   4.930
44812SOL    HW134460   9.067   6.121   4.992
44812SOL    HW234461   9.187   6.154   4.886
44813SOL     OW34462   7.700   7.150   5.468
44813SOL    HW134463   7.670   7.207   5.544
44813SOL    HW234464   7.693   7.053   5.494
44814SOL     OW34465   8.119   6.050   4.993
44814SOL    HW134466   8.085   5.961   4.963
44814SOL    HW234467   8.145   6.104   4.913
44815SOL     OW34468   8.378   7.264   5.189
44815SOL    HW134469   8.354   7.246   5.094
44815SOL    HW234470   8.408   7.358   5.199
44816SOL     OW34471   7.921   6.086   3.915
44816SOL    HW134472   7.982   6.166   3.919
44816SOL    HW234473   7.826   6.117   3.922
44817SOL     OW34474   7.607   6.723   5.190
44817SOL    HW134475   7.629   6.662   5.266
44817SOL    HW234476   7.617   6.674   5.104
44818SOL     OW34477   8.795   6.645   4.958
44818SOL    HW134478   8.819   6.582   4.884
44818SOL    HW234479   8.705   6.685   4.940
44819SOL     OW34480   8.750   6.441   4.033
44819SOL    HW134481   8.664   6.410   4.075
44819SOL    HW234482   8.746   6.427   3.934
44820SOL     OW34483   9.207   7.333   4.878
44820SOL    HW134484   9.268   7.363   4.805
44820SOL    HW234485   9.169   7.244   4.856
44821SOL     OW34486   8.700   7.317   4.852
44821SOL    HW134487   8.784   7.322   4.798
44821SOL    HW234488   8.677   7.221   4.870
44822SOL     OW34489   7.531   6.844   4.746
44822SOL    HW134490   7.526   6.843   4.846
44822SOL    HW234491   7.448   6.803   4.708
44823SOL     OW34492   8.136   7.248   5.440
44823SOL    HW134493   8.080   7.329   5.449
44823SOL    HW234494   8.188   7.252   5.354
44824SOL     OW34495   9.174   5.721   4.247
44824SOL    HW134496   9.247   5.704   4.180
44824SOL    HW234497   9.143   5.634   4.285
44825SOL     OW34498   8.836   7.159   4.201
44825SOL    HW134499   8.903   7.171   4.127
44825SOL    HW234500   8.796   7.248   4.224
44826SOL     OW34501   7.578   7.380   5.575
44826SOL    HW134502   7.537   7.306   5.628
44826SOL    HW234503   7.642   7.431   5.633
44827SOL     OW34504   8.728   6.513   4.396
44827SOL    HW134505   8.788   6.432   4.398
44827SOL    HW234506   8.768   6.582   4.336
44828SOL     OW34507   8.278   6.859   5.146
44828SOL    HW134508   8.273   6.892   5.241
44828SOL    HW234509   8.192   6.878   5.100
44829SOL     OW34510   8.120   7.202   3.878
44829SOL    HW134511   8.129   7.212   3.779
44829SOL    HW234512   8.080   7.113   3.899
44830SOL     OW34513   9.098   7.306   5.118
44830SOL    HW134514   9.151   7.316   5.034
44830SOL    HW234515   9.071   7.396   5.152
44831SOL     OW34516   9.289   5.761   4.687
44831SOL    HW134517   9.328   5.676   4.651
44831SOL    HW234518   9.191   5.763   4.668
44832SOL     OW34519   7.711   5.912   4.444
44832SOL    HW134520   7.632   5.963   4.410
44832SOL    HW234521   7.702   5.897   4.542
44833SOL     OW34522   8.642   7.198   3.755
44833SOL    HW134523   8.648   7.105   3.792
44833SOL    HW234524   8.583   7.198   3.675
44834SOL     OW34525   8.270   6.588   5.096
44834SOL    HW134526   8.310   6.587   5.004
44834SOL    HW234527   8.280   6.680   5.136
44835SOL     OW34528   8.364   6.496   4.015
44835SOL    HW134529   8.427   6.534   3.947
44835SOL    HW234530   8.404   6.413   4.054
44836SOL     OW34531   8.952   7.193   3.768
44836SOL    HW134532   8.860   7.230   3.775
44836SOL    HW234533   8.990   7.213   3.678
44837SOL     OW34534   7.820   6.874   5.214
44837SOL    HW134535   7.807   6.967   5.180
44837SOL    HW234536   7.736   6.822   5.201
44838SOL     OW34537   9.062   6.878   5.013
44838SOL    HW134538   9.122   6.881   5.093
44838SOL    HW234539   8.987   6.942   5.026
44839SOL     OW34540   8.487   6.684   4.420
44839SOL    HW134541   8.417   6.637   4.474
44839SOL    HW234542   8.546   6.616   4.377
44840SOL     OW34543   8.462   5.822   4.695
44840SOL    HW134544   8.454   5.786   4.602
44840SOL    HW234545   8.460   5.746   4.760
44841SOL     OW34546   8.038   7.073   4.215
44841SOL    HW134547   8.080   7.015   4.145
44841SOL    HW234548   7.994   7.152   4.171
44842SOL     OW34549   9.157   5.971   5.105
44842SOL    HW134550   9.230   6.040   5.109
44842SOL    HW234551   9.185   5.896   5.046
44843SOL     OW34552   7.703   6.934   4.014
44843SOL    HW134553   7.607   6.935   3.987
44843SOL    HW234554   7.715   6.987   4.098
44844SOL     OW34555   7.553   6.599   5.450
44844SOL    HW134556   7.476   6.566   5.504
44844SOL    HW234557   7.638   6.569   5.492
44845SOL     OW34558   8.120   5.789   5.213
44845SOL    HW134559   8.210   5.773   5.173
44845SOL    HW234560   8.128   5.794   5.312
44846SOL     OW34561   7.523   5.931   3.757
44846SOL    HW134562   7.431   5.903   3.728
44846SOL    HW234563   7.554   6.008   3.701
44847SOL     OW34564   8.888   6.442   5.122
44847SOL    HW134565   8.831   6.494   5.059
44847SOL    HW234566   8.984   6.454   5.098
44848SOL     OW34567   7.520   5.752   4.042
44848SOL    HW134568   7.503   5.835   3.988
44848SOL    HW234569   7.610   5.715   4.020
44849SOL     OW34570   8.631   6.921   3.843
44849SOL    HW134571   8.532   6.910   3.845
44849SOL    HW234572   8.665   6.936   3.936
44850SOL     OW34573   8.061   6.428   5.155
44850SOL    HW134574   8.117   6.509   5.138
44850SOL    HW234575   8.120   6.348   5.158
44851SOL     OW34576   8.941   7.353   4.683
44851SOL    HW134577   8.974   7.417   4.614
44851SOL    HW234578   9.007   7.347   4.758
44852SOL     OW34579   8.164   6.151   5.432
44852SOL    HW134580   8.183   6.216   5.506
44852SOL    HW234581   8.224   6.071   5.441
44853SOL     OW34582   8.898   6.806   5.357
44853SOL    HW134583   8.889   6.796   5.456
44853SOL    HW234584   8.994   6.799   5.331
44854SOL     OW34585   7.838   7.327   5.284
44854SOL    HW134586   7.747   7.368   5.282
44854SOL    HW234587   7.831   7.233   5.316
44855SOL     OW34588   9.122   6.469   4.978
44855SOL    HW134589   9.095   6.380   4.941
44855SOL    HW234590   9.123   6.537   4.905
44856SOL     OW34591   8.673   5.911   4.173
44856SOL    HW134592   8.738   5.837   4.162
44856SOL    HW234593   8.693   5.961   4.257
44857SOL     OW34594   8.042   6.331   4.376
44857SOL    HW134595   8.092   6.416   4.357
44857SOL    HW234596   7.954   6.333   4.328
44858SOL     OW34597   9.225   5.928   5.366
44858SOL    HW134598   9.208   5.959   5.272
44858SOL    HW234599   9.141   5.891   5.404
44859SOL     OW34600   9.178   6.520   5.241
44859SOL    HW134601   9.216   6.611   5.256
44859SOL    HW234602   9.170   6.503   5.142
44860SOL     OW34603   8.307   6.960   3.740
44860SOL    HW134604   8.261   6.975   3.828
44860SOL    HW234605   8.351   7.045   3.710
44861SOL     OW34606   8.109   7.376   4.677
44861SOL    HW134607   8.063   7.464   4.664
44861SOL    HW234608   8.208   7.388   4.670
44862SOL     OW34609   8.307   6.542   4.585
44862SOL    HW134610   8.361   6.473   4.633
44862SOL    HW234611   8.275   6.611   4.651
44863SOL     OW34612   8.531   6.570   3.811
44863SOL    HW134613   8.508   6.623   3.729
44863SOL    HW234614   8.612   6.514   3.792
44864SOL     OW34615   9.309   7.155   4.575
44864SOL    HW134616   9.238   7.143   4.505
44864SOL    HW234617   9.310   7.076   4.635
44865SOL     OW34618   7.669   6.900   5.568
44865SOL    HW134619   7.604   6.827   5.547
44865SOL    HW234620   7.673   6.914   5.666
44866SOL     OW34621   7.527   6.826   4.377
44866SOL    HW134622   7.526   6.779   4.465
44866SOL    HW234623   7.609   6.798   4.326
44867SOL     OW34624   8.120   6.977   5.348
44867SOL    HW134625   8.042   6.927   5.386
44867SOL    HW234626   8.117   7.072   5.379
44868SOL     OW34627   9.272   5.778   4.951
44868SOL    HW134628   9.268   5.688   4.995
44868SOL    HW234629   9.275   5.767   4.852
44869SOL     OW34630   7.876   6.010   4.244
44869SOL    HW134631   7.906   5.938   4.182
44869SOL    HW234632   7.837   5.970   4.327
44870SOL     OW34633   9.153   7.073   4.828
44870SOL    HW134634   9.060   7.048   4.801
44870SOL    HW234635   9.179   7.023   4.910
44871SOL     OW34636   7.765   6.133   5.004
44871SOL    HW134637   7.803   6.074   5.076
44871SOL    HW234638   7.805   6.107   4.916
44872SOL     OW34639   8.260   7.172   4.411
44872SOL    HW134640   8.292   7.182   4.317
44872SOL    HW234641   8.181   7.110   4.413
44873SOL     OW34642   8.872   5.800   4.836
44873SOL    HW134643   8.924   5.735   4.891
44873SOL    HW234644   8.823   5.863   4.897
44874SOL     OW34645   8.449   5.620   4.878
44874SOL    HW134646   8.386   5.548   4.847
44874SOL    HW234647   8.542   5.584   4.878
44875SOL     OW34648   8.218   6.916   4.025
44875SOL    HW134649   8.172   6.829   4.042
44875SOL    HW234650   8.309   6.913   4.066
44876SOL     OW34651   8.066   7.153   5.008
44876SOL    HW134652   8.061   7.235   5.065
44876SOL    HW234653   8.155   7.150   4.963
44877SOL     OW34654   8.800   5.638   3.892
44877SOL    HW134655   8.835   5.597   3.808
44877SOL    HW234656   8.710   5.600   3.912
44878SOL     OW34657   8.748   6.039   4.415
44878SOL    HW134658   8.689   6.119   4.419
44878SOL    HW234659   8.763   6.004   4.508
44879SOL     OW34660   9.041   5.807   4.606
44879SOL    HW134661   8.957   5.806   4.660
44879SOL    HW234662   9.043   5.890   4.550
44880SOL     OW34663   7.487   6.663   4.024
44880SOL    HW134664   7.586   6.652   4.015
44880SOL    HW234665   7.447   6.577   4.056
44881SOL     OW34666   8.323   7.232   4.061
44881SOL    HW134667   8.246   7.197   4.007
44881SOL    HW234668   8.291   7.303   4.123
44882SOL     OW34669   7.678   6.214   5.699
44882SOL    HW134670   7.585   6.212   5.736
44882SOL    HW234671   7.679   6.175   5.607
44883SOL     OW34672   7.673   5.861   6.582
44883SOL    HW134673   7.708   5.844   6.674
44883SOL    HW234674   7.585   5.816   6.570
44884SOL     OW34675   7.467   5.954   6.233
44884SOL    HW134676   7.385   5.997   6.272
44884SOL    HW234677   7.439   5.881   6.170
44885SOL     OW34678   8.017   6.861   6.751
44885SOL    HW134679   7.924   6.854   6.714
44885SOL    HW234680   8.028   6.950   6.795
44886SOL     OW34681   9.003   7.097   6.289
44886SOL    HW134682   8.946   7.081   6.370
44886SOL    HW234683   8.944   7.107   6.209
44887SOL     OW34684   8.583   6.289   6.303
44887SOL    HW134685   8.640   6.367   6.278
44887SOL    HW234686   8.523   6.315   6.379
44888SOL     OW34687   9.203   6.193   5.817
44888SOL    HW134688   9.191   6.180   5.718
44888SOL    HW234689   9.173   6.112   5.866
44889SOL     OW34690   8.216   6.730   6.609
44889SOL    HW134691   8.138   6.747   6.669
44889SOL    HW234692   8.250   6.817   6.573
44890SOL     OW34693   8.298   6.384   7.409
44890SOL    HW134694   8.294   6.460   7.474
44890SOL    HW234695   8.320   6.420   7.318
44891SOL     OW34696   8.133   6.598   6.251
44891SOL    HW134697   8.202   6.582   6.321
44891SOL    HW234698   8.060   6.655   6.289
44892SOL     OW34699   8.134   6.747   7.389
44892SOL    HW134700   8.194   6.826   7.403
44892SOL    HW234701   8.048   6.778   7.348
44893SOL     OW34702   7.783   7.021   6.647
44893SOL    HW134703   7.705   6.990   6.594
44893SOL    HW234704   7.841   7.079   6.590
44894SOL     OW34705   8.908   7.091   6.925
44894SOL    HW134706   8.932   7.185   6.951
44894SOL    HW234707   8.892   7.037   7.007
44895SOL     OW34708   7.886   5.978   7.085
44895SOL    HW134709   7.968   5.922   7.094
44895SOL    HW234710   7.805   5.920   7.089
44896SOL     OW34711   9.051   6.033   6.323
44896SOL    HW134712   8.977   6.079   6.273
44896SOL    HW234713   9.102   6.101   6.376
44897SOL     OW34714   7.679   7.299   6.069
44897SOL    HW134715   7.713   7.376   6.123
44897SOL    HW234716   7.723   7.299   5.979
44898SOL     OW34717   8.575   6.927   7.276
44898SOL    HW134718   8.622   6.927   7.364
44898SOL    HW234719   8.527   6.840   7.265
44899SOL     OW34720   7.678   7.020   6.124
44899SOL    HW134721   7.652   7.116   6.124
44899SOL    HW234722   7.607   6.966   6.169
44900SOL     OW34723   7.688   6.677   6.472
44900SOL    HW134724   7.702   6.593   6.524
44900SOL    HW234725   7.633   6.741   6.527
44901SOL     OW34726   8.068   7.372   7.025
44901SOL    HW134727   7.976   7.355   7.060
44901SOL    HW234728   8.096   7.464   7.051
44902SOL     OW34729   8.054   6.550   5.709
44902SOL    HW134730   8.061   6.634   5.655
44902SOL    HW234731   8.100   6.563   5.797
44903SOL     OW34732   9.042   5.700   7.066
44903SOL    HW134733   9.024   5.767   6.994
44903SOL    HW234734   9.039   5.746   7.155
44904SOL     OW34735   7.570   6.229   6.149
44904SOL    HW134736   7.525   6.141   6.166
44904SOL    HW234737   7.569   6.283   6.233
44905SOL     OW34738   9.290   7.353   5.945
44905SOL    HW134739   9.344   7.324   6.025
44905SOL    HW234740   9.320   7.443   5.916
44906SOL     OW34741   7.475   7.182   5.703
44906SOL    HW134742   7.456   7.086   5.724
44906SOL    HW234743   7.442   7.240   5.778
44907SOL     OW34744   9.137   6.508   6.198
44907SOL    HW134745   9.232   6.479   6.206
44907SOL    HW234746   9.129   6.573   6.123
44908SOL     OW34747   9.089   6.694   6.018
44908SOL    HW134748   9.175   6.696   5.966
44908SOL    HW234749   9.103   6.741   6.106
44909SOL     OW34750   7.561   6.323   7.183
44909SOL    HW134751   7.649   6.310   7.228
44909SOL    HW234752   7.548   6.420   7.161
44910SOL     OW34753   8.061   6.951   6.312
44910SOL    HW134754   8.012   6.864   6.321
44910SOL    HW234755   8.038   6.994   6.225
44911SOL     OW34756   8.741   6.814   7.009
44911SOL    HW134757   8.778   6.741   6.951
44911SOL    HW234758   8.793   6.819   7.094
44912SOL     OW34759   8.257   5.590   6.088
44912SOL    HW134760   8.297   5.681   6.079
44912SOL    HW234761   8.157   5.598   6.094
44913SOL     OW34762   7.645   6.562   6.850
44913SOL    HW134763   7.734   6.517   6.836
44913SOL    HW234764   7.572   6.497   6.831
44914SOL     OW34765   8.973   6.585   5.776
44914SOL    HW134766   8.910   6.509   5.789
44914SOL    HW234767   9.021   6.603   5.862
44915SOL     OW34768   8.635   7.378   7.202
44915SOL    HW134769   8.659   7.438   7.126
44915SOL    HW234770   8.642   7.283   7.172
44916SOL     OW34771   7.765   5.837   7.387
44916SOL    HW134772   7.836   5.908   7.393
44916SOL    HW234773   7.677   5.876   7.415
44917SOL     OW34774   8.914   7.003   6.539
44917SOL    HW134775   8.855   7.009   6.619
44917SOL    HW234776   8.899   6.915   6.493
44918SOL     OW34777   9.115   7.300   6.158
44918SOL    HW134778   9.074   7.277   6.070
44918SOL    HW234779   9.097   7.226   6.223
44919SOL     OW34780   8.046   6.315   5.856
44919SOL    HW134781   8.070   6.384   5.788
44919SOL    HW234782   7.968   6.348   5.910
44920SOL     OW34783   8.729   5.931   6.530
44920SOL    HW134784   8.643   5.881   6.517
44920SOL    HW234785   8.791   5.877   6.586
44921SOL     OW34786   9.024   7.248   5.893
44921SOL    HW134787   9.113   7.294   5.896
44921SOL    HW234788   9.003   7.224   5.798
44922SOL     OW34789   8.255   6.191   7.051
44922SOL    HW134790   8.208   6.188   7.140
44922SOL    HW234791   8.204   6.136   6.985
44923SOL     OW34792   8.842   6.055   7.260
44923SOL    HW134793   8.822   6.098   7.348
44923SOL    HW234794   8.920   5.993   7.269
44924SOL     OW34795   8.421   6.476   7.158
44924SOL    HW134796   8.467   6.392   7.129
44924SOL    HW234797   8.365   6.510   7.083
44925SOL     OW34798   8.439   5.996   6.828
44925SOL    HW134799   8.362   6.030   6.882
44925SOL    HW234800   8.405   5.945   6.749
44926SOL     OW34801   8.489   6.287   6.015
44926SOL    HW134802   8.515   6.283   6.111
44926SOL    HW234803   8.404   6.236   6.001
44927SOL     OW34804   7.524   6.397   6.375
44927SOL    HW134805   7.623   6.385   6.384
44927SOL    HW234806   7.500   6.492   6.396
44928SOL     OW34807   7.578   7.407   7.157
44928SOL    HW134808   7.568   7.392   7.256
44928SOL    HW234809   7.492   7.443   7.121
44929SOL     OW34810   8.313   5.934   5.781
44929SOL    HW134811   8.372   5.997   5.732
44929SOL    HW234812   8.332   5.840   5.752
44930SOL     OW34813   9.167   6.171   7.417
44930SOL    HW134814   9.141   6.260   7.381
44930SOL    HW234815   9.165   6.103   7.344
44931SOL     OW34816   8.810   6.730   6.131
44931SOL    HW134817   8.893   6.701   6.083
44931SOL    HW234818   8.761   6.797   6.075
44932SOL     OW34819   7.998   5.782   6.471
44932SOL    HW134820   7.993   5.777   6.571
44932SOL    HW234821   8.000   5.878   6.442
44933SOL     OW34822   8.456   7.042   6.063
44933SOL    HW134823   8.410   7.114   6.011
44933SOL    HW234824   8.452   7.062   6.161
44934SOL     OW34825   7.799   7.387   6.439
44934SOL    HW134826   7.849   7.301   6.445
44934SOL    HW234827   7.864   7.464   6.436
44935SOL     OW34828   9.243   6.652   6.459
44935SOL    HW134829   9.181   6.637   6.383
44935SOL    HW234830   9.191   6.663   6.544
44936SOL     OW34831   8.675   7.136   7.092
44936SOL    HW134832   8.681   7.059   7.156
44936SOL    HW234833   8.623   7.110   7.012
44937SOL     OW34834   7.769   6.529   5.828
44937SOL    HW134835   7.851   6.568   5.786
44937SOL    HW234836   7.742   6.447   5.779
44938SOL     OW34837   8.906   6.321   6.314
44938SOL    HW134838   8.901   6.256   6.389
44938SOL    HW234839   8.986   6.380   6.327
44939SOL     OW34840   7.909   6.852   7.313
44939SOL    HW134841   7.859   6.853   7.227
44939SOL    HW234842   7.846   6.834   7.389
44940SOL     OW34843   8.559   7.362   5.823
44940SOL    HW134844   8.499   7.300   5.873
44940SOL    HW234845   8.590   7.318   5.738
44941SOL     OW34846   7.650   5.871   7.084
44941SOL    HW134847   7.570   5.931   7.071
44941SOL    HW234848   7.640   5.822   7.170
44942SOL     OW34849   9.080   6.963   5.667
44942SOL    HW134850   9.048   7.057   5.657
44942SOL    HW234851   9.004   6.900   5.655
44943SOL     OW34852   7.912   7.329   5.909
44943SOL    HW134853   7.945   7.368   5.995
44943SOL    HW234854   7.988   7.322   5.844
44944SOL     OW34855   8.848   5.693   6.012
44944SOL    HW134856   8.824   5.656   5.922
44944SOL    HW234857   8.947   5.709   6.016
44945SOL     OW34858   7.697   7.371   6.827
44945SOL    HW134859   7.754   7.306   6.877
44945SOL    HW234860   7.681   7.338   6.734
44946SOL     OW34861   8.388   7.284   6.490
44946SOL    HW134862   8.468   7.227   6.511
44946SOL    HW234863   8.339   7.244   6.413
44947SOL     OW34864   7.830   6.286   6.066
44947SOL    HW134865   7.875   6.196   6.063
44947SOL    HW234866   7.736   6.275   6.099
44948SOL     OW34867   8.995   5.808   7.315
44948SOL    HW134868   8.990   5.845   7.407
44948SOL    HW234869   8.923   5.739   7.303
44949SOL     OW34870   8.062   5.708   5.703
44949SOL    HW134871   8.160   5.686   5.710
44949SOL    HW234872   8.031   5.691   5.610
44950SOL     OW34873   8.229   5.850   7.335
44950SOL    HW134874   8.296   5.789   7.378
44950SOL    HW234875   8.156   5.869   7.400
44951SOL     OW34876   8.336   7.100   6.781
44951SOL    HW134877   8.313   7.075   6.687
44951SOL    HW234878   8.397   7.031   6.820
44952SOL     OW34879   8.799   6.176   7.019
44952SOL    HW134880   8.827   6.133   7.104
44952SOL    HW234881   8.824   6.272   7.020
44953SOL     OW34882   8.251   6.988   6.510
44953SOL    HW134883   8.341   7.002   6.468
44953SOL    HW234884   8.180   6.990   6.439
44954SOL     OW34885   8.370   6.089   6.485
44954SOL    HW134886   8.345   6.080   6.389
44954SOL    HW234887   8.418   6.007   6.516
44955SOL     OW34888   7.987   5.650   6.098
44955SOL    HW134889   7.906   5.651   6.156
44955SOL    HW234890   7.990   5.733   6.043
44956SOL     OW34891   8.882   6.774   5.627
44956SOL    HW134892   8.914   6.698   5.684
44956SOL    HW234893   8.790   6.801   5.657
44957SOL     OW34894   7.745   5.621   5.757
44957SOL    HW134895   7.794   5.705   5.736
44957SOL    HW234896   7.807   5.556   5.802
44958SOL     OW34897   8.383   5.822   6.066
44958SOL    HW134898   8.335   5.863   5.988
44958SOL    HW234899   8.482   5.820   6.047
44959SOL     OW34900   8.524   6.269   7.050
44959SOL    HW134901   8.444   6.208   7.053
44959SOL    HW234902   8.605   6.216   7.026
44960SOL     OW34903   8.675   7.156   6.379
44960SOL    HW134904   8.696   7.230   6.314
44960SOL    HW234905   8.743   7.156   6.452
44961SOL     OW34906   7.907   6.738   6.327
44961SOL    HW134907   7.836   6.711   6.392
44961SOL    HW234908   7.881   6.710   6.234
44962SOL     OW34909   8.719   7.383   6.177
44962SOL    HW134910   8.763   7.447   6.113
44962SOL    HW234911   8.669   7.435   6.247
44963SOL     OW34912   8.480   6.135   5.602
44963SOL    HW134913   8.439   6.217   5.563
44963SOL    HW234914   8.544   6.161   5.675
44964SOL     OW34915   7.526   6.142   6.972
44964SOL    HW134916   7.618   6.141   6.931
44964SOL    HW234917   7.520   6.216   7.039
44965SOL     OW34918   8.009   5.808   6.733
44965SOL    HW134919   8.047   5.724   6.770
44965SOL    HW234920   7.921   5.827   6.777
44966SOL     OW34921   8.314   6.040   6.228
44966SOL    HW134922   8.282   6.112   6.166
44966SOL    HW234923   8.338   5.959   6.175
44967SOL     OW34924   8.465   5.625   6.339
44967SOL    HW134925   8.393   5.630   6.270
44967SOL    HW234926   8.441   5.556   6.408
44968SOL     OW34927   8.877   6.759   6.453
44968SOL    HW134928   8.822   6.675   6.446
44968SOL    HW234929   8.903   6.788   6.361
44969SOL     OW34930   8.914   6.176   6.578
44969SOL    HW134931   8.884   6.081   6.585
44969SOL    HW234932   8.987   6.192   6.644
44970SOL     OW34933   9.305   6.419   5.963
44970SOL    HW134934   9.347   6.355   6.027
44970SOL    HW234935   9.267   6.368   5.885
44971SOL     OW34936   7.936   6.971   5.760
44971SOL    HW134937   7.849   6.956   5.807
44971SOL    HW234938   7.919   6.997   5.665
44972SOL     OW34939   9.112   6.866   6.243
44972SOL    HW134940   9.211   6.874   6.257
44972SOL    HW234941   9.067   6.950   6.274
44973SOL     OW34942   8.838   6.161   5.664
44973SOL    HW134943   8.784   6.140   5.745
44973SOL    HW234944   8.929   6.120   5.673
44974SOL     OW34945   7.975   5.842   5.914
44974SOL    HW134946   8.002   5.783   5.839
44974SOL    HW234947   7.975   5.937   5.883
44975SOL     OW34948   9.202   6.809   7.174
44975SOL    HW134949   9.293   6.770   7.161
44975SOL    HW234950   9.210   6.905   7.198
44976SOL     OW34951   8.512   6.933   6.926
44976SOL    HW134952   8.432   6.910   6.981
44976SOL    HW234953   8.595   6.907   6.975
44977SOL     OW34954   9.040   7.215   7.211
44977SOL    HW134955   9.067   7.249   7.121
44977SOL    HW234956   9.119   7.177   7.257
44978SOL     OW34957   8.559   6.781   6.686
44978SOL    HW134958   8.519   6.825   6.767
44978SOL    HW234959   8.518   6.818   6.603
44979SOL     OW34960   9.086   6.685   6.665
44979SOL    HW134961   9.091   6.766   6.724
44979SOL    HW234962   9.000   6.687   6.614
44980SOL     OW34963   8.363   5.675   6.988
44980SOL    HW134964   8.388   5.655   6.893
44980SOL    HW234965   8.435   5.731   7.030
44981SOL     OW34966   8.428   6.702   7.305
44981SOL    HW134967   8.329   6.708   7.315
44981SOL    HW234968   8.451   6.622   7.249
44982SOL     OW34969   8.153   6.636   5.954
44982SOL    HW134970   8.139   6.643   6.053
44982SOL    HW234971   8.237   6.585   5.936
44983SOL     OW34972   7.858   6.399   6.837
44983SOL    HW134973   7.944   6.411   6.887
44983SOL    HW234974   7.816   6.312   6.864
44984SOL     OW34975   8.722   5.972   6.848
44984SOL    HW134976   8.743   6.046   6.912
44984SOL    HW234977   8.633   5.989   6.805
44985SOL     OW34978   7.512   7.150   6.917
44985SOL    HW134979   7.466   7.232   6.883
44985SOL    HW234980   7.610   7.169   6.926
44986SOL     OW34981   7.815   6.686   6.087
44986SOL    HW134982   7.808   6.769   6.031
44986SOL    HW234983   7.819   6.606   6.027
44987SOL     OW34984   8.014   6.123   6.451
44987SOL    HW134985   8.026   6.189   6.377
44987SOL    HW234986   8.060   6.157   6.534
44988SOL     OW34987   8.720   7.031   6.728
44988SOL    HW134988   8.767   7.044   6.815
44988SOL    HW234989   8.654   6.957   6.737
44989SOL     OW34990   9.030   6.225   6.058
44989SOL    HW134991   8.999   6.286   6.131
44989SOL    HW234992   9.080   6.277   5.989
44990SOL     OW34993   7.802   7.096   6.915
44990SOL    HW134994   7.781   7.052   6.828
44990SOL    HW234995   7.899   7.122   6.918
44991SOL     OW34996   7.850   6.337   7.184
44991SOL    HW134997   7.918   6.392   7.137
44991SOL    HW234998   7.890   6.249   7.211
44992SOL     OW34999   9.035   6.365   7.256
44992SOL    HW135000   8.943   6.403   7.251
44992SOL    HW235001   9.095   6.412   7.191
44993SOL     OW35002   8.461   5.691   7.356
44993SOL    HW135003   8.467   5.776   7.304
44993SOL    HW235004   8.493   5.615   7.299
44994SOL     OW35005   7.952   5.636   7.326
44994SOL    HW135006   7.910   5.579   7.256
44994SOL    HW235007   7.886   5.705   7.358
44995SOL     OW35008   8.021   6.456   6.615
44995SOL    HW135009   8.065   6.545   6.606
44995SOL    HW235010   7.958   6.456   6.692
44996SOL     OW35011   8.808   6.448   6.631
44996SOL    HW135012   8.733   6.448   6.565
44996SOL    HW235013   8.845   6.356   6.640
44997SOL     OW35014   8.657   6.111   5.861
44997SOL    HW135015   8.670   6.027   5.915
44997SOL    HW235016   8.628   6.185   5.921
44998SOL     OW35017   7.755   5.799   6.817
44998SOL    HW135018   7.732   5.836   6.907
44998SOL    HW235019   7.725   5.704   6.811
44999SOL     OW35020   7.485   6.896   6.868
44999SOL    HW135021   7.538   6.847   6.936
44999SOL    HW235022   7.507   6.994   6.873
45000SOL     OW35023   8.180   6.220   6.650
45000SOL    HW135024   8.239   6.194   6.574
45000SOL    HW235025   8.152   6.316   6.639
45001SOL     OW35026   9.176   6.521   7.440
45001SOL    HW135027   9.130   6.514   7.351
45001SOL    HW235028   9.114   6.565   7.506
45002SOL     OW35029   7.755   5.649   6.204
45002SOL    HW135030   7.744   5.743   6.237
45002SOL    HW235031   7.750   5.586   6.281
45003SOL     OW35032   9.070   5.953   5.960
45003SOL    HW135033   9.072   5.877   6.024
45003SOL    HW235034   9.022   6.030   6.000
45004SOL     OW35035   8.471   6.352   6.552
45004SOL    HW135036   8.486   6.373   6.648
45004SOL    HW235037   8.441   6.257   6.543
45005SOL     OW35038   8.428   7.159   7.286
45005SOL    HW135039   8.408   7.203   7.198
45005SOL    HW235040   8.467   7.068   7.270
45006SOL     OW35041   9.307   7.104   7.191
45006SOL    HW135042   9.321   7.131   7.096
45006SOL    HW235043   9.390   7.126   7.244
45007SOL     OW35044   7.798   6.484   7.390
45007SOL    HW135045   7.874   6.528   7.438
45007SOL    HW235046   7.833   6.437   7.308
45008SOL     OW35047   8.988   5.860   5.711
45008SOL    HW135048   8.927   5.785   5.734
45008SOL    HW235049   9.010   5.912   5.794
45009SOL     OW35050   8.751   6.424   5.628
45009SOL    HW135051   8.785   6.331   5.643
45009SOL    HW235052   8.769   6.451   5.533
45010SOL     OW35053   8.516   6.919   6.435
45010SOL    HW135054   8.523   6.835   6.380
45010SOL    HW235055   8.578   6.988   6.399
45011SOL     OW35056   7.767   6.396   6.535
45011SOL    HW135057   7.860   6.432   6.540
45011SOL    HW235058   7.761   6.311   6.587
45012SOL     OW35059   7.787   6.095   6.592
45012SOL    HW135060   7.735   6.012   6.575
45012SOL    HW235061   7.864   6.100   6.528
45013SOL     OW35062   8.586   5.966   7.264
45013SOL    HW135063   8.541   6.029   7.328
45013SOL    HW235064   8.679   5.997   7.247
45014SOL     OW35065   8.608   5.793   7.063
45014SOL    HW135066   8.608   5.857   7.140
45014SOL    HW235067   8.636   5.841   6.980
45015SOL     OW35068   7.456   6.912   5.786
45015SOL    HW135069   7.363   6.933   5.755
45015SOL    HW235070   7.466   6.813   5.799
45016SOL     OW35071   7.536   7.387   6.513
45016SOL    HW135072   7.494   7.301   6.486
45016SOL    HW235073   7.630   7.390   6.479
45017SOL     OW35074   7.952   7.154   6.496
45017SOL    HW135075   8.018   7.228   6.505
45017SOL    HW235076   7.996   7.075   6.454
45018SOL     OW35077   8.450   6.382   6.824
45018SOL    HW135078   8.491   6.350   6.910
45018SOL    HW235079   8.354   6.355   6.821
45019SOL     OW35080   7.488   6.130   6.700
45019SOL    HW135081   7.573   6.097   6.659
45019SOL    HW235082   7.501   6.145   6.798
45020SOL     OW35083   7.637   6.106   7.308
45020SOL    HW135084   7.696   6.066   7.238
45020SOL    HW235085   7.579   6.177   7.267
45021SOL     OW35086   8.817   6.536   7.246
45021SOL    HW135087   8.856   6.625   7.266
45021SOL    HW235088   8.827   6.516   7.149
45022SOL     OW35089   8.263   6.158   5.911
45022SOL    HW135090   8.270   6.069   5.865
45022SOL    HW235091   8.169   6.192   5.903
45023SOL     OW35092   9.105   6.190   6.792
45023SOL    HW135093   9.067   6.121   6.854
45023SOL    HW235094   9.187   6.154   6.748
45024SOL     OW35095   7.700   7.150   7.330
45024SOL    HW135096   7.670   7.207   7.406
45024SOL    HW235097   7.693   7.053   7.356
45025SOL     OW35098   8.119   6.050   6.855
45025SOL    HW135099   8.085   5.961   6.825
45025SOL    HW235100   8.145   6.104   6.775
45026SOL     OW35101   8.378   7.264   7.051
45026SOL    HW135102   8.354   7.246   6.956
45026SOL    HW235103   8.408   7.358   7.061
45027SOL     OW35104   7.921   6.086   5.777
45027SOL    HW135105   7.982   6.166   5.781
45027SOL    HW235106   7.826   6.117   5.784
45028SOL     OW35107   7.607   6.723   7.052
45028SOL    HW135108   7.629   6.662   7.128
45028SOL    HW235109   7.617   6.674   6.966
45029SOL     OW35110   8.795   6.645   6.820
45029SOL    HW135111   8.819   6.582   6.746
45029SOL    HW235112   8.705   6.685   6.802
45030SOL     OW35113   8.750   6.441   5.895
45030SOL    HW135114   8.664   6.410   5.937
45030SOL    HW235115   8.746   6.427   5.796
45031SOL     OW35116   9.207   7.333   6.740
45031SOL    HW135117   9.268   7.363   6.667
45031SOL    HW235118   9.169   7.244   6.718
45032SOL     OW35119   8.700   7.317   6.714
45032SOL    HW135120   8.784   7.322   6.660
45032SOL    HW235121   8.677   7.221   6.732
45033SOL     OW35122   7.531   6.844   6.608
45033SOL    HW135123   7.526   6.843   6.708
45033SOL    HW235124   7.448   6.803   6.570
45034SOL     OW35125   8.136   7.248   7.302
45034SOL    HW135126   8.080   7.329   7.311
45034SOL    HW235127   8.188   7.252   7.216
45035SOL     OW35128   9.174   5.721   6.109
45035SOL    HW135129   9.247   5.704   6.042
45035SOL    HW235130   9.143   5.634   6.147
45036SOL     OW35131   8.836   7.159   6.063
45036SOL    HW135132   8.903   7.171   5.989
45036SOL    HW235133   8.796   7.248   6.086
45037SOL     OW35134   7.578   7.380   7.437
45037SOL    HW135135   7.537   7.306   7.490
45037SOL    HW235136   7.642   7.431   7.495
45038SOL     OW35137   8.728   6.513   6.258
45038SOL    HW135138   8.788   6.432   6.260
45038SOL    HW235139   8.768   6.582   6.198
45039SOL     OW35140   8.278   6.859   7.008
45039SOL    HW135141   8.273   6.892   7.103
45039SOL    HW235142   8.192   6.878   6.962
45040SOL     OW35143   8.120   7.202   5.740
45040SOL    HW135144   8.129   7.212   5.641
45040SOL    HW235145   8.080   7.113   5.761
45041SOL     OW35146   9.098   7.306   6.980
45041SOL    HW135147   9.151   7.316   6.896
45041SOL    HW235148   9.071   7.396   7.014
45042SOL     OW35149   9.289   5.761   6.549
45042SOL    HW135150   9.328   5.676   6.513
45042SOL    HW235151   9.191   5.763   6.530
45043SOL     OW35152   7.711   5.912   6.306
45043SOL    HW135153   7.632   5.963   6.272
45043SOL    HW235154   7.702   5.897   6.404
45044SOL     OW35155   8.642   7.198   5.617
45044SOL    HW135156   8.648   7.105   5.654
45044SOL    HW235157   8.583   7.198   5.537
45045SOL     OW35158   8.270   6.588   6.958
45045SOL    HW135159   8.310   6.587   6.866
45045SOL    HW235160   8.280   6.680   6.998
45046SOL     OW35161   8.364   6.496   5.877
45046SOL    HW135162   8.427   6.534   5.809
45046SOL    HW235163   8.404   6.413   5.916
45047SOL     OW35164   8.952   7.193   5.630
45047SOL    HW135165   8.860   7.230   5.637
45047SOL    HW235166   8.990   7.213   5.540
45048SOL     OW35167   7.820   6.874   7.076
45048SOL    HW135168   7.807   6.967   7.042
45048SOL    HW235169   7.736   6.822   7.063
45049SOL     OW35170   9.062   6.878   6.875
45049SOL    HW135171   9.122   6.881   6.955
45049SOL    HW235172   8.987   6.942   6.888
45050SOL     OW35173   8.487   6.684   6.282
45050SOL    HW135174   8.417   6.637   6.336
45050SOL    HW235175   8.546   6.616   6.239
45051SOL     OW35176   8.462   5.822   6.557
45051SOL    HW135177   8.454   5.786   6.464
45051SOL    HW235178   8.460   5.746   6.622
45052SOL     OW35179   8.038   7.073   6.077
45052SOL    HW135180   8.080   7.015   6.007
45052SOL    HW235181   7.994   7.152   6.033
45053SOL     OW35182   9.157   5.971   6.967
45053SOL    HW135183   9.230   6.040   6.971
45053SOL    HW235184   9.185   5.896   6.908
45054SOL     OW35185   7.703   6.934   5.876
45054SOL    HW135186   7.607   6.935   5.849
45054SOL    HW235187   7.715   6.987   5.960
45055SOL     OW35188   7.553   6.599   7.312
45055SOL    HW135189   7.476   6.566   7.366
45055SOL    HW235190   7.638   6.569   7.354
45056SOL     OW35191   8.120   5.789   7.075
45056SOL    HW135192   8.210   5.773   7.035
45056SOL    HW235193   8.128   5.794   7.174
45057SOL     OW35194   7.523   5.931   5.619
45057SOL    HW135195   7.431   5.903   5.590
45057SOL    HW235196   7.554   6.008   5.563
45058SOL     OW35197   8.888   6.442   6.984
45058SOL    HW135198   8.831   6.494   6.921
45058SOL    HW235199   8.984   6.454   6.960
45059SOL     OW35200   7.520   5.752   5.904
45059SOL    HW135201   7.503   5.835   5.850
45059SOL    HW235202   7.610   5.715   5.882
45060SOL     OW35203   8.631   6.921   5.705
45060SOL    HW135204   8.532   6.910   5.707
45060SOL    HW235205   8.665   6.936   5.798
45061SOL     OW35206   8.061   6.428   7.017
45061SOL    HW135207   8.117   6.509   7.000
45061SOL    HW235208   8.120   6.348   7.020
45062SOL     OW35209   8.941   7.353   6.545
45062SOL    HW135210   8.974   7.417   6.476
45062SOL    HW235211   9.007   7.347   6.620
45063SOL     OW35212   8.164   6.151   7.294
45063SOL    HW135213   8.183   6.216   7.368
45063SOL    HW235214   8.224   6.071   7.303
45064SOL     OW35215   8.898   6.806   7.219
45064SOL    HW135216   8.889   6.796   7.318
45064SOL    HW235217   8.994   6.799   7.193
45065SOL     OW35218   7.838   7.327   7.146
45065SOL    HW135219   7.747   7.368   7.144
45065SOL    HW235220   7.831   7.233   7.178
45066SOL     OW35221   9.122   6.469   6.840
45066SOL    HW135222   9.095   6.380   6.803
45066SOL    HW235223   9.123   6.537   6.767
45067SOL     OW35224   8.673   5.911   6.035
45067SOL    HW135225   8.738   5.837   6.024
45067SOL    HW235226   8.693   5.961   6.119
45068SOL     OW35227   8.042   6.331   6.238
45068SOL    HW135228   8.092   6.416   6.219
45068SOL    HW235229   7.954   6.333   6.190
45069SOL     OW35230   9.225   5.928   7.228
45069SOL    HW135231   9.208   5.959   7.134
45069SOL    HW235232   9.141   5.891   7.266
45070SOL     OW35233   9.178   6.520   7.103
45070SOL    HW135234   9.216   6.611   7.118
45070SOL    HW235235   9.170   6.503   7.004
45071SOL     OW35236   8.307   6.960   5.602
45071SOL    HW135237   8.261   6.975   5.690
45071SOL    HW235238   8.351   7.045   5.572
45072SOL     OW35239   8.109   7.376   6.539
45072SOL    HW135240   8.063   7.464   6.526
45072SOL    HW235241   8.208   7.388   6.532
45073SOL     OW35242   8.307   6.542   6.447
45073SOL    HW135243   8.361   6.473   6.495
45073SOL    HW235244   8.275   6.611   6.513
45074SOL     OW35245   8.531   6.570   5.673
45074SOL    HW135246   8.508   6.623   5.591
45074SOL    HW235247   8.612   6.514   5.654
45075SOL     OW35248   9.309   7.155   6.437
45075SOL    HW135249   9.238   7.143   6.367
45075SOL    HW235250   9.310   7.076   6.497
45076SOL     OW35251   7.669   6.900   7.430
45076SOL    HW135252   7.604   6.827   7.409
45076SOL    HW235253   7.673   6.914   7.528
45077SOL     OW35254   7.527   6.826   6.239
45077SOL    HW135255   7.526   6.779   6.327
45077SOL    HW235256   7.609   6.798   6.188
45078SOL     OW35257   8.120   6.977   7.210
45078SOL    HW135258   8.042   6.927   7.248
45078SOL    HW235259   8.117   7.072   7.241
45079SOL     OW35260   9.272   5.778   6.813
45079SOL    HW135261   9.268   5.688   6.857
45079SOL    HW235262   9.275   5.767   6.714
45080SOL     OW35263   7.876   6.010   6.106
45080SOL    HW135264   7.906   5.938   6.044
45080SOL    HW235265   7.837   5.970   6.189
45081SOL     OW35266   9.153   7.073   6.690
45081SOL    HW135267   9.060   7.048   6.663
45081SOL    HW235268   9.179   7.023   6.772
45082SOL     OW35269   7.765   6.133   6.866
45082SOL    HW135270   7.803   6.074   6.938
45082SOL    HW235271   7.805   6.107   6.778
45083SOL     OW35272   8.260   7.172   6.273
45083SOL    HW135273   8.292   7.182   6.179
45083SOL    HW235274   8.181   7.110   6.275
45084SOL     OW35275   8.872   5.800   6.698
45084SOL    HW135276   8.924   5.735   6.753
45084SOL    HW235277   8.823   5.863   6.759
45085SOL     OW35278   8.449   5.620   6.740
45085SOL    HW135279   8.386   5.548   6.709
45085SOL    HW235280   8.542   5.584   6.740
45086SOL     OW35281   8.218   6.916   5.887
45086SOL    HW135282   8.172   6.829   5.904
45086SOL    HW235283   8.309   6.913   5.928
45087SOL     OW35284   8.066   7.153   6.870
45087SOL    HW135285   8.061   7.235   6.927
45087SOL    HW235286   8.155   7.150   6.825
45088SOL     OW35287   8.800   5.638   5.754
45088SOL    HW135288   8.835   5.597   5.670
45088SOL    HW235289   8.710   5.600   5.774
45089SOL     OW35290   8.748   6.039   6.277
45089SOL    HW135291   8.689   6.119   6.281
45089SOL    HW235292   8.763   6.004   6.370
45090SOL     OW35293   9.041   5.807   6.468
45090SOL    HW135294   8.957   5.806   6.522
45090SOL    HW235295   9.043   5.890   6.412
45091SOL     OW35296   7.487   6.663   5.886
45091SOL    HW135297   7.586   6.652   5.877
45091SOL    HW235298   7.447   6.577   5.918
45092SOL     OW35299   8.323   7.232   5.923
45092SOL    HW135300   8.246   7.197   5.869
45092SOL    HW235301   8.291   7.303   5.985
45093SOL     OW35302   7.678   6.214   7.561
45093SOL    HW135303   7.585   6.212   7.598
45093SOL    HW235304   7.679   6.175   7.469
45094SOL     OW35305   7.673   5.861   8.444
45094SOL    HW135306   7.708   5.844   8.536
45094SOL    HW235307   7.585   5.816   8.432
45095SOL     OW35308   7.467   5.954   8.095
45095SOL    HW135309   7.385   5.997   8.134
45095SOL    HW235310   7.439   5.881   8.032
45096SOL     OW35311   8.017   6.861   8.613
45096SOL    HW135312   7.924   6.854   8.576
45096SOL    HW235313   8.028   6.950   8.657
45097SOL     OW35314   9.003   7.097   8.151
45097SOL    HW135315   8.946   7.081   8.232
45097SOL    HW235316   8.944   7.107   8.071
45098SOL     OW35317   8.583   6.289   8.165
45098SOL    HW135318   8.640   6.367   8.140
45098SOL    HW235319   8.523   6.315   8.241
45099SOL     OW35320   9.203   6.193   7.679
45099SOL    HW135321   9.191   6.180   7.580
45099SOL    HW235322   9.173   6.112   7.728
45100SOL     OW35323   8.216   6.730   8.471
45100SOL    HW135324   8.138   6.747   8.531
45100SOL    HW235325   8.250   6.817   8.435
45101SOL     OW35326   8.298   6.384   9.271
45101SOL    HW135327   8.294   6.460   9.336
45101SOL    HW235328   8.320   6.420   9.180
45102SOL     OW35329   8.133   6.598   8.113
45102SOL    HW135330   8.202   6.582   8.183
45102SOL    HW235331   8.060   6.655   8.151
45103SOL     OW35332   8.134   6.747   9.251
45103SOL    HW135333   8.194   6.826   9.265
45103SOL    HW235334   8.048   6.778   9.210
45104SOL     OW35335   7.783   7.021   8.509
45104SOL    HW135336   7.705   6.990   8.456
45104SOL    HW235337   7.841   7.079   8.452
45105SOL     OW35338   8.908   7.091   8.787
45105SOL    HW135339   8.932   7.185   8.813
45105SOL    HW235340   8.892   7.037   8.869
45106SOL     OW35341   7.886   5.978   8.947
45106SOL    HW135342   7.968   5.922   8.956
45106SOL    HW235343   7.805   5.920   8.951
45107SOL     OW35344   9.051   6.033   8.185
45107SOL    HW135345   8.977   6.079   8.135
45107SOL    HW235346   9.102   6.101   8.238
45108SOL     OW35347   7.679   7.299   7.931
45108SOL    HW135348   7.713   7.376   7.985
45108SOL    HW235349   7.723   7.299   7.841
45109SOL     OW35350   8.575   6.927   9.138
45109SOL    HW135351   8.622   6.927   9.226
45109SOL    HW235352   8.527   6.840   9.127
45110SOL     OW35353   7.678   7.020   7.986
45110SOL    HW135354   7.652   7.116   7.986
45110SOL    HW235355   7.607   6.966   8.031
45111SOL     OW35356   7.688   6.677   8.334
45111SOL    HW135357   7.702   6.593   8.386
45111SOL    HW235358   7.633   6.741   8.389
45112SOL     OW35359   8.068   7.372   8.887
45112SOL    HW135360   7.976   7.355   8.922
45112SOL    HW235361   8.096   7.464   8.913
45113SOL     OW35362   8.054   6.550   7.571
45113SOL    HW135363   8.061   6.634   7.517
45113SOL    HW235364   8.100   6.563   7.659
45114SOL     OW35365   9.042   5.700   8.928
45114SOL    HW135366   9.024   5.767   8.856
45114SOL    HW235367   9.039   5.746   9.017
45115SOL     OW35368   7.570   6.229   8.011
45115SOL    HW135369   7.525   6.141   8.028
45115SOL    HW235370   7.569   6.283   8.095
45116SOL     OW35371   9.290   7.353   7.807
45116SOL    HW135372   9.344   7.324   7.887
45116SOL    HW235373   9.320   7.443   7.778
45117SOL     OW35374   7.475   7.182   7.565
45117SOL    HW135375   7.456   7.086   7.586
45117SOL    HW235376   7.442   7.240   7.640
45118SOL     OW35377   9.137   6.508   8.060
45118SOL    HW135378   9.232   6.479   8.068
45118SOL    HW235379   9.129   6.573   7.985
45119SOL     OW35380   9.089   6.694   7.880
45119SOL    HW135381   9.175   6.696   7.828
45119SOL    HW235382   9.103   6.741   7.968
45120SOL     OW35383   7.561   6.323   9.045
45120SOL    HW135384   7.649   6.310   9.090
45120SOL    HW235385   7.548   6.420   9.023
45121SOL     OW35386   8.061   6.951   8.174
45121SOL    HW135387   8.012   6.864   8.183
45121SOL    HW235388   8.038   6.994   8.087
45122SOL     OW35389   8.741   6.814   8.871
45122SOL    HW135390   8.778   6.741   8.813
45122SOL    HW235391   8.793   6.819   8.956
45123SOL     OW35392   8.257   5.590   7.950
45123SOL    HW135393   8.297   5.681   7.941
45123SOL    HW235394   8.157   5.598   7.956
45124SOL     OW35395   7.645   6.562   8.712
45124SOL    HW135396   7.734   6.517   8.698
45124SOL    HW235397   7.572   6.497   8.693
45125SOL     OW35398   8.973   6.585   7.638
45125SOL    HW135399   8.910   6.509   7.651
45125SOL    HW235400   9.021   6.603   7.724
45126SOL     OW35401   8.635   7.378   9.064
45126SOL    HW135402   8.659   7.438   8.988
45126SOL    HW235403   8.642   7.283   9.034
45127SOL     OW35404   7.765   5.837   9.249
45127SOL    HW135405   7.836   5.908   9.255
45127SOL    HW235406   7.677   5.876   9.277
45128SOL     OW35407   8.914   7.003   8.401
45128SOL    HW135408   8.855   7.009   8.481
45128SOL    HW235409   8.899   6.915   8.355
45129SOL     OW35410   9.115   7.300   8.020
45129SOL    HW135411   9.074   7.277   7.932
45129SOL    HW235412   9.097   7.226   8.085
45130SOL     OW35413   8.046   6.315   7.718
45130SOL    HW135414   8.070   6.384   7.650
45130SOL    HW235415   7.968   6.348   7.772
45131SOL     OW35416   8.729   5.931   8.392
45131SOL    HW135417   8.643   5.881   8.379
45131SOL    HW235418   8.791   5.877   8.448
45132SOL     OW35419   9.024   7.248   7.755
45132SOL    HW135420   9.113   7.294   7.758
45132SOL    HW235421   9.003   7.224   7.660
45133SOL     OW35422   8.255   6.191   8.913
45133SOL    HW135423   8.208   6.188   9.002
45133SOL    HW235424   8.204   6.136   8.847
45134SOL     OW35425   8.842   6.055   9.122
45134SOL    HW135426   8.822   6.098   9.210
45134SOL    HW235427   8.920   5.993   9.131
45135SOL     OW35428   8.421   6.476   9.020
45135SOL    HW135429   8.467   6.392   8.991
45135SOL    HW235430   8.365   6.510   8.945
45136SOL     OW35431   8.439   5.996   8.690
45136SOL    HW135432   8.362   6.030   8.744
45136SOL    HW235433   8.405   5.945   8.611
45137SOL     OW35434   8.489   6.287   7.877
45137SOL    HW135435   8.515   6.283   7.973
45137SOL    HW235436   8.404   6.236   7.863
45138SOL     OW35437   7.524   6.397   8.237
45138SOL    HW135438   7.623   6.385   8.246
45138SOL    HW235439   7.500   6.492   8.258
45139SOL     OW35440   7.578   7.407   9.019
45139SOL    HW135441   7.568   7.392   9.118
45139SOL    HW235442   7.492   7.443   8.983
45140SOL     OW35443   8.313   5.934   7.643
45140SOL    HW135444   8.372   5.997   7.594
45140SOL    HW235445   8.332   5.840   7.614
45141SOL     OW35446   9.167   6.171   9.279
45141SOL    HW135447   9.141   6.260   9.243
45141SOL    HW235448   9.165   6.103   9.206
45142SOL     OW35449   8.810   6.730   7.993
45142SOL    HW135450   8.893   6.701   7.945
45142SOL    HW235451   8.761   6.797   7.937
45143SOL     OW35452   7.998   5.782   8.333
45143SOL    HW135453   7.993   5.777   8.433
45143SOL    HW235454   8.000   5.878   8.304
45144SOL     OW35455   8.456   7.042   7.925
45144SOL    HW135456   8.410   7.114   7.873
45144SOL    HW235457   8.452   7.062   8.023
45145SOL     OW35458   7.799   7.387   8.301
45145SOL    HW135459   7.849   7.301   8.307
45145SOL    HW235460   7.864   7.464   8.298
45146SOL     OW35461   9.243   6.652   8.321
45146SOL    HW135462   9.181   6.637   8.245
45146SOL    HW235463   9.191   6.663   8.406
45147SOL     OW35464   8.675   7.136   8.954
45147SOL    HW135465   8.681   7.059   9.018
45147SOL    HW235466   8.623   7.110   8.874
45148SOL     OW35467   7.769   6.529   7.690
45148SOL    HW135468   7.851   6.568   7.648
45148SOL    HW235469   7.742   6.447   7.641
45149SOL     OW35470   8.906   6.321   8.176
45149SOL    HW135471   8.901   6.256   8.251
45149SOL    HW235472   8.986   6.380   8.189
45150SOL     OW35473   7.909   6.852   9.175
45150SOL    HW135474   7.859   6.853   9.089
45150SOL    HW235475   7.846   6.834   9.251
45151SOL     OW35476   8.559   7.362   7.685
45151SOL    HW135477   8.499   7.300   7.735
45151SOL    HW235478   8.590   7.318   7.600
45152SOL     OW35479   7.650   5.871   8.946
45152SOL    HW135480   7.570   5.931   8.933
45152SOL    HW235481   7.640   5.822   9.032
45153SOL     OW35482   9.080   6.963   7.529
45153SOL    HW135483   9.048   7.057   7.519
45153SOL    HW235484   9.004   6.900   7.517
45154SOL     OW35485   7.912   7.329   7.771
45154SOL    HW135486   7.945   7.368   7.857
45154SOL    HW235487   7.988   7.322   7.706
45155SOL     OW35488   8.848   5.693   7.874
45155SOL    HW135489   8.824   5.656   7.784
45155SOL    HW235490   8.947   5.709   7.878
45156SOL     OW35491   7.697   7.371   8.689
45156SOL    HW135492   7.754   7.306   8.739
45156SOL    HW235493   7.681   7.338   8.596
45157SOL     OW35494   8.388   7.284   8.352
45157SOL    HW135495   8.468   7.227   8.373
45157SOL    HW235496   8.339   7.244   8.275
45158SOL     OW35497   7.830   6.286   7.928
45158SOL    HW135498   7.875   6.196   7.925
45158SOL    HW235499   7.736   6.275   7.961
45159SOL     OW35500   8.995   5.808   9.177
45159SOL    HW135501   8.990   5.845   9.269
45159SOL    HW235502   8.923   5.739   9.165
45160SOL     OW35503   8.062   5.708   7.565
45160SOL    HW135504   8.160   5.686   7.572
45160SOL    HW235505   8.031   5.691   7.472
45161SOL     OW35506   8.229   5.850   9.197
45161SOL    HW135507   8.296   5.789   9.240
45161SOL    HW235508   8.156   5.869   9.262
45162SOL     OW35509   8.336   7.100   8.643
45162SOL    HW135510   8.313   7.075   8.549
45162SOL    HW235511   8.397   7.031   8.682
45163SOL     OW35512   8.799   6.176   8.881
45163SOL    HW135513   8.827   6.133   8.966
45163SOL    HW235514   8.824   6.272   8.882
45164SOL     OW35515   8.251   6.988   8.372
45164SOL    HW135516   8.341   7.002   8.330
45164SOL    HW235517   8.180   6.990   8.301
45165SOL     OW35518   8.370   6.089   8.347
45165SOL    HW135519   8.345   6.080   8.251
45165SOL    HW235520   8.418   6.007   8.378
45166SOL     OW35521   7.987   5.650   7.960
45166SOL    HW135522   7.906   5.651   8.018
45166SOL    HW235523   7.990   5.733   7.905
45167SOL     OW35524   8.882   6.774   7.489
45167SOL    HW135525   8.914   6.698   7.546
45167SOL    HW235526   8.790   6.801   7.519
45168SOL     OW35527   7.745   5.621   7.619
45168SOL    HW135528   7.794   5.705   7.598
45168SOL    HW235529   7.807   5.556   7.664
45169SOL     OW35530   8.383   5.822   7.928
45169SOL    HW135531   8.335   5.863   7.850
45169SOL    HW235532   8.482   5.820   7.909
45170SOL     OW35533   8.524   6.269   8.912
45170SOL    HW135534   8.444   6.208   8.915
45170SOL    HW235535   8.605   6.216   8.888
45171SOL     OW35536   8.675   7.156   8.241
45171SOL    HW135537   8.696   7.230   8.176
45171SOL    HW235538   8.743   7.156   8.314
45172SOL     OW35539   7.907   6.738   8.189
45172SOL    HW135540   7.836   6.711   8.254
45172SOL    HW235541   7.881   6.710   8.096
45173SOL     OW35542   8.719   7.383   8.039
45173SOL    HW135543   8.763   7.447   7.975
45173SOL    HW235544   8.669   7.435   8.109
45174SOL     OW35545   8.480   6.135   7.464
45174SOL    HW135546   8.439   6.217   7.425
45174SOL    HW235547   8.544   6.161   7.537
45175SOL     OW35548   7.526   6.142   8.834
45175SOL    HW135549   7.618   6.141   8.793
45175SOL    HW235550   7.520   6.216   8.901
45176SOL     OW35551   8.009   5.808   8.595
45176SOL    HW135552   8.047   5.724   8.632
45176SOL    HW235553   7.921   5.827   8.639
45177SOL     OW35554   8.314   6.040   8.090
45177SOL    HW135555   8.282   6.112   8.028
45177SOL    HW235556   8.338   5.959   8.037
45178SOL     OW35557   8.465   5.625   8.201
45178SOL    HW135558   8.393   5.630   8.132
45178SOL    HW235559   8.441   5.556   8.270
45179SOL     OW35560   8.877   6.759   8.315
45179SOL    HW135561   8.822   6.675   8.308
45179SOL    HW235562   8.903   6.788   8.223
45180SOL     OW35563   8.914   6.176   8.440
45180SOL    HW135564   8.884   6.081   8.447
45180SOL    HW235565   8.987   6.192   8.506
45181SOL     OW35566   9.305   6.419   7.825
45181SOL    HW135567   9.347   6.355   7.889
45181SOL    HW235568   9.267   6.368   7.747
45182SOL     OW35569   7.936   6.971   7.622
45182SOL    HW135570   7.849   6.956   7.669
45182SOL    HW235571   7.919   6.997   7.527
45183SOL     OW35572   9.112   6.866   8.105
45183SOL    HW135573   9.211   6.874   8.119
45183SOL    HW235574   9.067   6.950   8.136
45184SOL     OW35575   8.838   6.161   7.526
45184SOL    HW135576   8.784   6.140   7.607
45184SOL    HW235577   8.929   6.120   7.535
45185SOL     OW35578   7.975   5.842   7.776
45185SOL    HW135579   8.002   5.783   7.701
45185SOL    HW235580   7.975   5.937   7.745
45186SOL     OW35581   9.202   6.809   9.036
45186SOL    HW135582   9.293   6.770   9.023
45186SOL    HW235583   9.210   6.905   9.060
45187SOL     OW35584   8.512   6.933   8.788
45187SOL    HW135585   8.432   6.910   8.843
45187SOL    HW235586   8.595   6.907   8.837
45188SOL     OW35587   9.040   7.215   9.073
45188SOL    HW135588   9.067   7.249   8.983
45188SOL    HW235589   9.119   7.177   9.119
45189SOL     OW35590   8.559   6.781   8.548
45189SOL    HW135591   8.519   6.825   8.629
45189SOL    HW235592   8.518   6.818   8.465
45190SOL     OW35593   9.086   6.685   8.527
45190SOL    HW135594   9.091   6.766   8.586
45190SOL    HW235595   9.000   6.687   8.476
45191SOL     OW35596   8.363   5.675   8.850
45191SOL    HW135597   8.388   5.655   8.755
45191SOL    HW235598   8.435   5.731   8.892
45192SOL     OW35599   8.428   6.702   9.167
45192SOL    HW135600   8.329   6.708   9.177
45192SOL    HW235601   8.451   6.622   9.111
45193SOL     OW35602   8.153   6.636   7.816
45193SOL    HW135603   8.139   6.643   7.915
45193SOL    HW235604   8.237   6.585   7.798
45194SOL     OW35605   7.858   6.399   8.699
45194SOL    HW135606   7.944   6.411   8.749
45194SOL    HW235607   7.816   6.312   8.726
45195SOL     OW35608   8.722   5.972   8.710
45195SOL    HW135609   8.743   6.046   8.774
45195SOL    HW235610   8.633   5.989   8.667
45196SOL     OW35611   7.512   7.150   8.779
45196SOL    HW135612   7.466   7.232   8.745
45196SOL    HW235613   7.610   7.169   8.788
45197SOL     OW35614   7.815   6.686   7.949
45197SOL    HW135615   7.808   6.769   7.893
45197SOL    HW235616   7.819   6.606   7.889
45198SOL     OW35617   8.014   6.123   8.313
45198SOL    HW135618   8.026   6.189   8.239
45198SOL    HW235619   8.060   6.157   8.396
45199SOL     OW35620   8.700   6.934   7.836
45199SOL    HW135621   8.750   7.011   7.876
45199SOL    HW235622   8.605   6.936   7.868
45200SOL     OW35623   8.720   7.031   8.590
45200SOL    HW135624   8.767   7.044   8.677
45200SOL    HW235625   8.654   6.957   8.599
45201SOL     OW35626   9.030   6.225   7.920
45201SOL    HW135627   8.999   6.286   7.993
45201SOL    HW235628   9.080   6.277   7.851
45202SOL     OW35629   7.802   7.096   8.777
45202SOL    HW135630   7.781   7.052   8.690
45202SOL    HW235631   7.899   7.122   8.780
45203SOL     OW35632   7.850   6.337   9.046
45203SOL    HW135633   7.918   6.392   8.999
45203SOL    HW235634   7.890   6.249   9.073
45204SOL     OW35635   9.035   6.365   9.118
45204SOL    HW135636   8.943   6.403   9.113
45204SOL    HW235637   9.095   6.412   9.053
45205SOL     OW35638   8.461   5.691   9.218
45205SOL    HW135639   8.467   5.776   9.166
45205SOL    HW235640   8.493   5.615   9.161
45206SOL     OW35641   7.952   5.636   9.188
45206SOL    HW135642   7.910   5.579   9.118
45206SOL    HW235643   7.886   5.705   9.220
45207SOL     OW35644   8.021   6.456   8.477
45207SOL    HW135645   8.065   6.545   8.468
45207SOL    HW235646   7.958   6.456   8.554
45208SOL     OW35647   8.808   6.448   8.493
45208SOL    HW135648   8.733   6.448   8.427
45208SOL    HW235649   8.845   6.356   8.502
45209SOL     OW35650   8.657   6.111   7.723
45209SOL    HW135651   8.670   6.027   7.777
45209SOL    HW235652   8.628   6.185   7.783
45210SOL     OW35653   7.755   5.799   8.679
45210SOL    HW135654   7.732   5.836   8.769
45210SOL    HW235655   7.725   5.704   8.673
45211SOL     OW35656   7.485   6.896   8.730
45211SOL    HW135657   7.538   6.847   8.798
45211SOL    HW235658   7.507   6.994   8.735
45212SOL     OW35659   9.176   6.521   9.302
45212SOL    HW135660   9.130   6.514   9.213
45212SOL    HW235661   9.114   6.565   9.368
45213SOL     OW35662   7.755   5.649   8.066
45213SOL    HW135663   7.744   5.743   8.099
45213SOL    HW235664   7.750   5.586   8.143
45214SOL     OW35665   9.070   5.953   7.822
45214SOL    HW135666   9.072   5.877   7.886
45214SOL    HW235667   9.022   6.030   7.862
45215SOL     OW35668   8.471   6.352   8.414
45215SOL    HW135669   8.486   6.373   8.510
45215SOL    HW235670   8.441   6.257   8.405
45216SOL     OW35671   8.428   7.159   9.148
45216SOL    HW135672   8.408   7.203   9.060
45216SOL    HW235673   8.467   7.068   9.132
45217SOL     OW35674   9.307   7.104   9.053
45217SOL    HW135675   9.321   7.131   8.958
45217SOL    HW235676   9.390   7.126   9.106
45218SOL     OW35677   7.798   6.484   9.252
45218SOL    HW135678   7.874   6.528   9.300
45218SOL    HW235679   7.833   6.437   9.170
45219SOL     OW35680   8.988   5.860   7.573
45219SOL    HW135681   8.927   5.785   7.596
45219SOL    HW235682   9.010   5.912   7.656
45220SOL     OW35683   8.751   6.424   7.490
45220SOL    HW135684   8.785   6.331   7.505
45220SOL    HW235685   8.769   6.451   7.395
45221SOL     OW35686   8.516   6.919   8.297
45221SOL    HW135687   8.523   6.835   8.242
45221SOL    HW235688   8.578   6.988   8.261
45222SOL     OW35689   7.767   6.396   8.397
45222SOL    HW135690   7.860   6.432   8.402
45222SOL    HW235691   7.761   6.311   8.449
45223SOL     OW35692   7.787   6.095   8.454
45223SOL    HW135693   7.735   6.012   8.437
45223SOL    HW235694   7.864   6.100   8.390
45224SOL     OW35695   8.586   5.966   9.126
45224SOL    HW135696   8.541   6.029   9.190
45224SOL    HW235697   8.679   5.997   9.109
45225SOL     OW35698   8.608   5.793   8.925
45225SOL    HW135699   8.608   5.857   9.002
45225SOL    HW235700   8.636   5.841   8.842
45226SOL     OW35701   7.456   6.912   7.648
45226SOL    HW135702   7.363   6.933   7.617
45226SOL    HW235703   7.466   6.813   7.661
45227SOL     OW35704   7.536   7.387   8.375
45227SOL    HW135705   7.494   7.301   8.348
45227SOL    HW235706   7.630   7.390   8.341
45228SOL     OW35707   7.952   7.154   8.358
45228SOL    HW135708   8.018   7.228   8.367
45228SOL    HW235709   7.996   7.075   8.316
45229SOL     OW35710   8.450   6.382   8.686
45229SOL    HW135711   8.491   6.350   8.772
45229SOL    HW235712   8.354   6.355   8.683
45230SOL     OW35713   7.488   6.130   8.562
45230SOL    HW135714   7.573   6.097   8.521
45230SOL    HW235715   7.501   6.145   8.660
45231SOL     OW35716   7.637   6.106   9.170
45231SOL    HW135717   7.696   6.066   9.100
45231SOL    HW235718   7.579   6.177   9.129
45232SOL     OW35719   8.817   6.536   9.108
45232SOL    HW135720   8.856   6.625   9.128
45232SOL    HW235721   8.827   6.516   9.011
45233SOL     OW35722   8.263   6.158   7.773
45233SOL    HW135723   8.270   6.069   7.727
45233SOL    HW235724   8.169   6.192   7.765
45234SOL     OW35725   9.105   6.190   8.654
45234SOL    HW135726   9.067   6.121   8.716
45234SOL    HW235727   9.187   6.154   8.610
45235SOL     OW35728   7.700   7.150   9.192
45235SOL    HW135729   7.670   7.207   9.268
45235SOL    HW235730   7.693   7.053   9.218
45236SOL     OW35731   8.119   6.050   8.717
45236SOL    HW135732   8.085   5.961   8.687
45236SOL    HW235733   8.145   6.104   8.637
45237SOL     OW35734   8.378   7.264   8.913
45237SOL    HW135735   8.354   7.246   8.818
45237SOL    HW235736   8.408   7.358   8.923
45238SOL     OW35737   7.921   6.086   7.639
45238SOL    HW135738   7.982   6.166   7.643
45238SOL    HW235739   7.826   6.117   7.646
45239SOL     OW35740   7.607   6.723   8.914
45239SOL    HW135741   7.629   6.662   8.990
45239SOL    HW235742   7.617   6.674   8.828
45240SOL     OW35743   8.795   6.645   8.682
45240SOL    HW135744   8.819   6.582   8.608
45240SOL    HW235745   8.705   6.685   8.664
45241SOL     OW35746   8.750   6.441   7.757
45241SOL    HW135747   8.664   6.410   7.799
45241SOL    HW235748   8.746   6.427   7.658
45242SOL     OW35749   9.207   7.333   8.602
45242SOL    HW135750   9.268   7.363   8.529
45242SOL    HW235751   9.169   7.244   8.580
45243SOL     OW35752   8.700   7.317   8.576
45243SOL    HW135753   8.784   7.322   8.522
45243SOL    HW235754   8.677   7.221   8.594
45244SOL     OW35755   7.531   6.844   8.470
45244SOL    HW135756   7.526   6.843   8.570
45244SOL    HW235757   7.448   6.803   8.432
45245SOL     OW35758   8.136   7.248   9.164
45245SOL    HW135759   8.080   7.329   9.173
45245SOL    HW235760   8.188   7.252   9.078
45246SOL     OW35761   9.174   5.721   7.971
45246SOL    HW135762   9.247   5.704   7.904
45246SOL    HW235763   9.143   5.634   8.009
45247SOL     OW35764   8.836   7.159   7.925
45247SOL    HW135765   8.903   7.171   7.851
45247SOL    HW235766   8.796   7.248   7.948
45248SOL     OW35767   7.578   7.380   9.299
45248SOL    HW135768   7.537   7.306   9.352
45248SOL    HW235769   7.642   7.431   9.357
45249SOL     OW35770   8.728   6.513   8.120
45249SOL    HW135771   8.788   6.432   8.122
45249SOL    HW235772   8.768   6.582   8.060
45250SOL     OW35773   8.278   6.859   8.870
45250SOL    HW135774   8.273   6.892   8.965
45250SOL    HW235775   8.192   6.878   8.824
45251SOL     OW35776   8.120   7.202   7.602
45251SOL    HW135777   8.129   7.212   7.503
45251SOL    HW235778   8.080   7.113   7.623
45252SOL     OW35779   9.098   7.306   8.842
45252SOL    HW135780   9.151   7.316   8.758
45252SOL    HW235781   9.071   7.396   8.876
45253SOL     OW35782   9.289   5.761   8.411
45253SOL    HW135783   9.328   5.676   8.375
45253SOL    HW235784   9.191   5.763   8.392
45254SOL     OW35785   7.711   5.912   8.168
45254SOL    HW135786   7.632   5.963   8.134
45254SOL    HW235787   7.702   5.897   8.266
45255SOL     OW35788   8.642   7.198   7.479
45255SOL    HW135789   8.648   7.105   7.516
45255SOL    HW235790   8.583   7.198   7.399
45256SOL     OW35791   8.270   6.588   8.820
45256SOL    HW135792   8.310   6.587   8.728
45256SOL    HW235793   8.280   6.680   8.860
45257SOL     OW35794   8.364   6.496   7.739
45257SOL    HW135795   8.427   6.534   7.671
45257SOL    HW235796   8.404   6.413   7.778
45258SOL     OW35797   8.952   7.193   7.492
45258SOL    HW135798   8.860   7.230   7.499
45258SOL    HW235799   8.990   7.213   7.402
45259SOL     OW35800   7.820   6.874   8.938
45259SOL    HW135801   7.807   6.967   8.904
45259SOL    HW235802   7.736   6.822   8.925
45260SOL     OW35803   9.062   6.878   8.737
45260SOL    HW135804   9.122   6.881   8.817
45260SOL    HW235805   8.987   6.942   8.750
45261SOL     OW35806   8.487   6.684   8.144
45261SOL    HW135807   8.417   6.637   8.198
45261SOL    HW235808   8.546   6.616   8.101
45262SOL     OW35809   8.462   5.822   8.419
45262SOL    HW135810   8.454   5.786   8.326
45262SOL    HW235811   8.460   5.746   8.484
45263SOL     OW35812   8.038   7.073   7.939
45263SOL    HW135813   8.080   7.015   7.869
45263SOL    HW235814   7.994   7.152   7.895
45264SOL     OW35815   9.157   5.971   8.829
45264SOL    HW135816   9.230   6.040   8.833
45264SOL    HW235817   9.185   5.896   8.770
45265SOL     OW35818   7.703   6.934   7.738
45265SOL    HW135819   7.607   6.935   7.711
45265SOL    HW235820   7.715   6.987   7.822
45266SOL     OW35821   7.553   6.599   9.174
45266SOL    HW135822   7.476   6.566   9.228
45266SOL    HW235823   7.638   6.569   9.216
45267SOL     OW35824   8.120   5.789   8.937
45267SOL    HW135825   8.210   5.773   8.897
45267SOL    HW235826   8.128   5.794   9.036
45268SOL     OW35827   7.523   5.931   7.481
45268SOL    HW135828   7.431   5.903   7.452
45268SOL    HW235829   7.554   6.008   7.425
45269SOL     OW35830   8.888   6.442   8.846
45269SOL    HW135831   8.831   6.494   8.783
45269SOL    HW235832   8.984   6.454   8.822
45270SOL     OW35833   7.520   5.752   7.766
45270SOL    HW135834   7.503   5.835   7.712
45270SOL    HW235835   7.610   5.715   7.744
45271SOL     OW35836   8.631   6.921   7.567
45271SOL    HW135837   8.532   6.910   7.569
45271SOL    HW235838   8.665   6.936   7.660
45272SOL     OW35839   8.061   6.428   8.879
45272SOL    HW135840   8.117   6.509   8.862
45272SOL    HW235841   8.120   6.348   8.882
45273SOL     OW35842   8.941   7.353   8.407
45273SOL    HW135843   8.974   7.417   8.338
45273SOL    HW235844   9.007   7.347   8.482
45274SOL     OW35845   8.164   6.151   9.156
45274SOL    HW135846   8.183   6.216   9.230
45274SOL    HW235847   8.224   6.071   9.165
45275SOL     OW35848   8.898   6.806   9.081
45275SOL    HW135849   8.889   6.796   9.180
45275SOL    HW235850   8.994   6.799   9.055
45276SOL     OW35851   7.838   7.327   9.008
45276SOL    HW135852   7.747   7.368   9.006
45276SOL    HW235853   7.831   7.233   9.040
45277SOL     OW35854   9.122   6.469   8.702
45277SOL    HW135855   9.095   6.380   8.665
45277SOL    HW235856   9.123   6.537   8.629
45278SOL     OW35857   8.673   5.911   7.897
45278SOL    HW135858   8.738   5.837   7.886
45278SOL    HW235859   8.693   5.961   7.981
45279SOL     OW35860   8.042   6.331   8.100
45279SOL    HW135861   8.092   6.416   8.081
45279SOL    HW235862   7.954   6.333   8.052
45280SOL     OW35863   9.225   5.928   9.090
45280SOL    HW135864   9.208   5.959   8.996
45280SOL    HW235865   9.141   5.891   9.128
45281SOL     OW35866   9.178   6.520   8.965
45281SOL    HW135867   9.216   6.611   8.980
45281SOL    HW235868   9.170   6.503   8.866
45282SOL     OW35869   8.307   6.960   7.464
45282SOL    HW135870   8.261   6.975   7.552
45282SOL    HW235871   8.351   7.045   7.434
45283SOL     OW35872   8.109   7.376   8.401
45283SOL    HW135873   8.063   7.464   8.388
45283SOL    HW235874   8.208   7.388   8.394
45284SOL     OW35875   8.307   6.542   8.309
45284SOL    HW135876   8.361   6.473   8.357
45284SOL    HW235877   8.275   6.611   8.375
45285SOL     OW35878   8.531   6.570   7.535
45285SOL    HW135879   8.508   6.623   7.453
45285SOL    HW235880   8.612   6.514   7.516
45286SOL     OW35881   9.309   7.155   8.299
45286SOL    HW135882   9.238   7.143   8.229
45286SOL    HW235883   9.310   7.076   8.359
45287SOL     OW35884   7.669   6.900   9.292
45287SOL    HW135885   7.604   6.827   9.271
45287SOL    HW235886   7.673   6.914   9.390
45288SOL     OW35887   7.527   6.826   8.101
45288SOL    HW135888   7.526   6.779   8.189
45288SOL    HW235889   7.609   6.798   8.050
45289SOL     OW35890   8.120   6.977   9.072
45289SOL    HW135891   8.042   6.927   9.110
45289SOL    HW235892   8.117   7.072   9.103
45290SOL     OW35893   9.272   5.778   8.675
45290SOL    HW135894   9.268   5.688   8.719
45290SOL    HW235895   9.275   5.767   8.576
45291SOL     OW35896   7.876   6.010   7.968
45291SOL    HW135897   7.906   5.938   7.906
45291SOL    HW235898   7.837   5.970   8.051
45292SOL     OW35899   9.153   7.073   8.552
45292SOL    HW135900   9.060   7.048   8.525
45292SOL    HW235901   9.179   7.023   8.634
45293SOL     OW35902   7.765   6.133   8.728
45293SOL    HW135903   7.803   6.074   8.800
45293SOL    HW235904   7.805   6.107   8.640
45294SOL     OW35905   8.260   7.172   8.135
45294SOL    HW135906   8.292   7.182   8.041
45294SOL    HW235907   8.181   7.110   8.137
45295SOL     OW35908   8.872   5.800   8.560
45295SOL    HW135909   8.924   5.735   8.615
45295SOL    HW235910   8.823   5.863   8.621
45296SOL     OW35911   8.449   5.620   8.602
45296SOL    HW135912   8.386   5.548   8.571
45296SOL    HW235913   8.542   5.584   8.602
45297SOL     OW35914   8.218   6.916   7.749
45297SOL    HW135915   8.172   6.829   7.766
45297SOL    HW235916   8.309   6.913   7.790
45298SOL     OW35917   8.066   7.153   8.732
45298SOL    HW135918   8.061   7.235   8.789
45298SOL    HW235919   8.155   7.150   8.687
45299SOL     OW35920   8.800   5.638   7.616
45299SOL    HW135921   8.835   5.597   7.532
45299SOL    HW235922   8.710   5.600   7.636
45300SOL     OW35923   8.748   6.039   8.139
45300SOL    HW135924   8.689   6.119   8.143
45300SOL    HW235925   8.763   6.004   8.232
45301SOL     OW35926   9.041   5.807   8.330
45301SOL    HW135927   8.957   5.806   8.384
45301SOL    HW235928   9.043   5.890   8.274
45302SOL     OW35929   7.487   6.663   7.748
45302SOL    HW135930   7.586   6.652   7.739
45302SOL    HW235931   7.447   6.577   7.780
45303SOL     OW35932   8.323   7.232   7.785
45303SOL    HW135933   8.246   7.197   7.731
45303SOL    HW235934   8.291   7.303   7.847
45304SOL     OW35935   7.678   6.214   9.423
45304SOL    HW135936   7.585   6.212   9.460
45304SOL    HW235937   7.679   6.175   9.331
45305SOL     OW35938   7.673   5.861  10.306
45305SOL    HW135939   7.708   5.844  10.398
45305SOL    HW235940   7.585   5.816  10.294
45306SOL     OW35941   7.467   5.954   9.957
45306SOL    HW135942   7.385   5.997   9.996
45306SOL    HW235943   7.439   5.881   9.894
45307SOL     OW35944   8.017   6.861  10.475
45307SOL    HW135945   7.924   6.854  10.438
45307SOL    HW235946   8.028   6.950  10.519
45308SOL     OW35947   9.003   7.097  10.013
45308SOL    HW135948   8.946   7.081  10.094
45308SOL    HW235949   8.944   7.107   9.933
45309SOL     OW35950   8.583   6.289  10.027
45309SOL    HW135951   8.640   6.367  10.002
45309SOL    HW235952   8.523   6.315  10.103
45310SOL     OW35953   9.203   6.193   9.541
45310SOL    HW135954   9.191   6.180   9.442
45310SOL    HW235955   9.173   6.112   9.590
45311SOL     OW35956   8.216   6.730  10.333
45311SOL    HW135957   8.138   6.747  10.393
45311SOL    HW235958   8.250   6.817  10.297
45312SOL     OW35959   8.298   6.384  11.133
45312SOL    HW135960   8.294   6.460  11.198
45312SOL    HW235961   8.320   6.420  11.042
45313SOL     OW35962   8.133   6.598   9.975
45313SOL    HW135963   8.202   6.582  10.045
45313SOL    HW235964   8.060   6.655  10.013
45314SOL     OW35965   8.134   6.747  11.113
45314SOL    HW135966   8.194   6.826  11.127
45314SOL    HW235967   8.048   6.778  11.072
45315SOL     OW35968   7.783   7.021  10.371
45315SOL    HW135969   7.705   6.990  10.318
45315SOL    HW235970   7.841   7.079  10.314
45316SOL     OW35971   8.908   7.091  10.649
45316SOL    HW135972   8.932   7.185  10.675
45316SOL    HW235973   8.892   7.037  10.731
45317SOL     OW35974   7.886   5.978  10.809
45317SOL    HW135975   7.968   5.922  10.818
45317SOL    HW235976   7.805   5.920  10.813
45318SOL     OW35977   9.051   6.033  10.047
45318SOL    HW135978   8.977   6.079   9.997
45318SOL    HW235979   9.102   6.101  10.100
45319SOL     OW35980   7.679   7.299   9.793
45319SOL    HW135981   7.713   7.376   9.847
45319SOL    HW235982   7.723   7.299   9.703
45320SOL     OW35983   8.575   6.927  11.000
45320SOL    HW135984   8.622   6.927  11.088
45320SOL    HW235985   8.527   6.840  10.989
45321SOL     OW35986   7.678   7.020   9.848
45321SOL    HW135987   7.652   7.116   9.848
45321SOL    HW235988   7.607   6.966   9.893
45322SOL     OW35989   7.688   6.677  10.196
45322SOL    HW135990   7.702   6.593  10.248
45322SOL    HW235991   7.633   6.741  10.251
45323SOL     OW35992   8.068   7.372  10.749
45323SOL    HW135993   7.976   7.355  10.784
45323SOL    HW235994   8.096   7.464  10.775
45324SOL     OW35995   8.054   6.550   9.433
45324SOL    HW135996   8.061   6.634   9.379
45324SOL    HW235997   8.100   6.563   9.521
45325SOL     OW35998   9.042   5.700  10.790
45325SOL    HW135999   9.024   5.767  10.718
45325SOL    HW236000   9.039   5.746  10.879
45326SOL     OW36001   7.570   6.229   9.873
45326SOL    HW136002   7.525   6.141   9.890
45326SOL    HW236003   7.569   6.283   9.957
45327SOL     OW36004   9.290   7.353   9.669
45327SOL    HW136005   9.344   7.324   9.749
45327SOL    HW236006   9.320   7.443   9.640
45328SOL     OW36007   7.475   7.182   9.427
45328SOL    HW136008   7.456   7.086   9.448
45328SOL    HW236009   7.442   7.240   9.502
45329SOL     OW36010   9.137   6.508   9.922
45329SOL    HW136011   9.232   6.479   9.930
45329SOL    HW236012   9.129   6.573   9.847
45330SOL     OW36013   9.089   6.694   9.742
45330SOL    HW136014   9.175   6.696   9.690
45330SOL    HW236015   9.103   6.741   9.830
45331SOL     OW36016   7.561   6.323  10.907
45331SOL    HW136017   7.649   6.310  10.952
45331SOL    HW236018   7.548   6.420  10.885
45332SOL     OW36019   8.061   6.951  10.036
45332SOL    HW136020   8.012   6.864  10.045
45332SOL    HW236021   8.038   6.994   9.949
45333SOL     OW36022   8.741   6.814  10.733
45333SOL    HW136023   8.778   6.741  10.675
45333SOL    HW236024   8.793   6.819  10.818
45334SOL     OW36025   8.257   5.590   9.812
45334SOL    HW136026   8.297   5.681   9.803
45334SOL    HW236027   8.157   5.598   9.818
45335SOL     OW36028   7.645   6.562  10.574
45335SOL    HW136029   7.734   6.517  10.560
45335SOL    HW236030   7.572   6.497  10.555
45336SOL     OW36031   8.973   6.585   9.500
45336SOL    HW136032   8.910   6.509   9.513
45336SOL    HW236033   9.021   6.603   9.586
45337SOL     OW36034   8.635   7.378  10.926
45337SOL    HW136035   8.659   7.438  10.850
45337SOL    HW236036   8.642   7.283  10.896
45338SOL     OW36037   7.765   5.837  11.111
45338SOL    HW136038   7.836   5.908  11.117
45338SOL    HW236039   7.677   5.876  11.139
45339SOL     OW36040   8.914   7.003  10.263
45339SOL    HW136041   8.855   7.009  10.343
45339SOL    HW236042   8.899   6.915  10.217
45340SOL     OW36043   9.115   7.300   9.882
45340SOL    HW136044   9.074   7.277   9.794
45340SOL    HW236045   9.097   7.226   9.947
45341SOL     OW36046   8.046   6.315   9.580
45341SOL    HW136047   8.070   6.384   9.512
45341SOL    HW236048   7.968   6.348   9.634
45342SOL     OW36049   8.729   5.931  10.254
45342SOL    HW136050   8.643   5.881  10.241
45342SOL    HW236051   8.791   5.877  10.310
45343SOL     OW36052   9.024   7.248   9.617
45343SOL    HW136053   9.113   7.294   9.620
45343SOL    HW236054   9.003   7.224   9.522
45344SOL     OW36055   8.255   6.191  10.775
45344SOL    HW136056   8.208   6.188  10.864
45344SOL    HW236057   8.204   6.136  10.709
45345SOL     OW36058   8.842   6.055  10.984
45345SOL    HW136059   8.822   6.098  11.072
45345SOL    HW236060   8.920   5.993  10.993
45346SOL     OW36061   8.421   6.476  10.882
45346SOL    HW136062   8.467   6.392  10.853
45346SOL    HW236063   8.365   6.510  10.807
45347SOL     OW36064   8.439   5.996  10.552
45347SOL    HW136065   8.362   6.030  10.606
45347SOL    HW236066   8.405   5.945  10.473
45348SOL     OW36067   8.489   6.287   9.739
45348SOL    HW136068   8.515   6.283   9.835
45348SOL    HW236069   8.404   6.236   9.725
45349SOL     OW36070   7.524   6.397  10.099
45349SOL    HW136071   7.623   6.385  10.108
45349SOL    HW236072   7.500   6.492  10.120
45350SOL     OW36073   7.578   7.407  10.881
45350SOL    HW136074   7.568   7.392  10.980
45350SOL    HW236075   7.492   7.443  10.845
45351SOL     OW36076   8.313   5.934   9.505
45351SOL    HW136077   8.372   5.997   9.456
45351SOL    HW236078   8.332   5.840   9.476
45352SOL     OW36079   9.167   6.171  11.141
45352SOL    HW136080   9.141   6.260  11.105
45352SOL    HW236081   9.165   6.103  11.068
45353SOL     OW36082   8.810   6.730   9.855
45353SOL    HW136083   8.893   6.701   9.807
45353SOL    HW236084   8.761   6.797   9.799
45354SOL     OW36085   7.998   5.782  10.195
45354SOL    HW136086   7.993   5.777  10.295
45354SOL    HW236087   8.000   5.878  10.166
45355SOL     OW36088   8.456   7.042   9.787
45355SOL    HW136089   8.410   7.114   9.735
45355SOL    HW236090   8.452   7.062   9.885
45356SOL     OW36091   7.799   7.387  10.163
45356SOL    HW136092   7.849   7.301  10.169
45356SOL    HW236093   7.864   7.464  10.160
45357SOL     OW36094   9.243   6.652  10.183
45357SOL    HW136095   9.181   6.637  10.107
45357SOL    HW236096   9.191   6.663  10.268
45358SOL     OW36097   8.675   7.136  10.816
45358SOL    HW136098   8.681   7.059  10.880
45358SOL    HW236099   8.623   7.110  10.736
45359SOL     OW36100   7.769   6.529   9.552
45359SOL    HW136101   7.851   6.568   9.510
45359SOL    HW236102   7.742   6.447   9.503
45360SOL     OW36103   8.906   6.321  10.038
45360SOL    HW136104   8.901   6.256  10.113
45360SOL    HW236105   8.986   6.380  10.051
45361SOL     OW36106   7.909   6.852  11.037
45361SOL    HW136107   7.859   6.853  10.951
45361SOL    HW236108   7.846   6.834  11.113
45362SOL     OW36109   8.559   7.362   9.547
45362SOL    HW136110   8.499   7.300   9.597
45362SOL    HW236111   8.590   7.318   9.462
45363SOL     OW36112   7.650   5.871  10.808
45363SOL    HW136113   7.570   5.931  10.795
45363SOL    HW236114   7.640   5.822  10.894
45364SOL     OW36115   9.080   6.963   9.391
45364SOL    HW136116   9.048   7.057   9.381
45364SOL    HW236117   9.004   6.900   9.379
45365SOL     OW36118   7.912   7.329   9.633
45365SOL    HW136119   7.945   7.368   9.719
45365SOL    HW236120   7.988   7.322   9.568
45366SOL     OW36121   8.848   5.693   9.736
45366SOL    HW136122   8.824   5.656   9.646
45366SOL    HW236123   8.947   5.709   9.740
45367SOL     OW36124   7.697   7.371  10.551
45367SOL    HW136125   7.754   7.306  10.601
45367SOL    HW236126   7.681   7.338  10.458
45368SOL     OW36127   8.388   7.284  10.214
45368SOL    HW136128   8.468   7.227  10.235
45368SOL    HW236129   8.339   7.244  10.137
45369SOL     OW36130   7.830   6.286   9.790
45369SOL    HW136131   7.875   6.196   9.787
45369SOL    HW236132   7.736   6.275   9.823
45370SOL     OW36133   8.995   5.808  11.039
45370SOL    HW136134   8.990   5.845  11.131
45370SOL    HW236135   8.923   5.739  11.027
45371SOL     OW36136   8.062   5.708   9.427
45371SOL    HW136137   8.160   5.686   9.434
45371SOL    HW236138   8.031   5.691   9.334
45372SOL     OW36139   8.229   5.850  11.059
45372SOL    HW136140   8.296   5.789  11.102
45372SOL    HW236141   8.156   5.869  11.124
45373SOL     OW36142   8.336   7.100  10.505
45373SOL    HW136143   8.313   7.075  10.411
45373SOL    HW236144   8.397   7.031  10.544
45374SOL     OW36145   8.799   6.176  10.743
45374SOL    HW136146   8.827   6.133  10.828
45374SOL    HW236147   8.824   6.272  10.744
45375SOL     OW36148   8.251   6.988  10.234
45375SOL    HW136149   8.341   7.002  10.192
45375SOL    HW236150   8.180   6.990  10.163
45376SOL     OW36151   8.370   6.089  10.209
45376SOL    HW136152   8.345   6.080  10.113
45376SOL    HW236153   8.418   6.007  10.240
45377SOL     OW36154   7.987   5.650   9.822
45377SOL    HW136155   7.906   5.651   9.880
45377SOL    HW236156   7.990   5.733   9.767
45378SOL     OW36157   8.882   6.774   9.351
45378SOL    HW136158   8.914   6.698   9.408
45378SOL    HW236159   8.790   6.801   9.381
45379SOL     OW36160   7.745   5.621   9.481
45379SOL    HW136161   7.794   5.705   9.460
45379SOL    HW236162   7.807   5.556   9.526
45380SOL     OW36163   8.383   5.822   9.790
45380SOL    HW136164   8.335   5.863   9.712
45380SOL    HW236165   8.482   5.820   9.771
45381SOL     OW36166   8.524   6.269  10.774
45381SOL    HW136167   8.444   6.208  10.777
45381SOL    HW236168   8.605   6.216  10.750
45382SOL     OW36169   8.675   7.156  10.103
45382SOL    HW136170   8.696   7.230  10.038
45382SOL    HW236171   8.743   7.156  10.176
45383SOL     OW36172   7.907   6.738  10.051
45383SOL    HW136173   7.836   6.711  10.116
45383SOL    HW236174   7.881   6.710   9.958
45384SOL     OW36175   8.719   7.383   9.901
45384SOL    HW136176   8.763   7.447   9.837
45384SOL    HW236177   8.669   7.435   9.971
45385SOL     OW36178   8.480   6.135   9.326
45385SOL    HW136179   8.439   6.217   9.287
45385SOL    HW236180   8.544   6.161   9.399
45386SOL     OW36181   7.526   6.142  10.696
45386SOL    HW136182   7.618   6.141  10.655
45386SOL    HW236183   7.520   6.216  10.763
45387SOL     OW36184   8.009   5.808  10.457
45387SOL    HW136185   8.047   5.724  10.494
45387SOL    HW236186   7.921   5.827  10.501
45388SOL     OW36187   8.314   6.040   9.952
45388SOL    HW136188   8.282   6.112   9.890
45388SOL    HW236189   8.338   5.959   9.899
45389SOL     OW36190   8.465   5.625  10.063
45389SOL    HW136191   8.393   5.630   9.994
45389SOL    HW236192   8.441   5.556  10.132
45390SOL     OW36193   8.877   6.759  10.177
45390SOL    HW136194   8.822   6.675  10.170
45390SOL    HW236195   8.903   6.788  10.085
45391SOL     OW36196   8.914   6.176  10.302
45391SOL    HW136197   8.884   6.081  10.309
45391SOL    HW236198   8.987   6.192  10.368
45392SOL     OW36199   9.305   6.419   9.687
45392SOL    HW136200   9.347   6.355   9.751
45392SOL    HW236201   9.267   6.368   9.609
45393SOL     OW36202   7.936   6.971   9.484
45393SOL    HW136203   7.849   6.956   9.531
45393SOL    HW236204   7.919   6.997   9.389
45394SOL     OW36205   9.112   6.866   9.967
45394SOL    HW136206   9.211   6.874   9.981
45394SOL    HW236207   9.067   6.950   9.998
45395SOL     OW36208   8.838   6.161   9.388
45395SOL    HW136209   8.784   6.140   9.469
45395SOL    HW236210   8.929   6.120   9.397
45396SOL     OW36211   7.975   5.842   9.638
45396SOL    HW136212   8.002   5.783   9.563
45396SOL    HW236213   7.975   5.937   9.607
45397SOL     OW36214   9.202   6.809  10.898
45397SOL    HW136215   9.293   6.770  10.885
45397SOL    HW236216   9.210   6.905  10.922
45398SOL     OW36217   8.512   6.933  10.650
45398SOL    HW136218   8.432   6.910  10.705
45398SOL    HW236219   8.595   6.907  10.699
45399SOL     OW36220   9.040   7.215  10.935
45399SOL    HW136221   9.067   7.249  10.845
45399SOL    HW236222   9.119   7.177  10.981
45400SOL     OW36223   8.559   6.781  10.410
45400SOL    HW136224   8.519   6.825  10.491
45400SOL    HW236225   8.518   6.818  10.327
45401SOL     OW36226   9.086   6.685  10.389
45401SOL    HW136227   9.091   6.766  10.448
45401SOL    HW236228   9.000   6.687  10.338
45402SOL     OW36229   8.363   5.675  10.712
45402SOL    HW136230   8.388   5.655  10.617
45402SOL    HW236231   8.435   5.731  10.754
45403SOL     OW36232   8.428   6.702  11.029
45403SOL    HW136233   8.329   6.708  11.039
45403SOL    HW236234   8.451   6.622  10.973
45404SOL     OW36235   8.153   6.636   9.678
45404SOL    HW136236   8.139   6.643   9.777
45404SOL    HW236237   8.237   6.585   9.660
45405SOL     OW36238   7.858   6.399  10.561
45405SOL    HW136239   7.944   6.411  10.611
45405SOL    HW236240   7.816   6.312  10.588
45406SOL     OW36241   8.722   5.972  10.572
45406SOL    HW136242   8.743   6.046  10.636
45406SOL    HW236243   8.633   5.989  10.529
45407SOL     OW36244   7.512   7.150  10.641
45407SOL    HW136245   7.466   7.232  10.607
45407SOL    HW236246   7.610   7.169  10.650
45408SOL     OW36247   7.815   6.686   9.811
45408SOL    HW136248   7.808   6.769   9.755
45408SOL    HW236249   7.819   6.606   9.751
45409SOL     OW36250   8.014   6.123  10.175
45409SOL    HW136251   8.026   6.189  10.101
45409SOL    HW236252   8.060   6.157  10.258
45410SOL     OW36253   8.700   6.934   9.698
45410SOL    HW136254   8.750   7.011   9.738
45410SOL    HW236255   8.605   6.936   9.730
45411SOL     OW36256   8.720   7.031  10.452
45411SOL    HW136257   8.767   7.044  10.539
45411SOL    HW236258   8.654   6.957  10.461
45412SOL     OW36259   9.030   6.225   9.782
45412SOL    HW136260   8.999   6.286   9.855
45412SOL    HW236261   9.080   6.277   9.713
45413SOL     OW36262   7.802   7.096  10.639
45413SOL    HW136263   7.781   7.052  10.552
45413SOL    HW236264   7.899   7.122  10.642
45414SOL     OW36265   7.850   6.337  10.908
45414SOL    HW136266   7.918   6.392  10.861
45414SOL    HW236267   7.890   6.249  10.935
45415SOL     OW36268   9.035   6.365  10.980
45415SOL    HW136269   8.943   6.403  10.975
45415SOL    HW236270   9.095   6.412  10.915
45416SOL     OW36271   8.461   5.691  11.080
45416SOL    HW136272   8.467   5.776  11.028
45416SOL    HW236273   8.493   5.615  11.023
45417SOL     OW36274   7.952   5.636  11.050
45417SOL    HW136275   7.910   5.579  10.980
45417SOL    HW236276   7.886   5.705  11.082
45418SOL     OW36277   8.021   6.456  10.339
45418SOL    HW136278   8.065   6.545  10.330
45418SOL    HW236279   7.958   6.456  10.416
45419SOL     OW36280   8.808   6.448  10.355
45419SOL    HW136281   8.733   6.448  10.289
45419SOL    HW236282   8.845   6.356  10.364
45420SOL     OW36283   8.657   6.111   9.585
45420SOL    HW136284   8.670   6.027   9.639
45420SOL    HW236285   8.628   6.185   9.645
45421SOL     OW36286   7.755   5.799  10.541
45421SOL    HW136287   7.732   5.836  10.631
45421SOL    HW236288   7.725   5.704  10.535
45422SOL     OW36289   7.485   6.896  10.592
45422SOL    HW136290   7.538   6.847  10.660
45422SOL    HW236291   7.507   6.994  10.597
45423SOL     OW36292   8.180   6.220  10.374
45423SOL    HW136293   8.239   6.194  10.298
45423SOL    HW236294   8.152   6.316  10.363
45424SOL     OW36295   9.176   6.521  11.164
45424SOL    HW136296   9.130   6.514  11.075
45424SOL    HW236297   9.114   6.565  11.230
45425SOL     OW36298   7.755   5.649   9.928
45425SOL    HW136299   7.744   5.743   9.961
45425SOL    HW236300   7.750   5.586  10.005
45426SOL     OW36301   9.070   5.953   9.684
45426SOL    HW136302   9.072   5.877   9.748
45426SOL    HW236303   9.022   6.030   9.724
45427SOL     OW36304   8.471   6.352  10.276
45427SOL    HW136305   8.486   6.373  10.372
45427SOL    HW236306   8.441   6.257  10.267
45428SOL     OW36307   8.428   7.159  11.010
45428SOL    HW136308   8.408   7.203  10.922
45428SOL    HW236309   8.467   7.068  10.994
45429SOL     OW36310   9.307   7.104  10.915
45429SOL    HW136311   9.321   7.131  10.820
45429SOL    HW236312   9.390   7.126  10.968
45430SOL     OW36313   7.798   6.484  11.114
45430SOL    HW136314   7.874   6.528  11.162
45430SOL    HW236315   7.833   6.437  11.032
45431SOL     OW36316   8.988   5.860   9.435
45431SOL    HW136317   8.927   5.785   9.458
45431SOL    HW236318   9.010   5.912   9.518
45432SOL     OW36319   8.751   6.424   9.352
45432SOL    HW136320   8.785   6.331   9.367
45432SOL    HW236321   8.769   6.451   9.257
45433SOL     OW36322   8.516   6.919  10.159
45433SOL    HW136323   8.523   6.835  10.104
45433SOL    HW236324   8.578   6.988  10.123
45434SOL     OW36325   7.767   6.396  10.259
45434SOL    HW136326   7.860   6.432  10.264
45434SOL    HW236327   7.761   6.311  10.311
45435SOL     OW36328   7.787   6.095  10.316
45435SOL    HW136329   7.735   6.012  10.299
45435SOL    HW236330   7.864   6.100  10.252
45436SOL     OW36331   8.586   5.966  10.988
45436SOL    HW136332   8.541   6.029  11.052
45436SOL    HW236333   8.679   5.997  10.971
45437SOL     OW36334   8.608   5.793  10.787
45437SOL    HW136335   8.608   5.857  10.864
45437SOL    HW236336   8.636   5.841  10.704
45438SOL     OW36337   7.456   6.912   9.510
45438SOL    HW136338   7.363   6.933   9.479
45438SOL    HW236339   7.466   6.813   9.523
45439SOL     OW36340   7.536   7.387  10.237
45439SOL    HW136341   7.494   7.301  10.210
45439SOL    HW236342   7.630   7.390  10.203
45440SOL     OW36343   7.952   7.154  10.220
45440SOL    HW136344   8.018   7.228  10.229
45440SOL    HW236345   7.996   7.075  10.178
45441SOL     OW36346   8.450   6.382  10.548
45441SOL    HW136347   8.491   6.350  10.634
45441SOL    HW236348   8.354   6.355  10.545
45442SOL     OW36349   7.488   6.130  10.424
45442SOL    HW136350   7.573   6.097  10.383
45442SOL    HW236351   7.501   6.145  10.522
45443SOL     OW36352   7.637   6.106  11.032
45443SOL    HW136353   7.696   6.066  10.962
45443SOL    HW236354   7.579   6.177  10.991
45444SOL     OW36355   8.817   6.536  10.970
45444SOL    HW136356   8.856   6.625  10.990
45444SOL    HW236357   8.827   6.516  10.873
45445SOL     OW36358   8.263   6.158   9.635
45445SOL    HW136359   8.270   6.069   9.589
45445SOL    HW236360   8.169   6.192   9.627
45446SOL     OW36361   9.105   6.190  10.516
45446SOL    HW136362   9.067   6.121  10.578
45446SOL    HW236363   9.187   6.154  10.472
45447SOL     OW36364   7.700   7.150  11.054
45447SOL    HW136365   7.670   7.207  11.130
45447SOL    HW236366   7.693   7.053  11.080
45448SOL     OW36367   8.119   6.050  10.579
45448SOL    HW136368   8.085   5.961  10.549
45448SOL    HW236369   8.145   6.104  10.499
45449SOL     OW36370   8.378   7.264  10.775
45449SOL    HW136371   8.354   7.246  10.680
45449SOL    HW236372   8.408   7.358  10.785
45450SOL     OW36373   7.921   6.086   9.501
45450SOL    HW136374   7.982   6.166   9.505
45450SOL    HW236375   7.826   6.117   9.508
45451SOL     OW36376   7.607   6.723  10.776
45451SOL    HW136377   7.629   6.662  10.852
45451SOL    HW236378   7.617   6.674  10.690
45452SOL     OW36379   8.795   6.645  10.544
45452SOL    HW136380   8.819   6.582  10.470
45452SOL    HW236381   8.705   6.685  10.526
45453SOL     OW36382   8.750   6.441   9.619
45453SOL    HW136383   8.664   6.410   9.661
45453SOL    HW236384   8.746   6.427   9.520
45454SOL     OW36385   9.207   7.333  10.464
45454SOL    HW136386   9.268   7.363  10.391
45454SOL    HW236387   9.169   7.244  10.442
45455SOL     OW36388   8.700   7.317  10.438
45455SOL    HW136389   8.784   7.322  10.384
45455SOL    HW236390   8.677   7.221  10.456
45456SOL     OW36391   7.531   6.844  10.332
45456SOL    HW136392   7.526   6.843  10.432
45456SOL    HW236393   7.448   6.803  10.294
45457SOL     OW36394   8.136   7.248  11.026
45457SOL    HW136395   8.080   7.329  11.035
45457SOL    HW236396   8.188   7.252  10.940
45458SOL     OW36397   9.174   5.721   9.833
45458SOL    HW136398   9.247   5.704   9.766
45458SOL    HW236399   9.143   5.634   9.871
45459SOL     OW36400   8.836   7.159   9.787
45459SOL    HW136401   8.903   7.171   9.713
45459SOL    HW236402   8.796   7.248   9.810
45460SOL     OW36403   7.578   7.380  11.161
45460SOL    HW136404   7.537   7.306  11.214
45460SOL    HW236405   7.642   7.431  11.219
45461SOL     OW36406   8.728   6.513   9.982
45461SOL    HW136407   8.788   6.432   9.984
45461SOL    HW236408   8.768   6.582   9.922
45462SOL     OW36409   8.278   6.859  10.732
45462SOL    HW136410   8.273   6.892  10.827
45462SOL    HW236411   8.192   6.878  10.686
45463SOL     OW36412   8.120   7.202   9.464
45463SOL    HW136413   8.129   7.212   9.365
45463SOL    HW236414   8.080   7.113   9.485
45464SOL     OW36415   9.098   7.306  10.704
45464SOL    HW136416   9.151   7.316  10.620
45464SOL    HW236417   9.071   7.396  10.738
45465SOL     OW36418   9.289   5.761  10.273
45465SOL    HW136419   9.328   5.676  10.237
45465SOL    HW236420   9.191   5.763  10.254
45466SOL     OW36421   7.711   5.912  10.030
45466SOL    HW136422   7.632   5.963   9.996
45466SOL    HW236423   7.702   5.897  10.128
45467SOL     OW36424   8.642   7.198   9.341
45467SOL    HW136425   8.648   7.105   9.378
45467SOL    HW236426   8.583   7.198   9.261
45468SOL     OW36427   8.270   6.588  10.682
45468SOL    HW136428   8.310   6.587  10.590
45468SOL    HW236429   8.280   6.680  10.722
45469SOL     OW36430   8.364   6.496   9.601
45469SOL    HW136431   8.427   6.534   9.533
45469SOL    HW236432   8.404   6.413   9.640
45470SOL     OW36433   8.952   7.193   9.354
45470SOL    HW136434   8.860   7.230   9.361
45470SOL    HW236435   8.990   7.213   9.264
45471SOL     OW36436   7.820   6.874  10.800
45471SOL    HW136437   7.807   6.967  10.766
45471SOL    HW236438   7.736   6.822  10.787
45472SOL     OW36439   9.062   6.878  10.599
45472SOL    HW136440   9.122   6.881  10.679
45472SOL    HW236441   8.987   6.942  10.612
45473SOL     OW36442   8.487   6.684  10.006
45473SOL    HW136443   8.417   6.637  10.060
45473SOL    HW236444   8.546   6.616   9.963
45474SOL     OW36445   8.462   5.822  10.281
45474SOL    HW136446   8.454   5.786  10.188
45474SOL    HW236447   8.460   5.746  10.346
45475SOL     OW36448   8.038   7.073   9.801
45475SOL    HW136449   8.080   7.015   9.731
45475SOL    HW236450   7.994   7.152   9.757
45476SOL     OW36451   9.157   5.971  10.691
45476SOL    HW136452   9.230   6.040  10.695
45476SOL    HW236453   9.185   5.896  10.632
45477SOL     OW36454   7.703   6.934   9.600
45477SOL    HW136455   7.607   6.935   9.573
45477SOL    HW236456   7.715   6.987   9.684
45478SOL     OW36457   7.553   6.599  11.036
45478SOL    HW136458   7.476   6.566  11.090
45478SOL    HW236459   7.638   6.569  11.078
45479SOL     OW36460   8.120   5.789  10.799
45479SOL    HW136461   8.210   5.773  10.759
45479SOL    HW236462   8.128   5.794  10.898
45480SOL     OW36463   7.523   5.931   9.343
45480SOL    HW136464   7.431   5.903   9.314
45480SOL    HW236465   7.554   6.008   9.287
45481SOL     OW36466   8.888   6.442  10.708
45481SOL    HW136467   8.831   6.494  10.645
45481SOL    HW236468   8.984   6.454  10.684
45482SOL     OW36469   7.520   5.752   9.628
45482SOL    HW136470   7.503   5.835   9.574
45482SOL    HW236471   7.610   5.715   9.606
45483SOL     OW36472   8.631   6.921   9.429
45483SOL    HW136473   8.532   6.910   9.431
45483SOL    HW236474   8.665   6.936   9.522
45484SOL     OW36475   8.061   6.428  10.741
45484SOL    HW136476   8.117   6.509  10.724
45484SOL    HW236477   8.120   6.348  10.744
45485SOL     OW36478   8.941   7.353  10.269
45485SOL    HW136479   8.974   7.417  10.200
45485SOL    HW236480   9.007   7.347  10.344
45486SOL     OW36481   8.164   6.151  11.018
45486SOL    HW136482   8.183   6.216  11.092
45486SOL    HW236483   8.224   6.071  11.027
45487SOL     OW36484   8.898   6.806  10.943
45487SOL    HW136485   8.889   6.796  11.042
45487SOL    HW236486   8.994   6.799  10.917
45488SOL     OW36487   7.838   7.327  10.870
45488SOL    HW136488   7.747   7.368  10.868
45488SOL    HW236489   7.831   7.233  10.902
45489SOL     OW36490   9.122   6.469  10.564
45489SOL    HW136491   9.095   6.380  10.527
45489SOL    HW236492   9.123   6.537  10.491
45490SOL     OW36493   8.673   5.911   9.759
45490SOL    HW136494   8.738   5.837   9.748
45490SOL    HW236495   8.693   5.961   9.843
45491SOL     OW36496   8.042   6.331   9.962
45491SOL    HW136497   8.092   6.416   9.943
45491SOL    HW236498   7.954   6.333   9.914
45492SOL     OW36499   9.225   5.928  10.952
45492SOL    HW136500   9.208   5.959  10.858
45492SOL    HW236501   9.141   5.891  10.990
45493SOL     OW36502   9.178   6.520  10.827
45493SOL    HW136503   9.216   6.611  10.842
45493SOL    HW236504   9.170   6.503  10.728
45494SOL     OW36505   8.307   6.960   9.326
45494SOL    HW136506   8.261   6.975   9.414
45494SOL    HW236507   8.351   7.045   9.296
45495SOL     OW36508   8.109   7.376  10.263
45495SOL    HW136509   8.063   7.464  10.250
45495SOL    HW236510   8.208   7.388  10.256
45496SOL     OW36511   8.307   6.542  10.171
45496SOL    HW136512   8.361   6.473  10.219
45496SOL    HW236513   8.275   6.611  10.237
45497SOL     OW36514   8.531   6.570   9.397
45497SOL    HW136515   8.508   6.623   9.315
45497SOL    HW236516   8.612   6.514   9.378
45498SOL     OW36517   9.309   7.155  10.161
45498SOL    HW136518   9.238   7.143  10.091
45498SOL    HW236519   9.310   7.076  10.221
45499SOL     OW36520   7.669   6.900  11.154
45499SOL    HW136521   7.604   6.827  11.133
45499SOL    HW236522   7.673   6.914  11.252
45500SOL     OW36523   7.527   6.826   9.963
45500SOL    HW136524   7.526   6.779  10.051
45500SOL    HW236525   7.609   6.798   9.912
45501SOL     OW36526   8.120   6.977  10.934
45501SOL    HW136527   8.042   6.927  10.972
45501SOL    HW236528   8.117   7.072  10.965
45502SOL     OW36529   9.272   5.778  10.537
45502SOL    HW136530   9.268   5.688  10.581
45502SOL    HW236531   9.275   5.767  10.438
45503SOL     OW36532   7.876   6.010   9.830
45503SOL    HW136533   7.906   5.938   9.768
45503SOL    HW236534   7.837   5.970   9.913
45504SOL     OW36535   9.153   7.073  10.414
45504SOL    HW136536   9.060   7.048  10.387
45504SOL    HW236537   9.179   7.023  10.496
45505SOL     OW36538   7.765   6.133  10.590
45505SOL    HW136539   7.803   6.074  10.662
45505SOL    HW236540   7.805   6.107  10.502
45506SOL     OW36541   8.260   7.172   9.997
45506SOL    HW136542   8.292   7.182   9.903
45506SOL    HW236543   8.181   7.110   9.999
45507SOL     OW36544   8.872   5.800  10.422
45507SOL    HW136545   8.924   5.735  10.477
45507SOL    HW236546   8.823   5.863  10.483
45508SOL     OW36547   8.449   5.620  10.464
45508SOL    HW136548   8.386   5.548  10.433
45508SOL    HW236549   8.542   5.584  10.464
45509SOL     OW36550   8.218   6.916   9.611
45509SOL    HW136551   8.172   6.829   9.628
45509SOL    HW236552   8.309   6.913   9.652
45510SOL     OW36553   8.066   7.153  10.594
45510SOL    HW136554   8.061   7.235  10.651
45510SOL    HW236555   8.155   7.150  10.549
45511SOL     OW36556   8.800   5.638   9.478
45511SOL    HW136557   8.835   5.597   9.394
45511SOL    HW236558   8.710   5.600   9.498
45512SOL     OW36559   8.748   6.039  10.001
45512SOL    HW136560   8.689   6.119  10.005
45512SOL    HW236561   8.763   6.004  10.094
45513SOL     OW36562   9.041   5.807  10.192
45513SOL    HW136563   8.957   5.806  10.246
45513SOL    HW236564   9.043   5.890  10.136
45514SOL     OW36565   7.487   6.663   9.610
45514SOL    HW136566   7.586   6.652   9.601
45514SOL    HW236567   7.447   6.577   9.642
45515SOL     OW36568   8.323   7.232   9.647
45515SOL    HW136569   8.246   7.197   9.593
45515SOL    HW236570   8.291   7.303   9.709
45516SOL     OW36571   7.678   6.214  11.285
45516SOL    HW136572   7.585   6.212  11.322
45516SOL    HW236573   7.679   6.175  11.193
45517SOL     OW36574   7.673   5.861  12.168
45517SOL    HW136575   7.708   5.844  12.260
45517SOL    HW236576   7.585   5.816  12.156
45518SOL     OW36577   7.467   5.954  11.819
45518SOL    HW136578   7.385   5.997  11.858
45518SOL    HW236579   7.439   5.881  11.756
45519SOL     OW36580   8.017   6.861  12.337
45519SOL    HW136581   7.924   6.854  12.300
45519SOL    HW236582   8.028   6.950  12.381
45520SOL     OW36583   9.003   7.097  11.875
45520SOL    HW136584   8.946   7.081  11.956
45520SOL    HW236585   8.944   7.107  11.795
45521SOL     OW36586   8.583   6.289  11.889
45521SOL    HW136587   8.640   6.367  11.864
45521SOL    HW236588   8.523   6.315  11.965
45522SOL     OW36589   9.203   6.193  11.403
45522SOL    HW136590   9.191   6.180  11.304
45522SOL    HW236591   9.173   6.112  11.452
45523SOL     OW36592   8.216   6.730  12.195
45523SOL    HW136593   8.138   6.747  12.255
45523SOL    HW236594   8.250   6.817  12.159
45524SOL     OW36595   8.133   6.598  11.837
45524SOL    HW136596   8.202   6.582  11.907
45524SOL    HW236597   8.060   6.655  11.875
45525SOL     OW36598   7.783   7.021  12.233
45525SOL    HW136599   7.705   6.990  12.180
45525SOL    HW236600   7.841   7.079  12.176
45526SOL     OW36601   8.908   7.091  12.511
45526SOL    HW136602   8.932   7.185  12.537
45526SOL    HW236603   8.892   7.037  12.593
45527SOL     OW36604   7.886   5.978  12.671
45527SOL    HW136605   7.968   5.922  12.680
45527SOL    HW236606   7.805   5.920  12.675
45528SOL     OW36607   9.051   6.033  11.909
45528SOL    HW136608   8.977   6.079  11.859
45528SOL    HW236609   9.102   6.101  11.962
45529SOL     OW36610   7.679   7.299  11.655
45529SOL    HW136611   7.713   7.376  11.709
45529SOL    HW236612   7.723   7.299  11.565
45530SOL     OW36613   7.678   7.020  11.710
45530SOL    HW136614   7.652   7.116  11.710
45530SOL    HW236615   7.607   6.966  11.755
45531SOL     OW36616   7.688   6.677  12.058
45531SOL    HW136617   7.702   6.593  12.110
45531SOL    HW236618   7.633   6.741  12.113
45532SOL     OW36619   8.068   7.372  12.611
45532SOL    HW136620   7.976   7.355  12.646
45532SOL    HW236621   8.096   7.464  12.637
45533SOL     OW36622   8.054   6.550  11.295
45533SOL    HW136623   8.061   6.634  11.241
45533SOL    HW236624   8.100   6.563  11.383
45534SOL     OW36625   9.042   5.700  12.652
45534SOL    HW136626   9.024   5.767  12.580
45534SOL    HW236627   9.039   5.746  12.741
45535SOL     OW36628   7.570   6.229  11.735
45535SOL    HW136629   7.525   6.141  11.752
45535SOL    HW236630   7.569   6.283  11.819
45536SOL     OW36631   9.290   7.353  11.531
45536SOL    HW136632   9.344   7.324  11.611
45536SOL    HW236633   9.320   7.443  11.502
45537SOL     OW36634   7.475   7.182  11.289
45537SOL    HW136635   7.456   7.086  11.310
45537SOL    HW236636   7.442   7.240  11.364
45538SOL     OW36637   9.137   6.508  11.784
45538SOL    HW136638   9.232   6.479  11.792
45538SOL    HW236639   9.129   6.573  11.709
45539SOL     OW36640   9.089   6.694  11.604
45539SOL    HW136641   9.175   6.696  11.552
45539SOL    HW236642   9.103   6.741  11.692
45540SOL     OW36643   7.561   6.323  12.769
45540SOL    HW136644   7.649   6.310  12.814
45540SOL    HW236645   7.548   6.420  12.747
45541SOL     OW36646   8.061   6.951  11.898
45541SOL    HW136647   8.012   6.864  11.907
45541SOL    HW236648   8.038   6.994  11.811
45542SOL     OW36649   8.741   6.814  12.595
45542SOL    HW136650   8.778   6.741  12.537
45542SOL    HW236651   8.793   6.819  12.680
45543SOL     OW36652   8.257   5.590  11.674
45543SOL    HW136653   8.297   5.681  11.665
45543SOL    HW236654   8.157   5.598  11.680
45544SOL     OW36655   7.645   6.562  12.436
45544SOL    HW136656   7.734   6.517  12.422
45544SOL    HW236657   7.572   6.497  12.417
45545SOL     OW36658   8.973   6.585  11.362
45545SOL    HW136659   8.910   6.509  11.375
45545SOL    HW236660   9.021   6.603  11.448
45546SOL     OW36661   8.914   7.003  12.125
45546SOL    HW136662   8.855   7.009  12.205
45546SOL    HW236663   8.899   6.915  12.079
45547SOL     OW36664   9.115   7.300  11.744
45547SOL    HW136665   9.074   7.277  11.656
45547SOL    HW236666   9.097   7.226  11.809
45548SOL     OW36667   8.046   6.315  11.442
45548SOL    HW136668   8.070   6.384  11.374
45548SOL    HW236669   7.968   6.348  11.496
45549SOL     OW36670   8.729   5.931  12.116
45549SOL    HW136671   8.643   5.881  12.103
45549SOL    HW236672   8.791   5.877  12.172
45550SOL     OW36673   9.024   7.248  11.479
45550SOL    HW136674   9.113   7.294  11.482
45550SOL    HW236675   9.003   7.224  11.384
45551SOL     OW36676   8.255   6.191  12.637
45551SOL    HW136677   8.208   6.188  12.726
45551SOL    HW236678   8.204   6.136  12.571
45552SOL     OW36679   8.421   6.476  12.744
45552SOL    HW136680   8.467   6.392  12.715
45552SOL    HW236681   8.365   6.510  12.669
45553SOL     OW36682   8.439   5.996  12.414
45553SOL    HW136683   8.362   6.030  12.468
45553SOL    HW236684   8.405   5.945  12.335
45554SOL     OW36685   8.489   6.287  11.601
45554SOL    HW136686   8.515   6.283  11.697
45554SOL    HW236687   8.404   6.236  11.587
45555SOL     OW36688   7.524   6.397  11.961
45555SOL    HW136689   7.623   6.385  11.970
45555SOL    HW236690   7.500   6.492  11.982
45556SOL     OW36691   7.578   7.407  12.743
45556SOL    HW136692   7.568   7.392  12.842
45556SOL    HW236693   7.492   7.443  12.707
45557SOL     OW36694   8.313   5.934  11.367
45557SOL    HW136695   8.372   5.997  11.318
45557SOL    HW236696   8.332   5.840  11.338
45558SOL     OW36697   8.810   6.730  11.717
45558SOL    HW136698   8.893   6.701  11.669
45558SOL    HW236699   8.761   6.797  11.661
45559SOL     OW36700   7.998   5.782  12.057
45559SOL    HW136701   7.993   5.777  12.157
45559SOL    HW236702   8.000   5.878  12.028
45560SOL     OW36703   8.456   7.042  11.649
45560SOL    HW136704   8.410   7.114  11.597
45560SOL    HW236705   8.452   7.062  11.747
45561SOL     OW36706   7.799   7.387  12.025
45561SOL    HW136707   7.849   7.301  12.031
45561SOL    HW236708   7.864   7.464  12.022
45562SOL     OW36709   9.243   6.652  12.045
45562SOL    HW136710   9.181   6.637  11.969
45562SOL    HW236711   9.191   6.663  12.130
45563SOL     OW36712   8.675   7.136  12.678
45563SOL    HW136713   8.681   7.059  12.742
45563SOL    HW236714   8.623   7.110  12.598
45564SOL     OW36715   7.769   6.529  11.414
45564SOL    HW136716   7.851   6.568  11.372
45564SOL    HW236717   7.742   6.447  11.365
45565SOL     OW36718   8.906   6.321  11.900
45565SOL    HW136719   8.901   6.256  11.975
45565SOL    HW236720   8.986   6.380  11.913
45566SOL     OW36721   8.559   7.362  11.409
45566SOL    HW136722   8.499   7.300  11.459
45566SOL    HW236723   8.590   7.318  11.324
45567SOL     OW36724   7.650   5.871  12.670
45567SOL    HW136725   7.570   5.931  12.657
45567SOL    HW236726   7.640   5.822  12.756
45568SOL     OW36727   9.080   6.963  11.253
45568SOL    HW136728   9.048   7.057  11.243
45568SOL    HW236729   9.004   6.900  11.241
45569SOL     OW36730   7.912   7.329  11.495
45569SOL    HW136731   7.945   7.368  11.581
45569SOL    HW236732   7.988   7.322  11.430
45570SOL     OW36733   8.848   5.693  11.598
45570SOL    HW136734   8.824   5.656  11.508
45570SOL    HW236735   8.947   5.709  11.602
45571SOL     OW36736   7.697   7.371  12.413
45571SOL    HW136737   7.754   7.306  12.463
45571SOL    HW236738   7.681   7.338  12.320
45572SOL     OW36739   8.388   7.284  12.076
45572SOL    HW136740   8.468   7.227  12.097
45572SOL    HW236741   8.339   7.244  11.999
45573SOL     OW36742   7.830   6.286  11.652
45573SOL    HW136743   7.875   6.196  11.649
45573SOL    HW236744   7.736   6.275  11.685
45574SOL     OW36745   8.062   5.708  11.289
45574SOL    HW136746   8.160   5.686  11.296
45574SOL    HW236747   8.031   5.691  11.196
45575SOL     OW36748   8.336   7.100  12.367
45575SOL    HW136749   8.313   7.075  12.273
45575SOL    HW236750   8.397   7.031  12.406
45576SOL     OW36751   8.799   6.176  12.605
45576SOL    HW136752   8.827   6.133  12.690
45576SOL    HW236753   8.824   6.272  12.606
45577SOL     OW36754   8.251   6.988  12.096
45577SOL    HW136755   8.341   7.002  12.054
45577SOL    HW236756   8.180   6.990  12.025
45578SOL     OW36757   8.370   6.089  12.071
45578SOL    HW136758   8.345   6.080  11.975
45578SOL    HW236759   8.418   6.007  12.102
45579SOL     OW36760   7.987   5.650  11.684
45579SOL    HW136761   7.906   5.651  11.742
45579SOL    HW236762   7.990   5.733  11.629
45580SOL     OW36763   8.882   6.774  11.213
45580SOL    HW136764   8.914   6.698  11.270
45580SOL    HW236765   8.790   6.801  11.243
45581SOL     OW36766   7.745   5.621  11.343
45581SOL    HW136767   7.794   5.705  11.322
45581SOL    HW236768   7.807   5.556  11.388
45582SOL     OW36769   8.383   5.822  11.652
45582SOL    HW136770   8.335   5.863  11.574
45582SOL    HW236771   8.482   5.820  11.633
45583SOL     OW36772   8.524   6.269  12.636
45583SOL    HW136773   8.444   6.208  12.639
45583SOL    HW236774   8.605   6.216  12.612
45584SOL     OW36775   8.675   7.156  11.965
45584SOL    HW136776   8.696   7.230  11.900
45584SOL    HW236777   8.743   7.156  12.038
45585SOL     OW36778   7.907   6.738  11.913
45585SOL    HW136779   7.836   6.711  11.978
45585SOL    HW236780   7.881   6.710  11.820
45586SOL     OW36781   8.719   7.383  11.763
45586SOL    HW136782   8.763   7.447  11.699
45586SOL    HW236783   8.669   7.435  11.833
45587SOL     OW36784   8.480   6.135  11.188
45587SOL    HW136785   8.439   6.217  11.149
45587SOL    HW236786   8.544   6.161  11.261
45588SOL     OW36787   7.526   6.142  12.558
45588SOL    HW136788   7.618   6.141  12.517
45588SOL    HW236789   7.520   6.216  12.625
45589SOL     OW36790   8.009   5.808  12.319
45589SOL    HW136791   8.047   5.724  12.356
45589SOL    HW236792   7.921   5.827  12.363
45590SOL     OW36793   8.314   6.040  11.814
45590SOL    HW136794   8.282   6.112  11.752
45590SOL    HW236795   8.338   5.959  11.761
45591SOL     OW36796   8.465   5.625  11.925
45591SOL    HW136797   8.393   5.630  11.856
45591SOL    HW236798   8.441   5.556  11.994
45592SOL     OW36799   8.877   6.759  12.039
45592SOL    HW136800   8.822   6.675  12.032
45592SOL    HW236801   8.903   6.788  11.947
45593SOL     OW36802   8.914   6.176  12.164
45593SOL    HW136803   8.884   6.081  12.171
45593SOL    HW236804   8.987   6.192  12.230
45594SOL     OW36805   9.305   6.419  11.549
45594SOL    HW136806   9.347   6.355  11.613
45594SOL    HW236807   9.267   6.368  11.471
45595SOL     OW36808   7.936   6.971  11.346
45595SOL    HW136809   7.849   6.956  11.393
45595SOL    HW236810   7.919   6.997  11.251
45596SOL     OW36811   9.112   6.866  11.829
45596SOL    HW136812   9.211   6.874  11.843
45596SOL    HW236813   9.067   6.950  11.860
45597SOL     OW36814   8.838   6.161  11.250
45597SOL    HW136815   8.784   6.140  11.331
45597SOL    HW236816   8.929   6.120  11.259
45598SOL     OW36817   7.975   5.842  11.500
45598SOL    HW136818   8.002   5.783  11.425
45598SOL    HW236819   7.975   5.937  11.469
45599SOL     OW36820   9.202   6.809  12.760
45599SOL    HW136821   9.293   6.770  12.747
45599SOL    HW236822   9.210   6.905  12.784
45600SOL     OW36823   8.512   6.933  12.512
45600SOL    HW136824   8.432   6.910  12.567
45600SOL    HW236825   8.595   6.907  12.561
45601SOL     OW36826   8.559   6.781  12.272
45601SOL    HW136827   8.519   6.825  12.353
45601SOL    HW236828   8.518   6.818  12.189
45602SOL     OW36829   9.086   6.685  12.251
45602SOL    HW136830   9.091   6.766  12.310
45602SOL    HW236831   9.000   6.687  12.200
45603SOL     OW36832   8.363   5.675  12.574
45603SOL    HW136833   8.388   5.655  12.479
45603SOL    HW236834   8.435   5.731  12.616
45604SOL     OW36835   8.153   6.636  11.540
45604SOL    HW136836   8.139   6.643  11.639
45604SOL    HW236837   8.237   6.585  11.522
45605SOL     OW36838   7.858   6.399  12.423
45605SOL    HW136839   7.944   6.411  12.473
45605SOL    HW236840   7.816   6.312  12.450
45606SOL     OW36841   8.722   5.972  12.434
45606SOL    HW136842   8.743   6.046  12.498
45606SOL    HW236843   8.633   5.989  12.391
45607SOL     OW36844   7.512   7.150  12.503
45607SOL    HW136845   7.466   7.232  12.469
45607SOL    HW236846   7.610   7.169  12.512
45608SOL     OW36847   7.815   6.686  11.673
45608SOL    HW136848   7.808   6.769  11.617
45608SOL    HW236849   7.819   6.606  11.613
45609SOL     OW36850   8.014   6.123  12.037
45609SOL    HW136851   8.026   6.189  11.963
45609SOL    HW236852   8.060   6.157  12.120
45610SOL     OW36853   8.700   6.934  11.560
45610SOL    HW136854   8.750   7.011  11.600
45610SOL    HW236855   8.605   6.936  11.592
45611SOL     OW36856   8.720   7.031  12.314
45611SOL    HW136857   8.767   7.044  12.401
45611SOL    HW236858   8.654   6.957  12.323
45612SOL     OW36859   9.030   6.225  11.644
45612SOL    HW136860   8.999   6.286  11.717
45612SOL    HW236861   9.080   6.277  11.575
45613SOL     OW36862   7.802   7.096  12.501
45613SOL    HW136863   7.781   7.052  12.414
45613SOL    HW236864   7.899   7.122  12.504
45614SOL     OW36865   7.850   6.337  12.770
45614SOL    HW136866   7.918   6.392  12.723
45614SOL    HW236867   7.890   6.249  12.797
45615SOL     OW36868   9.035   6.365  12.842
45615SOL    HW136869   8.943   6.403  12.837
45615SOL    HW236870   9.095   6.412  12.777
45616SOL     OW36871   8.021   6.456  12.201
45616SOL    HW136872   8.065   6.545  12.192
45616SOL    HW236873   7.958   6.456  12.278
45617SOL     OW36874   8.808   6.448  12.217
45617SOL    HW136875   8.733   6.448  12.151
45617SOL    HW236876   8.845   6.356  12.226
45618SOL     OW36877   8.657   6.111  11.447
45618SOL    HW136878   8.670   6.027  11.501
45618SOL    HW236879   8.628   6.185  11.507
45619SOL     OW36880   7.755   5.799  12.403
45619SOL    HW136881   7.732   5.836  12.493
45619SOL    HW236882   7.725   5.704  12.397
45620SOL     OW36883   7.485   6.896  12.454
45620SOL    HW136884   7.538   6.847  12.522
45620SOL    HW236885   7.507   6.994  12.459
45621SOL     OW36886   8.180   6.220  12.236
45621SOL    HW136887   8.239   6.194  12.160
45621SOL    HW236888   8.152   6.316  12.225
45622SOL     OW36889   7.755   5.649  11.790
45622SOL    HW136890   7.744   5.743  11.823
45622SOL    HW236891   7.750   5.586  11.867
45623SOL     OW36892   9.070   5.953  11.546
45623SOL    HW136893   9.072   5.877  11.610
45623SOL    HW236894   9.022   6.030  11.586
45624SOL     OW36895   8.471   6.352  12.138
45624SOL    HW136896   8.486   6.373  12.234
45624SOL    HW236897   8.441   6.257  12.129
45625SOL     OW36898   8.988   5.860  11.297
45625SOL    HW136899   8.927   5.785  11.320
45625SOL    HW236900   9.010   5.912  11.380
45626SOL     OW36901   8.751   6.424  11.214
45626SOL    HW136902   8.785   6.331  11.229
45626SOL    HW236903   8.769   6.451  11.119
45627SOL     OW36904   8.516   6.919  12.021
45627SOL    HW136905   8.523   6.835  11.966
45627SOL    HW236906   8.578   6.988  11.985
45628SOL     OW36907   7.767   6.396  12.121
45628SOL    HW136908   7.860   6.432  12.126
45628SOL    HW236909   7.761   6.311  12.173
45629SOL     OW36910   7.787   6.095  12.178
45629SOL    HW136911   7.735   6.012  12.161
45629SOL    HW236912   7.864   6.100  12.114
45630SOL     OW36913   8.608   5.793  12.649
45630SOL    HW136914   8.608   5.857  12.726
45630SOL    HW236915   8.636   5.841  12.566
45631SOL     OW36916   7.456   6.912  11.372
45631SOL    HW136917   7.363   6.933  11.341
45631SOL    HW236918   7.466   6.813  11.385
45632SOL     OW36919   7.536   7.387  12.099
45632SOL    HW136920   7.494   7.301  12.072
45632SOL    HW236921   7.630   7.390  12.065
45633SOL     OW36922   7.952   7.154  12.082
45633SOL    HW136923   8.018   7.228  12.091
45633SOL    HW236924   7.996   7.075  12.040
45634SOL     OW36925   8.450   6.382  12.410
45634SOL    HW136926   8.491   6.350  12.496
45634SOL    HW236927   8.354   6.355  12.407
45635SOL     OW36928   7.488   6.130  12.286
45635SOL    HW136929   7.573   6.097  12.245
45635SOL    HW236930   7.501   6.145  12.384
45636SOL     OW36931   8.263   6.158  11.497
45636SOL    HW136932   8.270   6.069  11.451
45636SOL    HW236933   8.169   6.192  11.489
45637SOL     OW36934   9.105   6.190  12.378
45637SOL    HW136935   9.067   6.121  12.440
45637SOL    HW236936   9.187   6.154  12.334
45638SOL     OW36937   7.700   7.150  12.916
45638SOL    HW136938   7.670   7.207  12.992
45638SOL    HW236939   7.693   7.053  12.942
45639SOL     OW36940   8.119   6.050  12.441
45639SOL    HW136941   8.085   5.961  12.411
45639SOL    HW236942   8.145   6.104  12.361
45640SOL     OW36943   8.378   7.264  12.637
45640SOL    HW136944   8.354   7.246  12.542
45640SOL    HW236945   8.408   7.358  12.647
45641SOL     OW36946   7.921   6.086  11.363
45641SOL    HW136947   7.982   6.166  11.367
45641SOL    HW236948   7.826   6.117  11.370
45642SOL     OW36949   7.607   6.723  12.638
45642SOL    HW136950   7.629   6.662  12.714
45642SOL    HW236951   7.617   6.674  12.552
45643SOL     OW36952   8.795   6.645  12.406
45643SOL    HW136953   8.819   6.582  12.332
45643SOL    HW236954   8.705   6.685  12.388
45644SOL     OW36955   8.750   6.441  11.481
45644SOL    HW136956   8.664   6.410  11.523
45644SOL    HW236957   8.746   6.427  11.382
45645SOL     OW36958   9.207   7.333  12.326
45645SOL    HW136959   9.268   7.363  12.253
45645SOL    HW236960   9.169   7.244  12.304
45646SOL     OW36961   8.700   7.317  12.300
45646SOL    HW136962   8.784   7.322  12.246
45646SOL    HW236963   8.677   7.221  12.318
45647SOL     OW36964   7.531   6.844  12.194
45647SOL    HW136965   7.526   6.843  12.294
45647SOL    HW236966   7.448   6.803  12.156
45648SOL     OW36967   9.174   5.721  11.695
45648SOL    HW136968   9.247   5.704  11.628
45648SOL    HW236969   9.143   5.634  11.733
45649SOL     OW36970   8.836   7.159  11.649
45649SOL    HW136971   8.903   7.171  11.575
45649SOL    HW236972   8.796   7.248  11.672
45650SOL     OW36973   8.728   6.513  11.844
45650SOL    HW136974   8.788   6.432  11.846
45650SOL    HW236975   8.768   6.582  11.784
45651SOL     OW36976   8.120   7.202  11.326
45651SOL    HW136977   8.129   7.212  11.227
45651SOL    HW236978   8.080   7.113  11.347
45652SOL     OW36979   9.098   7.306  12.566
45652SOL    HW136980   9.151   7.316  12.482
45652SOL    HW236981   9.071   7.396  12.600
45653SOL     OW36982   9.289   5.761  12.135
45653SOL    HW136983   9.328   5.676  12.099
45653SOL    HW236984   9.191   5.763  12.116
45654SOL     OW36985   7.711   5.912  11.892
45654SOL    HW136986   7.632   5.963  11.858
45654SOL    HW236987   7.702   5.897  11.990
45655SOL     OW36988   8.642   7.198  11.203
45655SOL    HW136989   8.648   7.105  11.240
45655SOL    HW236990   8.583   7.198  11.123
45656SOL     OW36991   8.270   6.588  12.544
45656SOL    HW136992   8.310   6.587  12.452
45656SOL    HW236993   8.280   6.680  12.584
45657SOL     OW36994   8.364   6.496  11.463
45657SOL    HW136995   8.427   6.534  11.395
45657SOL    HW236996   8.404   6.413  11.502
45658SOL     OW36997   8.952   7.193  11.216
45658SOL    HW136998   8.860   7.230  11.223
45658SOL    HW236999   8.990   7.213  11.126
45659SOL     OW37000   7.820   6.874  12.662
45659SOL    HW137001   7.807   6.967  12.628
45659SOL    HW237002   7.736   6.822  12.649
45660SOL     OW37003   9.062   6.878  12.461
45660SOL    HW137004   9.122   6.881  12.541
45660SOL    HW237005   8.987   6.942  12.474
45661SOL     OW37006   8.487   6.684  11.868
45661SOL    HW137007   8.417   6.637  11.922
45661SOL    HW237008   8.546   6.616  11.825
45662SOL     OW37009   8.462   5.822  12.143
45662SOL    HW137010   8.454   5.786  12.050
45662SOL    HW237011   8.460   5.746  12.208
45663SOL     OW37012   8.038   7.073  11.663
45663SOL    HW137013   8.080   7.015  11.593
45663SOL    HW237014   7.994   7.152  11.619
45664SOL     OW37015   9.157   5.971  12.553
45664SOL    HW137016   9.230   6.040  12.557
45664SOL    HW237017   9.185   5.896  12.494
45665SOL     OW37018   7.703   6.934  11.462
45665SOL    HW137019   7.607   6.935  11.435
45665SOL    HW237020   7.715   6.987  11.546
45666SOL     OW37021   7.553   6.599  12.898
45666SOL    HW137022   7.476   6.566  12.952
45666SOL    HW237023   7.638   6.569  12.940
45667SOL     OW37024   8.120   5.789  12.661
45667SOL    HW137025   8.210   5.773  12.621
45667SOL    HW237026   8.128   5.794  12.760
45668SOL     OW37027   7.523   5.931  11.205
45668SOL    HW137028   7.431   5.903  11.176
45668SOL    HW237029   7.554   6.008  11.149
45669SOL     OW37030   8.888   6.442  12.570
45669SOL    HW137031   8.831   6.494  12.507
45669SOL    HW237032   8.984   6.454  12.546
45670SOL     OW37033   7.520   5.752  11.490
45670SOL    HW137034   7.503   5.835  11.436
45670SOL    HW237035   7.610   5.715  11.468
45671SOL     OW37036   8.631   6.921  11.291
45671SOL    HW137037   8.532   6.910  11.293
45671SOL    HW237038   8.665   6.936  11.384
45672SOL     OW37039   8.061   6.428  12.603
45672SOL    HW137040   8.117   6.509  12.586
45672SOL    HW237041   8.120   6.348  12.606
45673SOL     OW37042   8.941   7.353  12.131
45673SOL    HW137043   8.974   7.417  12.062
45673SOL    HW237044   9.007   7.347  12.206
45674SOL     OW37045   8.164   6.151  12.880
45674SOL    HW137046   8.183   6.216  12.954
45674SOL    HW237047   8.224   6.071  12.889
45675SOL     OW37048   7.838   7.327  12.732
45675SOL    HW137049   7.747   7.368  12.730
45675SOL    HW237050   7.831   7.233  12.764
45676SOL     OW37051   9.122   6.469  12.426
45676SOL    HW137052   9.095   6.380  12.389
45676SOL    HW237053   9.123   6.537  12.353
45677SOL     OW37054   8.673   5.911  11.621
45677SOL    HW137055   8.738   5.837  11.610
45677SOL    HW237056   8.693   5.961  11.705
45678SOL     OW37057   8.042   6.331  11.824
45678SOL    HW137058   8.092   6.416  11.805
45678SOL    HW237059   7.954   6.333  11.776
45679SOL     OW37060   9.225   5.928  12.814
45679SOL    HW137061   9.208   5.959  12.720
45679SOL    HW237062   9.141   5.891  12.852
45680SOL     OW37063   9.178   6.520  12.689
45680SOL    HW137064   9.216   6.611  12.704
45680SOL    HW237065   9.170   6.503  12.590
45681SOL     OW37066   8.307   6.960  11.188
45681SOL    HW137067   8.261   6.975  11.276
45681SOL    HW237068   8.351   7.045  11.158
45682SOL     OW37069   8.109   7.376  12.125
45682SOL    HW137070   8.063   7.464  12.112
45682SOL    HW237071   8.208   7.388  12.118
45683SOL     OW37072   8.307   6.542  12.033
45683SOL    HW137073   8.361   6.473  12.081
45683SOL    HW237074   8.275   6.611  12.099
45684SOL     OW37075   8.531   6.570  11.259
45684SOL    HW137076   8.508   6.623  11.177
45684SOL    HW237077   8.612   6.514  11.240
45685SOL     OW37078   9.309   7.155  12.023
45685SOL    HW137079   9.238   7.143  11.953
45685SOL    HW237080   9.310   7.076  12.083
45686SOL     OW37081   7.527   6.826  11.825
45686SOL    HW137082   7.526   6.779  11.913
45686SOL    HW237083   7.609   6.798  11.774
45687SOL     OW37084   8.120   6.977  12.796
45687SOL    HW137085   8.042   6.927  12.834
45687SOL    HW237086   8.117   7.072  12.827
45688SOL     OW37087   9.272   5.778  12.399
45688SOL    HW137088   9.268   5.688  12.443
45688SOL    HW237089   9.275   5.767  12.300
45689SOL     OW37090   7.876   6.010  11.692
45689SOL    HW137091   7.906   5.938  11.630
45689SOL    HW237092   7.837   5.970  11.775
45690SOL     OW37093   9.153   7.073  12.276
45690SOL    HW137094   9.060   7.048  12.249
45690SOL    HW237095   9.179   7.023  12.358
45691SOL     OW37096   7.765   6.133  12.452
45691SOL    HW137097   7.803   6.074  12.524
45691SOL    HW237098   7.805   6.107  12.364
45692SOL     OW37099   8.260   7.172  11.859
45692SOL    HW137100   8.292   7.182  11.765
45692SOL    HW237101   8.181   7.110  11.861
45693SOL     OW37102   8.872   5.800  12.284
45693SOL    HW137103   8.924   5.735  12.339
45693SOL    HW237104   8.823   5.863  12.345
45694SOL     OW37105   8.449   5.620  12.326
45694SOL    HW137106   8.386   5.548  12.295
45694SOL    HW237107   8.542   5.584  12.326
45695SOL     OW37108   8.218   6.916  11.473
45695SOL    HW137109   8.172   6.829  11.490
45695SOL    HW237110   8.309   6.913  11.514
45696SOL     OW37111   8.066   7.153  12.456
45696SOL    HW137112   8.061   7.235  12.513
45696SOL    HW237113   8.155   7.150  12.411
45697SOL     OW37114   8.800   5.638  11.340
45697SOL    HW137115   8.835   5.597  11.256
45697SOL    HW237116   8.710   5.600  11.360
45698SOL     OW37117   8.748   6.039  11.863
45698SOL    HW137118   8.689   6.119  11.867
45698SOL    HW237119   8.763   6.004  11.956
45699SOL     OW37120   9.041   5.807  12.054
45699SOL    HW137121   8.957   5.806  12.108
45699SOL    HW237122   9.043   5.890  11.998
45700SOL     OW37123   7.487   6.663  11.472
45700SOL    HW137124   7.586   6.652  11.463
45700SOL    HW237125   7.447   6.577  11.504
45701SOL     OW37126   8.323   7.232  11.509
45701SOL    HW137127   8.246   7.197  11.455
45701SOL    HW237128   8.291   7.303  11.571
45702SOL     OW37129   7.678   8.076   0.113
45702SOL    HW137130   7.585   8.074   0.150
45702SOL    HW237131   7.679   8.037   0.021
45703SOL     OW37132   7.673   7.723   0.996
45703SOL    HW137133   7.708   7.706   1.088
45703SOL    HW237134   7.585   7.678   0.984
45704SOL     OW37135   7.467   7.816   0.647
45704SOL    HW137136   7.385   7.859   0.686
45704SOL    HW237137   7.439   7.743   0.584
45705SOL     OW37138   8.017   8.723   1.165
45705SOL    HW137139   7.924   8.716   1.128
45705SOL    HW237140   8.028   8.812   1.209
45706SOL     OW37141   9.003   8.959   0.703
45706SOL    HW137142   8.946   8.943   0.784
45706SOL    HW237143   8.944   8.969   0.623
45707SOL     OW37144   8.583   8.151   0.717
45707SOL    HW137145   8.640   8.229   0.692
45707SOL    HW237146   8.523   8.177   0.793
45708SOL     OW37147   9.203   8.055   0.231
45708SOL    HW137148   9.191   8.042   0.132
45708SOL    HW237149   9.173   7.974   0.280
45709SOL     OW37150   8.216   8.592   1.023
45709SOL    HW137151   8.138   8.609   1.083
45709SOL    HW237152   8.250   8.679   0.987
45710SOL     OW37153   8.298   8.246   1.823
45710SOL    HW137154   8.294   8.322   1.888
45710SOL    HW237155   8.320   8.282   1.732
45711SOL     OW37156   8.133   8.460   0.665
45711SOL    HW137157   8.202   8.444   0.735
45711SOL    HW237158   8.060   8.517   0.703
45712SOL     OW37159   8.134   8.609   1.803
45712SOL    HW137160   8.194   8.688   1.817
45712SOL    HW237161   8.048   8.640   1.762
45713SOL     OW37162   7.783   8.883   1.061
45713SOL    HW137163   7.705   8.852   1.008
45713SOL    HW237164   7.841   8.941   1.004
45714SOL     OW37165   8.908   8.953   1.339
45714SOL    HW137166   8.932   9.047   1.365
45714SOL    HW237167   8.892   8.899   1.421
45715SOL     OW37168   7.886   7.840   1.499
45715SOL    HW137169   7.968   7.784   1.508
45715SOL    HW237170   7.805   7.782   1.503
45716SOL     OW37171   9.051   7.895   0.737
45716SOL    HW137172   8.977   7.941   0.687
45716SOL    HW237173   9.102   7.963   0.790
45717SOL     OW37174   7.679   9.161   0.483
45717SOL    HW137175   7.713   9.238   0.537
45717SOL    HW237176   7.723   9.161   0.393
45718SOL     OW37177   8.575   8.789   1.690
45718SOL    HW137178   8.622   8.789   1.778
45718SOL    HW237179   8.527   8.702   1.679
45719SOL     OW37180   7.678   8.882   0.538
45719SOL    HW137181   7.652   8.978   0.538
45719SOL    HW237182   7.607   8.828   0.583
45720SOL     OW37183   7.688   8.539   0.886
45720SOL    HW137184   7.702   8.455   0.938
45720SOL    HW237185   7.633   8.603   0.941
45721SOL     OW37186   8.068   9.234   1.439
45721SOL    HW137187   7.976   9.217   1.474
45721SOL    HW237188   8.096   9.326   1.465
45722SOL     OW37189   8.054   8.412   0.123
45722SOL    HW137190   8.061   8.496   0.069
45722SOL    HW237191   8.100   8.425   0.211
45723SOL     OW37192   9.042   7.562   1.480
45723SOL    HW137193   9.024   7.629   1.408
45723SOL    HW237194   9.039   7.608   1.569
45724SOL     OW37195   7.570   8.091   0.563
45724SOL    HW137196   7.525   8.003   0.580
45724SOL    HW237197   7.569   8.145   0.647
45725SOL     OW37198   9.290   9.215   0.359
45725SOL    HW137199   9.344   9.186   0.439
45725SOL    HW237200   9.320   9.305   0.330
45726SOL     OW37201   7.475   9.044   0.117
45726SOL    HW137202   7.456   8.948   0.138
45726SOL    HW237203   7.442   9.102   0.192
45727SOL     OW37204   9.137   8.370   0.612
45727SOL    HW137205   9.232   8.341   0.620
45727SOL    HW237206   9.129   8.435   0.537
45728SOL     OW37207   9.089   8.556   0.432
45728SOL    HW137208   9.175   8.558   0.380
45728SOL    HW237209   9.103   8.603   0.520
45729SOL     OW37210   7.561   8.185   1.597
45729SOL    HW137211   7.649   8.172   1.642
45729SOL    HW237212   7.548   8.282   1.575
45730SOL     OW37213   8.061   8.813   0.726
45730SOL    HW137214   8.012   8.726   0.735
45730SOL    HW237215   8.038   8.856   0.639
45731SOL     OW37216   8.741   8.676   1.423
45731SOL    HW137217   8.778   8.603   1.365
45731SOL    HW237218   8.793   8.681   1.508
45732SOL     OW37219   8.257   7.452   0.502
45732SOL    HW137220   8.297   7.543   0.493
45732SOL    HW237221   8.157   7.460   0.508
45733SOL     OW37222   7.645   8.424   1.264
45733SOL    HW137223   7.734   8.379   1.250
45733SOL    HW237224   7.572   8.359   1.245
45734SOL     OW37225   8.973   8.447   0.190
45734SOL    HW137226   8.910   8.371   0.203
45734SOL    HW237227   9.021   8.465   0.276
45735SOL     OW37228   8.635   9.240   1.616
45735SOL    HW137229   8.659   9.300   1.540
45735SOL    HW237230   8.642   9.145   1.586
45736SOL     OW37231   7.765   7.699   1.801
45736SOL    HW137232   7.836   7.770   1.807
45736SOL    HW237233   7.677   7.738   1.829
45737SOL     OW37234   8.914   8.865   0.953
45737SOL    HW137235   8.855   8.871   1.033
45737SOL    HW237236   8.899   8.777   0.907
45738SOL     OW37237   9.115   9.162   0.572
45738SOL    HW137238   9.074   9.139   0.484
45738SOL    HW237239   9.097   9.088   0.637
45739SOL     OW37240   8.046   8.177   0.270
45739SOL    HW137241   8.070   8.246   0.202
45739SOL    HW237242   7.968   8.210   0.324
45740SOL     OW37243   8.729   7.793   0.944
45740SOL    HW137244   8.643   7.743   0.931
45740SOL    HW237245   8.791   7.739   1.000
45741SOL     OW37246   9.024   9.110   0.307
45741SOL    HW137247   9.113   9.156   0.310
45741SOL    HW237248   9.003   9.086   0.212
45742SOL     OW37249   8.255   8.053   1.465
45742SOL    HW137250   8.208   8.050   1.554
45742SOL    HW237251   8.204   7.998   1.399
45743SOL     OW37252   8.842   7.917   1.674
45743SOL    HW137253   8.822   7.960   1.762
45743SOL    HW237254   8.920   7.855   1.683
45744SOL     OW37255   8.421   8.338   1.572
45744SOL    HW137256   8.467   8.254   1.543
45744SOL    HW237257   8.365   8.372   1.497
45745SOL     OW37258   8.439   7.858   1.242
45745SOL    HW137259   8.362   7.892   1.296
45745SOL    HW237260   8.405   7.807   1.163
45746SOL     OW37261   8.489   8.149   0.429
45746SOL    HW137262   8.515   8.145   0.525
45746SOL    HW237263   8.404   8.098   0.415
45747SOL     OW37264   7.524   8.259   0.789
45747SOL    HW137265   7.623   8.247   0.798
45747SOL    HW237266   7.500   8.354   0.810
45748SOL     OW37267   7.578   9.269   1.571
45748SOL    HW137268   7.568   9.254   1.670
45748SOL    HW237269   7.492   9.305   1.535
45749SOL     OW37270   8.313   7.796   0.195
45749SOL    HW137271   8.372   7.859   0.146
45749SOL    HW237272   8.332   7.702   0.166
45750SOL     OW37273   9.167   8.033   1.831
45750SOL    HW137274   9.141   8.122   1.795
45750SOL    HW237275   9.165   7.965   1.758
45751SOL     OW37276   8.810   8.592   0.545
45751SOL    HW137277   8.893   8.563   0.497
45751SOL    HW237278   8.761   8.659   0.489
45752SOL     OW37279   7.998   7.644   0.885
45752SOL    HW137280   7.993   7.639   0.985
45752SOL    HW237281   8.000   7.740   0.856
45753SOL     OW37282   8.456   8.904   0.477
45753SOL    HW137283   8.410   8.976   0.425
45753SOL    HW237284   8.452   8.924   0.575
45754SOL     OW37285   7.799   9.249   0.853
45754SOL    HW137286   7.849   9.163   0.859
45754SOL    HW237287   7.864   9.326   0.850
45755SOL     OW37288   9.243   8.514   0.873
45755SOL    HW137289   9.181   8.499   0.797
45755SOL    HW237290   9.191   8.525   0.958
45756SOL     OW37291   8.675   8.998   1.506
45756SOL    HW137292   8.681   8.921   1.570
45756SOL    HW237293   8.623   8.972   1.426
45757SOL     OW37294   7.769   8.391   0.242
45757SOL    HW137295   7.851   8.430   0.200
45757SOL    HW237296   7.742   8.309   0.193
45758SOL     OW37297   8.906   8.183   0.728
45758SOL    HW137298   8.901   8.118   0.803
45758SOL    HW237299   8.986   8.242   0.741
45759SOL     OW37300   7.909   8.714   1.727
45759SOL    HW137301   7.859   8.715   1.641
45759SOL    HW237302   7.846   8.696   1.803
45760SOL     OW37303   8.559   9.224   0.237
45760SOL    HW137304   8.499   9.162   0.287
45760SOL    HW237305   8.590   9.180   0.152
45761SOL     OW37306   7.650   7.733   1.498
45761SOL    HW137307   7.570   7.793   1.485
45761SOL    HW237308   7.640   7.684   1.584
45762SOL     OW37309   9.080   8.825   0.081
45762SOL    HW137310   9.048   8.919   0.071
45762SOL    HW237311   9.004   8.762   0.069
45763SOL     OW37312   7.912   9.191   0.323
45763SOL    HW137313   7.945   9.230   0.409
45763SOL    HW237314   7.988   9.184   0.258
45764SOL     OW37315   8.848   7.555   0.426
45764SOL    HW137316   8.824   7.518   0.336
45764SOL    HW237317   8.947   7.571   0.430
45765SOL     OW37318   7.697   9.233   1.241
45765SOL    HW137319   7.754   9.168   1.291
45765SOL    HW237320   7.681   9.200   1.148
45766SOL     OW37321   8.388   9.146   0.904
45766SOL    HW137322   8.468   9.089   0.925
45766SOL    HW237323   8.339   9.106   0.827
45767SOL     OW37324   7.830   8.148   0.480
45767SOL    HW137325   7.875   8.058   0.477
45767SOL    HW237326   7.736   8.137   0.513
45768SOL     OW37327   8.995   7.670   1.729
45768SOL    HW137328   8.990   7.707   1.821
45768SOL    HW237329   8.923   7.601   1.717
45769SOL     OW37330   8.062   7.570   0.117
45769SOL    HW137331   8.160   7.548   0.124
45769SOL    HW237332   8.031   7.553   0.024
45770SOL     OW37333   8.229   7.712   1.749
45770SOL    HW137334   8.296   7.651   1.792
45770SOL    HW237335   8.156   7.731   1.814
45771SOL     OW37336   8.336   8.962   1.195
45771SOL    HW137337   8.313   8.937   1.101
45771SOL    HW237338   8.397   8.893   1.234
45772SOL     OW37339   8.799   8.038   1.433
45772SOL    HW137340   8.827   7.995   1.518
45772SOL    HW237341   8.824   8.134   1.434
45773SOL     OW37342   8.251   8.850   0.924
45773SOL    HW137343   8.341   8.864   0.882
45773SOL    HW237344   8.180   8.852   0.853
45774SOL     OW37345   8.370   7.951   0.899
45774SOL    HW137346   8.345   7.942   0.803
45774SOL    HW237347   8.418   7.869   0.930
45775SOL     OW37348   7.987   7.512   0.512
45775SOL    HW137349   7.906   7.513   0.570
45775SOL    HW237350   7.990   7.595   0.457
45776SOL     OW37351   8.882   8.636   0.041
45776SOL    HW137352   8.914   8.560   0.098
45776SOL    HW237353   8.790   8.663   0.071
45777SOL     OW37354   7.745   7.483   0.171
45777SOL    HW137355   7.794   7.567   0.150
45777SOL    HW237356   7.807   7.418   0.216
45778SOL     OW37357   8.383   7.684   0.480
45778SOL    HW137358   8.335   7.725   0.402
45778SOL    HW237359   8.482   7.682   0.461
45779SOL     OW37360   8.524   8.131   1.464
45779SOL    HW137361   8.444   8.070   1.467
45779SOL    HW237362   8.605   8.078   1.440
45780SOL     OW37363   8.675   9.018   0.793
45780SOL    HW137364   8.696   9.092   0.728
45780SOL    HW237365   8.743   9.018   0.866
45781SOL     OW37366   7.907   8.600   0.741
45781SOL    HW137367   7.836   8.573   0.806
45781SOL    HW237368   7.881   8.572   0.648
45782SOL     OW37369   8.719   9.245   0.591
45782SOL    HW137370   8.763   9.309   0.527
45782SOL    HW237371   8.669   9.297   0.661
45783SOL     OW37372   8.480   7.997   0.016
45783SOL    HW137373   8.439   8.079  -0.023
45783SOL    HW237374   8.544   8.023   0.089
45784SOL     OW37375   7.526   8.004   1.386
45784SOL    HW137376   7.618   8.003   1.345
45784SOL    HW237377   7.520   8.078   1.453
45785SOL     OW37378   8.009   7.670   1.147
45785SOL    HW137379   8.047   7.586   1.184
45785SOL    HW237380   7.921   7.689   1.191
45786SOL     OW37381   8.314   7.902   0.642
45786SOL    HW137382   8.282   7.974   0.580
45786SOL    HW237383   8.338   7.821   0.589
45787SOL     OW37384   8.465   7.487   0.753
45787SOL    HW137385   8.393   7.492   0.684
45787SOL    HW237386   8.441   7.418   0.822
45788SOL     OW37387   8.877   8.621   0.867
45788SOL    HW137388   8.822   8.537   0.860
45788SOL    HW237389   8.903   8.650   0.775
45789SOL     OW37390   8.914   8.038   0.992
45789SOL    HW137391   8.884   7.943   0.999
45789SOL    HW237392   8.987   8.054   1.058
45790SOL     OW37393   9.305   8.281   0.377
45790SOL    HW137394   9.347   8.217   0.441
45790SOL    HW237395   9.267   8.230   0.299
45791SOL     OW37396   7.936   8.833   0.174
45791SOL    HW137397   7.849   8.818   0.221
45791SOL    HW237398   7.919   8.859   0.079
45792SOL     OW37399   9.112   8.728   0.657
45792SOL    HW137400   9.211   8.736   0.671
45792SOL    HW237401   9.067   8.812   0.688
45793SOL     OW37402   8.838   8.023   0.078
45793SOL    HW137403   8.784   8.002   0.159
45793SOL    HW237404   8.929   7.982   0.087
45794SOL     OW37405   7.975   7.704   0.328
45794SOL    HW137406   8.002   7.645   0.253
45794SOL    HW237407   7.975   7.799   0.297
45795SOL     OW37408   9.202   8.671   1.588
45795SOL    HW137409   9.293   8.632   1.575
45795SOL    HW237410   9.210   8.767   1.612
45796SOL     OW37411   8.512   8.795   1.340
45796SOL    HW137412   8.432   8.772   1.395
45796SOL    HW237413   8.595   8.769   1.389
45797SOL     OW37414   9.040   9.077   1.625
45797SOL    HW137415   9.067   9.111   1.535
45797SOL    HW237416   9.119   9.039   1.671
45798SOL     OW37417   8.559   8.643   1.100
45798SOL    HW137418   8.519   8.687   1.181
45798SOL    HW237419   8.518   8.680   1.017
45799SOL     OW37420   9.086   8.547   1.079
45799SOL    HW137421   9.091   8.628   1.138
45799SOL    HW237422   9.000   8.549   1.028
45800SOL     OW37423   8.363   7.537   1.402
45800SOL    HW137424   8.388   7.517   1.307
45800SOL    HW237425   8.435   7.593   1.444
45801SOL     OW37426   8.428   8.564   1.719
45801SOL    HW137427   8.329   8.570   1.729
45801SOL    HW237428   8.451   8.484   1.663
45802SOL     OW37429   8.153   8.498   0.368
45802SOL    HW137430   8.139   8.505   0.467
45802SOL    HW237431   8.237   8.447   0.350
45803SOL     OW37432   7.858   8.261   1.251
45803SOL    HW137433   7.944   8.273   1.301
45803SOL    HW237434   7.816   8.174   1.278
45804SOL     OW37435   8.722   7.834   1.262
45804SOL    HW137436   8.743   7.908   1.326
45804SOL    HW237437   8.633   7.851   1.219
45805SOL     OW37438   7.512   9.012   1.331
45805SOL    HW137439   7.466   9.094   1.297
45805SOL    HW237440   7.610   9.031   1.340
45806SOL     OW37441   7.815   8.548   0.501
45806SOL    HW137442   7.808   8.631   0.445
45806SOL    HW237443   7.819   8.468   0.441
45807SOL     OW37444   8.014   7.985   0.865
45807SOL    HW137445   8.026   8.051   0.791
45807SOL    HW237446   8.060   8.019   0.948
45808SOL     OW37447   8.700   8.796   0.388
45808SOL    HW137448   8.750   8.873   0.428
45808SOL    HW237449   8.605   8.798   0.420
45809SOL     OW37450   8.720   8.893   1.142
45809SOL    HW137451   8.767   8.906   1.229
45809SOL    HW237452   8.654   8.819   1.151
45810SOL     OW37453   9.030   8.087   0.472
45810SOL    HW137454   8.999   8.148   0.545
45810SOL    HW237455   9.080   8.139   0.403
45811SOL     OW37456   7.802   8.958   1.329
45811SOL    HW137457   7.781   8.914   1.242
45811SOL    HW237458   7.899   8.984   1.332
45812SOL     OW37459   7.850   8.199   1.598
45812SOL    HW137460   7.918   8.254   1.551
45812SOL    HW237461   7.890   8.111   1.625
45813SOL     OW37462   9.035   8.227   1.670
45813SOL    HW137463   8.943   8.265   1.665
45813SOL    HW237464   9.095   8.274   1.605
45814SOL     OW37465   8.461   7.553   1.770
45814SOL    HW137466   8.467   7.638   1.718
45814SOL    HW237467   8.493   7.477   1.713
45815SOL     OW37468   7.952   7.498   1.740
45815SOL    HW137469   7.910   7.441   1.670
45815SOL    HW237470   7.886   7.567   1.772
45816SOL     OW37471   8.021   8.318   1.029
45816SOL    HW137472   8.065   8.407   1.020
45816SOL    HW237473   7.958   8.318   1.106
45817SOL     OW37474   8.808   8.310   1.045
45817SOL    HW137475   8.733   8.310   0.979
45817SOL    HW237476   8.845   8.218   1.054
45818SOL     OW37477   8.657   7.973   0.275
45818SOL    HW137478   8.670   7.889   0.329
45818SOL    HW237479   8.628   8.047   0.335
45819SOL     OW37480   7.755   7.661   1.231
45819SOL    HW137481   7.732   7.698   1.321
45819SOL    HW237482   7.725   7.566   1.225
45820SOL     OW37483   7.485   8.758   1.282
45820SOL    HW137484   7.538   8.709   1.350
45820SOL    HW237485   7.507   8.856   1.287
45821SOL     OW37486   8.180   8.082   1.064
45821SOL    HW137487   8.239   8.056   0.988
45821SOL    HW237488   8.152   8.178   1.053
45822SOL     OW37489   9.176   8.383   1.854
45822SOL    HW137490   9.130   8.376   1.765
45822SOL    HW237491   9.114   8.427   1.920
45823SOL     OW37492   7.755   7.511   0.618
45823SOL    HW137493   7.744   7.605   0.651
45823SOL    HW237494   7.750   7.448   0.695
45824SOL     OW37495   9.070   7.815   0.374
45824SOL    HW137496   9.072   7.739   0.438
45824SOL    HW237497   9.022   7.892   0.414
45825SOL     OW37498   8.471   8.214   0.966
45825SOL    HW137499   8.486   8.235   1.062
45825SOL    HW237500   8.441   8.119   0.957
45826SOL     OW37501   8.428   9.021   1.700
45826SOL    HW137502   8.408   9.065   1.612
45826SOL    HW237503   8.467   8.930   1.684
45827SOL     OW37504   9.307   8.966   1.605
45827SOL    HW137505   9.321   8.993   1.510
45827SOL    HW237506   9.390   8.988   1.658
45828SOL     OW37507   7.798   8.346   1.804
45828SOL    HW137508   7.874   8.390   1.852
45828SOL    HW237509   7.833   8.299   1.722
45829SOL     OW37510   8.988   7.722   0.125
45829SOL    HW137511   8.927   7.647   0.148
45829SOL    HW237512   9.010   7.774   0.208
45830SOL     OW37513   8.751   8.286   0.042
45830SOL    HW137514   8.785   8.193   0.057
45830SOL    HW237515   8.769   8.313  -0.053
45831SOL     OW37516   8.516   8.781   0.849
45831SOL    HW137517   8.523   8.697   0.794
45831SOL    HW237518   8.578   8.850   0.813
45832SOL     OW37519   7.767   8.258   0.949
45832SOL    HW137520   7.860   8.294   0.954
45832SOL    HW237521   7.761   8.173   1.001
45833SOL     OW37522   7.787   7.957   1.006
45833SOL    HW137523   7.735   7.874   0.989
45833SOL    HW237524   7.864   7.962   0.942
45834SOL     OW37525   8.586   7.828   1.678
45834SOL    HW137526   8.541   7.891   1.742
45834SOL    HW237527   8.679   7.859   1.661
45835SOL     OW37528   8.608   7.655   1.477
45835SOL    HW137529   8.608   7.719   1.554
45835SOL    HW237530   8.636   7.703   1.394
45836SOL     OW37531   7.456   8.774   0.200
45836SOL    HW137532   7.363   8.795   0.169
45836SOL    HW237533   7.466   8.675   0.213
45837SOL     OW37534   7.536   9.249   0.927
45837SOL    HW137535   7.494   9.163   0.900
45837SOL    HW237536   7.630   9.252   0.893
45838SOL     OW37537   7.952   9.016   0.910
45838SOL    HW137538   8.018   9.090   0.919
45838SOL    HW237539   7.996   8.937   0.868
45839SOL     OW37540   8.450   8.244   1.238
45839SOL    HW137541   8.491   8.212   1.324
45839SOL    HW237542   8.354   8.217   1.235
45840SOL     OW37543   7.488   7.992   1.114
45840SOL    HW137544   7.573   7.959   1.073
45840SOL    HW237545   7.501   8.007   1.212
45841SOL     OW37546   7.637   7.968   1.722
45841SOL    HW137547   7.696   7.928   1.652
45841SOL    HW237548   7.579   8.039   1.681
45842SOL     OW37549   8.817   8.398   1.660
45842SOL    HW137550   8.856   8.487   1.680
45842SOL    HW237551   8.827   8.378   1.563
45843SOL     OW37552   8.263   8.020   0.325
45843SOL    HW137553   8.270   7.931   0.279
45843SOL    HW237554   8.169   8.054   0.317
45844SOL     OW37555   9.105   8.052   1.206
45844SOL    HW137556   9.067   7.983   1.268
45844SOL    HW237557   9.187   8.016   1.162
45845SOL     OW37558   7.700   9.012   1.744
45845SOL    HW137559   7.670   9.069   1.820
45845SOL    HW237560   7.693   8.915   1.770
45846SOL     OW37561   8.119   7.912   1.269
45846SOL    HW137562   8.085   7.823   1.239
45846SOL    HW237563   8.145   7.966   1.189
45847SOL     OW37564   8.378   9.126   1.465
45847SOL    HW137565   8.354   9.108   1.370
45847SOL    HW237566   8.408   9.220   1.475
45848SOL     OW37567   7.921   7.948   0.191
45848SOL    HW137568   7.982   8.028   0.195
45848SOL    HW237569   7.826   7.979   0.198
45849SOL     OW37570   7.607   8.585   1.466
45849SOL    HW137571   7.629   8.524   1.542
45849SOL    HW237572   7.617   8.536   1.380
45850SOL     OW37573   8.795   8.507   1.234
45850SOL    HW137574   8.819   8.444   1.160
45850SOL    HW237575   8.705   8.547   1.216
45851SOL     OW37576   8.750   8.303   0.309
45851SOL    HW137577   8.664   8.272   0.351
45851SOL    HW237578   8.746   8.289   0.210
45852SOL     OW37579   9.207   9.195   1.154
45852SOL    HW137580   9.268   9.225   1.081
45852SOL    HW237581   9.169   9.106   1.132
45853SOL     OW37582   8.700   9.179   1.128
45853SOL    HW137583   8.784   9.184   1.074
45853SOL    HW237584   8.677   9.083   1.146
45854SOL     OW37585   7.531   8.706   1.022
45854SOL    HW137586   7.526   8.705   1.122
45854SOL    HW237587   7.448   8.665   0.984
45855SOL     OW37588   8.136   9.110   1.716
45855SOL    HW137589   8.080   9.191   1.725
45855SOL    HW237590   8.188   9.114   1.630
45856SOL     OW37591   8.351   7.534   0.133
45856SOL    HW137592   8.402   7.535   0.047
45856SOL    HW237593   8.407   7.492   0.204
45857SOL     OW37594   9.174   7.583   0.523
45857SOL    HW137595   9.247   7.566   0.456
45857SOL    HW237596   9.143   7.496   0.561
45858SOL     OW37597   8.836   9.021   0.477
45858SOL    HW137598   8.903   9.033   0.403
45858SOL    HW237599   8.796   9.110   0.500
45859SOL     OW37600   7.578   9.242   1.851
45859SOL    HW137601   7.537   9.168   1.904
45859SOL    HW237602   7.642   9.293   1.909
45860SOL     OW37603   8.728   8.375   0.672
45860SOL    HW137604   8.788   8.294   0.674
45860SOL    HW237605   8.768   8.444   0.612
45861SOL     OW37606   8.278   8.721   1.422
45861SOL    HW137607   8.273   8.754   1.517
45861SOL    HW237608   8.192   8.740   1.376
45862SOL     OW37609   8.120   9.064   0.154
45862SOL    HW137610   8.129   9.074   0.055
45862SOL    HW237611   8.080   8.975   0.175
45863SOL     OW37612   9.098   9.168   1.394
45863SOL    HW137613   9.151   9.178   1.310
45863SOL    HW237614   9.071   9.258   1.428
45864SOL     OW37615   9.289   7.623   0.963
45864SOL    HW137616   9.328   7.538   0.927
45864SOL    HW237617   9.191   7.625   0.944
45865SOL     OW37618   7.711   7.774   0.720
45865SOL    HW137619   7.632   7.825   0.686
45865SOL    HW237620   7.702   7.759   0.818
45866SOL     OW37621   8.642   9.060   0.031
45866SOL    HW137622   8.648   8.967   0.068
45866SOL    HW237623   8.583   9.060  -0.049
45867SOL     OW37624   8.270   8.450   1.372
45867SOL    HW137625   8.310   8.449   1.280
45867SOL    HW237626   8.280   8.542   1.412
45868SOL     OW37627   8.364   8.358   0.291
45868SOL    HW137628   8.427   8.396   0.223
45868SOL    HW237629   8.404   8.275   0.330
45869SOL     OW37630   8.952   9.055   0.044
45869SOL    HW137631   8.860   9.092   0.051
45869SOL    HW237632   8.990   9.075  -0.046
45870SOL     OW37633   7.820   8.736   1.490
45870SOL    HW137634   7.807   8.829   1.456
45870SOL    HW237635   7.736   8.684   1.477
45871SOL     OW37636   9.062   8.740   1.289
45871SOL    HW137637   9.122   8.743   1.369
45871SOL    HW237638   8.987   8.804   1.302
45872SOL     OW37639   8.487   8.546   0.696
45872SOL    HW137640   8.417   8.499   0.750
45872SOL    HW237641   8.546   8.478   0.653
45873SOL     OW37642   8.038   8.935   0.491
45873SOL    HW137643   8.080   8.877   0.421
45873SOL    HW237644   7.994   9.014   0.447
45874SOL     OW37645   9.157   7.833   1.381
45874SOL    HW137646   9.230   7.902   1.385
45874SOL    HW237647   9.185   7.758   1.322
45875SOL     OW37648   7.703   8.796   0.290
45875SOL    HW137649   7.607   8.797   0.263
45875SOL    HW237650   7.715   8.849   0.374
45876SOL     OW37651   7.553   8.461   1.726
45876SOL    HW137652   7.476   8.428   1.780
45876SOL    HW237653   7.638   8.431   1.768
45877SOL     OW37654   8.120   7.651   1.489
45877SOL    HW137655   8.210   7.635   1.449
45877SOL    HW237656   8.128   7.656   1.588
45878SOL     OW37657   8.888   8.304   1.398
45878SOL    HW137658   8.831   8.356   1.335
45878SOL    HW237659   8.984   8.316   1.374
45879SOL     OW37660   7.520   7.614   0.318
45879SOL    HW137661   7.503   7.697   0.264
45879SOL    HW237662   7.610   7.577   0.296
45880SOL     OW37663   8.631   8.783   0.119
45880SOL    HW137664   8.532   8.772   0.121
45880SOL    HW237665   8.665   8.798   0.212
45881SOL     OW37666   8.061   8.290   1.431
45881SOL    HW137667   8.117   8.371   1.414
45881SOL    HW237668   8.120   8.210   1.434
45882SOL     OW37669   8.941   9.215   0.959
45882SOL    HW137670   8.974   9.279   0.890
45882SOL    HW237671   9.007   9.209   1.034
45883SOL     OW37672   8.164   8.013   1.708
45883SOL    HW137673   8.183   8.078   1.782
45883SOL    HW237674   8.224   7.933   1.717
45884SOL     OW37675   8.898   8.668   1.633
45884SOL    HW137676   8.889   8.658   1.732
45884SOL    HW237677   8.994   8.661   1.607
45885SOL     OW37678   7.838   9.189   1.560
45885SOL    HW137679   7.747   9.230   1.558
45885SOL    HW237680   7.831   9.095   1.592
45886SOL     OW37681   9.122   8.331   1.254
45886SOL    HW137682   9.095   8.242   1.217
45886SOL    HW237683   9.123   8.399   1.181
45887SOL     OW37684   8.673   7.773   0.449
45887SOL    HW137685   8.738   7.699   0.438
45887SOL    HW237686   8.693   7.823   0.533
45888SOL     OW37687   8.042   8.193   0.652
45888SOL    HW137688   8.092   8.278   0.633
45888SOL    HW237689   7.954   8.195   0.604
45889SOL     OW37690   9.225   7.790   1.642
45889SOL    HW137691   9.208   7.821   1.548
45889SOL    HW237692   9.141   7.753   1.680
45890SOL     OW37693   9.178   8.382   1.517
45890SOL    HW137694   9.216   8.473   1.532
45890SOL    HW237695   9.170   8.365   1.418
45891SOL     OW37696   8.307   8.822   0.016
45891SOL    HW137697   8.261   8.837   0.104
45891SOL    HW237698   8.351   8.907  -0.014
45892SOL     OW37699   8.109   9.238   0.953
45892SOL    HW137700   8.063   9.326   0.940
45892SOL    HW237701   8.208   9.250   0.946
45893SOL     OW37702   8.307   8.404   0.861
45893SOL    HW137703   8.361   8.335   0.909
45893SOL    HW237704   8.275   8.473   0.927
45894SOL     OW37705   8.531   8.432   0.087
45894SOL    HW137706   8.508   8.485   0.005
45894SOL    HW237707   8.612   8.376   0.068
45895SOL     OW37708   9.309   9.017   0.851
45895SOL    HW137709   9.238   9.005   0.781
45895SOL    HW237710   9.310   8.938   0.911
45896SOL     OW37711   7.669   8.762   1.844
45896SOL    HW137712   7.604   8.689   1.823
45896SOL    HW237713   7.673   8.776   1.942
45897SOL     OW37714   7.527   8.688   0.653
45897SOL    HW137715   7.526   8.641   0.741
45897SOL    HW237716   7.609   8.660   0.602
45898SOL     OW37717   8.120   8.839   1.624
45898SOL    HW137718   8.042   8.789   1.662
45898SOL    HW237719   8.117   8.934   1.655
45899SOL     OW37720   9.272   7.640   1.227
45899SOL    HW137721   9.268   7.550   1.271
45899SOL    HW237722   9.275   7.629   1.128
45900SOL     OW37723   7.876   7.872   0.520
45900SOL    HW137724   7.906   7.800   0.458
45900SOL    HW237725   7.837   7.832   0.603
45901SOL     OW37726   9.153   8.935   1.104
45901SOL    HW137727   9.060   8.910   1.077
45901SOL    HW237728   9.179   8.885   1.186
45902SOL     OW37729   7.765   7.995   1.280
45902SOL    HW137730   7.803   7.936   1.352
45902SOL    HW237731   7.805   7.969   1.192
45903SOL     OW37732   8.260   9.034   0.687
45903SOL    HW137733   8.292   9.044   0.593
45903SOL    HW237734   8.181   8.972   0.689
45904SOL     OW37735   8.872   7.662   1.112
45904SOL    HW137736   8.924   7.597   1.167
45904SOL    HW237737   8.823   7.725   1.173
45905SOL     OW37738   8.449   7.482   1.154
45905SOL    HW137739   8.386   7.410   1.123
45905SOL    HW237740   8.542   7.446   1.154
45906SOL     OW37741   8.218   8.778   0.301
45906SOL    HW137742   8.172   8.691   0.318
45906SOL    HW237743   8.309   8.775   0.342
45907SOL     OW37744   8.066   9.015   1.284
45907SOL    HW137745   8.061   9.097   1.341
45907SOL    HW237746   8.155   9.012   1.239
45908SOL     OW37747   8.800   7.500   0.168
45908SOL    HW137748   8.835   7.459   0.084
45908SOL    HW237749   8.710   7.462   0.188
45909SOL     OW37750   8.748   7.901   0.691
45909SOL    HW137751   8.689   7.981   0.695
45909SOL    HW237752   8.763   7.866   0.784
45910SOL     OW37753   9.041   7.669   0.882
45910SOL    HW137754   8.957   7.668   0.936
45910SOL    HW237755   9.043   7.752   0.826
45911SOL     OW37756   7.487   8.525   0.300
45911SOL    HW137757   7.586   8.514   0.291
45911SOL    HW237758   7.447   8.439   0.332
45912SOL     OW37759   8.323   9.094   0.337
45912SOL    HW137760   8.246   9.059   0.283
45912SOL    HW237761   8.291   9.165   0.399
45913SOL     OW37762   7.678   8.076   1.975
45913SOL    HW137763   7.585   8.074   2.012
45913SOL    HW237764   7.679   8.037   1.883
45914SOL     OW37765   7.673   7.723   2.858
45914SOL    HW137766   7.708   7.706   2.950
45914SOL    HW237767   7.585   7.678   2.846
45915SOL     OW37768   7.467   7.816   2.509
45915SOL    HW137769   7.385   7.859   2.548
45915SOL    HW237770   7.439   7.743   2.446
45916SOL     OW37771   8.017   8.723   3.027
45916SOL    HW137772   7.924   8.716   2.990
45916SOL    HW237773   8.028   8.812   3.071
45917SOL     OW37774   9.003   8.959   2.565
45917SOL    HW137775   8.946   8.943   2.646
45917SOL    HW237776   8.944   8.969   2.485
45918SOL     OW37777   8.583   8.151   2.579
45918SOL    HW137778   8.640   8.229   2.554
45918SOL    HW237779   8.523   8.177   2.655
45919SOL     OW37780   9.203   8.055   2.093
45919SOL    HW137781   9.191   8.042   1.994
45919SOL    HW237782   9.173   7.974   2.142
45920SOL     OW37783   8.216   8.592   2.885
45920SOL    HW137784   8.138   8.609   2.945
45920SOL    HW237785   8.250   8.679   2.849
45921SOL     OW37786   8.298   8.246   3.685
45921SOL    HW137787   8.294   8.322   3.750
45921SOL    HW237788   8.320   8.282   3.594
45922SOL     OW37789   8.133   8.460   2.527
45922SOL    HW137790   8.202   8.444   2.597
45922SOL    HW237791   8.060   8.517   2.565
45923SOL     OW37792   8.134   8.609   3.665
45923SOL    HW137793   8.194   8.688   3.679
45923SOL    HW237794   8.048   8.640   3.624
45924SOL     OW37795   7.783   8.883   2.923
45924SOL    HW137796   7.705   8.852   2.870
45924SOL    HW237797   7.841   8.941   2.866
45925SOL     OW37798   8.908   8.953   3.201
45925SOL    HW137799   8.932   9.047   3.227
45925SOL    HW237800   8.892   8.899   3.283
45926SOL     OW37801   7.886   7.840   3.361
45926SOL    HW137802   7.968   7.784   3.370
45926SOL    HW237803   7.805   7.782   3.365
45927SOL     OW37804   9.051   7.895   2.599
45927SOL    HW137805   8.977   7.941   2.549
45927SOL    HW237806   9.102   7.963   2.652
45928SOL     OW37807   7.679   9.161   2.345
45928SOL    HW137808   7.713   9.238   2.399
45928SOL    HW237809   7.723   9.161   2.255
45929SOL     OW37810   8.575   8.789   3.552
45929SOL    HW137811   8.622   8.789   3.640
45929SOL    HW237812   8.527   8.702   3.541
45930SOL     OW37813   7.678   8.882   2.400
45930SOL    HW137814   7.652   8.978   2.400
45930SOL    HW237815   7.607   8.828   2.445
45931SOL     OW37816   7.688   8.539   2.748
45931SOL    HW137817   7.702   8.455   2.800
45931SOL    HW237818   7.633   8.603   2.803
45932SOL     OW37819   8.068   9.234   3.301
45932SOL    HW137820   7.976   9.217   3.336
45932SOL    HW237821   8.096   9.326   3.327
45933SOL     OW37822   8.054   8.412   1.985
45933SOL    HW137823   8.061   8.496   1.931
45933SOL    HW237824   8.100   8.425   2.073
45934SOL     OW37825   9.042   7.562   3.342
45934SOL    HW137826   9.024   7.629   3.270
45934SOL    HW237827   9.039   7.608   3.431
45935SOL     OW37828   7.570   8.091   2.425
45935SOL    HW137829   7.525   8.003   2.442
45935SOL    HW237830   7.569   8.145   2.509
45936SOL     OW37831   9.290   9.215   2.221
45936SOL    HW137832   9.344   9.186   2.301
45936SOL    HW237833   9.320   9.305   2.192
45937SOL     OW37834   7.475   9.044   1.979
45937SOL    HW137835   7.456   8.948   2.000
45937SOL    HW237836   7.442   9.102   2.054
45938SOL     OW37837   9.137   8.370   2.474
45938SOL    HW137838   9.232   8.341   2.482
45938SOL    HW237839   9.129   8.435   2.399
45939SOL     OW37840   9.089   8.556   2.294
45939SOL    HW137841   9.175   8.558   2.242
45939SOL    HW237842   9.103   8.603   2.382
45940SOL     OW37843   7.561   8.185   3.459
45940SOL    HW137844   7.649   8.172   3.504
45940SOL    HW237845   7.548   8.282   3.437
45941SOL     OW37846   8.061   8.813   2.588
45941SOL    HW137847   8.012   8.726   2.597
45941SOL    HW237848   8.038   8.856   2.501
45942SOL     OW37849   8.741   8.676   3.285
45942SOL    HW137850   8.778   8.603   3.227
45942SOL    HW237851   8.793   8.681   3.370
45943SOL     OW37852   8.257   7.452   2.364
45943SOL    HW137853   8.297   7.543   2.355
45943SOL    HW237854   8.157   7.460   2.370
45944SOL     OW37855   7.645   8.424   3.126
45944SOL    HW137856   7.734   8.379   3.112
45944SOL    HW237857   7.572   8.359   3.107
45945SOL     OW37858   8.973   8.447   2.052
45945SOL    HW137859   8.910   8.371   2.065
45945SOL    HW237860   9.021   8.465   2.138
45946SOL     OW37861   8.635   9.240   3.478
45946SOL    HW137862   8.659   9.300   3.402
45946SOL    HW237863   8.642   9.145   3.448
45947SOL     OW37864   7.765   7.699   3.663
45947SOL    HW137865   7.836   7.770   3.669
45947SOL    HW237866   7.677   7.738   3.691
45948SOL     OW37867   8.914   8.865   2.815
45948SOL    HW137868   8.855   8.871   2.895
45948SOL    HW237869   8.899   8.777   2.769
45949SOL     OW37870   9.115   9.162   2.434
45949SOL    HW137871   9.074   9.139   2.346
45949SOL    HW237872   9.097   9.088   2.499
45950SOL     OW37873   8.046   8.177   2.132
45950SOL    HW137874   8.070   8.246   2.064
45950SOL    HW237875   7.968   8.210   2.186
45951SOL     OW37876   8.729   7.793   2.806
45951SOL    HW137877   8.643   7.743   2.793
45951SOL    HW237878   8.791   7.739   2.862
45952SOL     OW37879   9.024   9.110   2.169
45952SOL    HW137880   9.113   9.156   2.172
45952SOL    HW237881   9.003   9.086   2.074
45953SOL     OW37882   8.255   8.053   3.327
45953SOL    HW137883   8.208   8.050   3.416
45953SOL    HW237884   8.204   7.998   3.261
45954SOL     OW37885   8.842   7.917   3.536
45954SOL    HW137886   8.822   7.960   3.624
45954SOL    HW237887   8.920   7.855   3.545
45955SOL     OW37888   8.421   8.338   3.434
45955SOL    HW137889   8.467   8.254   3.405
45955SOL    HW237890   8.365   8.372   3.359
45956SOL     OW37891   8.439   7.858   3.104
45956SOL    HW137892   8.362   7.892   3.158
45956SOL    HW237893   8.405   7.807   3.025
45957SOL     OW37894   8.489   8.149   2.291
45957SOL    HW137895   8.515   8.145   2.387
45957SOL    HW237896   8.404   8.098   2.277
45958SOL     OW37897   7.524   8.259   2.651
45958SOL    HW137898   7.623   8.247   2.660
45958SOL    HW237899   7.500   8.354   2.672
45959SOL     OW37900   7.578   9.269   3.433
45959SOL    HW137901   7.568   9.254   3.532
45959SOL    HW237902   7.492   9.305   3.397
45960SOL     OW37903   8.313   7.796   2.057
45960SOL    HW137904   8.372   7.859   2.008
45960SOL    HW237905   8.332   7.702   2.028
45961SOL     OW37906   9.167   8.033   3.693
45961SOL    HW137907   9.141   8.122   3.657
45961SOL    HW237908   9.165   7.965   3.620
45962SOL     OW37909   8.810   8.592   2.407
45962SOL    HW137910   8.893   8.563   2.359
45962SOL    HW237911   8.761   8.659   2.351
45963SOL     OW37912   7.998   7.644   2.747
45963SOL    HW137913   7.993   7.639   2.847
45963SOL    HW237914   8.000   7.740   2.718
45964SOL     OW37915   8.456   8.904   2.339
45964SOL    HW137916   8.410   8.976   2.287
45964SOL    HW237917   8.452   8.924   2.437
45965SOL     OW37918   7.799   9.249   2.715
45965SOL    HW137919   7.849   9.163   2.721
45965SOL    HW237920   7.864   9.326   2.712
45966SOL     OW37921   9.243   8.514   2.735
45966SOL    HW137922   9.181   8.499   2.659
45966SOL    HW237923   9.191   8.525   2.820
45967SOL     OW37924   8.675   8.998   3.368
45967SOL    HW137925   8.681   8.921   3.432
45967SOL    HW237926   8.623   8.972   3.288
45968SOL     OW37927   7.769   8.391   2.104
45968SOL    HW137928   7.851   8.430   2.062
45968SOL    HW237929   7.742   8.309   2.055
45969SOL     OW37930   8.906   8.183   2.590
45969SOL    HW137931   8.901   8.118   2.665
45969SOL    HW237932   8.986   8.242   2.603
45970SOL     OW37933   7.909   8.714   3.589
45970SOL    HW137934   7.859   8.715   3.503
45970SOL    HW237935   7.846   8.696   3.665
45971SOL     OW37936   8.559   9.224   2.099
45971SOL    HW137937   8.499   9.162   2.149
45971SOL    HW237938   8.590   9.180   2.014
45972SOL     OW37939   7.650   7.733   3.360
45972SOL    HW137940   7.570   7.793   3.347
45972SOL    HW237941   7.640   7.684   3.446
45973SOL     OW37942   9.080   8.825   1.943
45973SOL    HW137943   9.048   8.919   1.933
45973SOL    HW237944   9.004   8.762   1.931
45974SOL     OW37945   7.912   9.191   2.185
45974SOL    HW137946   7.945   9.230   2.271
45974SOL    HW237947   7.988   9.184   2.120
45975SOL     OW37948   8.848   7.555   2.288
45975SOL    HW137949   8.824   7.518   2.198
45975SOL    HW237950   8.947   7.571   2.292
45976SOL     OW37951   7.697   9.233   3.103
45976SOL    HW137952   7.754   9.168   3.153
45976SOL    HW237953   7.681   9.200   3.010
45977SOL     OW37954   8.388   9.146   2.766
45977SOL    HW137955   8.468   9.089   2.787
45977SOL    HW237956   8.339   9.106   2.689
45978SOL     OW37957   7.830   8.148   2.342
45978SOL    HW137958   7.875   8.058   2.339
45978SOL    HW237959   7.736   8.137   2.375
45979SOL     OW37960   8.995   7.670   3.591
45979SOL    HW137961   8.990   7.707   3.683
45979SOL    HW237962   8.923   7.601   3.579
45980SOL     OW37963   8.062   7.570   1.979
45980SOL    HW137964   8.160   7.548   1.986
45980SOL    HW237965   8.031   7.553   1.886
45981SOL     OW37966   8.229   7.712   3.611
45981SOL    HW137967   8.296   7.651   3.654
45981SOL    HW237968   8.156   7.731   3.676
45982SOL     OW37969   8.336   8.962   3.057
45982SOL    HW137970   8.313   8.937   2.963
45982SOL    HW237971   8.397   8.893   3.096
45983SOL     OW37972   8.799   8.038   3.295
45983SOL    HW137973   8.827   7.995   3.380
45983SOL    HW237974   8.824   8.134   3.296
45984SOL     OW37975   8.251   8.850   2.786
45984SOL    HW137976   8.341   8.864   2.744
45984SOL    HW237977   8.180   8.852   2.715
45985SOL     OW37978   8.370   7.951   2.761
45985SOL    HW137979   8.345   7.942   2.665
45985SOL    HW237980   8.418   7.869   2.792
45986SOL     OW37981   7.987   7.512   2.374
45986SOL    HW137982   7.906   7.513   2.432
45986SOL    HW237983   7.990   7.595   2.319
45987SOL     OW37984   8.882   8.636   1.903
45987SOL    HW137985   8.914   8.560   1.960
45987SOL    HW237986   8.790   8.663   1.933
45988SOL     OW37987   8.383   7.684   2.342
45988SOL    HW137988   8.335   7.725   2.264
45988SOL    HW237989   8.482   7.682   2.323
45989SOL     OW37990   8.524   8.131   3.326
45989SOL    HW137991   8.444   8.070   3.329
45989SOL    HW237992   8.605   8.078   3.302
45990SOL     OW37993   8.675   9.018   2.655
45990SOL    HW137994   8.696   9.092   2.590
45990SOL    HW237995   8.743   9.018   2.728
45991SOL     OW37996   7.907   8.600   2.603
45991SOL    HW137997   7.836   8.573   2.668
45991SOL    HW237998   7.881   8.572   2.510
45992SOL     OW37999   8.719   9.245   2.453
45992SOL    HW138000   8.763   9.309   2.389
45992SOL    HW238001   8.669   9.297   2.523
45993SOL     OW38002   8.480   7.997   1.878
45993SOL    HW138003   8.439   8.079   1.839
45993SOL    HW238004   8.544   8.023   1.951
45994SOL     OW38005   7.526   8.004   3.248
45994SOL    HW138006   7.618   8.003   3.207
45994SOL    HW238007   7.520   8.078   3.315
45995SOL     OW38008   8.009   7.670   3.009
45995SOL    HW138009   8.047   7.586   3.046
45995SOL    HW238010   7.921   7.689   3.053
45996SOL     OW38011   8.314   7.902   2.504
45996SOL    HW138012   8.282   7.974   2.442
45996SOL    HW238013   8.338   7.821   2.451
45997SOL     OW38014   8.465   7.487   2.615
45997SOL    HW138015   8.393   7.492   2.546
45997SOL    HW238016   8.441   7.418   2.684
45998SOL     OW38017   8.877   8.621   2.729
45998SOL    HW138018   8.822   8.537   2.722
45998SOL    HW238019   8.903   8.650   2.637
45999SOL     OW38020   8.914   8.038   2.854
45999SOL    HW138021   8.884   7.943   2.861
45999SOL    HW238022   8.987   8.054   2.920
46000SOL     OW38023   9.305   8.281   2.239
46000SOL    HW138024   9.347   8.217   2.303
46000SOL    HW238025   9.267   8.230   2.161
46001SOL     OW38026   7.936   8.833   2.036
46001SOL    HW138027   7.849   8.818   2.083
46001SOL    HW238028   7.919   8.859   1.941
46002SOL     OW38029   9.112   8.728   2.519
46002SOL    HW138030   9.211   8.736   2.533
46002SOL    HW238031   9.067   8.812   2.550
46003SOL     OW38032   8.838   8.023   1.940
46003SOL    HW138033   8.784   8.002   2.021
46003SOL    HW238034   8.929   7.982   1.949
46004SOL     OW38035   7.975   7.704   2.190
46004SOL    HW138036   8.002   7.645   2.115
46004SOL    HW238037   7.975   7.799   2.159
46005SOL     OW38038   9.202   8.671   3.450
46005SOL    HW138039   9.293   8.632   3.437
46005SOL    HW238040   9.210   8.767   3.474
46006SOL     OW38041   8.512   8.795   3.202
46006SOL    HW138042   8.432   8.772   3.257
46006SOL    HW238043   8.595   8.769   3.251
46007SOL     OW38044   9.040   9.077   3.487
46007SOL    HW138045   9.067   9.111   3.397
46007SOL    HW238046   9.119   9.039   3.533
46008SOL     OW38047   8.559   8.643   2.962
46008SOL    HW138048   8.519   8.687   3.043
46008SOL    HW238049   8.518   8.680   2.879
46009SOL     OW38050   9.086   8.547   2.941
46009SOL    HW138051   9.091   8.628   3.000
46009SOL    HW238052   9.000   8.549   2.890
46010SOL     OW38053   8.363   7.537   3.264
46010SOL    HW138054   8.388   7.517   3.169
46010SOL    HW238055   8.435   7.593   3.306
46011SOL     OW38056   8.428   8.564   3.581
46011SOL    HW138057   8.329   8.570   3.591
46011SOL    HW238058   8.451   8.484   3.525
46012SOL     OW38059   8.153   8.498   2.230
46012SOL    HW138060   8.139   8.505   2.329
46012SOL    HW238061   8.237   8.447   2.212
46013SOL     OW38062   7.858   8.261   3.113
46013SOL    HW138063   7.944   8.273   3.163
46013SOL    HW238064   7.816   8.174   3.140
46014SOL     OW38065   8.722   7.834   3.124
46014SOL    HW138066   8.743   7.908   3.188
46014SOL    HW238067   8.633   7.851   3.081
46015SOL     OW38068   7.512   9.012   3.193
46015SOL    HW138069   7.466   9.094   3.159
46015SOL    HW238070   7.610   9.031   3.202
46016SOL     OW38071   7.815   8.548   2.363
46016SOL    HW138072   7.808   8.631   2.307
46016SOL    HW238073   7.819   8.468   2.303
46017SOL     OW38074   8.014   7.985   2.727
46017SOL    HW138075   8.026   8.051   2.653
46017SOL    HW238076   8.060   8.019   2.810
46018SOL     OW38077   8.700   8.796   2.250
46018SOL    HW138078   8.750   8.873   2.290
46018SOL    HW238079   8.605   8.798   2.282
46019SOL     OW38080   8.720   8.893   3.004
46019SOL    HW138081   8.767   8.906   3.091
46019SOL    HW238082   8.654   8.819   3.013
46020SOL     OW38083   9.030   8.087   2.334
46020SOL    HW138084   8.999   8.148   2.407
46020SOL    HW238085   9.080   8.139   2.265
46021SOL     OW38086   7.802   8.958   3.191
46021SOL    HW138087   7.781   8.914   3.104
46021SOL    HW238088   7.899   8.984   3.194
46022SOL     OW38089   7.850   8.199   3.460
46022SOL    HW138090   7.918   8.254   3.413
46022SOL    HW238091   7.890   8.111   3.487
46023SOL     OW38092   9.035   8.227   3.532
46023SOL    HW138093   8.943   8.265   3.527
46023SOL    HW238094   9.095   8.274   3.467
46024SOL     OW38095   8.461   7.553   3.632
46024SOL    HW138096   8.467   7.638   3.580
46024SOL    HW238097   8.493   7.477   3.575
46025SOL     OW38098   7.952   7.498   3.602
46025SOL    HW138099   7.910   7.441   3.532
46025SOL    HW238100   7.886   7.567   3.634
46026SOL     OW38101   8.021   8.318   2.891
46026SOL    HW138102   8.065   8.407   2.882
46026SOL    HW238103   7.958   8.318   2.968
46027SOL     OW38104   8.808   8.310   2.907
46027SOL    HW138105   8.733   8.310   2.841
46027SOL    HW238106   8.845   8.218   2.916
46028SOL     OW38107   8.657   7.973   2.137
46028SOL    HW138108   8.670   7.889   2.191
46028SOL    HW238109   8.628   8.047   2.197
46029SOL     OW38110   7.755   7.661   3.093
46029SOL    HW138111   7.732   7.698   3.183
46029SOL    HW238112   7.725   7.566   3.087
46030SOL     OW38113   7.485   8.758   3.144
46030SOL    HW138114   7.538   8.709   3.212
46030SOL    HW238115   7.507   8.856   3.149
46031SOL     OW38116   8.180   8.082   2.926
46031SOL    HW138117   8.239   8.056   2.850
46031SOL    HW238118   8.152   8.178   2.915
46032SOL     OW38119   9.176   8.383   3.716
46032SOL    HW138120   9.130   8.376   3.627
46032SOL    HW238121   9.114   8.427   3.782
46033SOL     OW38122   7.755   7.511   2.480
46033SOL    HW138123   7.744   7.605   2.513
46033SOL    HW238124   7.750   7.448   2.557
46034SOL     OW38125   9.070   7.815   2.236
46034SOL    HW138126   9.072   7.739   2.300
46034SOL    HW238127   9.022   7.892   2.276
46035SOL     OW38128   8.471   8.214   2.828
46035SOL    HW138129   8.486   8.235   2.924
46035SOL    HW238130   8.441   8.119   2.819
46036SOL     OW38131   8.428   9.021   3.562
46036SOL    HW138132   8.408   9.065   3.474
46036SOL    HW238133   8.467   8.930   3.546
46037SOL     OW38134   9.307   8.966   3.467
46037SOL    HW138135   9.321   8.993   3.372
46037SOL    HW238136   9.390   8.988   3.520
46038SOL     OW38137   7.798   8.346   3.666
46038SOL    HW138138   7.874   8.390   3.714
46038SOL    HW238139   7.833   8.299   3.584
46039SOL     OW38140   8.988   7.722   1.987
46039SOL    HW138141   8.927   7.647   2.010
46039SOL    HW238142   9.010   7.774   2.070
46040SOL     OW38143   8.751   8.286   1.904
46040SOL    HW138144   8.785   8.193   1.919
46040SOL    HW238145   8.769   8.313   1.809
46041SOL     OW38146   8.516   8.781   2.711
46041SOL    HW138147   8.523   8.697   2.656
46041SOL    HW238148   8.578   8.850   2.675
46042SOL     OW38149   7.767   8.258   2.811
46042SOL    HW138150   7.860   8.294   2.816
46042SOL    HW238151   7.761   8.173   2.863
46043SOL     OW38152   7.787   7.957   2.868
46043SOL    HW138153   7.735   7.874   2.851
46043SOL    HW238154   7.864   7.962   2.804
46044SOL     OW38155   8.586   7.828   3.540
46044SOL    HW138156   8.541   7.891   3.604
46044SOL    HW238157   8.679   7.859   3.523
46045SOL     OW38158   8.608   7.655   3.339
46045SOL    HW138159   8.608   7.719   3.416
46045SOL    HW238160   8.636   7.703   3.256
46046SOL     OW38161   7.456   8.774   2.062
46046SOL    HW138162   7.363   8.795   2.031
46046SOL    HW238163   7.466   8.675   2.075
46047SOL     OW38164   7.536   9.249   2.789
46047SOL    HW138165   7.494   9.163   2.762
46047SOL    HW238166   7.630   9.252   2.755
46048SOL     OW38167   7.952   9.016   2.772
46048SOL    HW138168   8.018   9.090   2.781
46048SOL    HW238169   7.996   8.937   2.730
46049SOL     OW38170   8.450   8.244   3.100
46049SOL    HW138171   8.491   8.212   3.186
46049SOL    HW238172   8.354   8.217   3.097
46050SOL     OW38173   7.488   7.992   2.976
46050SOL    HW138174   7.573   7.959   2.935
46050SOL    HW238175   7.501   8.007   3.074
46051SOL     OW38176   7.637   7.968   3.584
46051SOL    HW138177   7.696   7.928   3.514
46051SOL    HW238178   7.579   8.039   3.543
46052SOL     OW38179   8.817   8.398   3.522
46052SOL    HW138180   8.856   8.487   3.542
46052SOL    HW238181   8.827   8.378   3.425
46053SOL     OW38182   8.263   8.020   2.187
46053SOL    HW138183   8.270   7.931   2.141
46053SOL    HW238184   8.169   8.054   2.179
46054SOL     OW38185   9.105   8.052   3.068
46054SOL    HW138186   9.067   7.983   3.130
46054SOL    HW238187   9.187   8.016   3.024
46055SOL     OW38188   7.700   9.012   3.606
46055SOL    HW138189   7.670   9.069   3.682
46055SOL    HW238190   7.693   8.915   3.632
46056SOL     OW38191   8.119   7.912   3.131
46056SOL    HW138192   8.085   7.823   3.101
46056SOL    HW238193   8.145   7.966   3.051
46057SOL     OW38194   8.378   9.126   3.327
46057SOL    HW138195   8.354   9.108   3.232
46057SOL    HW238196   8.408   9.220   3.337
46058SOL     OW38197   7.921   7.948   2.053
46058SOL    HW138198   7.982   8.028   2.057
46058SOL    HW238199   7.826   7.979   2.060
46059SOL     OW38200   7.607   8.585   3.328
46059SOL    HW138201   7.629   8.524   3.404
46059SOL    HW238202   7.617   8.536   3.242
46060SOL     OW38203   8.795   8.507   3.096
46060SOL    HW138204   8.819   8.444   3.022
46060SOL    HW238205   8.705   8.547   3.078
46061SOL     OW38206   8.750   8.303   2.171
46061SOL    HW138207   8.664   8.272   2.213
46061SOL    HW238208   8.746   8.289   2.072
46062SOL     OW38209   9.207   9.195   3.016
46062SOL    HW138210   9.268   9.225   2.943
46062SOL    HW238211   9.169   9.106   2.994
46063SOL     OW38212   8.700   9.179   2.990
46063SOL    HW138213   8.784   9.184   2.936
46063SOL    HW238214   8.677   9.083   3.008
46064SOL     OW38215   7.531   8.706   2.884
46064SOL    HW138216   7.526   8.705   2.984
46064SOL    HW238217   7.448   8.665   2.846
46065SOL     OW38218   8.136   9.110   3.578
46065SOL    HW138219   8.080   9.191   3.587
46065SOL    HW238220   8.188   9.114   3.492
46066SOL     OW38221   9.174   7.583   2.385
46066SOL    HW138222   9.247   7.566   2.318
46066SOL    HW238223   9.143   7.496   2.423
46067SOL     OW38224   7.578   9.242   3.713
46067SOL    HW138225   7.537   9.168   3.766
46067SOL    HW238226   7.642   9.293   3.771
46068SOL     OW38227   8.728   8.375   2.534
46068SOL    HW138228   8.788   8.294   2.536
46068SOL    HW238229   8.768   8.444   2.474
46069SOL     OW38230   8.278   8.721   3.284
46069SOL    HW138231   8.273   8.754   3.379
46069SOL    HW238232   8.192   8.740   3.238
46070SOL     OW38233   8.120   9.064   2.016
46070SOL    HW138234   8.129   9.074   1.917
46070SOL    HW238235   8.080   8.975   2.037
46071SOL     OW38236   9.098   9.168   3.256
46071SOL    HW138237   9.151   9.178   3.172
46071SOL    HW238238   9.071   9.258   3.290
46072SOL     OW38239   9.289   7.623   2.825
46072SOL    HW138240   9.328   7.538   2.789
46072SOL    HW238241   9.191   7.625   2.806
46073SOL     OW38242   7.711   7.774   2.582
46073SOL    HW138243   7.632   7.825   2.548
46073SOL    HW238244   7.702   7.759   2.680
46074SOL     OW38245   8.642   9.060   1.893
46074SOL    HW138246   8.648   8.967   1.930
46074SOL    HW238247   8.583   9.060   1.813
46075SOL     OW38248   8.270   8.450   3.234
46075SOL    HW138249   8.310   8.449   3.142
46075SOL    HW238250   8.280   8.542   3.274
46076SOL     OW38251   8.364   8.358   2.153
46076SOL    HW138252   8.427   8.396   2.085
46076SOL    HW238253   8.404   8.275   2.192
46077SOL     OW38254   8.952   9.055   1.906
46077SOL    HW138255   8.860   9.092   1.913
46077SOL    HW238256   8.990   9.075   1.816
46078SOL     OW38257   7.820   8.736   3.352
46078SOL    HW138258   7.807   8.829   3.318
46078SOL    HW238259   7.736   8.684   3.339
46079SOL     OW38260   9.062   8.740   3.151
46079SOL    HW138261   9.122   8.743   3.231
46079SOL    HW238262   8.987   8.804   3.164
46080SOL     OW38263   8.487   8.546   2.558
46080SOL    HW138264   8.417   8.499   2.612
46080SOL    HW238265   8.546   8.478   2.515
46081SOL     OW38266   8.462   7.684   2.833
46081SOL    HW138267   8.454   7.648   2.740
46081SOL    HW238268   8.460   7.608   2.898
46082SOL     OW38269   8.038   8.935   2.353
46082SOL    HW138270   8.080   8.877   2.283
46082SOL    HW238271   7.994   9.014   2.309
46083SOL     OW38272   9.157   7.833   3.243
46083SOL    HW138273   9.230   7.902   3.247
46083SOL    HW238274   9.185   7.758   3.184
46084SOL     OW38275   7.703   8.796   2.152
46084SOL    HW138276   7.607   8.797   2.125
46084SOL    HW238277   7.715   8.849   2.236
46085SOL     OW38278   7.553   8.461   3.588
46085SOL    HW138279   7.476   8.428   3.642
46085SOL    HW238280   7.638   8.431   3.630
46086SOL     OW38281   8.120   7.651   3.351
46086SOL    HW138282   8.210   7.635   3.311
46086SOL    HW238283   8.128   7.656   3.450
46087SOL     OW38284   7.523   7.793   1.895
46087SOL    HW138285   7.431   7.765   1.866
46087SOL    HW238286   7.554   7.870   1.839
46088SOL     OW38287   8.888   8.304   3.260
46088SOL    HW138288   8.831   8.356   3.197
46088SOL    HW238289   8.984   8.316   3.236
46089SOL     OW38290   7.520   7.614   2.180
46089SOL    HW138291   7.503   7.697   2.126
46089SOL    HW238292   7.610   7.577   2.158
46090SOL     OW38293   8.631   8.783   1.981
46090SOL    HW138294   8.532   8.772   1.983
46090SOL    HW238295   8.665   8.798   2.074
46091SOL     OW38296   8.061   8.290   3.293
46091SOL    HW138297   8.117   8.371   3.276
46091SOL    HW238298   8.120   8.210   3.296
46092SOL     OW38299   8.941   9.215   2.821
46092SOL    HW138300   8.974   9.279   2.752
46092SOL    HW238301   9.007   9.209   2.896
46093SOL     OW38302   8.164   8.013   3.570
46093SOL    HW138303   8.183   8.078   3.644
46093SOL    HW238304   8.224   7.933   3.579
46094SOL     OW38305   8.898   8.668   3.495
46094SOL    HW138306   8.889   8.658   3.594
46094SOL    HW238307   8.994   8.661   3.469
46095SOL     OW38308   7.838   9.189   3.422
46095SOL    HW138309   7.747   9.230   3.420
46095SOL    HW238310   7.831   9.095   3.454
46096SOL     OW38311   9.122   8.331   3.116
46096SOL    HW138312   9.095   8.242   3.079
46096SOL    HW238313   9.123   8.399   3.043
46097SOL     OW38314   8.673   7.773   2.311
46097SOL    HW138315   8.738   7.699   2.300
46097SOL    HW238316   8.693   7.823   2.395
46098SOL     OW38317   8.042   8.193   2.514
46098SOL    HW138318   8.092   8.278   2.495
46098SOL    HW238319   7.954   8.195   2.466
46099SOL     OW38320   9.225   7.790   3.504
46099SOL    HW138321   9.208   7.821   3.410
46099SOL    HW238322   9.141   7.753   3.542
46100SOL     OW38323   9.178   8.382   3.379
46100SOL    HW138324   9.216   8.473   3.394
46100SOL    HW238325   9.170   8.365   3.280
46101SOL     OW38326   8.307   8.822   1.878
46101SOL    HW138327   8.261   8.837   1.966
46101SOL    HW238328   8.351   8.907   1.848
46102SOL     OW38329   8.109   9.238   2.815
46102SOL    HW138330   8.063   9.326   2.802
46102SOL    HW238331   8.208   9.250   2.808
46103SOL     OW38332   8.307   8.404   2.723
46103SOL    HW138333   8.361   8.335   2.771
46103SOL    HW238334   8.275   8.473   2.789
46104SOL     OW38335   8.531   8.432   1.949
46104SOL    HW138336   8.508   8.485   1.867
46104SOL    HW238337   8.612   8.376   1.930
46105SOL     OW38338   9.309   9.017   2.713
46105SOL    HW138339   9.238   9.005   2.643
46105SOL    HW238340   9.310   8.938   2.773
46106SOL     OW38341   7.669   8.762   3.706
46106SOL    HW138342   7.604   8.689   3.685
46106SOL    HW238343   7.673   8.776   3.804
46107SOL     OW38344   7.527   8.688   2.515
46107SOL    HW138345   7.526   8.641   2.603
46107SOL    HW238346   7.609   8.660   2.464
46108SOL     OW38347   8.120   8.839   3.486
46108SOL    HW138348   8.042   8.789   3.524
46108SOL    HW238349   8.117   8.934   3.517
46109SOL     OW38350   9.272   7.640   3.089
46109SOL    HW138351   9.268   7.550   3.133
46109SOL    HW238352   9.275   7.629   2.990
46110SOL     OW38353   7.876   7.872   2.382
46110SOL    HW138354   7.906   7.800   2.320
46110SOL    HW238355   7.837   7.832   2.465
46111SOL     OW38356   9.153   8.935   2.966
46111SOL    HW138357   9.060   8.910   2.939
46111SOL    HW238358   9.179   8.885   3.048
46112SOL     OW38359   7.765   7.995   3.142
46112SOL    HW138360   7.803   7.936   3.214
46112SOL    HW238361   7.805   7.969   3.054
46113SOL     OW38362   8.260   9.034   2.549
46113SOL    HW138363   8.292   9.044   2.455
46113SOL    HW238364   8.181   8.972   2.551
46114SOL     OW38365   8.872   7.662   2.974
46114SOL    HW138366   8.924   7.597   3.029
46114SOL    HW238367   8.823   7.725   3.035
46115SOL     OW38368   8.449   7.482   3.016
46115SOL    HW138369   8.386   7.410   2.985
46115SOL    HW238370   8.542   7.446   3.016
46116SOL     OW38371   8.218   8.778   2.163
46116SOL    HW138372   8.172   8.691   2.180
46116SOL    HW238373   8.309   8.775   2.204
46117SOL     OW38374   8.066   9.015   3.146
46117SOL    HW138375   8.061   9.097   3.203
46117SOL    HW238376   8.155   9.012   3.101
46118SOL     OW38377   8.800   7.500   2.030
46118SOL    HW138378   8.835   7.459   1.946
46118SOL    HW238379   8.710   7.462   2.050
46119SOL     OW38380   8.748   7.901   2.553
46119SOL    HW138381   8.689   7.981   2.557
46119SOL    HW238382   8.763   7.866   2.646
46120SOL     OW38383   9.041   7.669   2.744
46120SOL    HW138384   8.957   7.668   2.798
46120SOL    HW238385   9.043   7.752   2.688
46121SOL     OW38386   7.487   8.525   2.162
46121SOL    HW138387   7.586   8.514   2.153
46121SOL    HW238388   7.447   8.439   2.194
46122SOL     OW38389   8.323   9.094   2.199
46122SOL    HW138390   8.246   9.059   2.145
46122SOL    HW238391   8.291   9.165   2.261
46123SOL     OW38392   7.678   8.076   3.837
46123SOL    HW138393   7.585   8.074   3.874
46123SOL    HW238394   7.679   8.037   3.745
46124SOL     OW38395   7.673   7.723   4.720
46124SOL    HW138396   7.708   7.706   4.812
46124SOL    HW238397   7.585   7.678   4.708
46125SOL     OW38398   7.467   7.816   4.371
46125SOL    HW138399   7.385   7.859   4.410
46125SOL    HW238400   7.439   7.743   4.308
46126SOL     OW38401   8.017   8.723   4.889
46126SOL    HW138402   7.924   8.716   4.852
46126SOL    HW238403   8.028   8.812   4.933
46127SOL     OW38404   9.003   8.959   4.427
46127SOL    HW138405   8.946   8.943   4.508
46127SOL    HW238406   8.944   8.969   4.347
46128SOL     OW38407   8.583   8.151   4.441
46128SOL    HW138408   8.640   8.229   4.416
46128SOL    HW238409   8.523   8.177   4.517
46129SOL     OW38410   9.203   8.055   3.955
46129SOL    HW138411   9.191   8.042   3.856
46129SOL    HW238412   9.173   7.974   4.004
46130SOL     OW38413   8.216   8.592   4.747
46130SOL    HW138414   8.138   8.609   4.807
46130SOL    HW238415   8.250   8.679   4.711
46131SOL     OW38416   8.298   8.246   5.547
46131SOL    HW138417   8.294   8.322   5.612
46131SOL    HW238418   8.320   8.282   5.456
46132SOL     OW38419   8.133   8.460   4.389
46132SOL    HW138420   8.202   8.444   4.459
46132SOL    HW238421   8.060   8.517   4.427
46133SOL     OW38422   8.134   8.609   5.527
46133SOL    HW138423   8.194   8.688   5.541
46133SOL    HW238424   8.048   8.640   5.486
46134SOL     OW38425   7.783   8.883   4.785
46134SOL    HW138426   7.705   8.852   4.732
46134SOL    HW238427   7.841   8.941   4.728
46135SOL     OW38428   8.908   8.953   5.063
46135SOL    HW138429   8.932   9.047   5.089
46135SOL    HW238430   8.892   8.899   5.145
46136SOL     OW38431   7.886   7.840   5.223
46136SOL    HW138432   7.968   7.784   5.232
46136SOL    HW238433   7.805   7.782   5.227
46137SOL     OW38434   9.051   7.895   4.461
46137SOL    HW138435   8.977   7.941   4.411
46137SOL    HW238436   9.102   7.963   4.514
46138SOL     OW38437   7.679   9.161   4.207
46138SOL    HW138438   7.713   9.238   4.261
46138SOL    HW238439   7.723   9.161   4.117
46139SOL     OW38440   8.575   8.789   5.414
46139SOL    HW138441   8.622   8.789   5.502
46139SOL    HW238442   8.527   8.702   5.403
46140SOL     OW38443   7.678   8.882   4.262
46140SOL    HW138444   7.652   8.978   4.262
46140SOL    HW238445   7.607   8.828   4.307
46141SOL     OW38446   7.688   8.539   4.610
46141SOL    HW138447   7.702   8.455   4.662
46141SOL    HW238448   7.633   8.603   4.665
46142SOL     OW38449   8.068   9.234   5.163
46142SOL    HW138450   7.976   9.217   5.198
46142SOL    HW238451   8.096   9.326   5.189
46143SOL     OW38452   8.054   8.412   3.847
46143SOL    HW138453   8.061   8.496   3.793
46143SOL    HW238454   8.100   8.425   3.935
46144SOL     OW38455   9.042   7.562   5.204
46144SOL    HW138456   9.024   7.629   5.132
46144SOL    HW238457   9.039   7.608   5.293
46145SOL     OW38458   7.570   8.091   4.287
46145SOL    HW138459   7.525   8.003   4.304
46145SOL    HW238460   7.569   8.145   4.371
46146SOL     OW38461   9.290   9.215   4.083
46146SOL    HW138462   9.344   9.186   4.163
46146SOL    HW238463   9.320   9.305   4.054
46147SOL     OW38464   7.475   9.044   3.841
46147SOL    HW138465   7.456   8.948   3.862
46147SOL    HW238466   7.442   9.102   3.916
46148SOL     OW38467   9.137   8.370   4.336
46148SOL    HW138468   9.232   8.341   4.344
46148SOL    HW238469   9.129   8.435   4.261
46149SOL     OW38470   9.089   8.556   4.156
46149SOL    HW138471   9.175   8.558   4.104
46149SOL    HW238472   9.103   8.603   4.244
46150SOL     OW38473   7.561   8.185   5.321
46150SOL    HW138474   7.649   8.172   5.366
46150SOL    HW238475   7.548   8.282   5.299
46151SOL     OW38476   8.061   8.813   4.450
46151SOL    HW138477   8.012   8.726   4.459
46151SOL    HW238478   8.038   8.856   4.363
46152SOL     OW38479   8.741   8.676   5.147
46152SOL    HW138480   8.778   8.603   5.089
46152SOL    HW238481   8.793   8.681   5.232
46153SOL     OW38482   8.257   7.452   4.226
46153SOL    HW138483   8.297   7.543   4.217
46153SOL    HW238484   8.157   7.460   4.232
46154SOL     OW38485   7.645   8.424   4.988
46154SOL    HW138486   7.734   8.379   4.974
46154SOL    HW238487   7.572   8.359   4.969
46155SOL     OW38488   8.973   8.447   3.914
46155SOL    HW138489   8.910   8.371   3.927
46155SOL    HW238490   9.021   8.465   4.000
46156SOL     OW38491   8.635   9.240   5.340
46156SOL    HW138492   8.659   9.300   5.264
46156SOL    HW238493   8.642   9.145   5.310
46157SOL     OW38494   7.765   7.699   5.525
46157SOL    HW138495   7.836   7.770   5.531
46157SOL    HW238496   7.677   7.738   5.553
46158SOL     OW38497   8.914   8.865   4.677
46158SOL    HW138498   8.855   8.871   4.757
46158SOL    HW238499   8.899   8.777   4.631
46159SOL     OW38500   9.115   9.162   4.296
46159SOL    HW138501   9.074   9.139   4.208
46159SOL    HW238502   9.097   9.088   4.361
46160SOL     OW38503   8.046   8.177   3.994
46160SOL    HW138504   8.070   8.246   3.926
46160SOL    HW238505   7.968   8.210   4.048
46161SOL     OW38506   8.729   7.793   4.668
46161SOL    HW138507   8.643   7.743   4.655
46161SOL    HW238508   8.791   7.739   4.724
46162SOL     OW38509   9.024   9.110   4.031
46162SOL    HW138510   9.113   9.156   4.034
46162SOL    HW238511   9.003   9.086   3.936
46163SOL     OW38512   8.255   8.053   5.189
46163SOL    HW138513   8.208   8.050   5.278
46163SOL    HW238514   8.204   7.998   5.123
46164SOL     OW38515   8.842   7.917   5.398
46164SOL    HW138516   8.822   7.960   5.486
46164SOL    HW238517   8.920   7.855   5.407
46165SOL     OW38518   8.421   8.338   5.296
46165SOL    HW138519   8.467   8.254   5.267
46165SOL    HW238520   8.365   8.372   5.221
46166SOL     OW38521   8.439   7.858   4.966
46166SOL    HW138522   8.362   7.892   5.020
46166SOL    HW238523   8.405   7.807   4.887
46167SOL     OW38524   8.489   8.149   4.153
46167SOL    HW138525   8.515   8.145   4.249
46167SOL    HW238526   8.404   8.098   4.139
46168SOL     OW38527   7.524   8.259   4.513
46168SOL    HW138528   7.623   8.247   4.522
46168SOL    HW238529   7.500   8.354   4.534
46169SOL     OW38530   7.578   9.269   5.295
46169SOL    HW138531   7.568   9.254   5.394
46169SOL    HW238532   7.492   9.305   5.259
46170SOL     OW38533   8.313   7.796   3.919
46170SOL    HW138534   8.372   7.859   3.870
46170SOL    HW238535   8.332   7.702   3.890
46171SOL     OW38536   9.167   8.033   5.555
46171SOL    HW138537   9.141   8.122   5.519
46171SOL    HW238538   9.165   7.965   5.482
46172SOL     OW38539   8.810   8.592   4.269
46172SOL    HW138540   8.893   8.563   4.221
46172SOL    HW238541   8.761   8.659   4.213
46173SOL     OW38542   7.998   7.644   4.609
46173SOL    HW138543   7.993   7.639   4.709
46173SOL    HW238544   8.000   7.740   4.580
46174SOL     OW38545   8.456   8.904   4.201
46174SOL    HW138546   8.410   8.976   4.149
46174SOL    HW238547   8.452   8.924   4.299
46175SOL     OW38548   7.799   9.249   4.577
46175SOL    HW138549   7.849   9.163   4.583
46175SOL    HW238550   7.864   9.326   4.574
46176SOL     OW38551   9.243   8.514   4.597
46176SOL    HW138552   9.181   8.499   4.521
46176SOL    HW238553   9.191   8.525   4.682
46177SOL     OW38554   8.675   8.998   5.230
46177SOL    HW138555   8.681   8.921   5.294
46177SOL    HW238556   8.623   8.972   5.150
46178SOL     OW38557   7.769   8.391   3.966
46178SOL    HW138558   7.851   8.430   3.924
46178SOL    HW238559   7.742   8.309   3.917
46179SOL     OW38560   8.906   8.183   4.452
46179SOL    HW138561   8.901   8.118   4.527
46179SOL    HW238562   8.986   8.242   4.465
46180SOL     OW38563   7.909   8.714   5.451
46180SOL    HW138564   7.859   8.715   5.365
46180SOL    HW238565   7.846   8.696   5.527
46181SOL     OW38566   8.559   9.224   3.961
46181SOL    HW138567   8.499   9.162   4.011
46181SOL    HW238568   8.590   9.180   3.876
46182SOL     OW38569   7.650   7.733   5.222
46182SOL    HW138570   7.570   7.793   5.209
46182SOL    HW238571   7.640   7.684   5.308
46183SOL     OW38572   9.080   8.825   3.805
46183SOL    HW138573   9.048   8.919   3.795
46183SOL    HW238574   9.004   8.762   3.793
46184SOL     OW38575   7.912   9.191   4.047
46184SOL    HW138576   7.945   9.230   4.133
46184SOL    HW238577   7.988   9.184   3.982
46185SOL     OW38578   8.848   7.555   4.150
46185SOL    HW138579   8.824   7.518   4.060
46185SOL    HW238580   8.947   7.571   4.154
46186SOL     OW38581   7.697   9.233   4.965
46186SOL    HW138582   7.754   9.168   5.015
46186SOL    HW238583   7.681   9.200   4.872
46187SOL     OW38584   8.388   9.146   4.628
46187SOL    HW138585   8.468   9.089   4.649
46187SOL    HW238586   8.339   9.106   4.551
46188SOL     OW38587   7.830   8.148   4.204
46188SOL    HW138588   7.875   8.058   4.201
46188SOL    HW238589   7.736   8.137   4.237
46189SOL     OW38590   8.995   7.670   5.453
46189SOL    HW138591   8.990   7.707   5.545
46189SOL    HW238592   8.923   7.601   5.441
46190SOL     OW38593   8.062   7.570   3.841
46190SOL    HW138594   8.160   7.548   3.848
46190SOL    HW238595   8.031   7.553   3.748
46191SOL     OW38596   8.229   7.712   5.473
46191SOL    HW138597   8.296   7.651   5.516
46191SOL    HW238598   8.156   7.731   5.538
46192SOL     OW38599   8.336   8.962   4.919
46192SOL    HW138600   8.313   8.937   4.825
46192SOL    HW238601   8.397   8.893   4.958
46193SOL     OW38602   8.799   8.038   5.157
46193SOL    HW138603   8.827   7.995   5.242
46193SOL    HW238604   8.824   8.134   5.158
46194SOL     OW38605   8.251   8.850   4.648
46194SOL    HW138606   8.341   8.864   4.606
46194SOL    HW238607   8.180   8.852   4.577
46195SOL     OW38608   8.370   7.951   4.623
46195SOL    HW138609   8.345   7.942   4.527
46195SOL    HW238610   8.418   7.869   4.654
46196SOL     OW38611   7.987   7.512   4.236
46196SOL    HW138612   7.906   7.513   4.294
46196SOL    HW238613   7.990   7.595   4.181
46197SOL     OW38614   8.882   8.636   3.765
46197SOL    HW138615   8.914   8.560   3.822
46197SOL    HW238616   8.790   8.663   3.795
46198SOL     OW38617   7.745   7.483   3.895
46198SOL    HW138618   7.794   7.567   3.874
46198SOL    HW238619   7.807   7.418   3.940
46199SOL     OW38620   8.383   7.684   4.204
46199SOL    HW138621   8.335   7.725   4.126
46199SOL    HW238622   8.482   7.682   4.185
46200SOL     OW38623   8.524   8.131   5.188
46200SOL    HW138624   8.444   8.070   5.191
46200SOL    HW238625   8.605   8.078   5.164
46201SOL     OW38626   8.675   9.018   4.517
46201SOL    HW138627   8.696   9.092   4.452
46201SOL    HW238628   8.743   9.018   4.590
46202SOL     OW38629   7.907   8.600   4.465
46202SOL    HW138630   7.836   8.573   4.530
46202SOL    HW238631   7.881   8.572   4.372
46203SOL     OW38632   8.719   9.245   4.315
46203SOL    HW138633   8.763   9.309   4.251
46203SOL    HW238634   8.669   9.297   4.385
46204SOL     OW38635   8.480   7.997   3.740
46204SOL    HW138636   8.439   8.079   3.701
46204SOL    HW238637   8.544   8.023   3.813
46205SOL     OW38638   7.526   8.004   5.110
46205SOL    HW138639   7.618   8.003   5.069
46205SOL    HW238640   7.520   8.078   5.177
46206SOL     OW38641   8.009   7.670   4.871
46206SOL    HW138642   8.047   7.586   4.908
46206SOL    HW238643   7.921   7.689   4.915
46207SOL     OW38644   8.314   7.902   4.366
46207SOL    HW138645   8.282   7.974   4.304
46207SOL    HW238646   8.338   7.821   4.313
46208SOL     OW38647   8.465   7.487   4.477
46208SOL    HW138648   8.393   7.492   4.408
46208SOL    HW238649   8.441   7.418   4.546
46209SOL     OW38650   8.877   8.621   4.591
46209SOL    HW138651   8.822   8.537   4.584
46209SOL    HW238652   8.903   8.650   4.499
46210SOL     OW38653   8.914   8.038   4.716
46210SOL    HW138654   8.884   7.943   4.723
46210SOL    HW238655   8.987   8.054   4.782
46211SOL     OW38656   9.305   8.281   4.101
46211SOL    HW138657   9.347   8.217   4.165
46211SOL    HW238658   9.267   8.230   4.023
46212SOL     OW38659   7.936   8.833   3.898
46212SOL    HW138660   7.849   8.818   3.945
46212SOL    HW238661   7.919   8.859   3.803
46213SOL     OW38662   9.112   8.728   4.381
46213SOL    HW138663   9.211   8.736   4.395
46213SOL    HW238664   9.067   8.812   4.412
46214SOL     OW38665   8.838   8.023   3.802
46214SOL    HW138666   8.784   8.002   3.883
46214SOL    HW238667   8.929   7.982   3.811
46215SOL     OW38668   7.975   7.704   4.052
46215SOL    HW138669   8.002   7.645   3.977
46215SOL    HW238670   7.975   7.799   4.021
46216SOL     OW38671   9.202   8.671   5.312
46216SOL    HW138672   9.293   8.632   5.299
46216SOL    HW238673   9.210   8.767   5.336
46217SOL     OW38674   8.512   8.795   5.064
46217SOL    HW138675   8.432   8.772   5.119
46217SOL    HW238676   8.595   8.769   5.113
46218SOL     OW38677   9.040   9.077   5.349
46218SOL    HW138678   9.067   9.111   5.259
46218SOL    HW238679   9.119   9.039   5.395
46219SOL     OW38680   8.559   8.643   4.824
46219SOL    HW138681   8.519   8.687   4.905
46219SOL    HW238682   8.518   8.680   4.741
46220SOL     OW38683   9.086   8.547   4.803
46220SOL    HW138684   9.091   8.628   4.862
46220SOL    HW238685   9.000   8.549   4.752
46221SOL     OW38686   8.363   7.537   5.126
46221SOL    HW138687   8.388   7.517   5.031
46221SOL    HW238688   8.435   7.593   5.168
46222SOL     OW38689   8.428   8.564   5.443
46222SOL    HW138690   8.329   8.570   5.453
46222SOL    HW238691   8.451   8.484   5.387
46223SOL     OW38692   8.153   8.498   4.092
46223SOL    HW138693   8.139   8.505   4.191
46223SOL    HW238694   8.237   8.447   4.074
46224SOL     OW38695   7.858   8.261   4.975
46224SOL    HW138696   7.944   8.273   5.025
46224SOL    HW238697   7.816   8.174   5.002
46225SOL     OW38698   8.722   7.834   4.986
46225SOL    HW138699   8.743   7.908   5.050
46225SOL    HW238700   8.633   7.851   4.943
46226SOL     OW38701   7.512   9.012   5.055
46226SOL    HW138702   7.466   9.094   5.021
46226SOL    HW238703   7.610   9.031   5.064
46227SOL     OW38704   7.815   8.548   4.225
46227SOL    HW138705   7.808   8.631   4.169
46227SOL    HW238706   7.819   8.468   4.165
46228SOL     OW38707   8.014   7.985   4.589
46228SOL    HW138708   8.026   8.051   4.515
46228SOL    HW238709   8.060   8.019   4.672
46229SOL     OW38710   8.700   8.796   4.112
46229SOL    HW138711   8.750   8.873   4.152
46229SOL    HW238712   8.605   8.798   4.144
46230SOL     OW38713   8.720   8.893   4.866
46230SOL    HW138714   8.767   8.906   4.953
46230SOL    HW238715   8.654   8.819   4.875
46231SOL     OW38716   9.030   8.087   4.196
46231SOL    HW138717   8.999   8.148   4.269
46231SOL    HW238718   9.080   8.139   4.127
46232SOL     OW38719   7.802   8.958   5.053
46232SOL    HW138720   7.781   8.914   4.966
46232SOL    HW238721   7.899   8.984   5.056
46233SOL     OW38722   7.850   8.199   5.322
46233SOL    HW138723   7.918   8.254   5.275
46233SOL    HW238724   7.890   8.111   5.349
46234SOL     OW38725   9.035   8.227   5.394
46234SOL    HW138726   8.943   8.265   5.389
46234SOL    HW238727   9.095   8.274   5.329
46235SOL     OW38728   8.461   7.553   5.494
46235SOL    HW138729   8.467   7.638   5.442
46235SOL    HW238730   8.493   7.477   5.437
46236SOL     OW38731   7.952   7.498   5.464
46236SOL    HW138732   7.910   7.441   5.394
46236SOL    HW238733   7.886   7.567   5.496
46237SOL     OW38734   8.021   8.318   4.753
46237SOL    HW138735   8.065   8.407   4.744
46237SOL    HW238736   7.958   8.318   4.830
46238SOL     OW38737   8.808   8.310   4.769
46238SOL    HW138738   8.733   8.310   4.703
46238SOL    HW238739   8.845   8.218   4.778
46239SOL     OW38740   8.657   7.973   3.999
46239SOL    HW138741   8.670   7.889   4.053
46239SOL    HW238742   8.628   8.047   4.059
46240SOL     OW38743   7.755   7.661   4.955
46240SOL    HW138744   7.732   7.698   5.045
46240SOL    HW238745   7.725   7.566   4.949
46241SOL     OW38746   7.485   8.758   5.006
46241SOL    HW138747   7.538   8.709   5.074
46241SOL    HW238748   7.507   8.856   5.011
46242SOL     OW38749   8.180   8.082   4.788
46242SOL    HW138750   8.239   8.056   4.712
46242SOL    HW238751   8.152   8.178   4.777
46243SOL     OW38752   9.176   8.383   5.578
46243SOL    HW138753   9.130   8.376   5.489
46243SOL    HW238754   9.114   8.427   5.644
46244SOL     OW38755   7.755   7.511   4.342
46244SOL    HW138756   7.744   7.605   4.375
46244SOL    HW238757   7.750   7.448   4.419
46245SOL     OW38758   9.070   7.815   4.098
46245SOL    HW138759   9.072   7.739   4.162
46245SOL    HW238760   9.022   7.892   4.138
46246SOL     OW38761   8.471   8.214   4.690
46246SOL    HW138762   8.486   8.235   4.786
46246SOL    HW238763   8.441   8.119   4.681
46247SOL     OW38764   8.428   9.021   5.424
46247SOL    HW138765   8.408   9.065   5.336
46247SOL    HW238766   8.467   8.930   5.408
46248SOL     OW38767   9.307   8.966   5.329
46248SOL    HW138768   9.321   8.993   5.234
46248SOL    HW238769   9.390   8.988   5.382
46249SOL     OW38770   7.798   8.346   5.528
46249SOL    HW138771   7.874   8.390   5.576
46249SOL    HW238772   7.833   8.299   5.446
46250SOL     OW38773   8.988   7.722   3.849
46250SOL    HW138774   8.927   7.647   3.872
46250SOL    HW238775   9.010   7.774   3.932
46251SOL     OW38776   8.751   8.286   3.766
46251SOL    HW138777   8.785   8.193   3.781
46251SOL    HW238778   8.769   8.313   3.671
46252SOL     OW38779   8.516   8.781   4.573
46252SOL    HW138780   8.523   8.697   4.518
46252SOL    HW238781   8.578   8.850   4.537
46253SOL     OW38782   7.767   8.258   4.673
46253SOL    HW138783   7.860   8.294   4.678
46253SOL    HW238784   7.761   8.173   4.725
46254SOL     OW38785   7.787   7.957   4.730
46254SOL    HW138786   7.735   7.874   4.713
46254SOL    HW238787   7.864   7.962   4.666
46255SOL     OW38788   8.586   7.828   5.402
46255SOL    HW138789   8.541   7.891   5.466
46255SOL    HW238790   8.679   7.859   5.385
46256SOL     OW38791   8.608   7.655   5.201
46256SOL    HW138792   8.608   7.719   5.278
46256SOL    HW238793   8.636   7.703   5.118
46257SOL     OW38794   7.456   8.774   3.924
46257SOL    HW138795   7.363   8.795   3.893
46257SOL    HW238796   7.466   8.675   3.937
46258SOL     OW38797   7.536   9.249   4.651
46258SOL    HW138798   7.494   9.163   4.624
46258SOL    HW238799   7.630   9.252   4.617
46259SOL     OW38800   7.952   9.016   4.634
46259SOL    HW138801   8.018   9.090   4.643
46259SOL    HW238802   7.996   8.937   4.592
46260SOL     OW38803   8.450   8.244   4.962
46260SOL    HW138804   8.491   8.212   5.048
46260SOL    HW238805   8.354   8.217   4.959
46261SOL     OW38806   7.488   7.992   4.838
46261SOL    HW138807   7.573   7.959   4.797
46261SOL    HW238808   7.501   8.007   4.936
46262SOL     OW38809   7.637   7.968   5.446
46262SOL    HW138810   7.696   7.928   5.376
46262SOL    HW238811   7.579   8.039   5.405
46263SOL     OW38812   8.817   8.398   5.384
46263SOL    HW138813   8.856   8.487   5.404
46263SOL    HW238814   8.827   8.378   5.287
46264SOL     OW38815   8.263   8.020   4.049
46264SOL    HW138816   8.270   7.931   4.003
46264SOL    HW238817   8.169   8.054   4.041
46265SOL     OW38818   9.105   8.052   4.930
46265SOL    HW138819   9.067   7.983   4.992
46265SOL    HW238820   9.187   8.016   4.886
46266SOL     OW38821   7.700   9.012   5.468
46266SOL    HW138822   7.670   9.069   5.544
46266SOL    HW238823   7.693   8.915   5.494
46267SOL     OW38824   8.119   7.912   4.993
46267SOL    HW138825   8.085   7.823   4.963
46267SOL    HW238826   8.145   7.966   4.913
46268SOL     OW38827   8.378   9.126   5.189
46268SOL    HW138828   8.354   9.108   5.094
46268SOL    HW238829   8.408   9.220   5.199
46269SOL     OW38830   7.921   7.948   3.915
46269SOL    HW138831   7.982   8.028   3.919
46269SOL    HW238832   7.826   7.979   3.922
46270SOL     OW38833   7.607   8.585   5.190
46270SOL    HW138834   7.629   8.524   5.266
46270SOL    HW238835   7.617   8.536   5.104
46271SOL     OW38836   8.795   8.507   4.958
46271SOL    HW138837   8.819   8.444   4.884
46271SOL    HW238838   8.705   8.547   4.940
46272SOL     OW38839   8.750   8.303   4.033
46272SOL    HW138840   8.664   8.272   4.075
46272SOL    HW238841   8.746   8.289   3.934
46273SOL     OW38842   9.207   9.195   4.878
46273SOL    HW138843   9.268   9.225   4.805
46273SOL    HW238844   9.169   9.106   4.856
46274SOL     OW38845   8.700   9.179   4.852
46274SOL    HW138846   8.784   9.184   4.798
46274SOL    HW238847   8.677   9.083   4.870
46275SOL     OW38848   7.531   8.706   4.746
46275SOL    HW138849   7.526   8.705   4.846
46275SOL    HW238850   7.448   8.665   4.708
46276SOL     OW38851   8.136   9.110   5.440
46276SOL    HW138852   8.080   9.191   5.449
46276SOL    HW238853   8.188   9.114   5.354
46277SOL     OW38854   9.174   7.583   4.247
46277SOL    HW138855   9.247   7.566   4.180
46277SOL    HW238856   9.143   7.496   4.285
46278SOL     OW38857   8.836   9.021   4.201
46278SOL    HW138858   8.903   9.033   4.127
46278SOL    HW238859   8.796   9.110   4.224
46279SOL     OW38860   7.578   9.242   5.575
46279SOL    HW138861   7.537   9.168   5.628
46279SOL    HW238862   7.642   9.293   5.633
46280SOL     OW38863   8.728   8.375   4.396
46280SOL    HW138864   8.788   8.294   4.398
46280SOL    HW238865   8.768   8.444   4.336
46281SOL     OW38866   8.278   8.721   5.146
46281SOL    HW138867   8.273   8.754   5.241
46281SOL    HW238868   8.192   8.740   5.100
46282SOL     OW38869   8.120   9.064   3.878
46282SOL    HW138870   8.129   9.074   3.779
46282SOL    HW238871   8.080   8.975   3.899
46283SOL     OW38872   9.098   9.168   5.118
46283SOL    HW138873   9.151   9.178   5.034
46283SOL    HW238874   9.071   9.258   5.152
46284SOL     OW38875   9.289   7.623   4.687
46284SOL    HW138876   9.328   7.538   4.651
46284SOL    HW238877   9.191   7.625   4.668
46285SOL     OW38878   7.711   7.774   4.444
46285SOL    HW138879   7.632   7.825   4.410
46285SOL    HW238880   7.702   7.759   4.542
46286SOL     OW38881   8.642   9.060   3.755
46286SOL    HW138882   8.648   8.967   3.792
46286SOL    HW238883   8.583   9.060   3.675
46287SOL     OW38884   8.270   8.450   5.096
46287SOL    HW138885   8.310   8.449   5.004
46287SOL    HW238886   8.280   8.542   5.136
46288SOL     OW38887   8.364   8.358   4.015
46288SOL    HW138888   8.427   8.396   3.947
46288SOL    HW238889   8.404   8.275   4.054
46289SOL     OW38890   8.952   9.055   3.768
46289SOL    HW138891   8.860   9.092   3.775
46289SOL    HW238892   8.990   9.075   3.678
46290SOL     OW38893   7.820   8.736   5.214
46290SOL    HW138894   7.807   8.829   5.180
46290SOL    HW238895   7.736   8.684   5.201
46291SOL     OW38896   9.062   8.740   5.013
46291SOL    HW138897   9.122   8.743   5.093
46291SOL    HW238898   8.987   8.804   5.026
46292SOL     OW38899   8.487   8.546   4.420
46292SOL    HW138900   8.417   8.499   4.474
46292SOL    HW238901   8.546   8.478   4.377
46293SOL     OW38902   8.462   7.684   4.695
46293SOL    HW138903   8.454   7.648   4.602
46293SOL    HW238904   8.460   7.608   4.760
46294SOL     OW38905   8.038   8.935   4.215
46294SOL    HW138906   8.080   8.877   4.145
46294SOL    HW238907   7.994   9.014   4.171
46295SOL     OW38908   9.157   7.833   5.105
46295SOL    HW138909   9.230   7.902   5.109
46295SOL    HW238910   9.185   7.758   5.046
46296SOL     OW38911   7.703   8.796   4.014
46296SOL    HW138912   7.607   8.797   3.987
46296SOL    HW238913   7.715   8.849   4.098
46297SOL     OW38914   7.553   8.461   5.450
46297SOL    HW138915   7.476   8.428   5.504
46297SOL    HW238916   7.638   8.431   5.492
46298SOL     OW38917   8.120   7.651   5.213
46298SOL    HW138918   8.210   7.635   5.173
46298SOL    HW238919   8.128   7.656   5.312
46299SOL     OW38920   7.523   7.793   3.757
46299SOL    HW138921   7.431   7.765   3.728
46299SOL    HW238922   7.554   7.870   3.701
46300SOL     OW38923   8.888   8.304   5.122
46300SOL    HW138924   8.831   8.356   5.059
46300SOL    HW238925   8.984   8.316   5.098
46301SOL     OW38926   7.520   7.614   4.042
46301SOL    HW138927   7.503   7.697   3.988
46301SOL    HW238928   7.610   7.577   4.020
46302SOL     OW38929   8.631   8.783   3.843
46302SOL    HW138930   8.532   8.772   3.845
46302SOL    HW238931   8.665   8.798   3.936
46303SOL     OW38932   8.061   8.290   5.155
46303SOL    HW138933   8.117   8.371   5.138
46303SOL    HW238934   8.120   8.210   5.158
46304SOL     OW38935   8.941   9.215   4.683
46304SOL    HW138936   8.974   9.279   4.614
46304SOL    HW238937   9.007   9.209   4.758
46305SOL     OW38938   8.164   8.013   5.432
46305SOL    HW138939   8.183   8.078   5.506
46305SOL    HW238940   8.224   7.933   5.441
46306SOL     OW38941   8.898   8.668   5.357
46306SOL    HW138942   8.889   8.658   5.456
46306SOL    HW238943   8.994   8.661   5.331
46307SOL     OW38944   7.838   9.189   5.284
46307SOL    HW138945   7.747   9.230   5.282
46307SOL    HW238946   7.831   9.095   5.316
46308SOL     OW38947   9.122   8.331   4.978
46308SOL    HW138948   9.095   8.242   4.941
46308SOL    HW238949   9.123   8.399   4.905
46309SOL     OW38950   8.673   7.773   4.173
46309SOL    HW138951   8.738   7.699   4.162
46309SOL    HW238952   8.693   7.823   4.257
46310SOL     OW38953   8.042   8.193   4.376
46310SOL    HW138954   8.092   8.278   4.357
46310SOL    HW238955   7.954   8.195   4.328
46311SOL     OW38956   9.225   7.790   5.366
46311SOL    HW138957   9.208   7.821   5.272
46311SOL    HW238958   9.141   7.753   5.404
46312SOL     OW38959   9.178   8.382   5.241
46312SOL    HW138960   9.216   8.473   5.256
46312SOL    HW238961   9.170   8.365   5.142
46313SOL     OW38962   8.307   8.822   3.740
46313SOL    HW138963   8.261   8.837   3.828
46313SOL    HW238964   8.351   8.907   3.710
46314SOL     OW38965   8.109   9.238   4.677
46314SOL    HW138966   8.063   9.326   4.664
46314SOL    HW238967   8.208   9.250   4.670
46315SOL     OW38968   8.307   8.404   4.585
46315SOL    HW138969   8.361   8.335   4.633
46315SOL    HW238970   8.275   8.473   4.651
46316SOL     OW38971   8.531   8.432   3.811
46316SOL    HW138972   8.508   8.485   3.729
46316SOL    HW238973   8.612   8.376   3.792
46317SOL     OW38974   9.309   9.017   4.575
46317SOL    HW138975   9.238   9.005   4.505
46317SOL    HW238976   9.310   8.938   4.635
46318SOL     OW38977   7.669   8.762   5.568
46318SOL    HW138978   7.604   8.689   5.547
46318SOL    HW238979   7.673   8.776   5.666
46319SOL     OW38980   7.527   8.688   4.377
46319SOL    HW138981   7.526   8.641   4.465
46319SOL    HW238982   7.609   8.660   4.326
46320SOL     OW38983   8.120   8.839   5.348
46320SOL    HW138984   8.042   8.789   5.386
46320SOL    HW238985   8.117   8.934   5.379
46321SOL     OW38986   9.272   7.640   4.951
46321SOL    HW138987   9.268   7.550   4.995
46321SOL    HW238988   9.275   7.629   4.852
46322SOL     OW38989   7.876   7.872   4.244
46322SOL    HW138990   7.906   7.800   4.182
46322SOL    HW238991   7.837   7.832   4.327
46323SOL     OW38992   9.153   8.935   4.828
46323SOL    HW138993   9.060   8.910   4.801
46323SOL    HW238994   9.179   8.885   4.910
46324SOL     OW38995   7.765   7.995   5.004
46324SOL    HW138996   7.803   7.936   5.076
46324SOL    HW238997   7.805   7.969   4.916
46325SOL     OW38998   8.260   9.034   4.411
46325SOL    HW138999   8.292   9.044   4.317
46325SOL    HW239000   8.181   8.972   4.413
46326SOL     OW39001   8.872   7.662   4.836
46326SOL    HW139002   8.924   7.597   4.891
46326SOL    HW239003   8.823   7.725   4.897
46327SOL     OW39004   8.449   7.482   4.878
46327SOL    HW139005   8.386   7.410   4.847
46327SOL    HW239006   8.542   7.446   4.878
46328SOL     OW39007   8.218   8.778   4.025
46328SOL    HW139008   8.172   8.691   4.042
46328SOL    HW239009   8.309   8.775   4.066
46329SOL     OW39010   8.066   9.015   5.008
46329SOL    HW139011   8.061   9.097   5.065
46329SOL    HW239012   8.155   9.012   4.963
46330SOL     OW39013   8.748   7.901   4.415
46330SOL    HW139014   8.689   7.981   4.419
46330SOL    HW239015   8.763   7.866   4.508
46331SOL     OW39016   9.041   7.669   4.606
46331SOL    HW139017   8.957   7.668   4.660
46331SOL    HW239018   9.043   7.752   4.550
46332SOL     OW39019   7.487   8.525   4.024
46332SOL    HW139020   7.586   8.514   4.015
46332SOL    HW239021   7.447   8.439   4.056
46333SOL     OW39022   8.323   9.094   4.061
46333SOL    HW139023   8.246   9.059   4.007
46333SOL    HW239024   8.291   9.165   4.123
46334SOL     OW39025   7.678   8.076   5.699
46334SOL    HW139026   7.585   8.074   5.736
46334SOL    HW239027   7.679   8.037   5.607
46335SOL     OW39028   7.673   7.723   6.582
46335SOL    HW139029   7.708   7.706   6.674
46335SOL    HW239030   7.585   7.678   6.570
46336SOL     OW39031   7.467   7.816   6.233
46336SOL    HW139032   7.385   7.859   6.272
46336SOL    HW239033   7.439   7.743   6.170
46337SOL     OW39034   8.017   8.723   6.751
46337SOL    HW139035   7.924   8.716   6.714
46337SOL    HW239036   8.028   8.812   6.795
46338SOL     OW39037   9.003   8.959   6.289
46338SOL    HW139038   8.946   8.943   6.370
46338SOL    HW239039   8.944   8.969   6.209
46339SOL     OW39040   8.583   8.151   6.303
46339SOL    HW139041   8.640   8.229   6.278
46339SOL    HW239042   8.523   8.177   6.379
46340SOL     OW39043   9.203   8.055   5.817
46340SOL    HW139044   9.191   8.042   5.718
46340SOL    HW239045   9.173   7.974   5.866
46341SOL     OW39046   8.216   8.592   6.609
46341SOL    HW139047   8.138   8.609   6.669
46341SOL    HW239048   8.250   8.679   6.573
46342SOL     OW39049   8.298   8.246   7.409
46342SOL    HW139050   8.294   8.322   7.474
46342SOL    HW239051   8.320   8.282   7.318
46343SOL     OW39052   8.133   8.460   6.251
46343SOL    HW139053   8.202   8.444   6.321
46343SOL    HW239054   8.060   8.517   6.289
46344SOL     OW39055   8.134   8.609   7.389
46344SOL    HW139056   8.194   8.688   7.403
46344SOL    HW239057   8.048   8.640   7.348
46345SOL     OW39058   7.783   8.883   6.647
46345SOL    HW139059   7.705   8.852   6.594
46345SOL    HW239060   7.841   8.941   6.590
46346SOL     OW39061   7.886   7.840   7.085
46346SOL    HW139062   7.968   7.784   7.094
46346SOL    HW239063   7.805   7.782   7.089
46347SOL     OW39064   9.051   7.895   6.323
46347SOL    HW139065   8.977   7.941   6.273
46347SOL    HW239066   9.102   7.963   6.376
46348SOL     OW39067   7.679   9.161   6.069
46348SOL    HW139068   7.713   9.238   6.123
46348SOL    HW239069   7.723   9.161   5.979
46349SOL     OW39070   8.575   8.789   7.276
46349SOL    HW139071   8.622   8.789   7.364
46349SOL    HW239072   8.527   8.702   7.265
46350SOL     OW39073   7.678   8.882   6.124
46350SOL    HW139074   7.652   8.978   6.124
46350SOL    HW239075   7.607   8.828   6.169
46351SOL     OW39076   7.688   8.539   6.472
46351SOL    HW139077   7.702   8.455   6.524
46351SOL    HW239078   7.633   8.603   6.527
46352SOL     OW39079   8.068   9.234   7.025
46352SOL    HW139080   7.976   9.217   7.060
46352SOL    HW239081   8.096   9.326   7.051
46353SOL     OW39082   8.054   8.412   5.709
46353SOL    HW139083   8.061   8.496   5.655
46353SOL    HW239084   8.100   8.425   5.797
46354SOL     OW39085   9.042   7.562   7.066
46354SOL    HW139086   9.024   7.629   6.994
46354SOL    HW239087   9.039   7.608   7.155
46355SOL     OW39088   7.570   8.091   6.149
46355SOL    HW139089   7.525   8.003   6.166
46355SOL    HW239090   7.569   8.145   6.233
46356SOL     OW39091   9.290   9.215   5.945
46356SOL    HW139092   9.344   9.186   6.025
46356SOL    HW239093   9.320   9.305   5.916
46357SOL     OW39094   7.475   9.044   5.703
46357SOL    HW139095   7.456   8.948   5.724
46357SOL    HW239096   7.442   9.102   5.778
46358SOL     OW39097   9.137   8.370   6.198
46358SOL    HW139098   9.232   8.341   6.206
46358SOL    HW239099   9.129   8.435   6.123
46359SOL     OW39100   9.089   8.556   6.018
46359SOL    HW139101   9.175   8.558   5.966
46359SOL    HW239102   9.103   8.603   6.106
46360SOL     OW39103   7.561   8.185   7.183
46360SOL    HW139104   7.649   8.172   7.228
46360SOL    HW239105   7.548   8.282   7.161
46361SOL     OW39106   8.061   8.813   6.312
46361SOL    HW139107   8.012   8.726   6.321
46361SOL    HW239108   8.038   8.856   6.225
46362SOL     OW39109   8.741   8.676   7.009
46362SOL    HW139110   8.778   8.603   6.951
46362SOL    HW239111   8.793   8.681   7.094
46363SOL     OW39112   8.257   7.452   6.088
46363SOL    HW139113   8.297   7.543   6.079
46363SOL    HW239114   8.157   7.460   6.094
46364SOL     OW39115   7.645   8.424   6.850
46364SOL    HW139116   7.734   8.379   6.836
46364SOL    HW239117   7.572   8.359   6.831
46365SOL     OW39118   8.973   8.447   5.776
46365SOL    HW139119   8.910   8.371   5.789
46365SOL    HW239120   9.021   8.465   5.862
46366SOL     OW39121   8.635   9.240   7.202
46366SOL    HW139122   8.659   9.300   7.126
46366SOL    HW239123   8.642   9.145   7.172
46367SOL     OW39124   7.765   7.699   7.387
46367SOL    HW139125   7.836   7.770   7.393
46367SOL    HW239126   7.677   7.738   7.415
46368SOL     OW39127   8.914   8.865   6.539
46368SOL    HW139128   8.855   8.871   6.619
46368SOL    HW239129   8.899   8.777   6.493
46369SOL     OW39130   9.115   9.162   6.158
46369SOL    HW139131   9.074   9.139   6.070
46369SOL    HW239132   9.097   9.088   6.223
46370SOL     OW39133   8.046   8.177   5.856
46370SOL    HW139134   8.070   8.246   5.788
46370SOL    HW239135   7.968   8.210   5.910
46371SOL     OW39136   8.729   7.793   6.530
46371SOL    HW139137   8.643   7.743   6.517
46371SOL    HW239138   8.791   7.739   6.586
46372SOL     OW39139   9.024   9.110   5.893
46372SOL    HW139140   9.113   9.156   5.896
46372SOL    HW239141   9.003   9.086   5.798
46373SOL     OW39142   8.255   8.053   7.051
46373SOL    HW139143   8.208   8.050   7.140
46373SOL    HW239144   8.204   7.998   6.985
46374SOL     OW39145   8.842   7.917   7.260
46374SOL    HW139146   8.822   7.960   7.348
46374SOL    HW239147   8.920   7.855   7.269
46375SOL     OW39148   8.421   8.338   7.158
46375SOL    HW139149   8.467   8.254   7.129
46375SOL    HW239150   8.365   8.372   7.083
46376SOL     OW39151   8.439   7.858   6.828
46376SOL    HW139152   8.362   7.892   6.882
46376SOL    HW239153   8.405   7.807   6.749
46377SOL     OW39154   8.489   8.149   6.015
46377SOL    HW139155   8.515   8.145   6.111
46377SOL    HW239156   8.404   8.098   6.001
46378SOL     OW39157   7.524   8.259   6.375
46378SOL    HW139158   7.623   8.247   6.384
46378SOL    HW239159   7.500   8.354   6.396
46379SOL     OW39160   7.578   9.269   7.157
46379SOL    HW139161   7.568   9.254   7.256
46379SOL    HW239162   7.492   9.305   7.121
46380SOL     OW39163   8.313   7.796   5.781
46380SOL    HW139164   8.372   7.859   5.732
46380SOL    HW239165   8.332   7.702   5.752
46381SOL     OW39166   9.167   8.033   7.417
46381SOL    HW139167   9.141   8.122   7.381
46381SOL    HW239168   9.165   7.965   7.344
46382SOL     OW39169   8.810   8.592   6.131
46382SOL    HW139170   8.893   8.563   6.083
46382SOL    HW239171   8.761   8.659   6.075
46383SOL     OW39172   7.998   7.644   6.471
46383SOL    HW139173   7.993   7.639   6.571
46383SOL    HW239174   8.000   7.740   6.442
46384SOL     OW39175   8.456   8.904   6.063
46384SOL    HW139176   8.410   8.976   6.011
46384SOL    HW239177   8.452   8.924   6.161
46385SOL     OW39178   7.799   9.249   6.439
46385SOL    HW139179   7.849   9.163   6.445
46385SOL    HW239180   7.864   9.326   6.436
46386SOL     OW39181   9.243   8.514   6.459
46386SOL    HW139182   9.181   8.499   6.383
46386SOL    HW239183   9.191   8.525   6.544
46387SOL     OW39184   8.675   8.998   7.092
46387SOL    HW139185   8.681   8.921   7.156
46387SOL    HW239186   8.623   8.972   7.012
46388SOL     OW39187   7.769   8.391   5.828
46388SOL    HW139188   7.851   8.430   5.786
46388SOL    HW239189   7.742   8.309   5.779
46389SOL     OW39190   8.906   8.183   6.314
46389SOL    HW139191   8.901   8.118   6.389
46389SOL    HW239192   8.986   8.242   6.327
46390SOL     OW39193   7.909   8.714   7.313
46390SOL    HW139194   7.859   8.715   7.227
46390SOL    HW239195   7.846   8.696   7.389
46391SOL     OW39196   8.559   9.224   5.823
46391SOL    HW139197   8.499   9.162   5.873
46391SOL    HW239198   8.590   9.180   5.738
46392SOL     OW39199   7.650   7.733   7.084
46392SOL    HW139200   7.570   7.793   7.071
46392SOL    HW239201   7.640   7.684   7.170
46393SOL     OW39202   9.080   8.825   5.667
46393SOL    HW139203   9.048   8.919   5.657
46393SOL    HW239204   9.004   8.762   5.655
46394SOL     OW39205   7.912   9.191   5.909
46394SOL    HW139206   7.945   9.230   5.995
46394SOL    HW239207   7.988   9.184   5.844
46395SOL     OW39208   8.848   7.555   6.012
46395SOL    HW139209   8.824   7.518   5.922
46395SOL    HW239210   8.947   7.571   6.016
46396SOL     OW39211   7.697   9.233   6.827
46396SOL    HW139212   7.754   9.168   6.877
46396SOL    HW239213   7.681   9.200   6.734
46397SOL     OW39214   8.388   9.146   6.490
46397SOL    HW139215   8.468   9.089   6.511
46397SOL    HW239216   8.339   9.106   6.413
46398SOL     OW39217   7.830   8.148   6.066
46398SOL    HW139218   7.875   8.058   6.063
46398SOL    HW239219   7.736   8.137   6.099
46399SOL     OW39220   8.995   7.670   7.315
46399SOL    HW139221   8.990   7.707   7.407
46399SOL    HW239222   8.923   7.601   7.303
46400SOL     OW39223   8.062   7.570   5.703
46400SOL    HW139224   8.160   7.548   5.710
46400SOL    HW239225   8.031   7.553   5.610
46401SOL     OW39226   8.229   7.712   7.335
46401SOL    HW139227   8.296   7.651   7.378
46401SOL    HW239228   8.156   7.731   7.400
46402SOL     OW39229   8.336   8.962   6.781
46402SOL    HW139230   8.313   8.937   6.687
46402SOL    HW239231   8.397   8.893   6.820
46403SOL     OW39232   8.799   8.038   7.019
46403SOL    HW139233   8.827   7.995   7.104
46403SOL    HW239234   8.824   8.134   7.020
46404SOL     OW39235   8.251   8.850   6.510
46404SOL    HW139236   8.341   8.864   6.468
46404SOL    HW239237   8.180   8.852   6.439
46405SOL     OW39238   8.370   7.951   6.485
46405SOL    HW139239   8.345   7.942   6.389
46405SOL    HW239240   8.418   7.869   6.516
46406SOL     OW39241   7.987   7.512   6.098
46406SOL    HW139242   7.906   7.513   6.156
46406SOL    HW239243   7.990   7.595   6.043
46407SOL     OW39244   8.882   8.636   5.627
46407SOL    HW139245   8.914   8.560   5.684
46407SOL    HW239246   8.790   8.663   5.657
46408SOL     OW39247   7.745   7.483   5.757
46408SOL    HW139248   7.794   7.567   5.736
46408SOL    HW239249   7.807   7.418   5.802
46409SOL     OW39250   8.383   7.684   6.066
46409SOL    HW139251   8.335   7.725   5.988
46409SOL    HW239252   8.482   7.682   6.047
46410SOL     OW39253   8.524   8.131   7.050
46410SOL    HW139254   8.444   8.070   7.053
46410SOL    HW239255   8.605   8.078   7.026
46411SOL     OW39256   8.675   9.018   6.379
46411SOL    HW139257   8.696   9.092   6.314
46411SOL    HW239258   8.743   9.018   6.452
46412SOL     OW39259   7.907   8.600   6.327
46412SOL    HW139260   7.836   8.573   6.392
46412SOL    HW239261   7.881   8.572   6.234
46413SOL     OW39262   8.719   9.245   6.177
46413SOL    HW139263   8.763   9.309   6.113
46413SOL    HW239264   8.669   9.297   6.247
46414SOL     OW39265   8.480   7.997   5.602
46414SOL    HW139266   8.439   8.079   5.563
46414SOL    HW239267   8.544   8.023   5.675
46415SOL     OW39268   7.526   8.004   6.972
46415SOL    HW139269   7.618   8.003   6.931
46415SOL    HW239270   7.520   8.078   7.039
46416SOL     OW39271   8.009   7.670   6.733
46416SOL    HW139272   8.047   7.586   6.770
46416SOL    HW239273   7.921   7.689   6.777
46417SOL     OW39274   8.314   7.902   6.228
46417SOL    HW139275   8.282   7.974   6.166
46417SOL    HW239276   8.338   7.821   6.175
46418SOL     OW39277   8.465   7.487   6.339
46418SOL    HW139278   8.393   7.492   6.270
46418SOL    HW239279   8.441   7.418   6.408
46419SOL     OW39280   8.877   8.621   6.453
46419SOL    HW139281   8.822   8.537   6.446
46419SOL    HW239282   8.903   8.650   6.361
46420SOL     OW39283   8.914   8.038   6.578
46420SOL    HW139284   8.884   7.943   6.585
46420SOL    HW239285   8.987   8.054   6.644
46421SOL     OW39286   9.305   8.281   5.963
46421SOL    HW139287   9.347   8.217   6.027
46421SOL    HW239288   9.267   8.230   5.885
46422SOL     OW39289   7.936   8.833   5.760
46422SOL    HW139290   7.849   8.818   5.807
46422SOL    HW239291   7.919   8.859   5.665
46423SOL     OW39292   9.112   8.728   6.243
46423SOL    HW139293   9.211   8.736   6.257
46423SOL    HW239294   9.067   8.812   6.274
46424SOL     OW39295   8.838   8.023   5.664
46424SOL    HW139296   8.784   8.002   5.745
46424SOL    HW239297   8.929   7.982   5.673
46425SOL     OW39298   7.975   7.704   5.914
46425SOL    HW139299   8.002   7.645   5.839
46425SOL    HW239300   7.975   7.799   5.883
46426SOL     OW39301   9.202   8.671   7.174
46426SOL    HW139302   9.293   8.632   7.161
46426SOL    HW239303   9.210   8.767   7.198
46427SOL     OW39304   8.512   8.795   6.926
46427SOL    HW139305   8.432   8.772   6.981
46427SOL    HW239306   8.595   8.769   6.975
46428SOL     OW39307   9.040   9.077   7.211
46428SOL    HW139308   9.067   9.111   7.121
46428SOL    HW239309   9.119   9.039   7.257
46429SOL     OW39310   8.559   8.643   6.686
46429SOL    HW139311   8.519   8.687   6.767
46429SOL    HW239312   8.518   8.680   6.603
46430SOL     OW39313   9.086   8.547   6.665
46430SOL    HW139314   9.091   8.628   6.724
46430SOL    HW239315   9.000   8.549   6.614
46431SOL     OW39316   8.363   7.537   6.988
46431SOL    HW139317   8.388   7.517   6.893
46431SOL    HW239318   8.435   7.593   7.030
46432SOL     OW39319   8.428   8.564   7.305
46432SOL    HW139320   8.329   8.570   7.315
46432SOL    HW239321   8.451   8.484   7.249
46433SOL     OW39322   8.153   8.498   5.954
46433SOL    HW139323   8.139   8.505   6.053
46433SOL    HW239324   8.237   8.447   5.936
46434SOL     OW39325   7.858   8.261   6.837
46434SOL    HW139326   7.944   8.273   6.887
46434SOL    HW239327   7.816   8.174   6.864
46435SOL     OW39328   8.722   7.834   6.848
46435SOL    HW139329   8.743   7.908   6.912
46435SOL    HW239330   8.633   7.851   6.805
46436SOL     OW39331   7.512   9.012   6.917
46436SOL    HW139332   7.466   9.094   6.883
46436SOL    HW239333   7.610   9.031   6.926
46437SOL     OW39334   7.815   8.548   6.087
46437SOL    HW139335   7.808   8.631   6.031
46437SOL    HW239336   7.819   8.468   6.027
46438SOL     OW39337   8.014   7.985   6.451
46438SOL    HW139338   8.026   8.051   6.377
46438SOL    HW239339   8.060   8.019   6.534
46439SOL     OW39340   8.700   8.796   5.974
46439SOL    HW139341   8.750   8.873   6.014
46439SOL    HW239342   8.605   8.798   6.006
46440SOL     OW39343   8.720   8.893   6.728
46440SOL    HW139344   8.767   8.906   6.815
46440SOL    HW239345   8.654   8.819   6.737
46441SOL     OW39346   9.030   8.087   6.058
46441SOL    HW139347   8.999   8.148   6.131
46441SOL    HW239348   9.080   8.139   5.989
46442SOL     OW39349   7.802   8.958   6.915
46442SOL    HW139350   7.781   8.914   6.828
46442SOL    HW239351   7.899   8.984   6.918
46443SOL     OW39352   7.850   8.199   7.184
46443SOL    HW139353   7.918   8.254   7.137
46443SOL    HW239354   7.890   8.111   7.211
46444SOL     OW39355   9.035   8.227   7.256
46444SOL    HW139356   8.943   8.265   7.251
46444SOL    HW239357   9.095   8.274   7.191
46445SOL     OW39358   8.461   7.553   7.356
46445SOL    HW139359   8.467   7.638   7.304
46445SOL    HW239360   8.493   7.477   7.299
46446SOL     OW39361   7.952   7.498   7.326
46446SOL    HW139362   7.910   7.441   7.256
46446SOL    HW239363   7.886   7.567   7.358
46447SOL     OW39364   8.021   8.318   6.615
46447SOL    HW139365   8.065   8.407   6.606
46447SOL    HW239366   7.958   8.318   6.692
46448SOL     OW39367   8.808   8.310   6.631
46448SOL    HW139368   8.733   8.310   6.565
46448SOL    HW239369   8.845   8.218   6.640
46449SOL     OW39370   8.657   7.973   5.861
46449SOL    HW139371   8.670   7.889   5.915
46449SOL    HW239372   8.628   8.047   5.921
46450SOL     OW39373   7.755   7.661   6.817
46450SOL    HW139374   7.732   7.698   6.907
46450SOL    HW239375   7.725   7.566   6.811
46451SOL     OW39376   7.485   8.758   6.868
46451SOL    HW139377   7.538   8.709   6.936
46451SOL    HW239378   7.507   8.856   6.873
46452SOL     OW39379   8.180   8.082   6.650
46452SOL    HW139380   8.239   8.056   6.574
46452SOL    HW239381   8.152   8.178   6.639
46453SOL     OW39382   9.176   8.383   7.440
46453SOL    HW139383   9.130   8.376   7.351
46453SOL    HW239384   9.114   8.427   7.506
46454SOL     OW39385   7.755   7.511   6.204
46454SOL    HW139386   7.744   7.605   6.237
46454SOL    HW239387   7.750   7.448   6.281
46455SOL     OW39388   9.070   7.815   5.960
46455SOL    HW139389   9.072   7.739   6.024
46455SOL    HW239390   9.022   7.892   6.000
46456SOL     OW39391   8.471   8.214   6.552
46456SOL    HW139392   8.486   8.235   6.648
46456SOL    HW239393   8.441   8.119   6.543
46457SOL     OW39394   8.428   9.021   7.286
46457SOL    HW139395   8.408   9.065   7.198
46457SOL    HW239396   8.467   8.930   7.270
46458SOL     OW39397   9.307   8.966   7.191
46458SOL    HW139398   9.321   8.993   7.096
46458SOL    HW239399   9.390   8.988   7.244
46459SOL     OW39400   7.798   8.346   7.390
46459SOL    HW139401   7.874   8.390   7.438
46459SOL    HW239402   7.833   8.299   7.308
46460SOL     OW39403   8.988   7.722   5.711
46460SOL    HW139404   8.927   7.647   5.734
46460SOL    HW239405   9.010   7.774   5.794
46461SOL     OW39406   8.751   8.286   5.628
46461SOL    HW139407   8.785   8.193   5.643
46461SOL    HW239408   8.769   8.313   5.533
46462SOL     OW39409   8.516   8.781   6.435
46462SOL    HW139410   8.523   8.697   6.380
46462SOL    HW239411   8.578   8.850   6.399
46463SOL     OW39412   7.767   8.258   6.535
46463SOL    HW139413   7.860   8.294   6.540
46463SOL    HW239414   7.761   8.173   6.587
46464SOL     OW39415   7.787   7.957   6.592
46464SOL    HW139416   7.735   7.874   6.575
46464SOL    HW239417   7.864   7.962   6.528
46465SOL     OW39418   8.586   7.828   7.264
46465SOL    HW139419   8.541   7.891   7.328
46465SOL    HW239420   8.679   7.859   7.247
46466SOL     OW39421   8.608   7.655   7.063
46466SOL    HW139422   8.608   7.719   7.140
46466SOL    HW239423   8.636   7.703   6.980
46467SOL     OW39424   7.456   8.774   5.786
46467SOL    HW139425   7.363   8.795   5.755
46467SOL    HW239426   7.466   8.675   5.799
46468SOL     OW39427   7.536   9.249   6.513
46468SOL    HW139428   7.494   9.163   6.486
46468SOL    HW239429   7.630   9.252   6.479
46469SOL     OW39430   7.952   9.016   6.496
46469SOL    HW139431   8.018   9.090   6.505
46469SOL    HW239432   7.996   8.937   6.454
46470SOL     OW39433   8.450   8.244   6.824
46470SOL    HW139434   8.491   8.212   6.910
46470SOL    HW239435   8.354   8.217   6.821
46471SOL     OW39436   7.488   7.992   6.700
46471SOL    HW139437   7.573   7.959   6.659
46471SOL    HW239438   7.501   8.007   6.798
46472SOL     OW39439   7.637   7.968   7.308
46472SOL    HW139440   7.696   7.928   7.238
46472SOL    HW239441   7.579   8.039   7.267
46473SOL     OW39442   8.817   8.398   7.246
46473SOL    HW139443   8.856   8.487   7.266
46473SOL    HW239444   8.827   8.378   7.149
46474SOL     OW39445   8.263   8.020   5.911
46474SOL    HW139446   8.270   7.931   5.865
46474SOL    HW239447   8.169   8.054   5.903
46475SOL     OW39448   9.105   8.052   6.792
46475SOL    HW139449   9.067   7.983   6.854
46475SOL    HW239450   9.187   8.016   6.748
46476SOL     OW39451   7.700   9.012   7.330
46476SOL    HW139452   7.670   9.069   7.406
46476SOL    HW239453   7.693   8.915   7.356
46477SOL     OW39454   8.119   7.912   6.855
46477SOL    HW139455   8.085   7.823   6.825
46477SOL    HW239456   8.145   7.966   6.775
46478SOL     OW39457   8.378   9.126   7.051
46478SOL    HW139458   8.354   9.108   6.956
46478SOL    HW239459   8.408   9.220   7.061
46479SOL     OW39460   7.921   7.948   5.777
46479SOL    HW139461   7.982   8.028   5.781
46479SOL    HW239462   7.826   7.979   5.784
46480SOL     OW39463   7.607   8.585   7.052
46480SOL    HW139464   7.629   8.524   7.128
46480SOL    HW239465   7.617   8.536   6.966
46481SOL     OW39466   8.795   8.507   6.820
46481SOL    HW139467   8.819   8.444   6.746
46481SOL    HW239468   8.705   8.547   6.802
46482SOL     OW39469   8.750   8.303   5.895
46482SOL    HW139470   8.664   8.272   5.937
46482SOL    HW239471   8.746   8.289   5.796
46483SOL     OW39472   9.207   9.195   6.740
46483SOL    HW139473   9.268   9.225   6.667
46483SOL    HW239474   9.169   9.106   6.718
46484SOL     OW39475   8.700   9.179   6.714
46484SOL    HW139476   8.784   9.184   6.660
46484SOL    HW239477   8.677   9.083   6.732
46485SOL     OW39478   7.531   8.706   6.608
46485SOL    HW139479   7.526   8.705   6.708
46485SOL    HW239480   7.448   8.665   6.570
46486SOL     OW39481   8.136   9.110   7.302
46486SOL    HW139482   8.080   9.191   7.311
46486SOL    HW239483   8.188   9.114   7.216
46487SOL     OW39484   9.174   7.583   6.109
46487SOL    HW139485   9.247   7.566   6.042
46487SOL    HW239486   9.143   7.496   6.147
46488SOL     OW39487   8.836   9.021   6.063
46488SOL    HW139488   8.903   9.033   5.989
46488SOL    HW239489   8.796   9.110   6.086
46489SOL     OW39490   7.578   9.242   7.437
46489SOL    HW139491   7.537   9.168   7.490
46489SOL    HW239492   7.642   9.293   7.495
46490SOL     OW39493   8.728   8.375   6.258
46490SOL    HW139494   8.788   8.294   6.260
46490SOL    HW239495   8.768   8.444   6.198
46491SOL     OW39496   8.278   8.721   7.008
46491SOL    HW139497   8.273   8.754   7.103
46491SOL    HW239498   8.192   8.740   6.962
46492SOL     OW39499   8.120   9.064   5.740
46492SOL    HW139500   8.129   9.074   5.641
46492SOL    HW239501   8.080   8.975   5.761
46493SOL     OW39502   9.098   9.168   6.980
46493SOL    HW139503   9.151   9.178   6.896
46493SOL    HW239504   9.071   9.258   7.014
46494SOL     OW39505   9.289   7.623   6.549
46494SOL    HW139506   9.328   7.538   6.513
46494SOL    HW239507   9.191   7.625   6.530
46495SOL     OW39508   7.711   7.774   6.306
46495SOL    HW139509   7.632   7.825   6.272
46495SOL    HW239510   7.702   7.759   6.404
46496SOL     OW39511   8.642   9.060   5.617
46496SOL    HW139512   8.648   8.967   5.654
46496SOL    HW239513   8.583   9.060   5.537
46497SOL     OW39514   8.270   8.450   6.958
46497SOL    HW139515   8.310   8.449   6.866
46497SOL    HW239516   8.280   8.542   6.998
46498SOL     OW39517   8.364   8.358   5.877
46498SOL    HW139518   8.427   8.396   5.809
46498SOL    HW239519   8.404   8.275   5.916
46499SOL     OW39520   8.952   9.055   5.630
46499SOL    HW139521   8.860   9.092   5.637
46499SOL    HW239522   8.990   9.075   5.540
46500SOL     OW39523   7.820   8.736   7.076
46500SOL    HW139524   7.807   8.829   7.042
46500SOL    HW239525   7.736   8.684   7.063
46501SOL     OW39526   9.062   8.740   6.875
46501SOL    HW139527   9.122   8.743   6.955
46501SOL    HW239528   8.987   8.804   6.888
46502SOL     OW39529   8.487   8.546   6.282
46502SOL    HW139530   8.417   8.499   6.336
46502SOL    HW239531   8.546   8.478   6.239
46503SOL     OW39532   8.462   7.684   6.557
46503SOL    HW139533   8.454   7.648   6.464
46503SOL    HW239534   8.460   7.608   6.622
46504SOL     OW39535   8.038   8.935   6.077
46504SOL    HW139536   8.080   8.877   6.007
46504SOL    HW239537   7.994   9.014   6.033
46505SOL     OW39538   9.157   7.833   6.967
46505SOL    HW139539   9.230   7.902   6.971
46505SOL    HW239540   9.185   7.758   6.908
46506SOL     OW39541   7.703   8.796   5.876
46506SOL    HW139542   7.607   8.797   5.849
46506SOL    HW239543   7.715   8.849   5.960
46507SOL     OW39544   7.553   8.461   7.312
46507SOL    HW139545   7.476   8.428   7.366
46507SOL    HW239546   7.638   8.431   7.354
46508SOL     OW39547   8.120   7.651   7.075
46508SOL    HW139548   8.210   7.635   7.035
46508SOL    HW239549   8.128   7.656   7.174
46509SOL     OW39550   7.523   7.793   5.619
46509SOL    HW139551   7.431   7.765   5.590
46509SOL    HW239552   7.554   7.870   5.563
46510SOL     OW39553   8.888   8.304   6.984
46510SOL    HW139554   8.831   8.356   6.921
46510SOL    HW239555   8.984   8.316   6.960
46511SOL     OW39556   7.520   7.614   5.904
46511SOL    HW139557   7.503   7.697   5.850
46511SOL    HW239558   7.610   7.577   5.882
46512SOL     OW39559   8.631   8.783   5.705
46512SOL    HW139560   8.532   8.772   5.707
46512SOL    HW239561   8.665   8.798   5.798
46513SOL     OW39562   8.061   8.290   7.017
46513SOL    HW139563   8.117   8.371   7.000
46513SOL    HW239564   8.120   8.210   7.020
46514SOL     OW39565   8.941   9.215   6.545
46514SOL    HW139566   8.974   9.279   6.476
46514SOL    HW239567   9.007   9.209   6.620
46515SOL     OW39568   8.164   8.013   7.294
46515SOL    HW139569   8.183   8.078   7.368
46515SOL    HW239570   8.224   7.933   7.303
46516SOL     OW39571   8.898   8.668   7.219
46516SOL    HW139572   8.889   8.658   7.318
46516SOL    HW239573   8.994   8.661   7.193
46517SOL     OW39574   7.838   9.189   7.146
46517SOL    HW139575   7.747   9.230   7.144
46517SOL    HW239576   7.831   9.095   7.178
46518SOL     OW39577   9.122   8.331   6.840
46518SOL    HW139578   9.095   8.242   6.803
46518SOL    HW239579   9.123   8.399   6.767
46519SOL     OW39580   8.673   7.773   6.035
46519SOL    HW139581   8.738   7.699   6.024
46519SOL    HW239582   8.693   7.823   6.119
46520SOL     OW39583   8.042   8.193   6.238
46520SOL    HW139584   8.092   8.278   6.219
46520SOL    HW239585   7.954   8.195   6.190
46521SOL     OW39586   9.225   7.790   7.228
46521SOL    HW139587   9.208   7.821   7.134
46521SOL    HW239588   9.141   7.753   7.266
46522SOL     OW39589   9.178   8.382   7.103
46522SOL    HW139590   9.216   8.473   7.118
46522SOL    HW239591   9.170   8.365   7.004
46523SOL     OW39592   8.307   8.822   5.602
46523SOL    HW139593   8.261   8.837   5.690
46523SOL    HW239594   8.351   8.907   5.572
46524SOL     OW39595   8.109   9.238   6.539
46524SOL    HW139596   8.063   9.326   6.526
46524SOL    HW239597   8.208   9.250   6.532
46525SOL     OW39598   8.307   8.404   6.447
46525SOL    HW139599   8.361   8.335   6.495
46525SOL    HW239600   8.275   8.473   6.513
46526SOL     OW39601   8.531   8.432   5.673
46526SOL    HW139602   8.508   8.485   5.591
46526SOL    HW239603   8.612   8.376   5.654
46527SOL     OW39604   9.309   9.017   6.437
46527SOL    HW139605   9.238   9.005   6.367
46527SOL    HW239606   9.310   8.938   6.497
46528SOL     OW39607   7.669   8.762   7.430
46528SOL    HW139608   7.604   8.689   7.409
46528SOL    HW239609   7.673   8.776   7.528
46529SOL     OW39610   7.527   8.688   6.239
46529SOL    HW139611   7.526   8.641   6.327
46529SOL    HW239612   7.609   8.660   6.188
46530SOL     OW39613   8.120   8.839   7.210
46530SOL    HW139614   8.042   8.789   7.248
46530SOL    HW239615   8.117   8.934   7.241
46531SOL     OW39616   9.272   7.640   6.813
46531SOL    HW139617   9.268   7.550   6.857
46531SOL    HW239618   9.275   7.629   6.714
46532SOL     OW39619   7.876   7.872   6.106
46532SOL    HW139620   7.906   7.800   6.044
46532SOL    HW239621   7.837   7.832   6.189
46533SOL     OW39622   9.153   8.935   6.690
46533SOL    HW139623   9.060   8.910   6.663
46533SOL    HW239624   9.179   8.885   6.772
46534SOL     OW39625   7.765   7.995   6.866
46534SOL    HW139626   7.803   7.936   6.938
46534SOL    HW239627   7.805   7.969   6.778
46535SOL     OW39628   8.260   9.034   6.273
46535SOL    HW139629   8.292   9.044   6.179
46535SOL    HW239630   8.181   8.972   6.275
46536SOL     OW39631   8.872   7.662   6.698
46536SOL    HW139632   8.924   7.597   6.753
46536SOL    HW239633   8.823   7.725   6.759
46537SOL     OW39634   8.449   7.482   6.740
46537SOL    HW139635   8.386   7.410   6.709
46537SOL    HW239636   8.542   7.446   6.740
46538SOL     OW39637   8.218   8.778   5.887
46538SOL    HW139638   8.172   8.691   5.904
46538SOL    HW239639   8.309   8.775   5.928
46539SOL     OW39640   8.066   9.015   6.870
46539SOL    HW139641   8.061   9.097   6.927
46539SOL    HW239642   8.155   9.012   6.825
46540SOL     OW39643   8.800   7.500   5.754
46540SOL    HW139644   8.835   7.459   5.670
46540SOL    HW239645   8.710   7.462   5.774
46541SOL     OW39646   8.748   7.901   6.277
46541SOL    HW139647   8.689   7.981   6.281
46541SOL    HW239648   8.763   7.866   6.370
46542SOL     OW39649   9.041   7.669   6.468
46542SOL    HW139650   8.957   7.668   6.522
46542SOL    HW239651   9.043   7.752   6.412
46543SOL     OW39652   7.487   8.525   5.886
46543SOL    HW139653   7.586   8.514   5.877
46543SOL    HW239654   7.447   8.439   5.918
46544SOL     OW39655   8.323   9.094   5.923
46544SOL    HW139656   8.246   9.059   5.869
46544SOL    HW239657   8.291   9.165   5.985
46545SOL     OW39658   7.678   8.076   7.561
46545SOL    HW139659   7.585   8.074   7.598
46545SOL    HW239660   7.679   8.037   7.469
46546SOL     OW39661   7.673   7.723   8.444
46546SOL    HW139662   7.708   7.706   8.536
46546SOL    HW239663   7.585   7.678   8.432
46547SOL     OW39664   7.467   7.816   8.095
46547SOL    HW139665   7.385   7.859   8.134
46547SOL    HW239666   7.439   7.743   8.032
46548SOL     OW39667   8.017   8.723   8.613
46548SOL    HW139668   7.924   8.716   8.576
46548SOL    HW239669   8.028   8.812   8.657
46549SOL     OW39670   9.003   8.959   8.151
46549SOL    HW139671   8.946   8.943   8.232
46549SOL    HW239672   8.944   8.969   8.071
46550SOL     OW39673   8.583   8.151   8.165
46550SOL    HW139674   8.640   8.229   8.140
46550SOL    HW239675   8.523   8.177   8.241
46551SOL     OW39676   9.203   8.055   7.679
46551SOL    HW139677   9.191   8.042   7.580
46551SOL    HW239678   9.173   7.974   7.728
46552SOL     OW39679   8.216   8.592   8.471
46552SOL    HW139680   8.138   8.609   8.531
46552SOL    HW239681   8.250   8.679   8.435
46553SOL     OW39682   8.298   8.246   9.271
46553SOL    HW139683   8.294   8.322   9.336
46553SOL    HW239684   8.320   8.282   9.180
46554SOL     OW39685   8.133   8.460   8.113
46554SOL    HW139686   8.202   8.444   8.183
46554SOL    HW239687   8.060   8.517   8.151
46555SOL     OW39688   8.134   8.609   9.251
46555SOL    HW139689   8.194   8.688   9.265
46555SOL    HW239690   8.048   8.640   9.210
46556SOL     OW39691   7.783   8.883   8.509
46556SOL    HW139692   7.705   8.852   8.456
46556SOL    HW239693   7.841   8.941   8.452
46557SOL     OW39694   8.908   8.953   8.787
46557SOL    HW139695   8.932   9.047   8.813
46557SOL    HW239696   8.892   8.899   8.869
46558SOL     OW39697   7.886   7.840   8.947
46558SOL    HW139698   7.968   7.784   8.956
46558SOL    HW239699   7.805   7.782   8.951
46559SOL     OW39700   9.051   7.895   8.185
46559SOL    HW139701   8.977   7.941   8.135
46559SOL    HW239702   9.102   7.963   8.238
46560SOL     OW39703   7.679   9.161   7.931
46560SOL    HW139704   7.713   9.238   7.985
46560SOL    HW239705   7.723   9.161   7.841
46561SOL     OW39706   8.575   8.789   9.138
46561SOL    HW139707   8.622   8.789   9.226
46561SOL    HW239708   8.527   8.702   9.127
46562SOL     OW39709   7.678   8.882   7.986
46562SOL    HW139710   7.652   8.978   7.986
46562SOL    HW239711   7.607   8.828   8.031
46563SOL     OW39712   7.688   8.539   8.334
46563SOL    HW139713   7.702   8.455   8.386
46563SOL    HW239714   7.633   8.603   8.389
46564SOL     OW39715   8.068   9.234   8.887
46564SOL    HW139716   7.976   9.217   8.922
46564SOL    HW239717   8.096   9.326   8.913
46565SOL     OW39718   8.054   8.412   7.571
46565SOL    HW139719   8.061   8.496   7.517
46565SOL    HW239720   8.100   8.425   7.659
46566SOL     OW39721   9.042   7.562   8.928
46566SOL    HW139722   9.024   7.629   8.856
46566SOL    HW239723   9.039   7.608   9.017
46567SOL     OW39724   7.570   8.091   8.011
46567SOL    HW139725   7.525   8.003   8.028
46567SOL    HW239726   7.569   8.145   8.095
46568SOL     OW39727   9.290   9.215   7.807
46568SOL    HW139728   9.344   9.186   7.887
46568SOL    HW239729   9.320   9.305   7.778
46569SOL     OW39730   7.475   9.044   7.565
46569SOL    HW139731   7.456   8.948   7.586
46569SOL    HW239732   7.442   9.102   7.640
46570SOL     OW39733   9.137   8.370   8.060
46570SOL    HW139734   9.232   8.341   8.068
46570SOL    HW239735   9.129   8.435   7.985
46571SOL     OW39736   9.089   8.556   7.880
46571SOL    HW139737   9.175   8.558   7.828
46571SOL    HW239738   9.103   8.603   7.968
46572SOL     OW39739   7.561   8.185   9.045
46572SOL    HW139740   7.649   8.172   9.090
46572SOL    HW239741   7.548   8.282   9.023
46573SOL     OW39742   8.061   8.813   8.174
46573SOL    HW139743   8.012   8.726   8.183
46573SOL    HW239744   8.038   8.856   8.087
46574SOL     OW39745   8.741   8.676   8.871
46574SOL    HW139746   8.778   8.603   8.813
46574SOL    HW239747   8.793   8.681   8.956
46575SOL     OW39748   8.257   7.452   7.950
46575SOL    HW139749   8.297   7.543   7.941
46575SOL    HW239750   8.157   7.460   7.956
46576SOL     OW39751   7.645   8.424   8.712
46576SOL    HW139752   7.734   8.379   8.698
46576SOL    HW239753   7.572   8.359   8.693
46577SOL     OW39754   8.973   8.447   7.638
46577SOL    HW139755   8.910   8.371   7.651
46577SOL    HW239756   9.021   8.465   7.724
46578SOL     OW39757   8.635   9.240   9.064
46578SOL    HW139758   8.659   9.300   8.988
46578SOL    HW239759   8.642   9.145   9.034
46579SOL     OW39760   7.765   7.699   9.249
46579SOL    HW139761   7.836   7.770   9.255
46579SOL    HW239762   7.677   7.738   9.277
46580SOL     OW39763   8.914   8.865   8.401
46580SOL    HW139764   8.855   8.871   8.481
46580SOL    HW239765   8.899   8.777   8.355
46581SOL     OW39766   9.115   9.162   8.020
46581SOL    HW139767   9.074   9.139   7.932
46581SOL    HW239768   9.097   9.088   8.085
46582SOL     OW39769   8.046   8.177   7.718
46582SOL    HW139770   8.070   8.246   7.650
46582SOL    HW239771   7.968   8.210   7.772
46583SOL     OW39772   8.729   7.793   8.392
46583SOL    HW139773   8.643   7.743   8.379
46583SOL    HW239774   8.791   7.739   8.448
46584SOL     OW39775   9.024   9.110   7.755
46584SOL    HW139776   9.113   9.156   7.758
46584SOL    HW239777   9.003   9.086   7.660
46585SOL     OW39778   8.255   8.053   8.913
46585SOL    HW139779   8.208   8.050   9.002
46585SOL    HW239780   8.204   7.998   8.847
46586SOL     OW39781   8.842   7.917   9.122
46586SOL    HW139782   8.822   7.960   9.210
46586SOL    HW239783   8.920   7.855   9.131
46587SOL     OW39784   8.421   8.338   9.020
46587SOL    HW139785   8.467   8.254   8.991
46587SOL    HW239786   8.365   8.372   8.945
46588SOL     OW39787   8.439   7.858   8.690
46588SOL    HW139788   8.362   7.892   8.744
46588SOL    HW239789   8.405   7.807   8.611
46589SOL     OW39790   8.489   8.149   7.877
46589SOL    HW139791   8.515   8.145   7.973
46589SOL    HW239792   8.404   8.098   7.863
46590SOL     OW39793   7.524   8.259   8.237
46590SOL    HW139794   7.623   8.247   8.246
46590SOL    HW239795   7.500   8.354   8.258
46591SOL     OW39796   7.578   9.269   9.019
46591SOL    HW139797   7.568   9.254   9.118
46591SOL    HW239798   7.492   9.305   8.983
46592SOL     OW39799   8.313   7.796   7.643
46592SOL    HW139800   8.372   7.859   7.594
46592SOL    HW239801   8.332   7.702   7.614
46593SOL     OW39802   9.167   8.033   9.279
46593SOL    HW139803   9.141   8.122   9.243
46593SOL    HW239804   9.165   7.965   9.206
46594SOL     OW39805   8.810   8.592   7.993
46594SOL    HW139806   8.893   8.563   7.945
46594SOL    HW239807   8.761   8.659   7.937
46595SOL     OW39808   7.998   7.644   8.333
46595SOL    HW139809   7.993   7.639   8.433
46595SOL    HW239810   8.000   7.740   8.304
46596SOL     OW39811   8.456   8.904   7.925
46596SOL    HW139812   8.410   8.976   7.873
46596SOL    HW239813   8.452   8.924   8.023
46597SOL     OW39814   7.799   9.249   8.301
46597SOL    HW139815   7.849   9.163   8.307
46597SOL    HW239816   7.864   9.326   8.298
46598SOL     OW39817   9.243   8.514   8.321
46598SOL    HW139818   9.181   8.499   8.245
46598SOL    HW239819   9.191   8.525   8.406
46599SOL     OW39820   8.675   8.998   8.954
46599SOL    HW139821   8.681   8.921   9.018
46599SOL    HW239822   8.623   8.972   8.874
46600SOL     OW39823   7.769   8.391   7.690
46600SOL    HW139824   7.851   8.430   7.648
46600SOL    HW239825   7.742   8.309   7.641
46601SOL     OW39826   8.906   8.183   8.176
46601SOL    HW139827   8.901   8.118   8.251
46601SOL    HW239828   8.986   8.242   8.189
46602SOL     OW39829   7.909   8.714   9.175
46602SOL    HW139830   7.859   8.715   9.089
46602SOL    HW239831   7.846   8.696   9.251
46603SOL     OW39832   8.559   9.224   7.685
46603SOL    HW139833   8.499   9.162   7.735
46603SOL    HW239834   8.590   9.180   7.600
46604SOL     OW39835   7.650   7.733   8.946
46604SOL    HW139836   7.570   7.793   8.933
46604SOL    HW239837   7.640   7.684   9.032
46605SOL     OW39838   9.080   8.825   7.529
46605SOL    HW139839   9.048   8.919   7.519
46605SOL    HW239840   9.004   8.762   7.517
46606SOL     OW39841   7.912   9.191   7.771
46606SOL    HW139842   7.945   9.230   7.857
46606SOL    HW239843   7.988   9.184   7.706
46607SOL     OW39844   8.848   7.555   7.874
46607SOL    HW139845   8.824   7.518   7.784
46607SOL    HW239846   8.947   7.571   7.878
46608SOL     OW39847   7.697   9.233   8.689
46608SOL    HW139848   7.754   9.168   8.739
46608SOL    HW239849   7.681   9.200   8.596
46609SOL     OW39850   8.388   9.146   8.352
46609SOL    HW139851   8.468   9.089   8.373
46609SOL    HW239852   8.339   9.106   8.275
46610SOL     OW39853   7.830   8.148   7.928
46610SOL    HW139854   7.875   8.058   7.925
46610SOL    HW239855   7.736   8.137   7.961
46611SOL     OW39856   8.995   7.670   9.177
46611SOL    HW139857   8.990   7.707   9.269
46611SOL    HW239858   8.923   7.601   9.165
46612SOL     OW39859   8.062   7.570   7.565
46612SOL    HW139860   8.160   7.548   7.572
46612SOL    HW239861   8.031   7.553   7.472
46613SOL     OW39862   8.229   7.712   9.197
46613SOL    HW139863   8.296   7.651   9.240
46613SOL    HW239864   8.156   7.731   9.262
46614SOL     OW39865   8.336   8.962   8.643
46614SOL    HW139866   8.313   8.937   8.549
46614SOL    HW239867   8.397   8.893   8.682
46615SOL     OW39868   8.799   8.038   8.881
46615SOL    HW139869   8.827   7.995   8.966
46615SOL    HW239870   8.824   8.134   8.882
46616SOL     OW39871   8.251   8.850   8.372
46616SOL    HW139872   8.341   8.864   8.330
46616SOL    HW239873   8.180   8.852   8.301
46617SOL     OW39874   8.370   7.951   8.347
46617SOL    HW139875   8.345   7.942   8.251
46617SOL    HW239876   8.418   7.869   8.378
46618SOL     OW39877   7.987   7.512   7.960
46618SOL    HW139878   7.906   7.513   8.018
46618SOL    HW239879   7.990   7.595   7.905
46619SOL     OW39880   8.882   8.636   7.489
46619SOL    HW139881   8.914   8.560   7.546
46619SOL    HW239882   8.790   8.663   7.519
46620SOL     OW39883   7.745   7.483   7.619
46620SOL    HW139884   7.794   7.567   7.598
46620SOL    HW239885   7.807   7.418   7.664
46621SOL     OW39886   8.383   7.684   7.928
46621SOL    HW139887   8.335   7.725   7.850
46621SOL    HW239888   8.482   7.682   7.909
46622SOL     OW39889   8.524   8.131   8.912
46622SOL    HW139890   8.444   8.070   8.915
46622SOL    HW239891   8.605   8.078   8.888
46623SOL     OW39892   8.675   9.018   8.241
46623SOL    HW139893   8.696   9.092   8.176
46623SOL    HW239894   8.743   9.018   8.314
46624SOL     OW39895   7.907   8.600   8.189
46624SOL    HW139896   7.836   8.573   8.254
46624SOL    HW239897   7.881   8.572   8.096
46625SOL     OW39898   8.719   9.245   8.039
46625SOL    HW139899   8.763   9.309   7.975
46625SOL    HW239900   8.669   9.297   8.109
46626SOL     OW39901   8.480   7.997   7.464
46626SOL    HW139902   8.439   8.079   7.425
46626SOL    HW239903   8.544   8.023   7.537
46627SOL     OW39904   7.526   8.004   8.834
46627SOL    HW139905   7.618   8.003   8.793
46627SOL    HW239906   7.520   8.078   8.901
46628SOL     OW39907   8.009   7.670   8.595
46628SOL    HW139908   8.047   7.586   8.632
46628SOL    HW239909   7.921   7.689   8.639
46629SOL     OW39910   8.314   7.902   8.090
46629SOL    HW139911   8.282   7.974   8.028
46629SOL    HW239912   8.338   7.821   8.037
46630SOL     OW39913   8.465   7.487   8.201
46630SOL    HW139914   8.393   7.492   8.132
46630SOL    HW239915   8.441   7.418   8.270
46631SOL     OW39916   8.877   8.621   8.315
46631SOL    HW139917   8.822   8.537   8.308
46631SOL    HW239918   8.903   8.650   8.223
46632SOL     OW39919   8.914   8.038   8.440
46632SOL    HW139920   8.884   7.943   8.447
46632SOL    HW239921   8.987   8.054   8.506
46633SOL     OW39922   9.305   8.281   7.825
46633SOL    HW139923   9.347   8.217   7.889
46633SOL    HW239924   9.267   8.230   7.747
46634SOL     OW39925   7.936   8.833   7.622
46634SOL    HW139926   7.849   8.818   7.669
46634SOL    HW239927   7.919   8.859   7.527
46635SOL     OW39928   9.112   8.728   8.105
46635SOL    HW139929   9.211   8.736   8.119
46635SOL    HW239930   9.067   8.812   8.136
46636SOL     OW39931   8.838   8.023   7.526
46636SOL    HW139932   8.784   8.002   7.607
46636SOL    HW239933   8.929   7.982   7.535
46637SOL     OW39934   7.975   7.704   7.776
46637SOL    HW139935   8.002   7.645   7.701
46637SOL    HW239936   7.975   7.799   7.745
46638SOL     OW39937   9.202   8.671   9.036
46638SOL    HW139938   9.293   8.632   9.023
46638SOL    HW239939   9.210   8.767   9.060
46639SOL     OW39940   8.512   8.795   8.788
46639SOL    HW139941   8.432   8.772   8.843
46639SOL    HW239942   8.595   8.769   8.837
46640SOL     OW39943   9.040   9.077   9.073
46640SOL    HW139944   9.067   9.111   8.983
46640SOL    HW239945   9.119   9.039   9.119
46641SOL     OW39946   8.559   8.643   8.548
46641SOL    HW139947   8.519   8.687   8.629
46641SOL    HW239948   8.518   8.680   8.465
46642SOL     OW39949   9.086   8.547   8.527
46642SOL    HW139950   9.091   8.628   8.586
46642SOL    HW239951   9.000   8.549   8.476
46643SOL     OW39952   8.363   7.537   8.850
46643SOL    HW139953   8.388   7.517   8.755
46643SOL    HW239954   8.435   7.593   8.892
46644SOL     OW39955   8.428   8.564   9.167
46644SOL    HW139956   8.329   8.570   9.177
46644SOL    HW239957   8.451   8.484   9.111
46645SOL     OW39958   8.153   8.498   7.816
46645SOL    HW139959   8.139   8.505   7.915
46645SOL    HW239960   8.237   8.447   7.798
46646SOL     OW39961   7.858   8.261   8.699
46646SOL    HW139962   7.944   8.273   8.749
46646SOL    HW239963   7.816   8.174   8.726
46647SOL     OW39964   8.722   7.834   8.710
46647SOL    HW139965   8.743   7.908   8.774
46647SOL    HW239966   8.633   7.851   8.667
46648SOL     OW39967   7.512   9.012   8.779
46648SOL    HW139968   7.466   9.094   8.745
46648SOL    HW239969   7.610   9.031   8.788
46649SOL     OW39970   7.815   8.548   7.949
46649SOL    HW139971   7.808   8.631   7.893
46649SOL    HW239972   7.819   8.468   7.889
46650SOL     OW39973   8.014   7.985   8.313
46650SOL    HW139974   8.026   8.051   8.239
46650SOL    HW239975   8.060   8.019   8.396
46651SOL     OW39976   8.700   8.796   7.836
46651SOL    HW139977   8.750   8.873   7.876
46651SOL    HW239978   8.605   8.798   7.868
46652SOL     OW39979   8.720   8.893   8.590
46652SOL    HW139980   8.767   8.906   8.677
46652SOL    HW239981   8.654   8.819   8.599
46653SOL     OW39982   9.030   8.087   7.920
46653SOL    HW139983   8.999   8.148   7.993
46653SOL    HW239984   9.080   8.139   7.851
46654SOL     OW39985   7.802   8.958   8.777
46654SOL    HW139986   7.781   8.914   8.690
46654SOL    HW239987   7.899   8.984   8.780
46655SOL     OW39988   7.850   8.199   9.046
46655SOL    HW139989   7.918   8.254   8.999
46655SOL    HW239990   7.890   8.111   9.073
46656SOL     OW39991   9.035   8.227   9.118
46656SOL    HW139992   8.943   8.265   9.113
46656SOL    HW239993   9.095   8.274   9.053
46657SOL     OW39994   8.461   7.553   9.218
46657SOL    HW139995   8.467   7.638   9.166
46657SOL    HW239996   8.493   7.477   9.161
46658SOL     OW39997   7.952   7.498   9.188
46658SOL    HW139998   7.910   7.441   9.118
46658SOL    HW239999   7.886   7.567   9.220
46659SOL     OW40000   8.808   8.310   8.493
46659SOL    HW140001   8.733   8.310   8.427
46659SOL    HW240002   8.845   8.218   8.502
46660SOL     OW40003   8.657   7.973   7.723
46660SOL    HW140004   8.670   7.889   7.777
46660SOL    HW240005   8.628   8.047   7.783
46661SOL     OW40006   7.755   7.661   8.679
46661SOL    HW140007   7.732   7.698   8.769
46661SOL    HW240008   7.725   7.566   8.673
46662SOL     OW40009   7.485   8.758   8.730
46662SOL    HW140010   7.538   8.709   8.798
46662SOL    HW240011   7.507   8.856   8.735
46663SOL     OW40012   8.180   8.082   8.512
46663SOL    HW140013   8.239   8.056   8.436
46663SOL    HW240014   8.152   8.178   8.501
46664SOL     OW40015   9.176   8.383   9.302
46664SOL    HW140016   9.130   8.376   9.213
46664SOL    HW240017   9.114   8.427   9.368
46665SOL     OW40018   7.755   7.511   8.066
46665SOL    HW140019   7.744   7.605   8.099
46665SOL    HW240020   7.750   7.448   8.143
46666SOL     OW40021   9.070   7.815   7.822
46666SOL    HW140022   9.072   7.739   7.886
46666SOL    HW240023   9.022   7.892   7.862
46667SOL     OW40024   8.471   8.214   8.414
46667SOL    HW140025   8.486   8.235   8.510
46667SOL    HW240026   8.441   8.119   8.405
46668SOL     OW40027   8.428   9.021   9.148
46668SOL    HW140028   8.408   9.065   9.060
46668SOL    HW240029   8.467   8.930   9.132
46669SOL     OW40030   9.307   8.966   9.053
46669SOL    HW140031   9.321   8.993   8.958
46669SOL    HW240032   9.390   8.988   9.106
46670SOL     OW40033   7.798   8.346   9.252
46670SOL    HW140034   7.874   8.390   9.300
46670SOL    HW240035   7.833   8.299   9.170
46671SOL     OW40036   8.988   7.722   7.573
46671SOL    HW140037   8.927   7.647   7.596
46671SOL    HW240038   9.010   7.774   7.656
46672SOL     OW40039   8.751   8.286   7.490
46672SOL    HW140040   8.785   8.193   7.505
46672SOL    HW240041   8.769   8.313   7.395
46673SOL     OW40042   8.516   8.781   8.297
46673SOL    HW140043   8.523   8.697   8.242
46673SOL    HW240044   8.578   8.850   8.261
46674SOL     OW40045   7.767   8.258   8.397
46674SOL    HW140046   7.860   8.294   8.402
46674SOL    HW240047   7.761   8.173   8.449
46675SOL     OW40048   7.787   7.957   8.454
46675SOL    HW140049   7.735   7.874   8.437
46675SOL    HW240050   7.864   7.962   8.390
46676SOL     OW40051   8.586   7.828   9.126
46676SOL    HW140052   8.541   7.891   9.190
46676SOL    HW240053   8.679   7.859   9.109
46677SOL     OW40054   8.608   7.655   8.925
46677SOL    HW140055   8.608   7.719   9.002
46677SOL    HW240056   8.636   7.703   8.842
46678SOL     OW40057   7.456   8.774   7.648
46678SOL    HW140058   7.363   8.795   7.617
46678SOL    HW240059   7.466   8.675   7.661
46679SOL     OW40060   7.536   9.249   8.375
46679SOL    HW140061   7.494   9.163   8.348
46679SOL    HW240062   7.630   9.252   8.341
46680SOL     OW40063   7.952   9.016   8.358
46680SOL    HW140064   8.018   9.090   8.367
46680SOL    HW240065   7.996   8.937   8.316
46681SOL     OW40066   8.450   8.244   8.686
46681SOL    HW140067   8.491   8.212   8.772
46681SOL    HW240068   8.354   8.217   8.683
46682SOL     OW40069   7.488   7.992   8.562
46682SOL    HW140070   7.573   7.959   8.521
46682SOL    HW240071   7.501   8.007   8.660
46683SOL     OW40072   7.637   7.968   9.170
46683SOL    HW140073   7.696   7.928   9.100
46683SOL    HW240074   7.579   8.039   9.129
46684SOL     OW40075   8.817   8.398   9.108
46684SOL    HW140076   8.856   8.487   9.128
46684SOL    HW240077   8.827   8.378   9.011
46685SOL     OW40078   8.263   8.020   7.773
46685SOL    HW140079   8.270   7.931   7.727
46685SOL    HW240080   8.169   8.054   7.765
46686SOL     OW40081   9.105   8.052   8.654
46686SOL    HW140082   9.067   7.983   8.716
46686SOL    HW240083   9.187   8.016   8.610
46687SOL     OW40084   7.700   9.012   9.192
46687SOL    HW140085   7.670   9.069   9.268
46687SOL    HW240086   7.693   8.915   9.218
46688SOL     OW40087   8.119   7.912   8.717
46688SOL    HW140088   8.085   7.823   8.687
46688SOL    HW240089   8.145   7.966   8.637
46689SOL     OW40090   8.378   9.126   8.913
46689SOL    HW140091   8.354   9.108   8.818
46689SOL    HW240092   8.408   9.220   8.923
46690SOL     OW40093   7.921   7.948   7.639
46690SOL    HW140094   7.982   8.028   7.643
46690SOL    HW240095   7.826   7.979   7.646
46691SOL     OW40096   7.607   8.585   8.914
46691SOL    HW140097   7.629   8.524   8.990
46691SOL    HW240098   7.617   8.536   8.828
46692SOL     OW40099   8.795   8.507   8.682
46692SOL    HW140100   8.819   8.444   8.608
46692SOL    HW240101   8.705   8.547   8.664
46693SOL     OW40102   8.750   8.303   7.757
46693SOL    HW140103   8.664   8.272   7.799
46693SOL    HW240104   8.746   8.289   7.658
46694SOL     OW40105   9.207   9.195   8.602
46694SOL    HW140106   9.268   9.225   8.529
46694SOL    HW240107   9.169   9.106   8.580
46695SOL     OW40108   8.700   9.179   8.576
46695SOL    HW140109   8.784   9.184   8.522
46695SOL    HW240110   8.677   9.083   8.594
46696SOL     OW40111   7.531   8.706   8.470
46696SOL    HW140112   7.526   8.705   8.570
46696SOL    HW240113   7.448   8.665   8.432
46697SOL     OW40114   8.136   9.110   9.164
46697SOL    HW140115   8.080   9.191   9.173
46697SOL    HW240116   8.188   9.114   9.078
46698SOL     OW40117   9.174   7.583   7.971
46698SOL    HW140118   9.247   7.566   7.904
46698SOL    HW240119   9.143   7.496   8.009
46699SOL     OW40120   8.836   9.021   7.925
46699SOL    HW140121   8.903   9.033   7.851
46699SOL    HW240122   8.796   9.110   7.948
46700SOL     OW40123   7.578   9.242   9.299
46700SOL    HW140124   7.537   9.168   9.352
46700SOL    HW240125   7.642   9.293   9.357
46701SOL     OW40126   8.728   8.375   8.120
46701SOL    HW140127   8.788   8.294   8.122
46701SOL    HW240128   8.768   8.444   8.060
46702SOL     OW40129   8.278   8.721   8.870
46702SOL    HW140130   8.273   8.754   8.965
46702SOL    HW240131   8.192   8.740   8.824
46703SOL     OW40132   8.120   9.064   7.602
46703SOL    HW140133   8.129   9.074   7.503
46703SOL    HW240134   8.080   8.975   7.623
46704SOL     OW40135   9.098   9.168   8.842
46704SOL    HW140136   9.151   9.178   8.758
46704SOL    HW240137   9.071   9.258   8.876
46705SOL     OW40138   9.289   7.623   8.411
46705SOL    HW140139   9.328   7.538   8.375
46705SOL    HW240140   9.191   7.625   8.392
46706SOL     OW40141   7.711   7.774   8.168
46706SOL    HW140142   7.632   7.825   8.134
46706SOL    HW240143   7.702   7.759   8.266
46707SOL     OW40144   8.642   9.060   7.479
46707SOL    HW140145   8.648   8.967   7.516
46707SOL    HW240146   8.583   9.060   7.399
46708SOL     OW40147   8.270   8.450   8.820
46708SOL    HW140148   8.310   8.449   8.728
46708SOL    HW240149   8.280   8.542   8.860
46709SOL     OW40150   8.364   8.358   7.739
46709SOL    HW140151   8.427   8.396   7.671
46709SOL    HW240152   8.404   8.275   7.778
46710SOL     OW40153   8.952   9.055   7.492
46710SOL    HW140154   8.860   9.092   7.499
46710SOL    HW240155   8.990   9.075   7.402
46711SOL     OW40156   7.820   8.736   8.938
46711SOL    HW140157   7.807   8.829   8.904
46711SOL    HW240158   7.736   8.684   8.925
46712SOL     OW40159   9.062   8.740   8.737
46712SOL    HW140160   9.122   8.743   8.817
46712SOL    HW240161   8.987   8.804   8.750
46713SOL     OW40162   8.487   8.546   8.144
46713SOL    HW140163   8.417   8.499   8.198
46713SOL    HW240164   8.546   8.478   8.101
46714SOL     OW40165   8.462   7.684   8.419
46714SOL    HW140166   8.454   7.648   8.326
46714SOL    HW240167   8.460   7.608   8.484
46715SOL     OW40168   8.038   8.935   7.939
46715SOL    HW140169   8.080   8.877   7.869
46715SOL    HW240170   7.994   9.014   7.895
46716SOL     OW40171   9.157   7.833   8.829
46716SOL    HW140172   9.230   7.902   8.833
46716SOL    HW240173   9.185   7.758   8.770
46717SOL     OW40174   7.703   8.796   7.738
46717SOL    HW140175   7.607   8.797   7.711
46717SOL    HW240176   7.715   8.849   7.822
46718SOL     OW40177   7.553   8.461   9.174
46718SOL    HW140178   7.476   8.428   9.228
46718SOL    HW240179   7.638   8.431   9.216
46719SOL     OW40180   8.120   7.651   8.937
46719SOL    HW140181   8.210   7.635   8.897
46719SOL    HW240182   8.128   7.656   9.036
46720SOL     OW40183   7.523   7.793   7.481
46720SOL    HW140184   7.431   7.765   7.452
46720SOL    HW240185   7.554   7.870   7.425
46721SOL     OW40186   8.888   8.304   8.846
46721SOL    HW140187   8.831   8.356   8.783
46721SOL    HW240188   8.984   8.316   8.822
46722SOL     OW40189   7.520   7.614   7.766
46722SOL    HW140190   7.503   7.697   7.712
46722SOL    HW240191   7.610   7.577   7.744
46723SOL     OW40192   8.631   8.783   7.567
46723SOL    HW140193   8.532   8.772   7.569
46723SOL    HW240194   8.665   8.798   7.660
46724SOL     OW40195   8.061   8.290   8.879
46724SOL    HW140196   8.117   8.371   8.862
46724SOL    HW240197   8.120   8.210   8.882
46725SOL     OW40198   8.941   9.215   8.407
46725SOL    HW140199   8.974   9.279   8.338
46725SOL    HW240200   9.007   9.209   8.482
46726SOL     OW40201   8.164   8.013   9.156
46726SOL    HW140202   8.183   8.078   9.230
46726SOL    HW240203   8.224   7.933   9.165
46727SOL     OW40204   8.898   8.668   9.081
46727SOL    HW140205   8.889   8.658   9.180
46727SOL    HW240206   8.994   8.661   9.055
46728SOL     OW40207   7.838   9.189   9.008
46728SOL    HW140208   7.747   9.230   9.006
46728SOL    HW240209   7.831   9.095   9.040
46729SOL     OW40210   9.122   8.331   8.702
46729SOL    HW140211   9.095   8.242   8.665
46729SOL    HW240212   9.123   8.399   8.629
46730SOL     OW40213   8.673   7.773   7.897
46730SOL    HW140214   8.738   7.699   7.886
46730SOL    HW240215   8.693   7.823   7.981
46731SOL     OW40216   8.042   8.193   8.100
46731SOL    HW140217   8.092   8.278   8.081
46731SOL    HW240218   7.954   8.195   8.052
46732SOL     OW40219   9.225   7.790   9.090
46732SOL    HW140220   9.208   7.821   8.996
46732SOL    HW240221   9.141   7.753   9.128
46733SOL     OW40222   9.178   8.382   8.965
46733SOL    HW140223   9.216   8.473   8.980
46733SOL    HW240224   9.170   8.365   8.866
46734SOL     OW40225   8.307   8.822   7.464
46734SOL    HW140226   8.261   8.837   7.552
46734SOL    HW240227   8.351   8.907   7.434
46735SOL     OW40228   8.109   9.238   8.401
46735SOL    HW140229   8.063   9.326   8.388
46735SOL    HW240230   8.208   9.250   8.394
46736SOL     OW40231   8.307   8.404   8.309
46736SOL    HW140232   8.361   8.335   8.357
46736SOL    HW240233   8.275   8.473   8.375
46737SOL     OW40234   8.531   8.432   7.535
46737SOL    HW140235   8.508   8.485   7.453
46737SOL    HW240236   8.612   8.376   7.516
46738SOL     OW40237   9.309   9.017   8.299
46738SOL    HW140238   9.238   9.005   8.229
46738SOL    HW240239   9.310   8.938   8.359
46739SOL     OW40240   7.669   8.762   9.292
46739SOL    HW140241   7.604   8.689   9.271
46739SOL    HW240242   7.673   8.776   9.390
46740SOL     OW40243   7.527   8.688   8.101
46740SOL    HW140244   7.526   8.641   8.189
46740SOL    HW240245   7.609   8.660   8.050
46741SOL     OW40246   8.120   8.839   9.072
46741SOL    HW140247   8.042   8.789   9.110
46741SOL    HW240248   8.117   8.934   9.103
46742SOL     OW40249   9.272   7.640   8.675
46742SOL    HW140250   9.268   7.550   8.719
46742SOL    HW240251   9.275   7.629   8.576
46743SOL     OW40252   7.876   7.872   7.968
46743SOL    HW140253   7.906   7.800   7.906
46743SOL    HW240254   7.837   7.832   8.051
46744SOL     OW40255   9.153   8.935   8.552
46744SOL    HW140256   9.060   8.910   8.525
46744SOL    HW240257   9.179   8.885   8.634
46745SOL     OW40258   7.765   7.995   8.728
46745SOL    HW140259   7.803   7.936   8.800
46745SOL    HW240260   7.805   7.969   8.640
46746SOL     OW40261   8.260   9.034   8.135
46746SOL    HW140262   8.292   9.044   8.041
46746SOL    HW240263   8.181   8.972   8.137
46747SOL     OW40264   8.872   7.662   8.560
46747SOL    HW140265   8.924   7.597   8.615
46747SOL    HW240266   8.823   7.725   8.621
46748SOL     OW40267   8.449   7.482   8.602
46748SOL    HW140268   8.386   7.410   8.571
46748SOL    HW240269   8.542   7.446   8.602
46749SOL     OW40270   8.218   8.778   7.749
46749SOL    HW140271   8.172   8.691   7.766
46749SOL    HW240272   8.309   8.775   7.790
46750SOL     OW40273   8.066   9.015   8.732
46750SOL    HW140274   8.061   9.097   8.789
46750SOL    HW240275   8.155   9.012   8.687
46751SOL     OW40276   8.800   7.500   7.616
46751SOL    HW140277   8.835   7.459   7.532
46751SOL    HW240278   8.710   7.462   7.636
46752SOL     OW40279   8.748   7.901   8.139
46752SOL    HW140280   8.689   7.981   8.143
46752SOL    HW240281   8.763   7.866   8.232
46753SOL     OW40282   9.041   7.669   8.330
46753SOL    HW140283   8.957   7.668   8.384
46753SOL    HW240284   9.043   7.752   8.274
46754SOL     OW40285   7.487   8.525   7.748
46754SOL    HW140286   7.586   8.514   7.739
46754SOL    HW240287   7.447   8.439   7.780
46755SOL     OW40288   8.323   9.094   7.785
46755SOL    HW140289   8.246   9.059   7.731
46755SOL    HW240290   8.291   9.165   7.847
46756SOL     OW40291   7.678   8.076   9.423
46756SOL    HW140292   7.585   8.074   9.460
46756SOL    HW240293   7.679   8.037   9.331
46757SOL     OW40294   7.673   7.723  10.306
46757SOL    HW140295   7.708   7.706  10.398
46757SOL    HW240296   7.585   7.678  10.294
46758SOL     OW40297   7.467   7.816   9.957
46758SOL    HW140298   7.385   7.859   9.996
46758SOL    HW240299   7.439   7.743   9.894
46759SOL     OW40300   8.017   8.723  10.475
46759SOL    HW140301   7.924   8.716  10.438
46759SOL    HW240302   8.028   8.812  10.519
46760SOL     OW40303   9.003   8.959  10.013
46760SOL    HW140304   8.946   8.943  10.094
46760SOL    HW240305   8.944   8.969   9.933
46761SOL     OW40306   8.583   8.151  10.027
46761SOL    HW140307   8.640   8.229  10.002
46761SOL    HW240308   8.523   8.177  10.103
46762SOL     OW40309   9.203   8.055   9.541
46762SOL    HW140310   9.191   8.042   9.442
46762SOL    HW240311   9.173   7.974   9.590
46763SOL     OW40312   8.216   8.592  10.333
46763SOL    HW140313   8.138   8.609  10.393
46763SOL    HW240314   8.250   8.679  10.297
46764SOL     OW40315   8.298   8.246  11.133
46764SOL    HW140316   8.294   8.322  11.198
46764SOL    HW240317   8.320   8.282  11.042
46765SOL     OW40318   8.133   8.460   9.975
46765SOL    HW140319   8.202   8.444  10.045
46765SOL    HW240320   8.060   8.517  10.013
46766SOL     OW40321   8.134   8.609  11.113
46766SOL    HW140322   8.194   8.688  11.127
46766SOL    HW240323   8.048   8.640  11.072
46767SOL     OW40324   7.783   8.883  10.371
46767SOL    HW140325   7.705   8.852  10.318
46767SOL    HW240326   7.841   8.941  10.314
46768SOL     OW40327   8.908   8.953  10.649
46768SOL    HW140328   8.932   9.047  10.675
46768SOL    HW240329   8.892   8.899  10.731
46769SOL     OW40330   7.886   7.840  10.809
46769SOL    HW140331   7.968   7.784  10.818
46769SOL    HW240332   7.805   7.782  10.813
46770SOL     OW40333   9.051   7.895  10.047
46770SOL    HW140334   8.977   7.941   9.997
46770SOL    HW240335   9.102   7.963  10.100
46771SOL     OW40336   7.679   9.161   9.793
46771SOL    HW140337   7.713   9.238   9.847
46771SOL    HW240338   7.723   9.161   9.703
46772SOL     OW40339   8.575   8.789  11.000
46772SOL    HW140340   8.622   8.789  11.088
46772SOL    HW240341   8.527   8.702  10.989
46773SOL     OW40342   7.678   8.882   9.848
46773SOL    HW140343   7.652   8.978   9.848
46773SOL    HW240344   7.607   8.828   9.893
46774SOL     OW40345   7.688   8.539  10.196
46774SOL    HW140346   7.702   8.455  10.248
46774SOL    HW240347   7.633   8.603  10.251
46775SOL     OW40348   8.068   9.234  10.749
46775SOL    HW140349   7.976   9.217  10.784
46775SOL    HW240350   8.096   9.326  10.775
46776SOL     OW40351   8.054   8.412   9.433
46776SOL    HW140352   8.061   8.496   9.379
46776SOL    HW240353   8.100   8.425   9.521
46777SOL     OW40354   9.042   7.562  10.790
46777SOL    HW140355   9.024   7.629  10.718
46777SOL    HW240356   9.039   7.608  10.879
46778SOL     OW40357   7.570   8.091   9.873
46778SOL    HW140358   7.525   8.003   9.890
46778SOL    HW240359   7.569   8.145   9.957
46779SOL     OW40360   9.290   9.215   9.669
46779SOL    HW140361   9.344   9.186   9.749
46779SOL    HW240362   9.320   9.305   9.640
46780SOL     OW40363   7.475   9.044   9.427
46780SOL    HW140364   7.456   8.948   9.448
46780SOL    HW240365   7.442   9.102   9.502
46781SOL     OW40366   9.137   8.370   9.922
46781SOL    HW140367   9.232   8.341   9.930
46781SOL    HW240368   9.129   8.435   9.847
46782SOL     OW40369   9.089   8.556   9.742
46782SOL    HW140370   9.175   8.558   9.690
46782SOL    HW240371   9.103   8.603   9.830
46783SOL     OW40372   7.561   8.185  10.907
46783SOL    HW140373   7.649   8.172  10.952
46783SOL    HW240374   7.548   8.282  10.885
46784SOL     OW40375   8.061   8.813  10.036
46784SOL    HW140376   8.012   8.726  10.045
46784SOL    HW240377   8.038   8.856   9.949
46785SOL     OW40378   8.741   8.676  10.733
46785SOL    HW140379   8.778   8.603  10.675
46785SOL    HW240380   8.793   8.681  10.818
46786SOL     OW40381   8.257   7.452   9.812
46786SOL    HW140382   8.297   7.543   9.803
46786SOL    HW240383   8.157   7.460   9.818
46787SOL     OW40384   7.645   8.424  10.574
46787SOL    HW140385   7.734   8.379  10.560
46787SOL    HW240386   7.572   8.359  10.555
46788SOL     OW40387   8.973   8.447   9.500
46788SOL    HW140388   8.910   8.371   9.513
46788SOL    HW240389   9.021   8.465   9.586
46789SOL     OW40390   8.635   9.240  10.926
46789SOL    HW140391   8.659   9.300  10.850
46789SOL    HW240392   8.642   9.145  10.896
46790SOL     OW40393   7.765   7.699  11.111
46790SOL    HW140394   7.836   7.770  11.117
46790SOL    HW240395   7.677   7.738  11.139
46791SOL     OW40396   8.914   8.865  10.263
46791SOL    HW140397   8.855   8.871  10.343
46791SOL    HW240398   8.899   8.777  10.217
46792SOL     OW40399   8.046   8.177   9.580
46792SOL    HW140400   8.070   8.246   9.512
46792SOL    HW240401   7.968   8.210   9.634
46793SOL     OW40402   8.729   7.793  10.254
46793SOL    HW140403   8.643   7.743  10.241
46793SOL    HW240404   8.791   7.739  10.310
46794SOL     OW40405   9.024   9.110   9.617
46794SOL    HW140406   9.113   9.156   9.620
46794SOL    HW240407   9.003   9.086   9.522
46795SOL     OW40408   8.255   8.053  10.775
46795SOL    HW140409   8.208   8.050  10.864
46795SOL    HW240410   8.204   7.998  10.709
46796SOL     OW40411   8.842   7.917  10.984
46796SOL    HW140412   8.822   7.960  11.072
46796SOL    HW240413   8.920   7.855  10.993
46797SOL     OW40414   8.421   8.338  10.882
46797SOL    HW140415   8.467   8.254  10.853
46797SOL    HW240416   8.365   8.372  10.807
46798SOL     OW40417   8.439   7.858  10.552
46798SOL    HW140418   8.362   7.892  10.606
46798SOL    HW240419   8.405   7.807  10.473
46799SOL     OW40420   8.489   8.149   9.739
46799SOL    HW140421   8.515   8.145   9.835
46799SOL    HW240422   8.404   8.098   9.725
46800SOL     OW40423   7.524   8.259  10.099
46800SOL    HW140424   7.623   8.247  10.108
46800SOL    HW240425   7.500   8.354  10.120
46801SOL     OW40426   7.578   9.269  10.881
46801SOL    HW140427   7.568   9.254  10.980
46801SOL    HW240428   7.492   9.305  10.845
46802SOL     OW40429   8.313   7.796   9.505
46802SOL    HW140430   8.372   7.859   9.456
46802SOL    HW240431   8.332   7.702   9.476
46803SOL     OW40432   9.167   8.033  11.141
46803SOL    HW140433   9.141   8.122  11.105
46803SOL    HW240434   9.165   7.965  11.068
46804SOL     OW40435   8.810   8.592   9.855
46804SOL    HW140436   8.893   8.563   9.807
46804SOL    HW240437   8.761   8.659   9.799
46805SOL     OW40438   7.998   7.644  10.195
46805SOL    HW140439   7.993   7.639  10.295
46805SOL    HW240440   8.000   7.740  10.166
46806SOL     OW40441   8.456   8.904   9.787
46806SOL    HW140442   8.410   8.976   9.735
46806SOL    HW240443   8.452   8.924   9.885
46807SOL     OW40444   7.799   9.249  10.163
46807SOL    HW140445   7.849   9.163  10.169
46807SOL    HW240446   7.864   9.326  10.160
46808SOL     OW40447   9.243   8.514  10.183
46808SOL    HW140448   9.181   8.499  10.107
46808SOL    HW240449   9.191   8.525  10.268
46809SOL     OW40450   8.675   8.998  10.816
46809SOL    HW140451   8.681   8.921  10.880
46809SOL    HW240452   8.623   8.972  10.736
46810SOL     OW40453   7.769   8.391   9.552
46810SOL    HW140454   7.851   8.430   9.510
46810SOL    HW240455   7.742   8.309   9.503
46811SOL     OW40456   8.906   8.183  10.038
46811SOL    HW140457   8.901   8.118  10.113
46811SOL    HW240458   8.986   8.242  10.051
46812SOL     OW40459   7.909   8.714  11.037
46812SOL    HW140460   7.859   8.715  10.951
46812SOL    HW240461   7.846   8.696  11.113
46813SOL     OW40462   8.559   9.224   9.547
46813SOL    HW140463   8.499   9.162   9.597
46813SOL    HW240464   8.590   9.180   9.462
46814SOL     OW40465   7.650   7.733  10.808
46814SOL    HW140466   7.570   7.793  10.795
46814SOL    HW240467   7.640   7.684  10.894
46815SOL     OW40468   9.080   8.825   9.391
46815SOL    HW140469   9.048   8.919   9.381
46815SOL    HW240470   9.004   8.762   9.379
46816SOL     OW40471   7.912   9.191   9.633
46816SOL    HW140472   7.945   9.230   9.719
46816SOL    HW240473   7.988   9.184   9.568
46817SOL     OW40474   8.848   7.555   9.736
46817SOL    HW140475   8.824   7.518   9.646
46817SOL    HW240476   8.947   7.571   9.740
46818SOL     OW40477   7.697   9.233  10.551
46818SOL    HW140478   7.754   9.168  10.601
46818SOL    HW240479   7.681   9.200  10.458
46819SOL     OW40480   8.388   9.146  10.214
46819SOL    HW140481   8.468   9.089  10.235
46819SOL    HW240482   8.339   9.106  10.137
46820SOL     OW40483   7.830   8.148   9.790
46820SOL    HW140484   7.875   8.058   9.787
46820SOL    HW240485   7.736   8.137   9.823
46821SOL     OW40486   8.995   7.670  11.039
46821SOL    HW140487   8.990   7.707  11.131
46821SOL    HW240488   8.923   7.601  11.027
46822SOL     OW40489   8.062   7.570   9.427
46822SOL    HW140490   8.160   7.548   9.434
46822SOL    HW240491   8.031   7.553   9.334
46823SOL     OW40492   8.229   7.712  11.059
46823SOL    HW140493   8.296   7.651  11.102
46823SOL    HW240494   8.156   7.731  11.124
46824SOL     OW40495   8.336   8.962  10.505
46824SOL    HW140496   8.313   8.937  10.411
46824SOL    HW240497   8.397   8.893  10.544
46825SOL     OW40498   8.799   8.038  10.743
46825SOL    HW140499   8.827   7.995  10.828
46825SOL    HW240500   8.824   8.134  10.744
46826SOL     OW40501   8.251   8.850  10.234
46826SOL    HW140502   8.341   8.864  10.192
46826SOL    HW240503   8.180   8.852  10.163
46827SOL     OW40504   8.370   7.951  10.209
46827SOL    HW140505   8.345   7.942  10.113
46827SOL    HW240506   8.418   7.869  10.240
46828SOL     OW40507   7.987   7.512   9.822
46828SOL    HW140508   7.906   7.513   9.880
46828SOL    HW240509   7.990   7.595   9.767
46829SOL     OW40510   8.882   8.636   9.351
46829SOL    HW140511   8.914   8.560   9.408
46829SOL    HW240512   8.790   8.663   9.381
46830SOL     OW40513   7.745   7.483   9.481
46830SOL    HW140514   7.794   7.567   9.460
46830SOL    HW240515   7.807   7.418   9.526
46831SOL     OW40516   8.383   7.684   9.790
46831SOL    HW140517   8.335   7.725   9.712
46831SOL    HW240518   8.482   7.682   9.771
46832SOL     OW40519   8.524   8.131  10.774
46832SOL    HW140520   8.444   8.070  10.777
46832SOL    HW240521   8.605   8.078  10.750
46833SOL     OW40522   8.675   9.018  10.103
46833SOL    HW140523   8.696   9.092  10.038
46833SOL    HW240524   8.743   9.018  10.176
46834SOL     OW40525   7.907   8.600  10.051
46834SOL    HW140526   7.836   8.573  10.116
46834SOL    HW240527   7.881   8.572   9.958
46835SOL     OW40528   8.719   9.245   9.901
46835SOL    HW140529   8.763   9.309   9.837
46835SOL    HW240530   8.669   9.297   9.971
46836SOL     OW40531   8.480   7.997   9.326
46836SOL    HW140532   8.439   8.079   9.287
46836SOL    HW240533   8.544   8.023   9.399
46837SOL     OW40534   7.526   8.004  10.696
46837SOL    HW140535   7.618   8.003  10.655
46837SOL    HW240536   7.520   8.078  10.763
46838SOL     OW40537   8.009   7.670  10.457
46838SOL    HW140538   8.047   7.586  10.494
46838SOL    HW240539   7.921   7.689  10.501
46839SOL     OW40540   8.314   7.902   9.952
46839SOL    HW140541   8.282   7.974   9.890
46839SOL    HW240542   8.338   7.821   9.899
46840SOL     OW40543   8.465   7.487  10.063
46840SOL    HW140544   8.393   7.492   9.994
46840SOL    HW240545   8.441   7.418  10.132
46841SOL     OW40546   8.877   8.621  10.177
46841SOL    HW140547   8.822   8.537  10.170
46841SOL    HW240548   8.903   8.650  10.085
46842SOL     OW40549   8.914   8.038  10.302
46842SOL    HW140550   8.884   7.943  10.309
46842SOL    HW240551   8.987   8.054  10.368
46843SOL     OW40552   9.305   8.281   9.687
46843SOL    HW140553   9.347   8.217   9.751
46843SOL    HW240554   9.267   8.230   9.609
46844SOL     OW40555   7.936   8.833   9.484
46844SOL    HW140556   7.849   8.818   9.531
46844SOL    HW240557   7.919   8.859   9.389
46845SOL     OW40558   9.112   8.728   9.967
46845SOL    HW140559   9.211   8.736   9.981
46845SOL    HW240560   9.067   8.812   9.998
46846SOL     OW40561   8.838   8.023   9.388
46846SOL    HW140562   8.784   8.002   9.469
46846SOL    HW240563   8.929   7.982   9.397
46847SOL     OW40564   7.975   7.704   9.638
46847SOL    HW140565   8.002   7.645   9.563
46847SOL    HW240566   7.975   7.799   9.607
46848SOL     OW40567   9.202   8.671  10.898
46848SOL    HW140568   9.293   8.632  10.885
46848SOL    HW240569   9.210   8.767  10.922
46849SOL     OW40570   8.512   8.795  10.650
46849SOL    HW140571   8.432   8.772  10.705
46849SOL    HW240572   8.595   8.769  10.699
46850SOL     OW40573   9.040   9.077  10.935
46850SOL    HW140574   9.067   9.111  10.845
46850SOL    HW240575   9.119   9.039  10.981
46851SOL     OW40576   8.559   8.643  10.410
46851SOL    HW140577   8.519   8.687  10.491
46851SOL    HW240578   8.518   8.680  10.327
46852SOL     OW40579   9.086   8.547  10.389
46852SOL    HW140580   9.091   8.628  10.448
46852SOL    HW240581   9.000   8.549  10.338
46853SOL     OW40582   8.363   7.537  10.712
46853SOL    HW140583   8.388   7.517  10.617
46853SOL    HW240584   8.435   7.593  10.754
46854SOL     OW40585   8.428   8.564  11.029
46854SOL    HW140586   8.329   8.570  11.039
46854SOL    HW240587   8.451   8.484  10.973
46855SOL     OW40588   8.153   8.498   9.678
46855SOL    HW140589   8.139   8.505   9.777
46855SOL    HW240590   8.237   8.447   9.660
46856SOL     OW40591   7.858   8.261  10.561
46856SOL    HW140592   7.944   8.273  10.611
46856SOL    HW240593   7.816   8.174  10.588
46857SOL     OW40594   8.722   7.834  10.572
46857SOL    HW140595   8.743   7.908  10.636
46857SOL    HW240596   8.633   7.851  10.529
46858SOL     OW40597   7.512   9.012  10.641
46858SOL    HW140598   7.466   9.094  10.607
46858SOL    HW240599   7.610   9.031  10.650
46859SOL     OW40600   7.815   8.548   9.811
46859SOL    HW140601   7.808   8.631   9.755
46859SOL    HW240602   7.819   8.468   9.751
46860SOL     OW40603   8.014   7.985  10.175
46860SOL    HW140604   8.026   8.051  10.101
46860SOL    HW240605   8.060   8.019  10.258
46861SOL     OW40606   8.700   8.796   9.698
46861SOL    HW140607   8.750   8.873   9.738
46861SOL    HW240608   8.605   8.798   9.730
46862SOL     OW40609   8.720   8.893  10.452
46862SOL    HW140610   8.767   8.906  10.539
46862SOL    HW240611   8.654   8.819  10.461
46863SOL     OW40612   9.030   8.087   9.782
46863SOL    HW140613   8.999   8.148   9.855
46863SOL    HW240614   9.080   8.139   9.713
46864SOL     OW40615   7.802   8.958  10.639
46864SOL    HW140616   7.781   8.914  10.552
46864SOL    HW240617   7.899   8.984  10.642
46865SOL     OW40618   7.850   8.199  10.908
46865SOL    HW140619   7.918   8.254  10.861
46865SOL    HW240620   7.890   8.111  10.935
46866SOL     OW40621   9.035   8.227  10.980
46866SOL    HW140622   8.943   8.265  10.975
46866SOL    HW240623   9.095   8.274  10.915
46867SOL     OW40624   8.461   7.553  11.080
46867SOL    HW140625   8.467   7.638  11.028
46867SOL    HW240626   8.493   7.477  11.023
46868SOL     OW40627   7.952   7.498  11.050
46868SOL    HW140628   7.910   7.441  10.980
46868SOL    HW240629   7.886   7.567  11.082
46869SOL     OW40630   8.021   8.318  10.339
46869SOL    HW140631   8.065   8.407  10.330
46869SOL    HW240632   7.958   8.318  10.416
46870SOL     OW40633   8.808   8.310  10.355
46870SOL    HW140634   8.733   8.310  10.289
46870SOL    HW240635   8.845   8.218  10.364
46871SOL     OW40636   8.657   7.973   9.585
46871SOL    HW140637   8.670   7.889   9.639
46871SOL    HW240638   8.628   8.047   9.645
46872SOL     OW40639   7.755   7.661  10.541
46872SOL    HW140640   7.732   7.698  10.631
46872SOL    HW240641   7.725   7.566  10.535
46873SOL     OW40642   7.485   8.758  10.592
46873SOL    HW140643   7.538   8.709  10.660
46873SOL    HW240644   7.507   8.856  10.597
46874SOL     OW40645   8.180   8.082  10.374
46874SOL    HW140646   8.239   8.056  10.298
46874SOL    HW240647   8.152   8.178  10.363
46875SOL     OW40648   9.176   8.383  11.164
46875SOL    HW140649   9.130   8.376  11.075
46875SOL    HW240650   9.114   8.427  11.230
46876SOL     OW40651   7.755   7.511   9.928
46876SOL    HW140652   7.744   7.605   9.961
46876SOL    HW240653   7.750   7.448  10.005
46877SOL     OW40654   9.070   7.815   9.684
46877SOL    HW140655   9.072   7.739   9.748
46877SOL    HW240656   9.022   7.892   9.724
46878SOL     OW40657   8.471   8.214  10.276
46878SOL    HW140658   8.486   8.235  10.372
46878SOL    HW240659   8.441   8.119  10.267
46879SOL     OW40660   8.428   9.021  11.010
46879SOL    HW140661   8.408   9.065  10.922
46879SOL    HW240662   8.467   8.930  10.994
46880SOL     OW40663   9.307   8.966  10.915
46880SOL    HW140664   9.321   8.993  10.820
46880SOL    HW240665   9.390   8.988  10.968
46881SOL     OW40666   7.798   8.346  11.114
46881SOL    HW140667   7.874   8.390  11.162
46881SOL    HW240668   7.833   8.299  11.032
46882SOL     OW40669   8.988   7.722   9.435
46882SOL    HW140670   8.927   7.647   9.458
46882SOL    HW240671   9.010   7.774   9.518
46883SOL     OW40672   8.751   8.286   9.352
46883SOL    HW140673   8.785   8.193   9.367
46883SOL    HW240674   8.769   8.313   9.257
46884SOL     OW40675   8.516   8.781  10.159
46884SOL    HW140676   8.523   8.697  10.104
46884SOL    HW240677   8.578   8.850  10.123
46885SOL     OW40678   7.767   8.258  10.259
46885SOL    HW140679   7.860   8.294  10.264
46885SOL    HW240680   7.761   8.173  10.311
46886SOL     OW40681   7.787   7.957  10.316
46886SOL    HW140682   7.735   7.874  10.299
46886SOL    HW240683   7.864   7.962  10.252
46887SOL     OW40684   8.586   7.828  10.988
46887SOL    HW140685   8.541   7.891  11.052
46887SOL    HW240686   8.679   7.859  10.971
46888SOL     OW40687   8.608   7.655  10.787
46888SOL    HW140688   8.608   7.719  10.864
46888SOL    HW240689   8.636   7.703  10.704
46889SOL     OW40690   7.456   8.774   9.510
46889SOL    HW140691   7.363   8.795   9.479
46889SOL    HW240692   7.466   8.675   9.523
46890SOL     OW40693   7.536   9.249  10.237
46890SOL    HW140694   7.494   9.163  10.210
46890SOL    HW240695   7.630   9.252  10.203
46891SOL     OW40696   7.952   9.016  10.220
46891SOL    HW140697   8.018   9.090  10.229
46891SOL    HW240698   7.996   8.937  10.178
46892SOL     OW40699   8.450   8.244  10.548
46892SOL    HW140700   8.491   8.212  10.634
46892SOL    HW240701   8.354   8.217  10.545
46893SOL     OW40702   7.488   7.992  10.424
46893SOL    HW140703   7.573   7.959  10.383
46893SOL    HW240704   7.501   8.007  10.522
46894SOL     OW40705   7.637   7.968  11.032
46894SOL    HW140706   7.696   7.928  10.962
46894SOL    HW240707   7.579   8.039  10.991
46895SOL     OW40708   8.817   8.398  10.970
46895SOL    HW140709   8.856   8.487  10.990
46895SOL    HW240710   8.827   8.378  10.873
46896SOL     OW40711   8.263   8.020   9.635
46896SOL    HW140712   8.270   7.931   9.589
46896SOL    HW240713   8.169   8.054   9.627
46897SOL     OW40714   9.105   8.052  10.516
46897SOL    HW140715   9.067   7.983  10.578
46897SOL    HW240716   9.187   8.016  10.472
46898SOL     OW40717   7.700   9.012  11.054
46898SOL    HW140718   7.670   9.069  11.130
46898SOL    HW240719   7.693   8.915  11.080
46899SOL     OW40720   8.119   7.912  10.579
46899SOL    HW140721   8.085   7.823  10.549
46899SOL    HW240722   8.145   7.966  10.499
46900SOL     OW40723   8.378   9.126  10.775
46900SOL    HW140724   8.354   9.108  10.680
46900SOL    HW240725   8.408   9.220  10.785
46901SOL     OW40726   7.921   7.948   9.501
46901SOL    HW140727   7.982   8.028   9.505
46901SOL    HW240728   7.826   7.979   9.508
46902SOL     OW40729   7.607   8.585  10.776
46902SOL    HW140730   7.629   8.524  10.852
46902SOL    HW240731   7.617   8.536  10.690
46903SOL     OW40732   8.795   8.507  10.544
46903SOL    HW140733   8.819   8.444  10.470
46903SOL    HW240734   8.705   8.547  10.526
46904SOL     OW40735   8.750   8.303   9.619
46904SOL    HW140736   8.664   8.272   9.661
46904SOL    HW240737   8.746   8.289   9.520
46905SOL     OW40738   9.207   9.195  10.464
46905SOL    HW140739   9.268   9.225  10.391
46905SOL    HW240740   9.169   9.106  10.442
46906SOL     OW40741   8.700   9.179  10.438
46906SOL    HW140742   8.784   9.184  10.384
46906SOL    HW240743   8.677   9.083  10.456
46907SOL     OW40744   7.531   8.706  10.332
46907SOL    HW140745   7.526   8.705  10.432
46907SOL    HW240746   7.448   8.665  10.294
46908SOL     OW40747   8.136   9.110  11.026
46908SOL    HW140748   8.080   9.191  11.035
46908SOL    HW240749   8.188   9.114  10.940
46909SOL     OW40750   9.174   7.583   9.833
46909SOL    HW140751   9.247   7.566   9.766
46909SOL    HW240752   9.143   7.496   9.871
46910SOL     OW40753   8.836   9.021   9.787
46910SOL    HW140754   8.903   9.033   9.713
46910SOL    HW240755   8.796   9.110   9.810
46911SOL     OW40756   7.578   9.242  11.161
46911SOL    HW140757   7.537   9.168  11.214
46911SOL    HW240758   7.642   9.293  11.219
46912SOL     OW40759   8.728   8.375   9.982
46912SOL    HW140760   8.788   8.294   9.984
46912SOL    HW240761   8.768   8.444   9.922
46913SOL     OW40762   8.278   8.721  10.732
46913SOL    HW140763   8.273   8.754  10.827
46913SOL    HW240764   8.192   8.740  10.686
46914SOL     OW40765   8.120   9.064   9.464
46914SOL    HW140766   8.129   9.074   9.365
46914SOL    HW240767   8.080   8.975   9.485
46915SOL     OW40768   9.098   9.168  10.704
46915SOL    HW140769   9.151   9.178  10.620
46915SOL    HW240770   9.071   9.258  10.738
46916SOL     OW40771   9.289   7.623  10.273
46916SOL    HW140772   9.328   7.538  10.237
46916SOL    HW240773   9.191   7.625  10.254
46917SOL     OW40774   7.711   7.774  10.030
46917SOL    HW140775   7.632   7.825   9.996
46917SOL    HW240776   7.702   7.759  10.128
46918SOL     OW40777   8.642   9.060   9.341
46918SOL    HW140778   8.648   8.967   9.378
46918SOL    HW240779   8.583   9.060   9.261
46919SOL     OW40780   8.270   8.450  10.682
46919SOL    HW140781   8.310   8.449  10.590
46919SOL    HW240782   8.280   8.542  10.722
46920SOL     OW40783   8.364   8.358   9.601
46920SOL    HW140784   8.427   8.396   9.533
46920SOL    HW240785   8.404   8.275   9.640
46921SOL     OW40786   8.952   9.055   9.354
46921SOL    HW140787   8.860   9.092   9.361
46921SOL    HW240788   8.990   9.075   9.264
46922SOL     OW40789   7.820   8.736  10.800
46922SOL    HW140790   7.807   8.829  10.766
46922SOL    HW240791   7.736   8.684  10.787
46923SOL     OW40792   9.062   8.740  10.599
46923SOL    HW140793   9.122   8.743  10.679
46923SOL    HW240794   8.987   8.804  10.612
46924SOL     OW40795   8.487   8.546  10.006
46924SOL    HW140796   8.417   8.499  10.060
46924SOL    HW240797   8.546   8.478   9.963
46925SOL     OW40798   8.462   7.684  10.281
46925SOL    HW140799   8.454   7.648  10.188
46925SOL    HW240800   8.460   7.608  10.346
46926SOL     OW40801   8.038   8.935   9.801
46926SOL    HW140802   8.080   8.877   9.731
46926SOL    HW240803   7.994   9.014   9.757
46927SOL     OW40804   9.157   7.833  10.691
46927SOL    HW140805   9.230   7.902  10.695
46927SOL    HW240806   9.185   7.758  10.632
46928SOL     OW40807   7.703   8.796   9.600
46928SOL    HW140808   7.607   8.797   9.573
46928SOL    HW240809   7.715   8.849   9.684
46929SOL     OW40810   7.553   8.461  11.036
46929SOL    HW140811   7.476   8.428  11.090
46929SOL    HW240812   7.638   8.431  11.078
46930SOL     OW40813   8.120   7.651  10.799
46930SOL    HW140814   8.210   7.635  10.759
46930SOL    HW240815   8.128   7.656  10.898
46931SOL     OW40816   7.523   7.793   9.343
46931SOL    HW140817   7.431   7.765   9.314
46931SOL    HW240818   7.554   7.870   9.287
46932SOL     OW40819   8.888   8.304  10.708
46932SOL    HW140820   8.831   8.356  10.645
46932SOL    HW240821   8.984   8.316  10.684
46933SOL     OW40822   7.520   7.614   9.628
46933SOL    HW140823   7.503   7.697   9.574
46933SOL    HW240824   7.610   7.577   9.606
46934SOL     OW40825   8.631   8.783   9.429
46934SOL    HW140826   8.532   8.772   9.431
46934SOL    HW240827   8.665   8.798   9.522
46935SOL     OW40828   8.061   8.290  10.741
46935SOL    HW140829   8.117   8.371  10.724
46935SOL    HW240830   8.120   8.210  10.744
46936SOL     OW40831   8.941   9.215  10.269
46936SOL    HW140832   8.974   9.279  10.200
46936SOL    HW240833   9.007   9.209  10.344
46937SOL     OW40834   8.164   8.013  11.018
46937SOL    HW140835   8.183   8.078  11.092
46937SOL    HW240836   8.224   7.933  11.027
46938SOL     OW40837   8.898   8.668  10.943
46938SOL    HW140838   8.889   8.658  11.042
46938SOL    HW240839   8.994   8.661  10.917
46939SOL     OW40840   7.838   9.189  10.870
46939SOL    HW140841   7.747   9.230  10.868
46939SOL    HW240842   7.831   9.095  10.902
46940SOL     OW40843   9.122   8.331  10.564
46940SOL    HW140844   9.095   8.242  10.527
46940SOL    HW240845   9.123   8.399  10.491
46941SOL     OW40846   8.042   8.193   9.962
46941SOL    HW140847   8.092   8.278   9.943
46941SOL    HW240848   7.954   8.195   9.914
46942SOL     OW40849   9.225   7.790  10.952
46942SOL    HW140850   9.208   7.821  10.858
46942SOL    HW240851   9.141   7.753  10.990
46943SOL     OW40852   9.178   8.382  10.827
46943SOL    HW140853   9.216   8.473  10.842
46943SOL    HW240854   9.170   8.365  10.728
46944SOL     OW40855   8.307   8.822   9.326
46944SOL    HW140856   8.261   8.837   9.414
46944SOL    HW240857   8.351   8.907   9.296
46945SOL     OW40858   8.109   9.238  10.263
46945SOL    HW140859   8.063   9.326  10.250
46945SOL    HW240860   8.208   9.250  10.256
46946SOL     OW40861   8.307   8.404  10.171
46946SOL    HW140862   8.361   8.335  10.219
46946SOL    HW240863   8.275   8.473  10.237
46947SOL     OW40864   8.531   8.432   9.397
46947SOL    HW140865   8.508   8.485   9.315
46947SOL    HW240866   8.612   8.376   9.378
46948SOL     OW40867   9.309   9.017  10.161
46948SOL    HW140868   9.238   9.005  10.091
46948SOL    HW240869   9.310   8.938  10.221
46949SOL     OW40870   7.669   8.762  11.154
46949SOL    HW140871   7.604   8.689  11.133
46949SOL    HW240872   7.673   8.776  11.252
46950SOL     OW40873   7.527   8.688   9.963
46950SOL    HW140874   7.526   8.641  10.051
46950SOL    HW240875   7.609   8.660   9.912
46951SOL     OW40876   8.120   8.839  10.934
46951SOL    HW140877   8.042   8.789  10.972
46951SOL    HW240878   8.117   8.934  10.965
46952SOL     OW40879   9.272   7.640  10.537
46952SOL    HW140880   9.268   7.550  10.581
46952SOL    HW240881   9.275   7.629  10.438
46953SOL     OW40882   7.876   7.872   9.830
46953SOL    HW140883   7.906   7.800   9.768
46953SOL    HW240884   7.837   7.832   9.913
46954SOL     OW40885   9.153   8.935  10.414
46954SOL    HW140886   9.060   8.910  10.387
46954SOL    HW240887   9.179   8.885  10.496
46955SOL     OW40888   7.765   7.995  10.590
46955SOL    HW140889   7.803   7.936  10.662
46955SOL    HW240890   7.805   7.969  10.502
46956SOL     OW40891   8.260   9.034   9.997
46956SOL    HW140892   8.292   9.044   9.903
46956SOL    HW240893   8.181   8.972   9.999
46957SOL     OW40894   8.872   7.662  10.422
46957SOL    HW140895   8.924   7.597  10.477
46957SOL    HW240896   8.823   7.725  10.483
46958SOL     OW40897   8.449   7.482  10.464
46958SOL    HW140898   8.386   7.410  10.433
46958SOL    HW240899   8.542   7.446  10.464
46959SOL     OW40900   8.218   8.778   9.611
46959SOL    HW140901   8.172   8.691   9.628
46959SOL    HW240902   8.309   8.775   9.652
46960SOL     OW40903   8.066   9.015  10.594
46960SOL    HW140904   8.061   9.097  10.651
46960SOL    HW240905   8.155   9.012  10.549
46961SOL     OW40906   8.800   7.500   9.478
46961SOL    HW140907   8.835   7.459   9.394
46961SOL    HW240908   8.710   7.462   9.498
46962SOL     OW40909   8.748   7.901  10.001
46962SOL    HW140910   8.689   7.981  10.005
46962SOL    HW240911   8.763   7.866  10.094
46963SOL     OW40912   9.041   7.669  10.192
46963SOL    HW140913   8.957   7.668  10.246
46963SOL    HW240914   9.043   7.752  10.136
46964SOL     OW40915   7.487   8.525   9.610
46964SOL    HW140916   7.586   8.514   9.601
46964SOL    HW240917   7.447   8.439   9.642
46965SOL     OW40918   8.323   9.094   9.647
46965SOL    HW140919   8.246   9.059   9.593
46965SOL    HW240920   8.291   9.165   9.709
46966SOL     OW40921   7.678   8.076  11.285
46966SOL    HW140922   7.585   8.074  11.322
46966SOL    HW240923   7.679   8.037  11.193
46967SOL     OW40924   7.673   7.723  12.168
46967SOL    HW140925   7.708   7.706  12.260
46967SOL    HW240926   7.585   7.678  12.156
46968SOL     OW40927   7.467   7.816  11.819
46968SOL    HW140928   7.385   7.859  11.858
46968SOL    HW240929   7.439   7.743  11.756
46969SOL     OW40930   8.017   8.723  12.337
46969SOL    HW140931   7.924   8.716  12.300
46969SOL    HW240932   8.028   8.812  12.381
46970SOL     OW40933   9.003   8.959  11.875
46970SOL    HW140934   8.946   8.943  11.956
46970SOL    HW240935   8.944   8.969  11.795
46971SOL     OW40936   8.583   8.151  11.889
46971SOL    HW140937   8.640   8.229  11.864
46971SOL    HW240938   8.523   8.177  11.965
46972SOL     OW40939   9.203   8.055  11.403
46972SOL    HW140940   9.191   8.042  11.304
46972SOL    HW240941   9.173   7.974  11.452
46973SOL     OW40942   8.216   8.592  12.195
46973SOL    HW140943   8.138   8.609  12.255
46973SOL    HW240944   8.250   8.679  12.159
46974SOL     OW40945   8.133   8.460  11.837
46974SOL    HW140946   8.202   8.444  11.907
46974SOL    HW240947   8.060   8.517  11.875
46975SOL     OW40948   7.783   8.883  12.233
46975SOL    HW140949   7.705   8.852  12.180
46975SOL    HW240950   7.841   8.941  12.176
46976SOL     OW40951   8.908   8.953  12.511
46976SOL    HW140952   8.932   9.047  12.537
46976SOL    HW240953   8.892   8.899  12.593
46977SOL     OW40954   7.886   7.840  12.671
46977SOL    HW140955   7.968   7.784  12.680
46977SOL    HW240956   7.805   7.782  12.675
46978SOL     OW40957   9.051   7.895  11.909
46978SOL    HW140958   8.977   7.941  11.859
46978SOL    HW240959   9.102   7.963  11.962
46979SOL     OW40960   7.679   9.161  11.655
46979SOL    HW140961   7.713   9.238  11.709
46979SOL    HW240962   7.723   9.161  11.565
46980SOL     OW40963   7.678   8.882  11.710
46980SOL    HW140964   7.652   8.978  11.710
46980SOL    HW240965   7.607   8.828  11.755
46981SOL     OW40966   7.688   8.539  12.058
46981SOL    HW140967   7.702   8.455  12.110
46981SOL    HW240968   7.633   8.603  12.113
46982SOL     OW40969   8.068   9.234  12.611
46982SOL    HW140970   7.976   9.217  12.646
46982SOL    HW240971   8.096   9.326  12.637
46983SOL     OW40972   8.054   8.412  11.295
46983SOL    HW140973   8.061   8.496  11.241
46983SOL    HW240974   8.100   8.425  11.383
46984SOL     OW40975   9.042   7.562  12.652
46984SOL    HW140976   9.024   7.629  12.580
46984SOL    HW240977   9.039   7.608  12.741
46985SOL     OW40978   7.570   8.091  11.735
46985SOL    HW140979   7.525   8.003  11.752
46985SOL    HW240980   7.569   8.145  11.819
46986SOL     OW40981   9.290   9.215  11.531
46986SOL    HW140982   9.344   9.186  11.611
46986SOL    HW240983   9.320   9.305  11.502
46987SOL     OW40984   7.475   9.044  11.289
46987SOL    HW140985   7.456   8.948  11.310
46987SOL    HW240986   7.442   9.102  11.364
46988SOL     OW40987   9.137   8.370  11.784
46988SOL    HW140988   9.232   8.341  11.792
46988SOL    HW240989   9.129   8.435  11.709
46989SOL     OW40990   9.089   8.556  11.604
46989SOL    HW140991   9.175   8.558  11.552
46989SOL    HW240992   9.103   8.603  11.692
46990SOL     OW40993   7.561   8.185  12.769
46990SOL    HW140994   7.649   8.172  12.814
46990SOL    HW240995   7.548   8.282  12.747
46991SOL     OW40996   8.061   8.813  11.898
46991SOL    HW140997   8.012   8.726  11.907
46991SOL    HW240998   8.038   8.856  11.811
46992SOL     OW40999   8.741   8.676  12.595
46992SOL    HW141000   8.778   8.603  12.537
46992SOL    HW241001   8.793   8.681  12.680
46993SOL     OW41002   8.257   7.452  11.674
46993SOL    HW141003   8.297   7.543  11.665
46993SOL    HW241004   8.157   7.460  11.680
46994SOL     OW41005   7.645   8.424  12.436
46994SOL    HW141006   7.734   8.379  12.422
46994SOL    HW241007   7.572   8.359  12.417
46995SOL     OW41008   8.973   8.447  11.362
46995SOL    HW141009   8.910   8.371  11.375
46995SOL    HW241010   9.021   8.465  11.448
46996SOL     OW41011   8.914   8.865  12.125
46996SOL    HW141012   8.855   8.871  12.205
46996SOL    HW241013   8.899   8.777  12.079
46997SOL     OW41014   9.115   9.162  11.744
46997SOL    HW141015   9.074   9.139  11.656
46997SOL    HW241016   9.097   9.088  11.809
46998SOL     OW41017   8.046   8.177  11.442
46998SOL    HW141018   8.070   8.246  11.374
46998SOL    HW241019   7.968   8.210  11.496
46999SOL     OW41020   8.729   7.793  12.116
46999SOL    HW141021   8.643   7.743  12.103
46999SOL    HW241022   8.791   7.739  12.172
47000SOL     OW41023   9.024   9.110  11.479
47000SOL    HW141024   9.113   9.156  11.482
47000SOL    HW241025   9.003   9.086  11.384
47001SOL     OW41026   8.255   8.053  12.637
47001SOL    HW141027   8.208   8.050  12.726
47001SOL    HW241028   8.204   7.998  12.571
47002SOL     OW41029   8.421   8.338  12.744
47002SOL    HW141030   8.467   8.254  12.715
47002SOL    HW241031   8.365   8.372  12.669
47003SOL     OW41032   8.439   7.858  12.414
47003SOL    HW141033   8.362   7.892  12.468
47003SOL    HW241034   8.405   7.807  12.335
47004SOL     OW41035   8.489   8.149  11.601
47004SOL    HW141036   8.515   8.145  11.697
47004SOL    HW241037   8.404   8.098  11.587
47005SOL     OW41038   7.524   8.259  11.961
47005SOL    HW141039   7.623   8.247  11.970
47005SOL    HW241040   7.500   8.354  11.982
47006SOL     OW41041   7.578   9.269  12.743
47006SOL    HW141042   7.568   9.254  12.842
47006SOL    HW241043   7.492   9.305  12.707
47007SOL     OW41044   8.313   7.796  11.367
47007SOL    HW141045   8.372   7.859  11.318
47007SOL    HW241046   8.332   7.702  11.338
47008SOL     OW41047   8.810   8.592  11.717
47008SOL    HW141048   8.893   8.563  11.669
47008SOL    HW241049   8.761   8.659  11.661
47009SOL     OW41050   7.998   7.644  12.057
47009SOL    HW141051   7.993   7.639  12.157
47009SOL    HW241052   8.000   7.740  12.028
47010SOL     OW41053   8.456   8.904  11.649
47010SOL    HW141054   8.410   8.976  11.597
47010SOL    HW241055   8.452   8.924  11.747
47011SOL     OW41056   7.799   9.249  12.025
47011SOL    HW141057   7.849   9.163  12.031
47011SOL    HW241058   7.864   9.326  12.022
47012SOL     OW41059   9.243   8.514  12.045
47012SOL    HW141060   9.181   8.499  11.969
47012SOL    HW241061   9.191   8.525  12.130
47013SOL     OW41062   8.675   8.998  12.678
47013SOL    HW141063   8.681   8.921  12.742
47013SOL    HW241064   8.623   8.972  12.598
47014SOL     OW41065   7.769   8.391  11.414
47014SOL    HW141066   7.851   8.430  11.372
47014SOL    HW241067   7.742   8.309  11.365
47015SOL     OW41068   8.906   8.183  11.900
47015SOL    HW141069   8.901   8.118  11.975
47015SOL    HW241070   8.986   8.242  11.913
47016SOL     OW41071   8.559   9.224  11.409
47016SOL    HW141072   8.499   9.162  11.459
47016SOL    HW241073   8.590   9.180  11.324
47017SOL     OW41074   7.650   7.733  12.670
47017SOL    HW141075   7.570   7.793  12.657
47017SOL    HW241076   7.640   7.684  12.756
47018SOL     OW41077   9.080   8.825  11.253
47018SOL    HW141078   9.048   8.919  11.243
47018SOL    HW241079   9.004   8.762  11.241
47019SOL     OW41080   7.912   9.191  11.495
47019SOL    HW141081   7.945   9.230  11.581
47019SOL    HW241082   7.988   9.184  11.430
47020SOL     OW41083   8.848   7.555  11.598
47020SOL    HW141084   8.824   7.518  11.508
47020SOL    HW241085   8.947   7.571  11.602
47021SOL     OW41086   7.697   9.233  12.413
47021SOL    HW141087   7.754   9.168  12.463
47021SOL    HW241088   7.681   9.200  12.320
47022SOL     OW41089   8.388   9.146  12.076
47022SOL    HW141090   8.468   9.089  12.097
47022SOL    HW241091   8.339   9.106  11.999
47023SOL     OW41092   7.830   8.148  11.652
47023SOL    HW141093   7.875   8.058  11.649
47023SOL    HW241094   7.736   8.137  11.685
47024SOL     OW41095   8.062   7.570  11.289
47024SOL    HW141096   8.160   7.548  11.296
47024SOL    HW241097   8.031   7.553  11.196
47025SOL     OW41098   8.336   8.962  12.367
47025SOL    HW141099   8.313   8.937  12.273
47025SOL    HW241100   8.397   8.893  12.406
47026SOL     OW41101   8.799   8.038  12.605
47026SOL    HW141102   8.827   7.995  12.690
47026SOL    HW241103   8.824   8.134  12.606
47027SOL     OW41104   8.251   8.850  12.096
47027SOL    HW141105   8.341   8.864  12.054
47027SOL    HW241106   8.180   8.852  12.025
47028SOL     OW41107   8.370   7.951  12.071
47028SOL    HW141108   8.345   7.942  11.975
47028SOL    HW241109   8.418   7.869  12.102
47029SOL     OW41110   7.987   7.512  11.684
47029SOL    HW141111   7.906   7.513  11.742
47029SOL    HW241112   7.990   7.595  11.629
47030SOL     OW41113   8.882   8.636  11.213
47030SOL    HW141114   8.914   8.560  11.270
47030SOL    HW241115   8.790   8.663  11.243
47031SOL     OW41116   7.745   7.483  11.343
47031SOL    HW141117   7.794   7.567  11.322
47031SOL    HW241118   7.807   7.418  11.388
47032SOL     OW41119   8.383   7.684  11.652
47032SOL    HW141120   8.335   7.725  11.574
47032SOL    HW241121   8.482   7.682  11.633
47033SOL     OW41122   8.524   8.131  12.636
47033SOL    HW141123   8.444   8.070  12.639
47033SOL    HW241124   8.605   8.078  12.612
47034SOL     OW41125   8.675   9.018  11.965
47034SOL    HW141126   8.696   9.092  11.900
47034SOL    HW241127   8.743   9.018  12.038
47035SOL     OW41128   7.907   8.600  11.913
47035SOL    HW141129   7.836   8.573  11.978
47035SOL    HW241130   7.881   8.572  11.820
47036SOL     OW41131   8.719   9.245  11.763
47036SOL    HW141132   8.763   9.309  11.699
47036SOL    HW241133   8.669   9.297  11.833
47037SOL     OW41134   8.480   7.997  11.188
47037SOL    HW141135   8.439   8.079  11.149
47037SOL    HW241136   8.544   8.023  11.261
47038SOL     OW41137   7.526   8.004  12.558
47038SOL    HW141138   7.618   8.003  12.517
47038SOL    HW241139   7.520   8.078  12.625
47039SOL     OW41140   8.009   7.670  12.319
47039SOL    HW141141   8.047   7.586  12.356
47039SOL    HW241142   7.921   7.689  12.363
47040SOL     OW41143   8.314   7.902  11.814
47040SOL    HW141144   8.282   7.974  11.752
47040SOL    HW241145   8.338   7.821  11.761
47041SOL     OW41146   8.465   7.487  11.925
47041SOL    HW141147   8.393   7.492  11.856
47041SOL    HW241148   8.441   7.418  11.994
47042SOL     OW41149   8.877   8.621  12.039
47042SOL    HW141150   8.822   8.537  12.032
47042SOL    HW241151   8.903   8.650  11.947
47043SOL     OW41152   8.914   8.038  12.164
47043SOL    HW141153   8.884   7.943  12.171
47043SOL    HW241154   8.987   8.054  12.230
47044SOL     OW41155   9.305   8.281  11.549
47044SOL    HW141156   9.347   8.217  11.613
47044SOL    HW241157   9.267   8.230  11.471
47045SOL     OW41158   7.936   8.833  11.346
47045SOL    HW141159   7.849   8.818  11.393
47045SOL    HW241160   7.919   8.859  11.251
47046SOL     OW41161   9.112   8.728  11.829
47046SOL    HW141162   9.211   8.736  11.843
47046SOL    HW241163   9.067   8.812  11.860
47047SOL     OW41164   8.838   8.023  11.250
47047SOL    HW141165   8.784   8.002  11.331
47047SOL    HW241166   8.929   7.982  11.259
47048SOL     OW41167   7.975   7.704  11.500
47048SOL    HW141168   8.002   7.645  11.425
47048SOL    HW241169   7.975   7.799  11.469
47049SOL     OW41170   9.202   8.671  12.760
47049SOL    HW141171   9.293   8.632  12.747
47049SOL    HW241172   9.210   8.767  12.784
47050SOL     OW41173   8.512   8.795  12.512
47050SOL    HW141174   8.432   8.772  12.567
47050SOL    HW241175   8.595   8.769  12.561
47051SOL     OW41176   8.559   8.643  12.272
47051SOL    HW141177   8.519   8.687  12.353
47051SOL    HW241178   8.518   8.680  12.189
47052SOL     OW41179   9.086   8.547  12.251
47052SOL    HW141180   9.091   8.628  12.310
47052SOL    HW241181   9.000   8.549  12.200
47053SOL     OW41182   8.363   7.537  12.574
47053SOL    HW141183   8.388   7.517  12.479
47053SOL    HW241184   8.435   7.593  12.616
47054SOL     OW41185   8.153   8.498  11.540
47054SOL    HW141186   8.139   8.505  11.639
47054SOL    HW241187   8.237   8.447  11.522
47055SOL     OW41188   7.858   8.261  12.423
47055SOL    HW141189   7.944   8.273  12.473
47055SOL    HW241190   7.816   8.174  12.450
47056SOL     OW41191   8.722   7.834  12.434
47056SOL    HW141192   8.743   7.908  12.498
47056SOL    HW241193   8.633   7.851  12.391
47057SOL     OW41194   7.512   9.012  12.503
47057SOL    HW141195   7.466   9.094  12.469
47057SOL    HW241196   7.610   9.031  12.512
47058SOL     OW41197   7.815   8.548  11.673
47058SOL    HW141198   7.808   8.631  11.617
47058SOL    HW241199   7.819   8.468  11.613
47059SOL     OW41200   8.014   7.985  12.037
47059SOL    HW141201   8.026   8.051  11.963
47059SOL    HW241202   8.060   8.019  12.120
47060SOL     OW41203   8.700   8.796  11.560
47060SOL    HW141204   8.750   8.873  11.600
47060SOL    HW241205   8.605   8.798  11.592
47061SOL     OW41206   8.720   8.893  12.314
47061SOL    HW141207   8.767   8.906  12.401
47061SOL    HW241208   8.654   8.819  12.323
47062SOL     OW41209   9.030   8.087  11.644
47062SOL    HW141210   8.999   8.148  11.717
47062SOL    HW241211   9.080   8.139  11.575
47063SOL     OW41212   7.802   8.958  12.501
47063SOL    HW141213   7.781   8.914  12.414
47063SOL    HW241214   7.899   8.984  12.504
47064SOL     OW41215   7.850   8.199  12.770
47064SOL    HW141216   7.918   8.254  12.723
47064SOL    HW241217   7.890   8.111  12.797
47065SOL     OW41218   9.035   8.227  12.842
47065SOL    HW141219   8.943   8.265  12.837
47065SOL    HW241220   9.095   8.274  12.777
47066SOL     OW41221   8.021   8.318  12.201
47066SOL    HW141222   8.065   8.407  12.192
47066SOL    HW241223   7.958   8.318  12.278
47067SOL     OW41224   8.808   8.310  12.217
47067SOL    HW141225   8.733   8.310  12.151
47067SOL    HW241226   8.845   8.218  12.226
47068SOL     OW41227   8.657   7.973  11.447
47068SOL    HW141228   8.670   7.889  11.501
47068SOL    HW241229   8.628   8.047  11.507
47069SOL     OW41230   7.755   7.661  12.403
47069SOL    HW141231   7.732   7.698  12.493
47069SOL    HW241232   7.725   7.566  12.397
47070SOL     OW41233   7.485   8.758  12.454
47070SOL    HW141234   7.538   8.709  12.522
47070SOL    HW241235   7.507   8.856  12.459
47071SOL     OW41236   8.180   8.082  12.236
47071SOL    HW141237   8.239   8.056  12.160
47071SOL    HW241238   8.152   8.178  12.225
47072SOL     OW41239   7.755   7.511  11.790
47072SOL    HW141240   7.744   7.605  11.823
47072SOL    HW241241   7.750   7.448  11.867
47073SOL     OW41242   9.070   7.815  11.546
47073SOL    HW141243   9.072   7.739  11.610
47073SOL    HW241244   9.022   7.892  11.586
47074SOL     OW41245   8.471   8.214  12.138
47074SOL    HW141246   8.486   8.235  12.234
47074SOL    HW241247   8.441   8.119  12.129
47075SOL     OW41248   8.988   7.722  11.297
47075SOL    HW141249   8.927   7.647  11.320
47075SOL    HW241250   9.010   7.774  11.380
47076SOL     OW41251   8.751   8.286  11.214
47076SOL    HW141252   8.785   8.193  11.229
47076SOL    HW241253   8.769   8.313  11.119
47077SOL     OW41254   8.516   8.781  12.021
47077SOL    HW141255   8.523   8.697  11.966
47077SOL    HW241256   8.578   8.850  11.985
47078SOL     OW41257   7.767   8.258  12.121
47078SOL    HW141258   7.860   8.294  12.126
47078SOL    HW241259   7.761   8.173  12.173
47079SOL     OW41260   7.787   7.957  12.178
47079SOL    HW141261   7.735   7.874  12.161
47079SOL    HW241262   7.864   7.962  12.114
47080SOL     OW41263   8.608   7.655  12.649
47080SOL    HW141264   8.608   7.719  12.726
47080SOL    HW241265   8.636   7.703  12.566
47081SOL     OW41266   7.536   9.249  12.099
47081SOL    HW141267   7.494   9.163  12.072
47081SOL    HW241268   7.630   9.252  12.065
47082SOL     OW41269   7.952   9.016  12.082
47082SOL    HW141270   8.018   9.090  12.091
47082SOL    HW241271   7.996   8.937  12.040
47083SOL     OW41272   8.450   8.244  12.410
47083SOL    HW141273   8.491   8.212  12.496
47083SOL    HW241274   8.354   8.217  12.407
47084SOL     OW41275   7.488   7.992  12.286
47084SOL    HW141276   7.573   7.959  12.245
47084SOL    HW241277   7.501   8.007  12.384
47085SOL     OW41278   8.263   8.020  11.497
47085SOL    HW141279   8.270   7.931  11.451
47085SOL    HW241280   8.169   8.054  11.489
47086SOL     OW41281   9.105   8.052  12.378
47086SOL    HW141282   9.067   7.983  12.440
47086SOL    HW241283   9.187   8.016  12.334
47087SOL     OW41284   7.700   9.012  12.916
47087SOL    HW141285   7.670   9.069  12.992
47087SOL    HW241286   7.693   8.915  12.942
47088SOL     OW41287   8.119   7.912  12.441
47088SOL    HW141288   8.085   7.823  12.411
47088SOL    HW241289   8.145   7.966  12.361
47089SOL     OW41290   8.378   9.126  12.637
47089SOL    HW141291   8.354   9.108  12.542
47089SOL    HW241292   8.408   9.220  12.647
47090SOL     OW41293   7.921   7.948  11.363
47090SOL    HW141294   7.982   8.028  11.367
47090SOL    HW241295   7.826   7.979  11.370
47091SOL     OW41296   7.607   8.585  12.638
47091SOL    HW141297   7.629   8.524  12.714
47091SOL    HW241298   7.617   8.536  12.552
47092SOL     OW41299   8.795   8.507  12.406
47092SOL    HW141300   8.819   8.444  12.332
47092SOL    HW241301   8.705   8.547  12.388
47093SOL     OW41302   8.750   8.303  11.481
47093SOL    HW141303   8.664   8.272  11.523
47093SOL    HW241304   8.746   8.289  11.382
47094SOL     OW41305   9.207   9.195  12.326
47094SOL    HW141306   9.268   9.225  12.253
47094SOL    HW241307   9.169   9.106  12.304
47095SOL     OW41308   8.700   9.179  12.300
47095SOL    HW141309   8.784   9.184  12.246
47095SOL    HW241310   8.677   9.083  12.318
47096SOL     OW41311   7.531   8.706  12.194
47096SOL    HW141312   7.526   8.705  12.294
47096SOL    HW241313   7.448   8.665  12.156
47097SOL     OW41314   9.174   7.583  11.695
47097SOL    HW141315   9.247   7.566  11.628
47097SOL    HW241316   9.143   7.496  11.733
47098SOL     OW41317   8.836   9.021  11.649
47098SOL    HW141318   8.903   9.033  11.575
47098SOL    HW241319   8.796   9.110  11.672
47099SOL     OW41320   8.728   8.375  11.844
47099SOL    HW141321   8.788   8.294  11.846
47099SOL    HW241322   8.768   8.444  11.784
47100SOL     OW41323   8.278   8.721  12.594
47100SOL    HW141324   8.273   8.754  12.689
47100SOL    HW241325   8.192   8.740  12.548
47101SOL     OW41326   8.120   9.064  11.326
47101SOL    HW141327   8.129   9.074  11.227
47101SOL    HW241328   8.080   8.975  11.347
47102SOL     OW41329   9.098   9.168  12.566
47102SOL    HW141330   9.151   9.178  12.482
47102SOL    HW241331   9.071   9.258  12.600
47103SOL     OW41332   9.289   7.623  12.135
47103SOL    HW141333   9.328   7.538  12.099
47103SOL    HW241334   9.191   7.625  12.116
47104SOL     OW41335   7.711   7.774  11.892
47104SOL    HW141336   7.632   7.825  11.858
47104SOL    HW241337   7.702   7.759  11.990
47105SOL     OW41338   8.642   9.060  11.203
47105SOL    HW141339   8.648   8.967  11.240
47105SOL    HW241340   8.583   9.060  11.123
47106SOL     OW41341   8.270   8.450  12.544
47106SOL    HW141342   8.310   8.449  12.452
47106SOL    HW241343   8.280   8.542  12.584
47107SOL     OW41344   8.364   8.358  11.463
47107SOL    HW141345   8.427   8.396  11.395
47107SOL    HW241346   8.404   8.275  11.502
47108SOL     OW41347   8.952   9.055  11.216
47108SOL    HW141348   8.860   9.092  11.223
47108SOL    HW241349   8.990   9.075  11.126
47109SOL     OW41350   7.820   8.736  12.662
47109SOL    HW141351   7.807   8.829  12.628
47109SOL    HW241352   7.736   8.684  12.649
47110SOL     OW41353   9.062   8.740  12.461
47110SOL    HW141354   9.122   8.743  12.541
47110SOL    HW241355   8.987   8.804  12.474
47111SOL     OW41356   8.487   8.546  11.868
47111SOL    HW141357   8.417   8.499  11.922
47111SOL    HW241358   8.546   8.478  11.825
47112SOL     OW41359   8.462   7.684  12.143
47112SOL    HW141360   8.454   7.648  12.050
47112SOL    HW241361   8.460   7.608  12.208
47113SOL     OW41362   8.038   8.935  11.663
47113SOL    HW141363   8.080   8.877  11.593
47113SOL    HW241364   7.994   9.014  11.619
47114SOL     OW41365   9.157   7.833  12.553
47114SOL    HW141366   9.230   7.902  12.557
47114SOL    HW241367   9.185   7.758  12.494
47115SOL     OW41368   7.703   8.796  11.462
47115SOL    HW141369   7.607   8.797  11.435
47115SOL    HW241370   7.715   8.849  11.546
47116SOL     OW41371   7.553   8.461  12.898
47116SOL    HW141372   7.476   8.428  12.952
47116SOL    HW241373   7.638   8.431  12.940
47117SOL     OW41374   8.120   7.651  12.661
47117SOL    HW141375   8.210   7.635  12.621
47117SOL    HW241376   8.128   7.656  12.760
47118SOL     OW41377   7.523   7.793  11.205
47118SOL    HW141378   7.431   7.765  11.176
47118SOL    HW241379   7.554   7.870  11.149
47119SOL     OW41380   8.888   8.304  12.570
47119SOL    HW141381   8.831   8.356  12.507
47119SOL    HW241382   8.984   8.316  12.546
47120SOL     OW41383   7.520   7.614  11.490
47120SOL    HW141384   7.503   7.697  11.436
47120SOL    HW241385   7.610   7.577  11.468
47121SOL     OW41386   8.631   8.783  11.291
47121SOL    HW141387   8.532   8.772  11.293
47121SOL    HW241388   8.665   8.798  11.384
47122SOL     OW41389   8.061   8.290  12.603
47122SOL    HW141390   8.117   8.371  12.586
47122SOL    HW241391   8.120   8.210  12.606
47123SOL     OW41392   8.941   9.215  12.131
47123SOL    HW141393   8.974   9.279  12.062
47123SOL    HW241394   9.007   9.209  12.206
47124SOL     OW41395   8.164   8.013  12.880
47124SOL    HW141396   8.183   8.078  12.954
47124SOL    HW241397   8.224   7.933  12.889
47125SOL     OW41398   7.838   9.189  12.732
47125SOL    HW141399   7.747   9.230  12.730
47125SOL    HW241400   7.831   9.095  12.764
47126SOL     OW41401   9.122   8.331  12.426
47126SOL    HW141402   9.095   8.242  12.389
47126SOL    HW241403   9.123   8.399  12.353
47127SOL     OW41404   8.673   7.773  11.621
47127SOL    HW141405   8.738   7.699  11.610
47127SOL    HW241406   8.693   7.823  11.705
47128SOL     OW41407   8.042   8.193  11.824
47128SOL    HW141408   8.092   8.278  11.805
47128SOL    HW241409   7.954   8.195  11.776
47129SOL     OW41410   9.225   7.790  12.814
47129SOL    HW141411   9.208   7.821  12.720
47129SOL    HW241412   9.141   7.753  12.852
47130SOL     OW41413   9.178   8.382  12.689
47130SOL    HW141414   9.216   8.473  12.704
47130SOL    HW241415   9.170   8.365  12.590
47131SOL     OW41416   8.307   8.822  11.188
47131SOL    HW141417   8.261   8.837  11.276
47131SOL    HW241418   8.351   8.907  11.158
47132SOL     OW41419   8.109   9.238  12.125
47132SOL    HW141420   8.063   9.326  12.112
47132SOL    HW241421   8.208   9.250  12.118
47133SOL     OW41422   8.307   8.404  12.033
47133SOL    HW141423   8.361   8.335  12.081
47133SOL    HW241424   8.275   8.473  12.099
47134SOL     OW41425   8.531   8.432  11.259
47134SOL    HW141426   8.508   8.485  11.177
47134SOL    HW241427   8.612   8.376  11.240
47135SOL     OW41428   9.309   9.017  12.023
47135SOL    HW141429   9.238   9.005  11.953
47135SOL    HW241430   9.310   8.938  12.083
47136SOL     OW41431   7.527   8.688  11.825
47136SOL    HW141432   7.526   8.641  11.913
47136SOL    HW241433   7.609   8.660  11.774
47137SOL     OW41434   8.120   8.839  12.796
47137SOL    HW141435   8.042   8.789  12.834
47137SOL    HW241436   8.117   8.934  12.827
47138SOL     OW41437   9.272   7.640  12.399
47138SOL    HW141438   9.268   7.550  12.443
47138SOL    HW241439   9.275   7.629  12.300
47139SOL     OW41440   7.876   7.872  11.692
47139SOL    HW141441   7.906   7.800  11.630
47139SOL    HW241442   7.837   7.832  11.775
47140SOL     OW41443   9.153   8.935  12.276
47140SOL    HW141444   9.060   8.910  12.249
47140SOL    HW241445   9.179   8.885  12.358
47141SOL     OW41446   7.765   7.995  12.452
47141SOL    HW141447   7.803   7.936  12.524
47141SOL    HW241448   7.805   7.969  12.364
47142SOL     OW41449   8.260   9.034  11.859
47142SOL    HW141450   8.292   9.044  11.765
47142SOL    HW241451   8.181   8.972  11.861
47143SOL     OW41452   8.872   7.662  12.284
47143SOL    HW141453   8.924   7.597  12.339
47143SOL    HW241454   8.823   7.725  12.345
47144SOL     OW41455   8.449   7.482  12.326
47144SOL    HW141456   8.386   7.410  12.295
47144SOL    HW241457   8.542   7.446  12.326
47145SOL     OW41458   8.218   8.778  11.473
47145SOL    HW141459   8.172   8.691  11.490
47145SOL    HW241460   8.309   8.775  11.514
47146SOL     OW41461   8.066   9.015  12.456
47146SOL    HW141462   8.061   9.097  12.513
47146SOL    HW241463   8.155   9.012  12.411
47147SOL     OW41464   8.800   7.500  11.340
47147SOL    HW141465   8.835   7.459  11.256
47147SOL    HW241466   8.710   7.462  11.360
47148SOL     OW41467   8.748   7.901  11.863
47148SOL    HW141468   8.689   7.981  11.867
47148SOL    HW241469   8.763   7.866  11.956
47149SOL     OW41470   9.041   7.669  12.054
47149SOL    HW141471   8.957   7.668  12.108
47149SOL    HW241472   9.043   7.752  11.998
47150SOL     OW41473   7.487   8.525  11.472
47150SOL    HW141474   7.586   8.514  11.463
47150SOL    HW241475   7.447   8.439  11.504
47151SOL     OW41476   8.323   9.094  11.509
47151SOL    HW141477   8.246   9.059  11.455
47151SOL    HW241478   8.291   9.165  11.571
47152SOL     OW41479   7.678   9.938   0.113
47152SOL    HW141480   7.585   9.936   0.150
47152SOL    HW241481   7.679   9.899   0.021
47153SOL     OW41482   7.673   9.585   0.996
47153SOL    HW141483   7.708   9.568   1.088
47153SOL    HW241484   7.585   9.540   0.984
47154SOL     OW41485   7.467   9.678   0.647
47154SOL    HW141486   7.385   9.721   0.686
47154SOL    HW241487   7.439   9.605   0.584
47155SOL     OW41488   8.017  10.585   1.165
47155SOL    HW141489   7.924  10.578   1.128
47155SOL    HW241490   8.028  10.674   1.209
47156SOL     OW41491   9.003  10.821   0.703
47156SOL    HW141492   8.946  10.805   0.784
47156SOL    HW241493   8.944  10.831   0.623
47157SOL     OW41494   8.583  10.013   0.717
47157SOL    HW141495   8.640  10.091   0.692
47157SOL    HW241496   8.523  10.039   0.793
47158SOL     OW41497   9.203   9.917   0.231
47158SOL    HW141498   9.191   9.904   0.132
47158SOL    HW241499   9.173   9.836   0.280
47159SOL     OW41500   8.216  10.454   1.023
47159SOL    HW141501   8.138  10.471   1.083
47159SOL    HW241502   8.250  10.541   0.987
47160SOL     OW41503   8.298  10.108   1.823
47160SOL    HW141504   8.294  10.184   1.888
47160SOL    HW241505   8.320  10.144   1.732
47161SOL     OW41506   8.133  10.322   0.665
47161SOL    HW141507   8.202  10.306   0.735
47161SOL    HW241508   8.060  10.379   0.703
47162SOL     OW41509   8.134  10.471   1.803
47162SOL    HW141510   8.194  10.550   1.817
47162SOL    HW241511   8.048  10.502   1.762
47163SOL     OW41512   7.783  10.745   1.061
47163SOL    HW141513   7.705  10.714   1.008
47163SOL    HW241514   7.841  10.803   1.004
47164SOL     OW41515   8.908  10.815   1.339
47164SOL    HW141516   8.932  10.909   1.365
47164SOL    HW241517   8.892  10.761   1.421
47165SOL     OW41518   7.886   9.702   1.499
47165SOL    HW141519   7.968   9.646   1.508
47165SOL    HW241520   7.805   9.644   1.503
47166SOL     OW41521   9.051   9.757   0.737
47166SOL    HW141522   8.977   9.803   0.687
47166SOL    HW241523   9.102   9.825   0.790
47167SOL     OW41524   7.679  11.023   0.483
47167SOL    HW141525   7.713  11.100   0.537
47167SOL    HW241526   7.723  11.023   0.393
47168SOL     OW41527   8.575  10.651   1.690
47168SOL    HW141528   8.622  10.651   1.778
47168SOL    HW241529   8.527  10.564   1.679
47169SOL     OW41530   7.678  10.744   0.538
47169SOL    HW141531   7.652  10.840   0.538
47169SOL    HW241532   7.607  10.690   0.583
47170SOL     OW41533   7.688  10.401   0.886
47170SOL    HW141534   7.702  10.317   0.938
47170SOL    HW241535   7.633  10.465   0.941
47171SOL     OW41536   8.068  11.096   1.439
47171SOL    HW141537   7.976  11.079   1.474
47171SOL    HW241538   8.096  11.188   1.465
47172SOL     OW41539   8.054  10.274   0.123
47172SOL    HW141540   8.061  10.358   0.069
47172SOL    HW241541   8.100  10.287   0.211
47173SOL     OW41542   9.042   9.424   1.480
47173SOL    HW141543   9.024   9.491   1.408
47173SOL    HW241544   9.039   9.470   1.569
47174SOL     OW41545   7.570   9.953   0.563
47174SOL    HW141546   7.525   9.865   0.580
47174SOL    HW241547   7.569  10.007   0.647
47175SOL     OW41548   9.290  11.077   0.359
47175SOL    HW141549   9.344  11.048   0.439
47175SOL    HW241550   9.320  11.167   0.330
47176SOL     OW41551   7.475  10.906   0.117
47176SOL    HW141552   7.456  10.810   0.138
47176SOL    HW241553   7.442  10.964   0.192
47177SOL     OW41554   9.137  10.232   0.612
47177SOL    HW141555   9.232  10.203   0.620
47177SOL    HW241556   9.129  10.297   0.537
47178SOL     OW41557   9.089  10.418   0.432
47178SOL    HW141558   9.175  10.420   0.380
47178SOL    HW241559   9.103  10.465   0.520
47179SOL     OW41560   7.561  10.047   1.597
47179SOL    HW141561   7.649  10.034   1.642
47179SOL    HW241562   7.548  10.144   1.575
47180SOL     OW41563   8.061  10.675   0.726
47180SOL    HW141564   8.012  10.588   0.735
47180SOL    HW241565   8.038  10.718   0.639
47181SOL     OW41566   8.741  10.538   1.423
47181SOL    HW141567   8.778  10.465   1.365
47181SOL    HW241568   8.793  10.543   1.508
47182SOL     OW41569   8.257   9.314   0.502
47182SOL    HW141570   8.297   9.405   0.493
47182SOL    HW241571   8.157   9.322   0.508
47183SOL     OW41572   7.645  10.286   1.264
47183SOL    HW141573   7.734  10.241   1.250
47183SOL    HW241574   7.572  10.221   1.245
47184SOL     OW41575   8.973  10.309   0.190
47184SOL    HW141576   8.910  10.233   0.203
47184SOL    HW241577   9.021  10.327   0.276
47185SOL     OW41578   8.635  11.102   1.616
47185SOL    HW141579   8.659  11.162   1.540
47185SOL    HW241580   8.642  11.007   1.586
47186SOL     OW41581   7.765   9.561   1.801
47186SOL    HW141582   7.836   9.632   1.807
47186SOL    HW241583   7.677   9.600   1.829
47187SOL     OW41584   8.914  10.727   0.953
47187SOL    HW141585   8.855  10.733   1.033
47187SOL    HW241586   8.899  10.639   0.907
47188SOL     OW41587   9.115  11.024   0.572
47188SOL    HW141588   9.074  11.001   0.484
47188SOL    HW241589   9.097  10.950   0.637
47189SOL     OW41590   8.046  10.039   0.270
47189SOL    HW141591   8.070  10.108   0.202
47189SOL    HW241592   7.968  10.072   0.324
47190SOL     OW41593   8.729   9.655   0.944
47190SOL    HW141594   8.643   9.605   0.931
47190SOL    HW241595   8.791   9.601   1.000
47191SOL     OW41596   9.024  10.972   0.307
47191SOL    HW141597   9.113  11.018   0.310
47191SOL    HW241598   9.003  10.948   0.212
47192SOL     OW41599   8.255   9.915   1.465
47192SOL    HW141600   8.208   9.912   1.554
47192SOL    HW241601   8.204   9.860   1.399
47193SOL     OW41602   8.842   9.779   1.674
47193SOL    HW141603   8.822   9.822   1.762
47193SOL    HW241604   8.920   9.717   1.683
47194SOL     OW41605   8.421  10.200   1.572
47194SOL    HW141606   8.467  10.116   1.543
47194SOL    HW241607   8.365  10.234   1.497
47195SOL     OW41608   8.439   9.720   1.242
47195SOL    HW141609   8.362   9.754   1.296
47195SOL    HW241610   8.405   9.669   1.163
47196SOL     OW41611   8.489  10.011   0.429
47196SOL    HW141612   8.515  10.007   0.525
47196SOL    HW241613   8.404   9.960   0.415
47197SOL     OW41614   7.524  10.121   0.789
47197SOL    HW141615   7.623  10.109   0.798
47197SOL    HW241616   7.500  10.216   0.810
47198SOL     OW41617   7.578  11.131   1.571
47198SOL    HW141618   7.568  11.116   1.670
47198SOL    HW241619   7.492  11.167   1.535
47199SOL     OW41620   8.313   9.658   0.195
47199SOL    HW141621   8.372   9.721   0.146
47199SOL    HW241622   8.332   9.564   0.166
47200SOL     OW41623   9.167   9.895   1.831
47200SOL    HW141624   9.141   9.984   1.795
47200SOL    HW241625   9.165   9.827   1.758
47201SOL     OW41626   8.810  10.454   0.545
47201SOL    HW141627   8.893  10.425   0.497
47201SOL    HW241628   8.761  10.521   0.489
47202SOL     OW41629   7.998   9.506   0.885
47202SOL    HW141630   7.993   9.501   0.985
47202SOL    HW241631   8.000   9.602   0.856
47203SOL     OW41632   8.456  10.766   0.477
47203SOL    HW141633   8.410  10.838   0.425
47203SOL    HW241634   8.452  10.786   0.575
47204SOL     OW41635   7.799  11.111   0.853
47204SOL    HW141636   7.849  11.025   0.859
47204SOL    HW241637   7.864  11.188   0.850
47205SOL     OW41638   9.243  10.376   0.873
47205SOL    HW141639   9.181  10.361   0.797
47205SOL    HW241640   9.191  10.387   0.958
47206SOL     OW41641   8.675  10.860   1.506
47206SOL    HW141642   8.681  10.783   1.570
47206SOL    HW241643   8.623  10.834   1.426
47207SOL     OW41644   7.769  10.253   0.242
47207SOL    HW141645   7.851  10.292   0.200
47207SOL    HW241646   7.742  10.171   0.193
47208SOL     OW41647   8.906  10.045   0.728
47208SOL    HW141648   8.901   9.980   0.803
47208SOL    HW241649   8.986  10.104   0.741
47209SOL     OW41650   7.909  10.576   1.727
47209SOL    HW141651   7.859  10.577   1.641
47209SOL    HW241652   7.846  10.558   1.803
47210SOL     OW41653   8.559  11.086   0.237
47210SOL    HW141654   8.499  11.024   0.287
47210SOL    HW241655   8.590  11.042   0.152
47211SOL     OW41656   7.650   9.595   1.498
47211SOL    HW141657   7.570   9.655   1.485
47211SOL    HW241658   7.640   9.546   1.584
47212SOL     OW41659   9.080  10.687   0.081
47212SOL    HW141660   9.048  10.781   0.071
47212SOL    HW241661   9.004  10.624   0.069
47213SOL     OW41662   7.912  11.053   0.323
47213SOL    HW141663   7.945  11.092   0.409
47213SOL    HW241664   7.988  11.046   0.258
47214SOL     OW41665   8.848   9.417   0.426
47214SOL    HW141666   8.824   9.380   0.336
47214SOL    HW241667   8.947   9.433   0.430
47215SOL     OW41668   7.697  11.095   1.241
47215SOL    HW141669   7.754  11.030   1.291
47215SOL    HW241670   7.681  11.062   1.148
47216SOL     OW41671   8.388  11.008   0.904
47216SOL    HW141672   8.468  10.951   0.925
47216SOL    HW241673   8.339  10.968   0.827
47217SOL     OW41674   7.830  10.010   0.480
47217SOL    HW141675   7.875   9.920   0.477
47217SOL    HW241676   7.736   9.999   0.513
47218SOL     OW41677   8.995   9.532   1.729
47218SOL    HW141678   8.990   9.569   1.821
47218SOL    HW241679   8.923   9.463   1.717
47219SOL     OW41680   8.062   9.432   0.117
47219SOL    HW141681   8.160   9.410   0.124
47219SOL    HW241682   8.031   9.415   0.024
47220SOL     OW41683   8.229   9.574   1.749
47220SOL    HW141684   8.296   9.513   1.792
47220SOL    HW241685   8.156   9.593   1.814
47221SOL     OW41686   8.336  10.824   1.195
47221SOL    HW141687   8.313  10.799   1.101
47221SOL    HW241688   8.397  10.755   1.234
47222SOL     OW41689   8.799   9.900   1.433
47222SOL    HW141690   8.827   9.857   1.518
47222SOL    HW241691   8.824   9.996   1.434
47223SOL     OW41692   8.251  10.712   0.924
47223SOL    HW141693   8.341  10.726   0.882
47223SOL    HW241694   8.180  10.714   0.853
47224SOL     OW41695   8.370   9.813   0.899
47224SOL    HW141696   8.345   9.804   0.803
47224SOL    HW241697   8.418   9.731   0.930
47225SOL     OW41698   7.987   9.374   0.512
47225SOL    HW141699   7.906   9.375   0.570
47225SOL    HW241700   7.990   9.457   0.457
47226SOL     OW41701   8.882  10.498   0.041
47226SOL    HW141702   8.914  10.422   0.098
47226SOL    HW241703   8.790  10.525   0.071
47227SOL     OW41704   7.745   9.345   0.171
47227SOL    HW141705   7.794   9.429   0.150
47227SOL    HW241706   7.807   9.280   0.216
47228SOL     OW41707   8.383   9.546   0.480
47228SOL    HW141708   8.335   9.587   0.402
47228SOL    HW241709   8.482   9.544   0.461
47229SOL     OW41710   8.524   9.993   1.464
47229SOL    HW141711   8.444   9.932   1.467
47229SOL    HW241712   8.605   9.940   1.440
47230SOL     OW41713   8.675  10.880   0.793
47230SOL    HW141714   8.696  10.954   0.728
47230SOL    HW241715   8.743  10.880   0.866
47231SOL     OW41716   7.907  10.462   0.741
47231SOL    HW141717   7.836  10.435   0.806
47231SOL    HW241718   7.881  10.434   0.648
47232SOL     OW41719   8.719  11.107   0.591
47232SOL    HW141720   8.763  11.171   0.527
47232SOL    HW241721   8.669  11.159   0.661
47233SOL     OW41722   8.480   9.859   0.016
47233SOL    HW141723   8.439   9.941  -0.023
47233SOL    HW241724   8.544   9.885   0.089
47234SOL     OW41725   7.526   9.866   1.386
47234SOL    HW141726   7.618   9.865   1.345
47234SOL    HW241727   7.520   9.940   1.453
47235SOL     OW41728   8.009   9.532   1.147
47235SOL    HW141729   8.047   9.448   1.184
47235SOL    HW241730   7.921   9.551   1.191
47236SOL     OW41731   8.314   9.764   0.642
47236SOL    HW141732   8.282   9.836   0.580
47236SOL    HW241733   8.338   9.683   0.589
47237SOL     OW41734   8.465   9.349   0.753
47237SOL    HW141735   8.393   9.354   0.684
47237SOL    HW241736   8.441   9.280   0.822
47238SOL     OW41737   8.877  10.483   0.867
47238SOL    HW141738   8.822  10.399   0.860
47238SOL    HW241739   8.903  10.512   0.775
47239SOL     OW41740   9.305  10.143   0.377
47239SOL    HW141741   9.347  10.079   0.441
47239SOL    HW241742   9.267  10.092   0.299
47240SOL     OW41743   7.936  10.695   0.174
47240SOL    HW141744   7.849  10.680   0.221
47240SOL    HW241745   7.919  10.721   0.079
47241SOL     OW41746   9.112  10.590   0.657
47241SOL    HW141747   9.211  10.598   0.671
47241SOL    HW241748   9.067  10.674   0.688
47242SOL     OW41749   8.838   9.885   0.078
47242SOL    HW141750   8.784   9.864   0.159
47242SOL    HW241751   8.929   9.844   0.087
47243SOL     OW41752   7.975   9.566   0.328
47243SOL    HW141753   8.002   9.507   0.253
47243SOL    HW241754   7.975   9.661   0.297
47244SOL     OW41755   9.202  10.533   1.588
47244SOL    HW141756   9.293  10.494   1.575
47244SOL    HW241757   9.210  10.629   1.612
47245SOL     OW41758   8.512  10.657   1.340
47245SOL    HW141759   8.432  10.634   1.395
47245SOL    HW241760   8.595  10.631   1.389
47246SOL     OW41761   9.040  10.939   1.625
47246SOL    HW141762   9.067  10.973   1.535
47246SOL    HW241763   9.119  10.901   1.671
47247SOL     OW41764   8.559  10.505   1.100
47247SOL    HW141765   8.519  10.549   1.181
47247SOL    HW241766   8.518  10.542   1.017
47248SOL     OW41767   9.086  10.409   1.079
47248SOL    HW141768   9.091  10.490   1.138
47248SOL    HW241769   9.000  10.411   1.028
47249SOL     OW41770   8.363   9.399   1.402
47249SOL    HW141771   8.388   9.379   1.307
47249SOL    HW241772   8.435   9.455   1.444
47250SOL     OW41773   8.428  10.426   1.719
47250SOL    HW141774   8.329  10.432   1.729
47250SOL    HW241775   8.451  10.346   1.663
47251SOL     OW41776   8.153  10.360   0.368
47251SOL    HW141777   8.139  10.367   0.467
47251SOL    HW241778   8.237  10.309   0.350
47252SOL     OW41779   7.858  10.123   1.251
47252SOL    HW141780   7.944  10.135   1.301
47252SOL    HW241781   7.816  10.036   1.278
47253SOL     OW41782   8.722   9.696   1.262
47253SOL    HW141783   8.743   9.770   1.326
47253SOL    HW241784   8.633   9.713   1.219
47254SOL     OW41785   7.512  10.874   1.331
47254SOL    HW141786   7.466  10.956   1.297
47254SOL    HW241787   7.610  10.893   1.340
47255SOL     OW41788   7.815  10.410   0.501
47255SOL    HW141789   7.808  10.493   0.445
47255SOL    HW241790   7.819  10.330   0.441
47256SOL     OW41791   8.014   9.847   0.865
47256SOL    HW141792   8.026   9.913   0.791
47256SOL    HW241793   8.060   9.881   0.948
47257SOL     OW41794   8.700  10.658   0.388
47257SOL    HW141795   8.750  10.735   0.428
47257SOL    HW241796   8.605  10.660   0.420
47258SOL     OW41797   8.720  10.755   1.142
47258SOL    HW141798   8.767  10.768   1.229
47258SOL    HW241799   8.654  10.681   1.151
47259SOL     OW41800   9.030   9.949   0.472
47259SOL    HW141801   8.999  10.010   0.545
47259SOL    HW241802   9.080  10.001   0.403
47260SOL     OW41803   7.802  10.820   1.329
47260SOL    HW141804   7.781  10.776   1.242
47260SOL    HW241805   7.899  10.846   1.332
47261SOL     OW41806   7.850  10.061   1.598
47261SOL    HW141807   7.918  10.116   1.551
47261SOL    HW241808   7.890   9.973   1.625
47262SOL     OW41809   9.035  10.089   1.670
47262SOL    HW141810   8.943  10.127   1.665
47262SOL    HW241811   9.095  10.136   1.605
47263SOL     OW41812   8.461   9.415   1.770
47263SOL    HW141813   8.467   9.500   1.718
47263SOL    HW241814   8.493   9.339   1.713
47264SOL     OW41815   7.952   9.360   1.740
47264SOL    HW141816   7.910   9.303   1.670
47264SOL    HW241817   7.886   9.429   1.772
47265SOL     OW41818   8.021  10.180   1.029
47265SOL    HW141819   8.065  10.269   1.020
47265SOL    HW241820   7.958  10.180   1.106
47266SOL     OW41821   8.808  10.172   1.045
47266SOL    HW141822   8.733  10.172   0.979
47266SOL    HW241823   8.845  10.080   1.054
47267SOL     OW41824   8.657   9.835   0.275
47267SOL    HW141825   8.670   9.751   0.329
47267SOL    HW241826   8.628   9.909   0.335
47268SOL     OW41827   7.755   9.523   1.231
47268SOL    HW141828   7.732   9.560   1.321
47268SOL    HW241829   7.725   9.428   1.225
47269SOL     OW41830   7.485  10.620   1.282
47269SOL    HW141831   7.538  10.571   1.350
47269SOL    HW241832   7.507  10.718   1.287
47270SOL     OW41833   8.180   9.944   1.064
47270SOL    HW141834   8.239   9.918   0.988
47270SOL    HW241835   8.152  10.040   1.053
47271SOL     OW41836   9.176  10.245   1.854
47271SOL    HW141837   9.130  10.238   1.765
47271SOL    HW241838   9.114  10.289   1.920
47272SOL     OW41839   7.755   9.373   0.618
47272SOL    HW141840   7.744   9.467   0.651
47272SOL    HW241841   7.750   9.310   0.695
47273SOL     OW41842   9.070   9.677   0.374
47273SOL    HW141843   9.072   9.601   0.438
47273SOL    HW241844   9.022   9.754   0.414
47274SOL     OW41845   8.471  10.076   0.966
47274SOL    HW141846   8.486  10.097   1.062
47274SOL    HW241847   8.441   9.981   0.957
47275SOL     OW41848   8.428  10.883   1.700
47275SOL    HW141849   8.408  10.927   1.612
47275SOL    HW241850   8.467  10.792   1.684
47276SOL     OW41851   9.307  10.828   1.605
47276SOL    HW141852   9.321  10.855   1.510
47276SOL    HW241853   9.390  10.850   1.658
47277SOL     OW41854   7.798  10.208   1.804
47277SOL    HW141855   7.874  10.252   1.852
47277SOL    HW241856   7.833  10.161   1.722
47278SOL     OW41857   8.988   9.584   0.125
47278SOL    HW141858   8.927   9.509   0.148
47278SOL    HW241859   9.010   9.636   0.208
47279SOL     OW41860   8.751  10.148   0.042
47279SOL    HW141861   8.785  10.055   0.057
47279SOL    HW241862   8.769  10.175  -0.053
47280SOL     OW41863   8.516  10.643   0.849
47280SOL    HW141864   8.523  10.559   0.794
47280SOL    HW241865   8.578  10.712   0.813
47281SOL     OW41866   7.767  10.120   0.949
47281SOL    HW141867   7.860  10.156   0.954
47281SOL    HW241868   7.761  10.035   1.001
47282SOL     OW41869   7.787   9.819   1.006
47282SOL    HW141870   7.735   9.736   0.989
47282SOL    HW241871   7.864   9.824   0.942
47283SOL     OW41872   8.586   9.690   1.678
47283SOL    HW141873   8.541   9.753   1.742
47283SOL    HW241874   8.679   9.721   1.661
47284SOL     OW41875   8.608   9.517   1.477
47284SOL    HW141876   8.608   9.581   1.554
47284SOL    HW241877   8.636   9.565   1.394
47285SOL     OW41878   7.456  10.636   0.200
47285SOL    HW141879   7.363  10.657   0.169
47285SOL    HW241880   7.466  10.537   0.213
47286SOL     OW41881   7.536  11.111   0.927
47286SOL    HW141882   7.494  11.025   0.900
47286SOL    HW241883   7.630  11.114   0.893
47287SOL     OW41884   7.952  10.878   0.910
47287SOL    HW141885   8.018  10.952   0.919
47287SOL    HW241886   7.996  10.799   0.868
47288SOL     OW41887   8.450  10.106   1.238
47288SOL    HW141888   8.491  10.074   1.324
47288SOL    HW241889   8.354  10.079   1.235
47289SOL     OW41890   7.488   9.854   1.114
47289SOL    HW141891   7.573   9.821   1.073
47289SOL    HW241892   7.501   9.869   1.212
47290SOL     OW41893   7.637   9.830   1.722
47290SOL    HW141894   7.696   9.790   1.652
47290SOL    HW241895   7.579   9.901   1.681
47291SOL     OW41896   8.817  10.260   1.660
47291SOL    HW141897   8.856  10.349   1.680
47291SOL    HW241898   8.827  10.240   1.563
47292SOL     OW41899   8.263   9.882   0.325
47292SOL    HW141900   8.270   9.793   0.279
47292SOL    HW241901   8.169   9.916   0.317
47293SOL     OW41902   9.105   9.914   1.206
47293SOL    HW141903   9.067   9.845   1.268
47293SOL    HW241904   9.187   9.878   1.162
47294SOL     OW41905   7.700  10.874   1.744
47294SOL    HW141906   7.670  10.931   1.820
47294SOL    HW241907   7.693  10.777   1.770
47295SOL     OW41908   8.119   9.774   1.269
47295SOL    HW141909   8.085   9.685   1.239
47295SOL    HW241910   8.145   9.828   1.189
47296SOL     OW41911   8.378  10.988   1.465
47296SOL    HW141912   8.354  10.970   1.370
47296SOL    HW241913   8.408  11.082   1.475
47297SOL     OW41914   7.921   9.810   0.191
47297SOL    HW141915   7.982   9.890   0.195
47297SOL    HW241916   7.826   9.841   0.198
47298SOL     OW41917   7.607  10.447   1.466
47298SOL    HW141918   7.629  10.386   1.542
47298SOL    HW241919   7.617  10.398   1.380
47299SOL     OW41920   8.795  10.369   1.234
47299SOL    HW141921   8.819  10.306   1.160
47299SOL    HW241922   8.705  10.409   1.216
47300SOL     OW41923   8.750  10.165   0.309
47300SOL    HW141924   8.664  10.134   0.351
47300SOL    HW241925   8.746  10.151   0.210
47301SOL     OW41926   9.207  11.057   1.154
47301SOL    HW141927   9.268  11.087   1.081
47301SOL    HW241928   9.169  10.968   1.132
47302SOL     OW41929   8.700  11.041   1.128
47302SOL    HW141930   8.784  11.046   1.074
47302SOL    HW241931   8.677  10.945   1.146
47303SOL     OW41932   7.531  10.568   1.022
47303SOL    HW141933   7.526  10.567   1.122
47303SOL    HW241934   7.448  10.527   0.984
47304SOL     OW41935   8.136  10.972   1.716
47304SOL    HW141936   8.080  11.053   1.725
47304SOL    HW241937   8.188  10.976   1.630
47305SOL     OW41938   8.351   9.396   0.133
47305SOL    HW141939   8.402   9.397   0.047
47305SOL    HW241940   8.407   9.354   0.204
47306SOL     OW41941   9.174   9.445   0.523
47306SOL    HW141942   9.247   9.428   0.456
47306SOL    HW241943   9.143   9.358   0.561
47307SOL     OW41944   8.836  10.883   0.477
47307SOL    HW141945   8.903  10.895   0.403
47307SOL    HW241946   8.796  10.972   0.500
47308SOL     OW41947   7.578  11.104   1.851
47308SOL    HW141948   7.537  11.030   1.904
47308SOL    HW241949   7.642  11.155   1.909
47309SOL     OW41950   8.728  10.237   0.672
47309SOL    HW141951   8.788  10.156   0.674
47309SOL    HW241952   8.768  10.306   0.612
47310SOL     OW41953   8.278  10.583   1.422
47310SOL    HW141954   8.273  10.616   1.517
47310SOL    HW241955   8.192  10.602   1.376
47311SOL     OW41956   8.120  10.926   0.154
47311SOL    HW141957   8.129  10.936   0.055
47311SOL    HW241958   8.080  10.837   0.175
47312SOL     OW41959   9.098  11.030   1.394
47312SOL    HW141960   9.151  11.040   1.310
47312SOL    HW241961   9.071  11.120   1.428
47313SOL     OW41962   9.289   9.485   0.963
47313SOL    HW141963   9.328   9.400   0.927
47313SOL    HW241964   9.191   9.487   0.944
47314SOL     OW41965   7.711   9.636   0.720
47314SOL    HW141966   7.632   9.687   0.686
47314SOL    HW241967   7.702   9.621   0.818
47315SOL     OW41968   8.642  10.922   0.031
47315SOL    HW141969   8.648  10.829   0.068
47315SOL    HW241970   8.583  10.922  -0.049
47316SOL     OW41971   8.270  10.312   1.372
47316SOL    HW141972   8.310  10.311   1.280
47316SOL    HW241973   8.280  10.404   1.412
47317SOL     OW41974   8.364  10.220   0.291
47317SOL    HW141975   8.427  10.258   0.223
47317SOL    HW241976   8.404  10.137   0.330
47318SOL     OW41977   8.952  10.917   0.044
47318SOL    HW141978   8.860  10.954   0.051
47318SOL    HW241979   8.990  10.937  -0.046
47319SOL     OW41980   7.820  10.598   1.490
47319SOL    HW141981   7.807  10.691   1.456
47319SOL    HW241982   7.736  10.546   1.477
47320SOL     OW41983   9.062  10.602   1.289
47320SOL    HW141984   9.122  10.605   1.369
47320SOL    HW241985   8.987  10.666   1.302
47321SOL     OW41986   8.487  10.408   0.696
47321SOL    HW141987   8.417  10.361   0.750
47321SOL    HW241988   8.546  10.340   0.653
47322SOL     OW41989   8.462   9.546   0.971
47322SOL    HW141990   8.454   9.510   0.878
47322SOL    HW241991   8.460   9.470   1.036
47323SOL     OW41992   8.038  10.797   0.491
47323SOL    HW141993   8.080  10.739   0.421
47323SOL    HW241994   7.994  10.876   0.447
47324SOL     OW41995   9.157   9.695   1.381
47324SOL    HW141996   9.230   9.764   1.385
47324SOL    HW241997   9.185   9.620   1.322
47325SOL     OW41998   7.703  10.658   0.290
47325SOL    HW141999   7.607  10.659   0.263
47325SOL    HW242000   7.715  10.711   0.374
47326SOL     OW42001   7.553  10.323   1.726
47326SOL    HW142002   7.476  10.290   1.780
47326SOL    HW242003   7.638  10.293   1.768
47327SOL     OW42004   8.120   9.513   1.489
47327SOL    HW142005   8.210   9.497   1.449
47327SOL    HW242006   8.128   9.518   1.588
47328SOL     OW42007   7.523   9.655   0.033
47328SOL    HW142008   7.431   9.627   0.004
47328SOL    HW242009   7.554   9.732  -0.023
47329SOL     OW42010   8.888  10.166   1.398
47329SOL    HW142011   8.831  10.218   1.335
47329SOL    HW242012   8.984  10.178   1.374
47330SOL     OW42013   7.520   9.476   0.318
47330SOL    HW142014   7.503   9.559   0.264
47330SOL    HW242015   7.610   9.439   0.296
47331SOL     OW42016   8.631  10.645   0.119
47331SOL    HW142017   8.532  10.634   0.121
47331SOL    HW242018   8.665  10.660   0.212
47332SOL     OW42019   8.061  10.152   1.431
47332SOL    HW142020   8.117  10.233   1.414
47332SOL    HW242021   8.120  10.072   1.434
47333SOL     OW42022   8.941  11.077   0.959
47333SOL    HW142023   8.974  11.141   0.890
47333SOL    HW242024   9.007  11.071   1.034
47334SOL     OW42025   8.164   9.875   1.708
47334SOL    HW142026   8.183   9.940   1.782
47334SOL    HW242027   8.224   9.795   1.717
47335SOL     OW42028   8.898  10.530   1.633
47335SOL    HW142029   8.889  10.520   1.732
47335SOL    HW242030   8.994  10.523   1.607
47336SOL     OW42031   7.838  11.051   1.560
47336SOL    HW142032   7.747  11.092   1.558
47336SOL    HW242033   7.831  10.957   1.592
47337SOL     OW42034   9.122  10.193   1.254
47337SOL    HW142035   9.095  10.104   1.217
47337SOL    HW242036   9.123  10.261   1.181
47338SOL     OW42037   8.673   9.635   0.449
47338SOL    HW142038   8.738   9.561   0.438
47338SOL    HW242039   8.693   9.685   0.533
47339SOL     OW42040   8.042  10.055   0.652
47339SOL    HW142041   8.092  10.140   0.633
47339SOL    HW242042   7.954  10.057   0.604
47340SOL     OW42043   9.225   9.652   1.642
47340SOL    HW142044   9.208   9.683   1.548
47340SOL    HW242045   9.141   9.615   1.680
47341SOL     OW42046   9.178  10.244   1.517
47341SOL    HW142047   9.216  10.335   1.532
47341SOL    HW242048   9.170  10.227   1.418
47342SOL     OW42049   8.307  10.684   0.016
47342SOL    HW142050   8.261  10.699   0.104
47342SOL    HW242051   8.351  10.769  -0.014
47343SOL     OW42052   8.109  11.100   0.953
47343SOL    HW142053   8.063  11.188   0.940
47343SOL    HW242054   8.208  11.112   0.946
47344SOL     OW42055   8.307  10.266   0.861
47344SOL    HW142056   8.361  10.197   0.909
47344SOL    HW242057   8.275  10.335   0.927
47345SOL     OW42058   8.531  10.294   0.087
47345SOL    HW142059   8.508  10.347   0.005
47345SOL    HW242060   8.612  10.238   0.068
47346SOL     OW42061   9.309  10.879   0.851
47346SOL    HW142062   9.238  10.867   0.781
47346SOL    HW242063   9.310  10.800   0.911
47347SOL     OW42064   7.669  10.624   1.844
47347SOL    HW142065   7.604  10.551   1.823
47347SOL    HW242066   7.673  10.638   1.942
47348SOL     OW42067   7.527  10.550   0.653
47348SOL    HW142068   7.526  10.503   0.741
47348SOL    HW242069   7.609  10.522   0.602
47349SOL     OW42070   8.120  10.701   1.624
47349SOL    HW142071   8.042  10.651   1.662
47349SOL    HW242072   8.117  10.796   1.655
47350SOL     OW42073   9.272   9.502   1.227
47350SOL    HW142074   9.268   9.412   1.271
47350SOL    HW242075   9.275   9.491   1.128
47351SOL     OW42076   7.876   9.734   0.520
47351SOL    HW142077   7.906   9.662   0.458
47351SOL    HW242078   7.837   9.694   0.603
47352SOL     OW42079   9.153  10.797   1.104
47352SOL    HW142080   9.060  10.772   1.077
47352SOL    HW242081   9.179  10.747   1.186
47353SOL     OW42082   7.765   9.857   1.280
47353SOL    HW142083   7.803   9.798   1.352
47353SOL    HW242084   7.805   9.831   1.192
47354SOL     OW42085   8.260  10.896   0.687
47354SOL    HW142086   8.292  10.906   0.593
47354SOL    HW242087   8.181  10.834   0.689
47355SOL     OW42088   8.872   9.524   1.112
47355SOL    HW142089   8.924   9.459   1.167
47355SOL    HW242090   8.823   9.587   1.173
47356SOL     OW42091   8.449   9.344   1.154
47356SOL    HW142092   8.386   9.272   1.123
47356SOL    HW242093   8.542   9.308   1.154
47357SOL     OW42094   8.218  10.640   0.301
47357SOL    HW142095   8.172  10.553   0.318
47357SOL    HW242096   8.309  10.637   0.342
47358SOL     OW42097   8.066  10.877   1.284
47358SOL    HW142098   8.061  10.959   1.341
47358SOL    HW242099   8.155  10.874   1.239
47359SOL     OW42100   8.800   9.362   0.168
47359SOL    HW142101   8.835   9.321   0.084
47359SOL    HW242102   8.710   9.324   0.188
47360SOL     OW42103   8.748   9.763   0.691
47360SOL    HW142104   8.689   9.843   0.695
47360SOL    HW242105   8.763   9.728   0.784
47361SOL     OW42106   9.041   9.531   0.882
47361SOL    HW142107   8.957   9.530   0.936
47361SOL    HW242108   9.043   9.614   0.826
47362SOL     OW42109   7.487  10.387   0.300
47362SOL    HW142110   7.586  10.376   0.291
47362SOL    HW242111   7.447  10.301   0.332
47363SOL     OW42112   8.323  10.956   0.337
47363SOL    HW142113   8.246  10.921   0.283
47363SOL    HW242114   8.291  11.027   0.399
47364SOL     OW42115   7.678   9.938   1.975
47364SOL    HW142116   7.585   9.936   2.012
47364SOL    HW242117   7.679   9.899   1.883
47365SOL     OW42118   7.673   9.585   2.858
47365SOL    HW142119   7.708   9.568   2.950
47365SOL    HW242120   7.585   9.540   2.846
47366SOL     OW42121   7.467   9.678   2.509
47366SOL    HW142122   7.385   9.721   2.548
47366SOL    HW242123   7.439   9.605   2.446
47367SOL     OW42124   8.017  10.585   3.027
47367SOL    HW142125   7.924  10.578   2.990
47367SOL    HW242126   8.028  10.674   3.071
47368SOL     OW42127   9.003  10.821   2.565
47368SOL    HW142128   8.946  10.805   2.646
47368SOL    HW242129   8.944  10.831   2.485
47369SOL     OW42130   8.583  10.013   2.579
47369SOL    HW142131   8.640  10.091   2.554
47369SOL    HW242132   8.523  10.039   2.655
47370SOL     OW42133   9.203   9.917   2.093
47370SOL    HW142134   9.191   9.904   1.994
47370SOL    HW242135   9.173   9.836   2.142
47371SOL     OW42136   8.216  10.454   2.885
47371SOL    HW142137   8.138  10.471   2.945
47371SOL    HW242138   8.250  10.541   2.849
47372SOL     OW42139   8.298  10.108   3.685
47372SOL    HW142140   8.294  10.184   3.750
47372SOL    HW242141   8.320  10.144   3.594
47373SOL     OW42142   8.133  10.322   2.527
47373SOL    HW142143   8.202  10.306   2.597
47373SOL    HW242144   8.060  10.379   2.565
47374SOL     OW42145   8.134  10.471   3.665
47374SOL    HW142146   8.194  10.550   3.679
47374SOL    HW242147   8.048  10.502   3.624
47375SOL     OW42148   7.783  10.745   2.923
47375SOL    HW142149   7.705  10.714   2.870
47375SOL    HW242150   7.841  10.803   2.866
47376SOL     OW42151   8.908  10.815   3.201
47376SOL    HW142152   8.932  10.909   3.227
47376SOL    HW242153   8.892  10.761   3.283
47377SOL     OW42154   7.886   9.702   3.361
47377SOL    HW142155   7.968   9.646   3.370
47377SOL    HW242156   7.805   9.644   3.365
47378SOL     OW42157   9.051   9.757   2.599
47378SOL    HW142158   8.977   9.803   2.549
47378SOL    HW242159   9.102   9.825   2.652
47379SOL     OW42160   7.679  11.023   2.345
47379SOL    HW142161   7.713  11.100   2.399
47379SOL    HW242162   7.723  11.023   2.255
47380SOL     OW42163   8.575  10.651   3.552
47380SOL    HW142164   8.622  10.651   3.640
47380SOL    HW242165   8.527  10.564   3.541
47381SOL     OW42166   7.678  10.744   2.400
47381SOL    HW142167   7.652  10.840   2.400
47381SOL    HW242168   7.607  10.690   2.445
47382SOL     OW42169   7.688  10.401   2.748
47382SOL    HW142170   7.702  10.317   2.800
47382SOL    HW242171   7.633  10.465   2.803
47383SOL     OW42172   8.068  11.096   3.301
47383SOL    HW142173   7.976  11.079   3.336
47383SOL    HW242174   8.096  11.188   3.327
47384SOL     OW42175   8.054  10.274   1.985
47384SOL    HW142176   8.061  10.358   1.931
47384SOL    HW242177   8.100  10.287   2.073
47385SOL     OW42178   9.042   9.424   3.342
47385SOL    HW142179   9.024   9.491   3.270
47385SOL    HW242180   9.039   9.470   3.431
47386SOL     OW42181   7.570   9.953   2.425
47386SOL    HW142182   7.525   9.865   2.442
47386SOL    HW242183   7.569  10.007   2.509
47387SOL     OW42184   9.290  11.077   2.221
47387SOL    HW142185   9.344  11.048   2.301
47387SOL    HW242186   9.320  11.167   2.192
47388SOL     OW42187   7.475  10.906   1.979
47388SOL    HW142188   7.456  10.810   2.000
47388SOL    HW242189   7.442  10.964   2.054
47389SOL     OW42190   9.137  10.232   2.474
47389SOL    HW142191   9.232  10.203   2.482
47389SOL    HW242192   9.129  10.297   2.399
47390SOL     OW42193   9.089  10.418   2.294
47390SOL    HW142194   9.175  10.420   2.242
47390SOL    HW242195   9.103  10.465   2.382
47391SOL     OW42196   7.561  10.047   3.459
47391SOL    HW142197   7.649  10.034   3.504
47391SOL    HW242198   7.548  10.144   3.437
47392SOL     OW42199   8.061  10.675   2.588
47392SOL    HW142200   8.012  10.588   2.597
47392SOL    HW242201   8.038  10.718   2.501
47393SOL     OW42202   8.741  10.538   3.285
47393SOL    HW142203   8.778  10.465   3.227
47393SOL    HW242204   8.793  10.543   3.370
47394SOL     OW42205   8.257   9.314   2.364
47394SOL    HW142206   8.297   9.405   2.355
47394SOL    HW242207   8.157   9.322   2.370
47395SOL     OW42208   7.645  10.286   3.126
47395SOL    HW142209   7.734  10.241   3.112
47395SOL    HW242210   7.572  10.221   3.107
47396SOL     OW42211   8.973  10.309   2.052
47396SOL    HW142212   8.910  10.233   2.065
47396SOL    HW242213   9.021  10.327   2.138
47397SOL     OW42214   8.635  11.102   3.478
47397SOL    HW142215   8.659  11.162   3.402
47397SOL    HW242216   8.642  11.007   3.448
47398SOL     OW42217   7.765   9.561   3.663
47398SOL    HW142218   7.836   9.632   3.669
47398SOL    HW242219   7.677   9.600   3.691
47399SOL     OW42220   8.914  10.727   2.815
47399SOL    HW142221   8.855  10.733   2.895
47399SOL    HW242222   8.899  10.639   2.769
47400SOL     OW42223   9.115  11.024   2.434
47400SOL    HW142224   9.074  11.001   2.346
47400SOL    HW242225   9.097  10.950   2.499
47401SOL     OW42226   8.046  10.039   2.132
47401SOL    HW142227   8.070  10.108   2.064
47401SOL    HW242228   7.968  10.072   2.186
47402SOL     OW42229   8.729   9.655   2.806
47402SOL    HW142230   8.643   9.605   2.793
47402SOL    HW242231   8.791   9.601   2.862
47403SOL     OW42232   9.024  10.972   2.169
47403SOL    HW142233   9.113  11.018   2.172
47403SOL    HW242234   9.003  10.948   2.074
47404SOL     OW42235   8.255   9.915   3.327
47404SOL    HW142236   8.208   9.912   3.416
47404SOL    HW242237   8.204   9.860   3.261
47405SOL     OW42238   8.842   9.779   3.536
47405SOL    HW142239   8.822   9.822   3.624
47405SOL    HW242240   8.920   9.717   3.545
47406SOL     OW42241   8.421  10.200   3.434
47406SOL    HW142242   8.467  10.116   3.405
47406SOL    HW242243   8.365  10.234   3.359
47407SOL     OW42244   8.439   9.720   3.104
47407SOL    HW142245   8.362   9.754   3.158
47407SOL    HW242246   8.405   9.669   3.025
47408SOL     OW42247   8.489  10.011   2.291
47408SOL    HW142248   8.515  10.007   2.387
47408SOL    HW242249   8.404   9.960   2.277
47409SOL     OW42250   7.524  10.121   2.651
47409SOL    HW142251   7.623  10.109   2.660
47409SOL    HW242252   7.500  10.216   2.672
47410SOL     OW42253   7.578  11.131   3.433
47410SOL    HW142254   7.568  11.116   3.532
47410SOL    HW242255   7.492  11.167   3.397
47411SOL     OW42256   8.313   9.658   2.057
47411SOL    HW142257   8.372   9.721   2.008
47411SOL    HW242258   8.332   9.564   2.028
47412SOL     OW42259   9.167   9.895   3.693
47412SOL    HW142260   9.141   9.984   3.657
47412SOL    HW242261   9.165   9.827   3.620
47413SOL     OW42262   8.810  10.454   2.407
47413SOL    HW142263   8.893  10.425   2.359
47413SOL    HW242264   8.761  10.521   2.351
47414SOL     OW42265   7.998   9.506   2.747
47414SOL    HW142266   7.993   9.501   2.847
47414SOL    HW242267   8.000   9.602   2.718
47415SOL     OW42268   8.456  10.766   2.339
47415SOL    HW142269   8.410  10.838   2.287
47415SOL    HW242270   8.452  10.786   2.437
47416SOL     OW42271   7.799  11.111   2.715
47416SOL    HW142272   7.849  11.025   2.721
47416SOL    HW242273   7.864  11.188   2.712
47417SOL     OW42274   9.243  10.376   2.735
47417SOL    HW142275   9.181  10.361   2.659
47417SOL    HW242276   9.191  10.387   2.820
47418SOL     OW42277   8.675  10.860   3.368
47418SOL    HW142278   8.681  10.783   3.432
47418SOL    HW242279   8.623  10.834   3.288
47419SOL     OW42280   7.769  10.253   2.104
47419SOL    HW142281   7.851  10.292   2.062
47419SOL    HW242282   7.742  10.171   2.055
47420SOL     OW42283   8.906  10.045   2.590
47420SOL    HW142284   8.901   9.980   2.665
47420SOL    HW242285   8.986  10.104   2.603
47421SOL     OW42286   7.909  10.576   3.589
47421SOL    HW142287   7.859  10.577   3.503
47421SOL    HW242288   7.846  10.558   3.665
47422SOL     OW42289   8.559  11.086   2.099
47422SOL    HW142290   8.499  11.024   2.149
47422SOL    HW242291   8.590  11.042   2.014
47423SOL     OW42292   7.650   9.595   3.360
47423SOL    HW142293   7.570   9.655   3.347
47423SOL    HW242294   7.640   9.546   3.446
47424SOL     OW42295   9.080  10.687   1.943
47424SOL    HW142296   9.048  10.781   1.933
47424SOL    HW242297   9.004  10.624   1.931
47425SOL     OW42298   7.912  11.053   2.185
47425SOL    HW142299   7.945  11.092   2.271
47425SOL    HW242300   7.988  11.046   2.120
47426SOL     OW42301   8.848   9.417   2.288
47426SOL    HW142302   8.824   9.380   2.198
47426SOL    HW242303   8.947   9.433   2.292
47427SOL     OW42304   7.697  11.095   3.103
47427SOL    HW142305   7.754  11.030   3.153
47427SOL    HW242306   7.681  11.062   3.010
47428SOL     OW42307   8.388  11.008   2.766
47428SOL    HW142308   8.468  10.951   2.787
47428SOL    HW242309   8.339  10.968   2.689
47429SOL     OW42310   7.830  10.010   2.342
47429SOL    HW142311   7.875   9.920   2.339
47429SOL    HW242312   7.736   9.999   2.375
47430SOL     OW42313   8.995   9.532   3.591
47430SOL    HW142314   8.990   9.569   3.683
47430SOL    HW242315   8.923   9.463   3.579
47431SOL     OW42316   8.062   9.432   1.979
47431SOL    HW142317   8.160   9.410   1.986
47431SOL    HW242318   8.031   9.415   1.886
47432SOL     OW42319   8.229   9.574   3.611
47432SOL    HW142320   8.296   9.513   3.654
47432SOL    HW242321   8.156   9.593   3.676
47433SOL     OW42322   8.336  10.824   3.057
47433SOL    HW142323   8.313  10.799   2.963
47433SOL    HW242324   8.397  10.755   3.096
47434SOL     OW42325   8.799   9.900   3.295
47434SOL    HW142326   8.827   9.857   3.380
47434SOL    HW242327   8.824   9.996   3.296
47435SOL     OW42328   8.251  10.712   2.786
47435SOL    HW142329   8.341  10.726   2.744
47435SOL    HW242330   8.180  10.714   2.715
47436SOL     OW42331   8.370   9.813   2.761
47436SOL    HW142332   8.345   9.804   2.665
47436SOL    HW242333   8.418   9.731   2.792
47437SOL     OW42334   7.987   9.374   2.374
47437SOL    HW142335   7.906   9.375   2.432
47437SOL    HW242336   7.990   9.457   2.319
47438SOL     OW42337   8.882  10.498   1.903
47438SOL    HW142338   8.914  10.422   1.960
47438SOL    HW242339   8.790  10.525   1.933
47439SOL     OW42340   7.745   9.345   2.033
47439SOL    HW142341   7.794   9.429   2.012
47439SOL    HW242342   7.807   9.280   2.078
47440SOL     OW42343   8.383   9.546   2.342
47440SOL    HW142344   8.335   9.587   2.264
47440SOL    HW242345   8.482   9.544   2.323
47441SOL     OW42346   8.524   9.993   3.326
47441SOL    HW142347   8.444   9.932   3.329
47441SOL    HW242348   8.605   9.940   3.302
47442SOL     OW42349   8.675  10.880   2.655
47442SOL    HW142350   8.696  10.954   2.590
47442SOL    HW242351   8.743  10.880   2.728
47443SOL     OW42352   7.907  10.462   2.603
47443SOL    HW142353   7.836  10.435   2.668
47443SOL    HW242354   7.881  10.434   2.510
47444SOL     OW42355   8.719  11.107   2.453
47444SOL    HW142356   8.763  11.171   2.389
47444SOL    HW242357   8.669  11.159   2.523
47445SOL     OW42358   8.480   9.859   1.878
47445SOL    HW142359   8.439   9.941   1.839
47445SOL    HW242360   8.544   9.885   1.951
47446SOL     OW42361   7.526   9.866   3.248
47446SOL    HW142362   7.618   9.865   3.207
47446SOL    HW242363   7.520   9.940   3.315
47447SOL     OW42364   8.009   9.532   3.009
47447SOL    HW142365   8.047   9.448   3.046
47447SOL    HW242366   7.921   9.551   3.053
47448SOL     OW42367   8.314   9.764   2.504
47448SOL    HW142368   8.282   9.836   2.442
47448SOL    HW242369   8.338   9.683   2.451
47449SOL     OW42370   8.465   9.349   2.615
47449SOL    HW142371   8.393   9.354   2.546
47449SOL    HW242372   8.441   9.280   2.684
47450SOL     OW42373   8.877  10.483   2.729
47450SOL    HW142374   8.822  10.399   2.722
47450SOL    HW242375   8.903  10.512   2.637
47451SOL     OW42376   8.914   9.900   2.854
47451SOL    HW142377   8.884   9.805   2.861
47451SOL    HW242378   8.987   9.916   2.920
47452SOL     OW42379   9.305  10.143   2.239
47452SOL    HW142380   9.347  10.079   2.303
47452SOL    HW242381   9.267  10.092   2.161
47453SOL     OW42382   7.936  10.695   2.036
47453SOL    HW142383   7.849  10.680   2.083
47453SOL    HW242384   7.919  10.721   1.941
47454SOL     OW42385   9.112  10.590   2.519
47454SOL    HW142386   9.211  10.598   2.533
47454SOL    HW242387   9.067  10.674   2.550
47455SOL     OW42388   8.838   9.885   1.940
47455SOL    HW142389   8.784   9.864   2.021
47455SOL    HW242390   8.929   9.844   1.949
47456SOL     OW42391   7.975   9.566   2.190
47456SOL    HW142392   8.002   9.507   2.115
47456SOL    HW242393   7.975   9.661   2.159
47457SOL     OW42394   9.202  10.533   3.450
47457SOL    HW142395   9.293  10.494   3.437
47457SOL    HW242396   9.210  10.629   3.474
47458SOL     OW42397   8.512  10.657   3.202
47458SOL    HW142398   8.432  10.634   3.257
47458SOL    HW242399   8.595  10.631   3.251
47459SOL     OW42400   9.040  10.939   3.487
47459SOL    HW142401   9.067  10.973   3.397
47459SOL    HW242402   9.119  10.901   3.533
47460SOL     OW42403   8.559  10.505   2.962
47460SOL    HW142404   8.519  10.549   3.043
47460SOL    HW242405   8.518  10.542   2.879
47461SOL     OW42406   9.086  10.409   2.941
47461SOL    HW142407   9.091  10.490   3.000
47461SOL    HW242408   9.000  10.411   2.890
47462SOL     OW42409   8.363   9.399   3.264
47462SOL    HW142410   8.388   9.379   3.169
47462SOL    HW242411   8.435   9.455   3.306
47463SOL     OW42412   8.428  10.426   3.581
47463SOL    HW142413   8.329  10.432   3.591
47463SOL    HW242414   8.451  10.346   3.525
47464SOL     OW42415   8.153  10.360   2.230
47464SOL    HW142416   8.139  10.367   2.329
47464SOL    HW242417   8.237  10.309   2.212
47465SOL     OW42418   7.858  10.123   3.113
47465SOL    HW142419   7.944  10.135   3.163
47465SOL    HW242420   7.816  10.036   3.140
47466SOL     OW42421   8.722   9.696   3.124
47466SOL    HW142422   8.743   9.770   3.188
47466SOL    HW242423   8.633   9.713   3.081
47467SOL     OW42424   7.512  10.874   3.193
47467SOL    HW142425   7.466  10.956   3.159
47467SOL    HW242426   7.610  10.893   3.202
47468SOL     OW42427   7.815  10.410   2.363
47468SOL    HW142428   7.808  10.493   2.307
47468SOL    HW242429   7.819  10.330   2.303
47469SOL     OW42430   8.014   9.847   2.727
47469SOL    HW142431   8.026   9.913   2.653
47469SOL    HW242432   8.060   9.881   2.810
47470SOL     OW42433   8.700  10.658   2.250
47470SOL    HW142434   8.750  10.735   2.290
47470SOL    HW242435   8.605  10.660   2.282
47471SOL     OW42436   8.720  10.755   3.004
47471SOL    HW142437   8.767  10.768   3.091
47471SOL    HW242438   8.654  10.681   3.013
47472SOL     OW42439   9.030   9.949   2.334
47472SOL    HW142440   8.999  10.010   2.407
47472SOL    HW242441   9.080  10.001   2.265
47473SOL     OW42442   7.802  10.820   3.191
47473SOL    HW142443   7.781  10.776   3.104
47473SOL    HW242444   7.899  10.846   3.194
47474SOL     OW42445   7.850  10.061   3.460
47474SOL    HW142446   7.918  10.116   3.413
47474SOL    HW242447   7.890   9.973   3.487
47475SOL     OW42448   9.035  10.089   3.532
47475SOL    HW142449   8.943  10.127   3.527
47475SOL    HW242450   9.095  10.136   3.467
47476SOL     OW42451   8.461   9.415   3.632
47476SOL    HW142452   8.467   9.500   3.580
47476SOL    HW242453   8.493   9.339   3.575
47477SOL     OW42454   7.952   9.360   3.602
47477SOL    HW142455   7.910   9.303   3.532
47477SOL    HW242456   7.886   9.429   3.634
47478SOL     OW42457   8.021  10.180   2.891
47478SOL    HW142458   8.065  10.269   2.882
47478SOL    HW242459   7.958  10.180   2.968
47479SOL     OW42460   8.808  10.172   2.907
47479SOL    HW142461   8.733  10.172   2.841
47479SOL    HW242462   8.845  10.080   2.916
47480SOL     OW42463   8.657   9.835   2.137
47480SOL    HW142464   8.670   9.751   2.191
47480SOL    HW242465   8.628   9.909   2.197
47481SOL     OW42466   7.755   9.523   3.093
47481SOL    HW142467   7.732   9.560   3.183
47481SOL    HW242468   7.725   9.428   3.087
47482SOL     OW42469   7.485  10.620   3.144
47482SOL    HW142470   7.538  10.571   3.212
47482SOL    HW242471   7.507  10.718   3.149
47483SOL     OW42472   8.180   9.944   2.926
47483SOL    HW142473   8.239   9.918   2.850
47483SOL    HW242474   8.152  10.040   2.915
47484SOL     OW42475   9.176  10.245   3.716
47484SOL    HW142476   9.130  10.238   3.627
47484SOL    HW242477   9.114  10.289   3.782
47485SOL     OW42478   9.070   9.677   2.236
47485SOL    HW142479   9.072   9.601   2.300
47485SOL    HW242480   9.022   9.754   2.276
47486SOL     OW42481   8.471  10.076   2.828
47486SOL    HW142482   8.486  10.097   2.924
47486SOL    HW242483   8.441   9.981   2.819
47487SOL     OW42484   8.428  10.883   3.562
47487SOL    HW142485   8.408  10.927   3.474
47487SOL    HW242486   8.467  10.792   3.546
47488SOL     OW42487   9.307  10.828   3.467
47488SOL    HW142488   9.321  10.855   3.372
47488SOL    HW242489   9.390  10.850   3.520
47489SOL     OW42490   7.798  10.208   3.666
47489SOL    HW142491   7.874  10.252   3.714
47489SOL    HW242492   7.833  10.161   3.584
47490SOL     OW42493   8.988   9.584   1.987
47490SOL    HW142494   8.927   9.509   2.010
47490SOL    HW242495   9.010   9.636   2.070
47491SOL     OW42496   8.751  10.148   1.904
47491SOL    HW142497   8.785  10.055   1.919
47491SOL    HW242498   8.769  10.175   1.809
47492SOL     OW42499   8.516  10.643   2.711
47492SOL    HW142500   8.523  10.559   2.656
47492SOL    HW242501   8.578  10.712   2.675
47493SOL     OW42502   7.767  10.120   2.811
47493SOL    HW142503   7.860  10.156   2.816
47493SOL    HW242504   7.761  10.035   2.863
47494SOL     OW42505   7.787   9.819   2.868
47494SOL    HW142506   7.735   9.736   2.851
47494SOL    HW242507   7.864   9.824   2.804
47495SOL     OW42508   8.586   9.690   3.540
47495SOL    HW142509   8.541   9.753   3.604
47495SOL    HW242510   8.679   9.721   3.523
47496SOL     OW42511   8.608   9.517   3.339
47496SOL    HW142512   8.608   9.581   3.416
47496SOL    HW242513   8.636   9.565   3.256
47497SOL     OW42514   7.456  10.636   2.062
47497SOL    HW142515   7.363  10.657   2.031
47497SOL    HW242516   7.466  10.537   2.075
47498SOL     OW42517   7.536  11.111   2.789
47498SOL    HW142518   7.494  11.025   2.762
47498SOL    HW242519   7.630  11.114   2.755
47499SOL     OW42520   7.952  10.878   2.772
47499SOL    HW142521   8.018  10.952   2.781
47499SOL    HW242522   7.996  10.799   2.730
47500SOL     OW42523   8.450  10.106   3.100
47500SOL    HW142524   8.491  10.074   3.186
47500SOL    HW242525   8.354  10.079   3.097
47501SOL     OW42526   7.488   9.854   2.976
47501SOL    HW142527   7.573   9.821   2.935
47501SOL    HW242528   7.501   9.869   3.074
47502SOL     OW42529   7.637   9.830   3.584
47502SOL    HW142530   7.696   9.790   3.514
47502SOL    HW242531   7.579   9.901   3.543
47503SOL     OW42532   8.817  10.260   3.522
47503SOL    HW142533   8.856  10.349   3.542
47503SOL    HW242534   8.827  10.240   3.425
47504SOL     OW42535   8.263   9.882   2.187
47504SOL    HW142536   8.270   9.793   2.141
47504SOL    HW242537   8.169   9.916   2.179
47505SOL     OW42538   9.105   9.914   3.068
47505SOL    HW142539   9.067   9.845   3.130
47505SOL    HW242540   9.187   9.878   3.024
47506SOL     OW42541   7.700  10.874   3.606
47506SOL    HW142542   7.670  10.931   3.682
47506SOL    HW242543   7.693  10.777   3.632
47507SOL     OW42544   8.119   9.774   3.131
47507SOL    HW142545   8.085   9.685   3.101
47507SOL    HW242546   8.145   9.828   3.051
47508SOL     OW42547   8.378  10.988   3.327
47508SOL    HW142548   8.354  10.970   3.232
47508SOL    HW242549   8.408  11.082   3.337
47509SOL     OW42550   7.921   9.810   2.053
47509SOL    HW142551   7.982   9.890   2.057
47509SOL    HW242552   7.826   9.841   2.060
47510SOL     OW42553   7.607  10.447   3.328
47510SOL    HW142554   7.629  10.386   3.404
47510SOL    HW242555   7.617  10.398   3.242
47511SOL     OW42556   8.795  10.369   3.096
47511SOL    HW142557   8.819  10.306   3.022
47511SOL    HW242558   8.705  10.409   3.078
47512SOL     OW42559   8.750  10.165   2.171
47512SOL    HW142560   8.664  10.134   2.213
47512SOL    HW242561   8.746  10.151   2.072
47513SOL     OW42562   9.207  11.057   3.016
47513SOL    HW142563   9.268  11.087   2.943
47513SOL    HW242564   9.169  10.968   2.994
47514SOL     OW42565   8.700  11.041   2.990
47514SOL    HW142566   8.784  11.046   2.936
47514SOL    HW242567   8.677  10.945   3.008
47515SOL     OW42568   7.531  10.568   2.884
47515SOL    HW142569   7.526  10.567   2.984
47515SOL    HW242570   7.448  10.527   2.846
47516SOL     OW42571   8.136  10.972   3.578
47516SOL    HW142572   8.080  11.053   3.587
47516SOL    HW242573   8.188  10.976   3.492
47517SOL     OW42574   9.174   9.445   2.385
47517SOL    HW142575   9.247   9.428   2.318
47517SOL    HW242576   9.143   9.358   2.423
47518SOL     OW42577   8.836  10.883   2.339
47518SOL    HW142578   8.903  10.895   2.265
47518SOL    HW242579   8.796  10.972   2.362
47519SOL     OW42580   7.578  11.104   3.713
47519SOL    HW142581   7.537  11.030   3.766
47519SOL    HW242582   7.642  11.155   3.771
47520SOL     OW42583   8.728  10.237   2.534
47520SOL    HW142584   8.788  10.156   2.536
47520SOL    HW242585   8.768  10.306   2.474
47521SOL     OW42586   8.278  10.583   3.284
47521SOL    HW142587   8.273  10.616   3.379
47521SOL    HW242588   8.192  10.602   3.238
47522SOL     OW42589   8.120  10.926   2.016
47522SOL    HW142590   8.129  10.936   1.917
47522SOL    HW242591   8.080  10.837   2.037
47523SOL     OW42592   9.098  11.030   3.256
47523SOL    HW142593   9.151  11.040   3.172
47523SOL    HW242594   9.071  11.120   3.290
47524SOL     OW42595   9.289   9.485   2.825
47524SOL    HW142596   9.328   9.400   2.789
47524SOL    HW242597   9.191   9.487   2.806
47525SOL     OW42598   7.711   9.636   2.582
47525SOL    HW142599   7.632   9.687   2.548
47525SOL    HW242600   7.702   9.621   2.680
47526SOL     OW42601   8.642  10.922   1.893
47526SOL    HW142602   8.648  10.829   1.930
47526SOL    HW242603   8.583  10.922   1.813
47527SOL     OW42604   8.270  10.312   3.234
47527SOL    HW142605   8.310  10.311   3.142
47527SOL    HW242606   8.280  10.404   3.274
47528SOL     OW42607   8.364  10.220   2.153
47528SOL    HW142608   8.427  10.258   2.085
47528SOL    HW242609   8.404  10.137   2.192
47529SOL     OW42610   8.952  10.917   1.906
47529SOL    HW142611   8.860  10.954   1.913
47529SOL    HW242612   8.990  10.937   1.816
47530SOL     OW42613   7.820  10.598   3.352
47530SOL    HW142614   7.807  10.691   3.318
47530SOL    HW242615   7.736  10.546   3.339
47531SOL     OW42616   9.062  10.602   3.151
47531SOL    HW142617   9.122  10.605   3.231
47531SOL    HW242618   8.987  10.666   3.164
47532SOL     OW42619   8.487  10.408   2.558
47532SOL    HW142620   8.417  10.361   2.612
47532SOL    HW242621   8.546  10.340   2.515
47533SOL     OW42622   8.462   9.546   2.833
47533SOL    HW142623   8.454   9.510   2.740
47533SOL    HW242624   8.460   9.470   2.898
47534SOL     OW42625   8.038  10.797   2.353
47534SOL    HW142626   8.080  10.739   2.283
47534SOL    HW242627   7.994  10.876   2.309
47535SOL     OW42628   9.157   9.695   3.243
47535SOL    HW142629   9.230   9.764   3.247
47535SOL    HW242630   9.185   9.620   3.184
47536SOL     OW42631   7.703  10.658   2.152
47536SOL    HW142632   7.607  10.659   2.125
47536SOL    HW242633   7.715  10.711   2.236
47537SOL     OW42634   7.553  10.323   3.588
47537SOL    HW142635   7.476  10.290   3.642
47537SOL    HW242636   7.638  10.293   3.630
47538SOL     OW42637   8.120   9.513   3.351
47538SOL    HW142638   8.210   9.497   3.311
47538SOL    HW242639   8.128   9.518   3.450
47539SOL     OW42640   7.523   9.655   1.895
47539SOL    HW142641   7.431   9.627   1.866
47539SOL    HW242642   7.554   9.732   1.839
47540SOL     OW42643   8.888  10.166   3.260
47540SOL    HW142644   8.831  10.218   3.197
47540SOL    HW242645   8.984  10.178   3.236
47541SOL     OW42646   7.520   9.476   2.180
47541SOL    HW142647   7.503   9.559   2.126
47541SOL    HW242648   7.610   9.439   2.158
47542SOL     OW42649   8.631  10.645   1.981
47542SOL    HW142650   8.532  10.634   1.983
47542SOL    HW242651   8.665  10.660   2.074
47543SOL     OW42652   8.061  10.152   3.293
47543SOL    HW142653   8.117  10.233   3.276
47543SOL    HW242654   8.120  10.072   3.296
47544SOL     OW42655   8.941  11.077   2.821
47544SOL    HW142656   8.974  11.141   2.752
47544SOL    HW242657   9.007  11.071   2.896
47545SOL     OW42658   8.164   9.875   3.570
47545SOL    HW142659   8.183   9.940   3.644
47545SOL    HW242660   8.224   9.795   3.579
47546SOL     OW42661   8.898  10.530   3.495
47546SOL    HW142662   8.889  10.520   3.594
47546SOL    HW242663   8.994  10.523   3.469
47547SOL     OW42664   7.838  11.051   3.422
47547SOL    HW142665   7.747  11.092   3.420
47547SOL    HW242666   7.831  10.957   3.454
47548SOL     OW42667   9.122  10.193   3.116
47548SOL    HW142668   9.095  10.104   3.079
47548SOL    HW242669   9.123  10.261   3.043
47549SOL     OW42670   8.673   9.635   2.311
47549SOL    HW142671   8.738   9.561   2.300
47549SOL    HW242672   8.693   9.685   2.395
47550SOL     OW42673   8.042  10.055   2.514
47550SOL    HW142674   8.092  10.140   2.495
47550SOL    HW242675   7.954  10.057   2.466
47551SOL     OW42676   9.225   9.652   3.504
47551SOL    HW142677   9.208   9.683   3.410
47551SOL    HW242678   9.141   9.615   3.542
47552SOL     OW42679   9.178  10.244   3.379
47552SOL    HW142680   9.216  10.335   3.394
47552SOL    HW242681   9.170  10.227   3.280
47553SOL     OW42682   8.307  10.684   1.878
47553SOL    HW142683   8.261  10.699   1.966
47553SOL    HW242684   8.351  10.769   1.848
47554SOL     OW42685   8.109  11.100   2.815
47554SOL    HW142686   8.063  11.188   2.802
47554SOL    HW242687   8.208  11.112   2.808
47555SOL     OW42688   8.307  10.266   2.723
47555SOL    HW142689   8.361  10.197   2.771
47555SOL    HW242690   8.275  10.335   2.789
47556SOL     OW42691   8.531  10.294   1.949
47556SOL    HW142692   8.508  10.347   1.867
47556SOL    HW242693   8.612  10.238   1.930
47557SOL     OW42694   9.309  10.879   2.713
47557SOL    HW142695   9.238  10.867   2.643
47557SOL    HW242696   9.310  10.800   2.773
47558SOL     OW42697   7.669  10.624   3.706
47558SOL    HW142698   7.604  10.551   3.685
47558SOL    HW242699   7.673  10.638   3.804
47559SOL     OW42700   7.527  10.550   2.515
47559SOL    HW142701   7.526  10.503   2.603
47559SOL    HW242702   7.609  10.522   2.464
47560SOL     OW42703   8.120  10.701   3.486
47560SOL    HW142704   8.042  10.651   3.524
47560SOL    HW242705   8.117  10.796   3.517
47561SOL     OW42706   9.272   9.502   3.089
47561SOL    HW142707   9.268   9.412   3.133
47561SOL    HW242708   9.275   9.491   2.990
47562SOL     OW42709   7.876   9.734   2.382
47562SOL    HW142710   7.906   9.662   2.320
47562SOL    HW242711   7.837   9.694   2.465
47563SOL     OW42712   9.153  10.797   2.966
47563SOL    HW142713   9.060  10.772   2.939
47563SOL    HW242714   9.179  10.747   3.048
47564SOL     OW42715   7.765   9.857   3.142
47564SOL    HW142716   7.803   9.798   3.214
47564SOL    HW242717   7.805   9.831   3.054
47565SOL     OW42718   8.260  10.896   2.549
47565SOL    HW142719   8.292  10.906   2.455
47565SOL    HW242720   8.181  10.834   2.551
47566SOL     OW42721   8.872   9.524   2.974
47566SOL    HW142722   8.924   9.459   3.029
47566SOL    HW242723   8.823   9.587   3.035
47567SOL     OW42724   8.449   9.344   3.016
47567SOL    HW142725   8.386   9.272   2.985
47567SOL    HW242726   8.542   9.308   3.016
47568SOL     OW42727   8.218  10.640   2.163
47568SOL    HW142728   8.172  10.553   2.180
47568SOL    HW242729   8.309  10.637   2.204
47569SOL     OW42730   8.066  10.877   3.146
47569SOL    HW142731   8.061  10.959   3.203
47569SOL    HW242732   8.155  10.874   3.101
47570SOL     OW42733   8.800   9.362   2.030
47570SOL    HW142734   8.835   9.321   1.946
47570SOL    HW242735   8.710   9.324   2.050
47571SOL     OW42736   8.748   9.763   2.553
47571SOL    HW142737   8.689   9.843   2.557
47571SOL    HW242738   8.763   9.728   2.646
47572SOL     OW42739   9.041   9.531   2.744
47572SOL    HW142740   8.957   9.530   2.798
47572SOL    HW242741   9.043   9.614   2.688
47573SOL     OW42742   7.487  10.387   2.162
47573SOL    HW142743   7.586  10.376   2.153
47573SOL    HW242744   7.447  10.301   2.194
47574SOL     OW42745   8.323  10.956   2.199
47574SOL    HW142746   8.246  10.921   2.145
47574SOL    HW242747   8.291  11.027   2.261
47575SOL     OW42748   7.678   9.938   3.837
47575SOL    HW142749   7.585   9.936   3.874
47575SOL    HW242750   7.679   9.899   3.745
47576SOL     OW42751   7.673   9.585   4.720
47576SOL    HW142752   7.708   9.568   4.812
47576SOL    HW242753   7.585   9.540   4.708
47577SOL     OW42754   7.467   9.678   4.371
47577SOL    HW142755   7.385   9.721   4.410
47577SOL    HW242756   7.439   9.605   4.308
47578SOL     OW42757   8.017  10.585   4.889
47578SOL    HW142758   7.924  10.578   4.852
47578SOL    HW242759   8.028  10.674   4.933
47579SOL     OW42760   9.003  10.821   4.427
47579SOL    HW142761   8.946  10.805   4.508
47579SOL    HW242762   8.944  10.831   4.347
47580SOL     OW42763   8.583  10.013   4.441
47580SOL    HW142764   8.640  10.091   4.416
47580SOL    HW242765   8.523  10.039   4.517
47581SOL     OW42766   9.203   9.917   3.955
47581SOL    HW142767   9.191   9.904   3.856
47581SOL    HW242768   9.173   9.836   4.004
47582SOL     OW42769   8.216  10.454   4.747
47582SOL    HW142770   8.138  10.471   4.807
47582SOL    HW242771   8.250  10.541   4.711
47583SOL     OW42772   8.298  10.108   5.547
47583SOL    HW142773   8.294  10.184   5.612
47583SOL    HW242774   8.320  10.144   5.456
47584SOL     OW42775   8.133  10.322   4.389
47584SOL    HW142776   8.202  10.306   4.459
47584SOL    HW242777   8.060  10.379   4.427
47585SOL     OW42778   8.134  10.471   5.527
47585SOL    HW142779   8.194  10.550   5.541
47585SOL    HW242780   8.048  10.502   5.486
47586SOL     OW42781   7.783  10.745   4.785
47586SOL    HW142782   7.705  10.714   4.732
47586SOL    HW242783   7.841  10.803   4.728
47587SOL     OW42784   8.908  10.815   5.063
47587SOL    HW142785   8.932  10.909   5.089
47587SOL    HW242786   8.892  10.761   5.145
47588SOL     OW42787   7.886   9.702   5.223
47588SOL    HW142788   7.968   9.646   5.232
47588SOL    HW242789   7.805   9.644   5.227
47589SOL     OW42790   9.051   9.757   4.461
47589SOL    HW142791   8.977   9.803   4.411
47589SOL    HW242792   9.102   9.825   4.514
47590SOL     OW42793   7.679  11.023   4.207
47590SOL    HW142794   7.713  11.100   4.261
47590SOL    HW242795   7.723  11.023   4.117
47591SOL     OW42796   8.575  10.651   5.414
47591SOL    HW142797   8.622  10.651   5.502
47591SOL    HW242798   8.527  10.564   5.403
47592SOL     OW42799   7.678  10.744   4.262
47592SOL    HW142800   7.652  10.840   4.262
47592SOL    HW242801   7.607  10.690   4.307
47593SOL     OW42802   7.688  10.401   4.610
47593SOL    HW142803   7.702  10.317   4.662
47593SOL    HW242804   7.633  10.465   4.665
47594SOL     OW42805   8.068  11.096   5.163
47594SOL    HW142806   7.976  11.079   5.198
47594SOL    HW242807   8.096  11.188   5.189
47595SOL     OW42808   8.054  10.274   3.847
47595SOL    HW142809   8.061  10.358   3.793
47595SOL    HW242810   8.100  10.287   3.935
47596SOL     OW42811   9.042   9.424   5.204
47596SOL    HW142812   9.024   9.491   5.132
47596SOL    HW242813   9.039   9.470   5.293
47597SOL     OW42814   7.570   9.953   4.287
47597SOL    HW142815   7.525   9.865   4.304
47597SOL    HW242816   7.569  10.007   4.371
47598SOL     OW42817   9.290  11.077   4.083
47598SOL    HW142818   9.344  11.048   4.163
47598SOL    HW242819   9.320  11.167   4.054
47599SOL     OW42820   7.475  10.906   3.841
47599SOL    HW142821   7.456  10.810   3.862
47599SOL    HW242822   7.442  10.964   3.916
47600SOL     OW42823   9.137  10.232   4.336
47600SOL    HW142824   9.232  10.203   4.344
47600SOL    HW242825   9.129  10.297   4.261
47601SOL     OW42826   9.089  10.418   4.156
47601SOL    HW142827   9.175  10.420   4.104
47601SOL    HW242828   9.103  10.465   4.244
47602SOL     OW42829   7.561  10.047   5.321
47602SOL    HW142830   7.649  10.034   5.366
47602SOL    HW242831   7.548  10.144   5.299
47603SOL     OW42832   8.741  10.538   5.147
47603SOL    HW142833   8.778  10.465   5.089
47603SOL    HW242834   8.793  10.543   5.232
47604SOL     OW42835   8.257   9.314   4.226
47604SOL    HW142836   8.297   9.405   4.217
47604SOL    HW242837   8.157   9.322   4.232
47605SOL     OW42838   7.645  10.286   4.988
47605SOL    HW142839   7.734  10.241   4.974
47605SOL    HW242840   7.572  10.221   4.969
47606SOL     OW42841   8.973  10.309   3.914
47606SOL    HW142842   8.910  10.233   3.927
47606SOL    HW242843   9.021  10.327   4.000
47607SOL     OW42844   8.635  11.102   5.340
47607SOL    HW142845   8.659  11.162   5.264
47607SOL    HW242846   8.642  11.007   5.310
47608SOL     OW42847   7.765   9.561   5.525
47608SOL    HW142848   7.836   9.632   5.531
47608SOL    HW242849   7.677   9.600   5.553
47609SOL     OW42850   8.914  10.727   4.677
47609SOL    HW142851   8.855  10.733   4.757
47609SOL    HW242852   8.899  10.639   4.631
47610SOL     OW42853   9.115  11.024   4.296
47610SOL    HW142854   9.074  11.001   4.208
47610SOL    HW242855   9.097  10.950   4.361
47611SOL     OW42856   8.046  10.039   3.994
47611SOL    HW142857   8.070  10.108   3.926
47611SOL    HW242858   7.968  10.072   4.048
47612SOL     OW42859   8.729   9.655   4.668
47612SOL    HW142860   8.643   9.605   4.655
47612SOL    HW242861   8.791   9.601   4.724
47613SOL     OW42862   8.255   9.915   5.189
47613SOL    HW142863   8.208   9.912   5.278
47613SOL    HW242864   8.204   9.860   5.123
47614SOL     OW42865   8.842   9.779   5.398
47614SOL    HW142866   8.822   9.822   5.486
47614SOL    HW242867   8.920   9.717   5.407
47615SOL     OW42868   8.421  10.200   5.296
47615SOL    HW142869   8.467  10.116   5.267
47615SOL    HW242870   8.365  10.234   5.221
47616SOL     OW42871   8.439   9.720   4.966
47616SOL    HW142872   8.362   9.754   5.020
47616SOL    HW242873   8.405   9.669   4.887
47617SOL     OW42874   8.489  10.011   4.153
47617SOL    HW142875   8.515  10.007   4.249
47617SOL    HW242876   8.404   9.960   4.139
47618SOL     OW42877   7.524  10.121   4.513
47618SOL    HW142878   7.623  10.109   4.522
47618SOL    HW242879   7.500  10.216   4.534
47619SOL     OW42880   7.578  11.131   5.295
47619SOL    HW142881   7.568  11.116   5.394
47619SOL    HW242882   7.492  11.167   5.259
47620SOL     OW42883   8.313   9.658   3.919
47620SOL    HW142884   8.372   9.721   3.870
47620SOL    HW242885   8.332   9.564   3.890
47621SOL     OW42886   9.167   9.895   5.555
47621SOL    HW142887   9.141   9.984   5.519
47621SOL    HW242888   9.165   9.827   5.482
47622SOL     OW42889   8.810  10.454   4.269
47622SOL    HW142890   8.893  10.425   4.221
47622SOL    HW242891   8.761  10.521   4.213
47623SOL     OW42892   7.998   9.506   4.609
47623SOL    HW142893   7.993   9.501   4.709
47623SOL    HW242894   8.000   9.602   4.580
47624SOL     OW42895   8.456  10.766   4.201
47624SOL    HW142896   8.410  10.838   4.149
47624SOL    HW242897   8.452  10.786   4.299
47625SOL     OW42898   7.799  11.111   4.577
47625SOL    HW142899   7.849  11.025   4.583
47625SOL    HW242900   7.864  11.188   4.574
47626SOL     OW42901   9.243  10.376   4.597
47626SOL    HW142902   9.181  10.361   4.521
47626SOL    HW242903   9.191  10.387   4.682
47627SOL     OW42904   8.675  10.860   5.230
47627SOL    HW142905   8.681  10.783   5.294
47627SOL    HW242906   8.623  10.834   5.150
47628SOL     OW42907   7.769  10.253   3.966
47628SOL    HW142908   7.851  10.292   3.924
47628SOL    HW242909   7.742  10.171   3.917
47629SOL     OW42910   8.906  10.045   4.452
47629SOL    HW142911   8.901   9.980   4.527
47629SOL    HW242912   8.986  10.104   4.465
47630SOL     OW42913   7.909  10.576   5.451
47630SOL    HW142914   7.859  10.577   5.365
47630SOL    HW242915   7.846  10.558   5.527
47631SOL     OW42916   8.559  11.086   3.961
47631SOL    HW142917   8.499  11.024   4.011
47631SOL    HW242918   8.590  11.042   3.876
47632SOL     OW42919   7.650   9.595   5.222
47632SOL    HW142920   7.570   9.655   5.209
47632SOL    HW242921   7.640   9.546   5.308
47633SOL     OW42922   9.080  10.687   3.805
47633SOL    HW142923   9.048  10.781   3.795
47633SOL    HW242924   9.004  10.624   3.793
47634SOL     OW42925   7.912  11.053   4.047
47634SOL    HW142926   7.945  11.092   4.133
47634SOL    HW242927   7.988  11.046   3.982
47635SOL     OW42928   8.848   9.417   4.150
47635SOL    HW142929   8.824   9.380   4.060
47635SOL    HW242930   8.947   9.433   4.154
47636SOL     OW42931   7.697  11.095   4.965
47636SOL    HW142932   7.754  11.030   5.015
47636SOL    HW242933   7.681  11.062   4.872
47637SOL     OW42934   8.388  11.008   4.628
47637SOL    HW142935   8.468  10.951   4.649
47637SOL    HW242936   8.339  10.968   4.551
47638SOL     OW42937   7.830  10.010   4.204
47638SOL    HW142938   7.875   9.920   4.201
47638SOL    HW242939   7.736   9.999   4.237
47639SOL     OW42940   8.995   9.532   5.453
47639SOL    HW142941   8.990   9.569   5.545
47639SOL    HW242942   8.923   9.463   5.441
47640SOL     OW42943   8.062   9.432   3.841
47640SOL    HW142944   8.160   9.410   3.848
47640SOL    HW242945   8.031   9.415   3.748
47641SOL     OW42946   8.229   9.574   5.473
47641SOL    HW142947   8.296   9.513   5.516
47641SOL    HW242948   8.156   9.593   5.538
47642SOL     OW42949   8.336  10.824   4.919
47642SOL    HW142950   8.313  10.799   4.825
47642SOL    HW242951   8.397  10.755   4.958
47643SOL     OW42952   8.799   9.900   5.157
47643SOL    HW142953   8.827   9.857   5.242
47643SOL    HW242954   8.824   9.996   5.158
47644SOL     OW42955   8.251  10.712   4.648
47644SOL    HW142956   8.341  10.726   4.606
47644SOL    HW242957   8.180  10.714   4.577
47645SOL     OW42958   8.370   9.813   4.623
47645SOL    HW142959   8.345   9.804   4.527
47645SOL    HW242960   8.418   9.731   4.654
47646SOL     OW42961   7.987   9.374   4.236
47646SOL    HW142962   7.906   9.375   4.294
47646SOL    HW242963   7.990   9.457   4.181
47647SOL     OW42964   8.882  10.498   3.765
47647SOL    HW142965   8.914  10.422   3.822
47647SOL    HW242966   8.790  10.525   3.795
47648SOL     OW42967   7.745   9.345   3.895
47648SOL    HW142968   7.794   9.429   3.874
47648SOL    HW242969   7.807   9.280   3.940
47649SOL     OW42970   8.383   9.546   4.204
47649SOL    HW142971   8.335   9.587   4.126
47649SOL    HW242972   8.482   9.544   4.185
47650SOL     OW42973   8.524   9.993   5.188
47650SOL    HW142974   8.444   9.932   5.191
47650SOL    HW242975   8.605   9.940   5.164
47651SOL     OW42976   8.675  10.880   4.517
47651SOL    HW142977   8.696  10.954   4.452
47651SOL    HW242978   8.743  10.880   4.590
47652SOL     OW42979   7.907  10.462   4.465
47652SOL    HW142980   7.836  10.435   4.530
47652SOL    HW242981   7.881  10.434   4.372
47653SOL     OW42982   8.719  11.107   4.315
47653SOL    HW142983   8.763  11.171   4.251
47653SOL    HW242984   8.669  11.159   4.385
47654SOL     OW42985   8.480   9.859   3.740
47654SOL    HW142986   8.439   9.941   3.701
47654SOL    HW242987   8.544   9.885   3.813
47655SOL     OW42988   7.526   9.866   5.110
47655SOL    HW142989   7.618   9.865   5.069
47655SOL    HW242990   7.520   9.940   5.177
47656SOL     OW42991   8.009   9.532   4.871
47656SOL    HW142992   8.047   9.448   4.908
47656SOL    HW242993   7.921   9.551   4.915
47657SOL     OW42994   8.314   9.764   4.366
47657SOL    HW142995   8.282   9.836   4.304
47657SOL    HW242996   8.338   9.683   4.313
47658SOL     OW42997   8.465   9.349   4.477
47658SOL    HW142998   8.393   9.354   4.408
47658SOL    HW242999   8.441   9.280   4.546
47659SOL     OW43000   8.877  10.483   4.591
47659SOL    HW143001   8.822  10.399   4.584
47659SOL    HW243002   8.903  10.512   4.499
47660SOL     OW43003   8.914   9.900   4.716
47660SOL    HW143004   8.884   9.805   4.723
47660SOL    HW243005   8.987   9.916   4.782
47661SOL     OW43006   9.305  10.143   4.101
47661SOL    HW143007   9.347  10.079   4.165
47661SOL    HW243008   9.267  10.092   4.023
47662SOL     OW43009   7.936  10.695   3.898
47662SOL    HW143010   7.849  10.680   3.945
47662SOL    HW243011   7.919  10.721   3.803
47663SOL     OW43012   9.112  10.590   4.381
47663SOL    HW143013   9.211  10.598   4.395
47663SOL    HW243014   9.067  10.674   4.412
47664SOL     OW43015   8.838   9.885   3.802
47664SOL    HW143016   8.784   9.864   3.883
47664SOL    HW243017   8.929   9.844   3.811
47665SOL     OW43018   7.975   9.566   4.052
47665SOL    HW143019   8.002   9.507   3.977
47665SOL    HW243020   7.975   9.661   4.021
47666SOL     OW43021   9.202  10.533   5.312
47666SOL    HW143022   9.293  10.494   5.299
47666SOL    HW243023   9.210  10.629   5.336
47667SOL     OW43024   8.512  10.657   5.064
47667SOL    HW143025   8.432  10.634   5.119
47667SOL    HW243026   8.595  10.631   5.113
47668SOL     OW43027   9.040  10.939   5.349
47668SOL    HW143028   9.067  10.973   5.259
47668SOL    HW243029   9.119  10.901   5.395
47669SOL     OW43030   8.559  10.505   4.824
47669SOL    HW143031   8.519  10.549   4.905
47669SOL    HW243032   8.518  10.542   4.741
47670SOL     OW43033   9.086  10.409   4.803
47670SOL    HW143034   9.091  10.490   4.862
47670SOL    HW243035   9.000  10.411   4.752
47671SOL     OW43036   8.363   9.399   5.126
47671SOL    HW143037   8.388   9.379   5.031
47671SOL    HW243038   8.435   9.455   5.168
47672SOL     OW43039   8.428  10.426   5.443
47672SOL    HW143040   8.329  10.432   5.453
47672SOL    HW243041   8.451  10.346   5.387
47673SOL     OW43042   8.153  10.360   4.092
47673SOL    HW143043   8.139  10.367   4.191
47673SOL    HW243044   8.237  10.309   4.074
47674SOL     OW43045   7.858  10.123   4.975
47674SOL    HW143046   7.944  10.135   5.025
47674SOL    HW243047   7.816  10.036   5.002
47675SOL     OW43048   8.722   9.696   4.986
47675SOL    HW143049   8.743   9.770   5.050
47675SOL    HW243050   8.633   9.713   4.943
47676SOL     OW43051   7.512  10.874   5.055
47676SOL    HW143052   7.466  10.956   5.021
47676SOL    HW243053   7.610  10.893   5.064
47677SOL     OW43054   7.815  10.410   4.225
47677SOL    HW143055   7.808  10.493   4.169
47677SOL    HW243056   7.819  10.330   4.165
47678SOL     OW43057   8.014   9.847   4.589
47678SOL    HW143058   8.026   9.913   4.515
47678SOL    HW243059   8.060   9.881   4.672
47679SOL     OW43060   8.700  10.658   4.112
47679SOL    HW143061   8.750  10.735   4.152
47679SOL    HW243062   8.605  10.660   4.144
47680SOL     OW43063   8.720  10.755   4.866
47680SOL    HW143064   8.767  10.768   4.953
47680SOL    HW243065   8.654  10.681   4.875
47681SOL     OW43066   9.030   9.949   4.196
47681SOL    HW143067   8.999  10.010   4.269
47681SOL    HW243068   9.080  10.001   4.127
47682SOL     OW43069   7.802  10.820   5.053
47682SOL    HW143070   7.781  10.776   4.966
47682SOL    HW243071   7.899  10.846   5.056
47683SOL     OW43072   7.850  10.061   5.322
47683SOL    HW143073   7.918  10.116   5.275
47683SOL    HW243074   7.890   9.973   5.349
47684SOL     OW43075   9.035  10.089   5.394
47684SOL    HW143076   8.943  10.127   5.389
47684SOL    HW243077   9.095  10.136   5.329
47685SOL     OW43078   8.461   9.415   5.494
47685SOL    HW143079   8.467   9.500   5.442
47685SOL    HW243080   8.493   9.339   5.437
47686SOL     OW43081   7.952   9.360   5.464
47686SOL    HW143082   7.910   9.303   5.394
47686SOL    HW243083   7.886   9.429   5.496
47687SOL     OW43084   8.021  10.180   4.753
47687SOL    HW143085   8.065  10.269   4.744
47687SOL    HW243086   7.958  10.180   4.830
47688SOL     OW43087   8.808  10.172   4.769
47688SOL    HW143088   8.733  10.172   4.703
47688SOL    HW243089   8.845  10.080   4.778
47689SOL     OW43090   8.657   9.835   3.999
47689SOL    HW143091   8.670   9.751   4.053
47689SOL    HW243092   8.628   9.909   4.059
47690SOL     OW43093   7.755   9.523   4.955
47690SOL    HW143094   7.732   9.560   5.045
47690SOL    HW243095   7.725   9.428   4.949
47691SOL     OW43096   7.485  10.620   5.006
47691SOL    HW143097   7.538  10.571   5.074
47691SOL    HW243098   7.507  10.718   5.011
47692SOL     OW43099   8.180   9.944   4.788
47692SOL    HW143100   8.239   9.918   4.712
47692SOL    HW243101   8.152  10.040   4.777
47693SOL     OW43102   9.176  10.245   5.578
47693SOL    HW143103   9.130  10.238   5.489
47693SOL    HW243104   9.114  10.289   5.644
47694SOL     OW43105   7.755   9.373   4.342
47694SOL    HW143106   7.744   9.467   4.375
47694SOL    HW243107   7.750   9.310   4.419
47695SOL     OW43108   9.070   9.677   4.098
47695SOL    HW143109   9.072   9.601   4.162
47695SOL    HW243110   9.022   9.754   4.138
47696SOL     OW43111   8.471  10.076   4.690
47696SOL    HW143112   8.486  10.097   4.786
47696SOL    HW243113   8.441   9.981   4.681
47697SOL     OW43114   8.428  10.883   5.424
47697SOL    HW143115   8.408  10.927   5.336
47697SOL    HW243116   8.467  10.792   5.408
47698SOL     OW43117   9.307  10.828   5.329
47698SOL    HW143118   9.321  10.855   5.234
47698SOL    HW243119   9.390  10.850   5.382
47699SOL     OW43120   7.798  10.208   5.528
47699SOL    HW143121   7.874  10.252   5.576
47699SOL    HW243122   7.833  10.161   5.446
47700SOL     OW43123   8.988   9.584   3.849
47700SOL    HW143124   8.927   9.509   3.872
47700SOL    HW243125   9.010   9.636   3.932
47701SOL     OW43126   8.751  10.148   3.766
47701SOL    HW143127   8.785  10.055   3.781
47701SOL    HW243128   8.769  10.175   3.671
47702SOL     OW43129   8.516  10.643   4.573
47702SOL    HW143130   8.523  10.559   4.518
47702SOL    HW243131   8.578  10.712   4.537
47703SOL     OW43132   7.767  10.120   4.673
47703SOL    HW143133   7.860  10.156   4.678
47703SOL    HW243134   7.761  10.035   4.725
47704SOL     OW43135   7.787   9.819   4.730
47704SOL    HW143136   7.735   9.736   4.713
47704SOL    HW243137   7.864   9.824   4.666
47705SOL     OW43138   8.586   9.690   5.402
47705SOL    HW143139   8.541   9.753   5.466
47705SOL    HW243140   8.679   9.721   5.385
47706SOL     OW43141   8.608   9.517   5.201
47706SOL    HW143142   8.608   9.581   5.278
47706SOL    HW243143   8.636   9.565   5.118
47707SOL     OW43144   7.456  10.636   3.924
47707SOL    HW143145   7.363  10.657   3.893
47707SOL    HW243146   7.466  10.537   3.937
47708SOL     OW43147   7.536  11.111   4.651
47708SOL    HW143148   7.494  11.025   4.624
47708SOL    HW243149   7.630  11.114   4.617
47709SOL     OW43150   7.952  10.878   4.634
47709SOL    HW143151   8.018  10.952   4.643
47709SOL    HW243152   7.996  10.799   4.592
47710SOL     OW43153   8.450  10.106   4.962
47710SOL    HW143154   8.491  10.074   5.048
47710SOL    HW243155   8.354  10.079   4.959
47711SOL     OW43156   7.488   9.854   4.838
47711SOL    HW143157   7.573   9.821   4.797
47711SOL    HW243158   7.501   9.869   4.936
47712SOL     OW43159   7.637   9.830   5.446
47712SOL    HW143160   7.696   9.790   5.376
47712SOL    HW243161   7.579   9.901   5.405
47713SOL     OW43162   8.817  10.260   5.384
47713SOL    HW143163   8.856  10.349   5.404
47713SOL    HW243164   8.827  10.240   5.287
47714SOL     OW43165   8.263   9.882   4.049
47714SOL    HW143166   8.270   9.793   4.003
47714SOL    HW243167   8.169   9.916   4.041
47715SOL     OW43168   9.105   9.914   4.930
47715SOL    HW143169   9.067   9.845   4.992
47715SOL    HW243170   9.187   9.878   4.886
47716SOL     OW43171   7.700  10.874   5.468
47716SOL    HW143172   7.670  10.931   5.544
47716SOL    HW243173   7.693  10.777   5.494
47717SOL     OW43174   8.119   9.774   4.993
47717SOL    HW143175   8.085   9.685   4.963
47717SOL    HW243176   8.145   9.828   4.913
47718SOL     OW43177   8.378  10.988   5.189
47718SOL    HW143178   8.354  10.970   5.094
47718SOL    HW243179   8.408  11.082   5.199
47719SOL     OW43180   7.921   9.810   3.915
47719SOL    HW143181   7.982   9.890   3.919
47719SOL    HW243182   7.826   9.841   3.922
47720SOL     OW43183   7.607  10.447   5.190
47720SOL    HW143184   7.629  10.386   5.266
47720SOL    HW243185   7.617  10.398   5.104
47721SOL     OW43186   8.795  10.369   4.958
47721SOL    HW143187   8.819  10.306   4.884
47721SOL    HW243188   8.705  10.409   4.940
47722SOL     OW43189   8.750  10.165   4.033
47722SOL    HW143190   8.664  10.134   4.075
47722SOL    HW243191   8.746  10.151   3.934
47723SOL     OW43192   9.207  11.057   4.878
47723SOL    HW143193   9.268  11.087   4.805
47723SOL    HW243194   9.169  10.968   4.856
47724SOL     OW43195   8.700  11.041   4.852
47724SOL    HW143196   8.784  11.046   4.798
47724SOL    HW243197   8.677  10.945   4.870
47725SOL     OW43198   7.531  10.568   4.746
47725SOL    HW143199   7.526  10.567   4.846
47725SOL    HW243200   7.448  10.527   4.708
47726SOL     OW43201   8.136  10.972   5.440
47726SOL    HW143202   8.080  11.053   5.449
47726SOL    HW243203   8.188  10.976   5.354
47727SOL     OW43204   9.174   9.445   4.247
47727SOL    HW143205   9.247   9.428   4.180
47727SOL    HW243206   9.143   9.358   4.285
47728SOL     OW43207   8.836  10.883   4.201
47728SOL    HW143208   8.903  10.895   4.127
47728SOL    HW243209   8.796  10.972   4.224
47729SOL     OW43210   7.578  11.104   5.575
47729SOL    HW143211   7.537  11.030   5.628
47729SOL    HW243212   7.642  11.155   5.633
47730SOL     OW43213   8.728  10.237   4.396
47730SOL    HW143214   8.788  10.156   4.398
47730SOL    HW243215   8.768  10.306   4.336
47731SOL     OW43216   8.278  10.583   5.146
47731SOL    HW143217   8.273  10.616   5.241
47731SOL    HW243218   8.192  10.602   5.100
47732SOL     OW43219   8.120  10.926   3.878
47732SOL    HW143220   8.129  10.936   3.779
47732SOL    HW243221   8.080  10.837   3.899
47733SOL     OW43222   9.098  11.030   5.118
47733SOL    HW143223   9.151  11.040   5.034
47733SOL    HW243224   9.071  11.120   5.152
47734SOL     OW43225   9.289   9.485   4.687
47734SOL    HW143226   9.328   9.400   4.651
47734SOL    HW243227   9.191   9.487   4.668
47735SOL     OW43228   7.711   9.636   4.444
47735SOL    HW143229   7.632   9.687   4.410
47735SOL    HW243230   7.702   9.621   4.542
47736SOL     OW43231   8.642  10.922   3.755
47736SOL    HW143232   8.648  10.829   3.792
47736SOL    HW243233   8.583  10.922   3.675
47737SOL     OW43234   8.270  10.312   5.096
47737SOL    HW143235   8.310  10.311   5.004
47737SOL    HW243236   8.280  10.404   5.136
47738SOL     OW43237   8.364  10.220   4.015
47738SOL    HW143238   8.427  10.258   3.947
47738SOL    HW243239   8.404  10.137   4.054
47739SOL     OW43240   8.952  10.917   3.768
47739SOL    HW143241   8.860  10.954   3.775
47739SOL    HW243242   8.990  10.937   3.678
47740SOL     OW43243   7.820  10.598   5.214
47740SOL    HW143244   7.807  10.691   5.180
47740SOL    HW243245   7.736  10.546   5.201
47741SOL     OW43246   9.062  10.602   5.013
47741SOL    HW143247   9.122  10.605   5.093
47741SOL    HW243248   8.987  10.666   5.026
47742SOL     OW43249   8.487  10.408   4.420
47742SOL    HW143250   8.417  10.361   4.474
47742SOL    HW243251   8.546  10.340   4.377
47743SOL     OW43252   8.462   9.546   4.695
47743SOL    HW143253   8.454   9.510   4.602
47743SOL    HW243254   8.460   9.470   4.760
47744SOL     OW43255   8.038  10.797   4.215
47744SOL    HW143256   8.080  10.739   4.145
47744SOL    HW243257   7.994  10.876   4.171
47745SOL     OW43258   9.157   9.695   5.105
47745SOL    HW143259   9.230   9.764   5.109
47745SOL    HW243260   9.185   9.620   5.046
47746SOL     OW43261   7.703  10.658   4.014
47746SOL    HW143262   7.607  10.659   3.987
47746SOL    HW243263   7.715  10.711   4.098
47747SOL     OW43264   7.553  10.323   5.450
47747SOL    HW143265   7.476  10.290   5.504
47747SOL    HW243266   7.638  10.293   5.492
47748SOL     OW43267   8.120   9.513   5.213
47748SOL    HW143268   8.210   9.497   5.173
47748SOL    HW243269   8.128   9.518   5.312
47749SOL     OW43270   7.523   9.655   3.757
47749SOL    HW143271   7.431   9.627   3.728
47749SOL    HW243272   7.554   9.732   3.701
47750SOL     OW43273   8.888  10.166   5.122
47750SOL    HW143274   8.831  10.218   5.059
47750SOL    HW243275   8.984  10.178   5.098
47751SOL     OW43276   7.520   9.476   4.042
47751SOL    HW143277   7.503   9.559   3.988
47751SOL    HW243278   7.610   9.439   4.020
47752SOL     OW43279   8.631  10.645   3.843
47752SOL    HW143280   8.532  10.634   3.845
47752SOL    HW243281   8.665  10.660   3.936
47753SOL     OW43282   8.061  10.152   5.155
47753SOL    HW143283   8.117  10.233   5.138
47753SOL    HW243284   8.120  10.072   5.158
47754SOL     OW43285   8.941  11.077   4.683
47754SOL    HW143286   8.974  11.141   4.614
47754SOL    HW243287   9.007  11.071   4.758
47755SOL     OW43288   8.164   9.875   5.432
47755SOL    HW143289   8.183   9.940   5.506
47755SOL    HW243290   8.224   9.795   5.441
47756SOL     OW43291   8.898  10.530   5.357
47756SOL    HW143292   8.889  10.520   5.456
47756SOL    HW243293   8.994  10.523   5.331
47757SOL     OW43294   7.838  11.051   5.284
47757SOL    HW143295   7.747  11.092   5.282
47757SOL    HW243296   7.831  10.957   5.316
47758SOL     OW43297   9.122  10.193   4.978
47758SOL    HW143298   9.095  10.104   4.941
47758SOL    HW243299   9.123  10.261   4.905
47759SOL     OW43300   8.673   9.635   4.173
47759SOL    HW143301   8.738   9.561   4.162
47759SOL    HW243302   8.693   9.685   4.257
47760SOL     OW43303   8.042  10.055   4.376
47760SOL    HW143304   8.092  10.140   4.357
47760SOL    HW243305   7.954  10.057   4.328
47761SOL     OW43306   9.225   9.652   5.366
47761SOL    HW143307   9.208   9.683   5.272
47761SOL    HW243308   9.141   9.615   5.404
47762SOL     OW43309   9.178  10.244   5.241
47762SOL    HW143310   9.216  10.335   5.256
47762SOL    HW243311   9.170  10.227   5.142
47763SOL     OW43312   8.307  10.684   3.740
47763SOL    HW143313   8.261  10.699   3.828
47763SOL    HW243314   8.351  10.769   3.710
47764SOL     OW43315   8.109  11.100   4.677
47764SOL    HW143316   8.063  11.188   4.664
47764SOL    HW243317   8.208  11.112   4.670
47765SOL     OW43318   8.307  10.266   4.585
47765SOL    HW143319   8.361  10.197   4.633
47765SOL    HW243320   8.275  10.335   4.651
47766SOL     OW43321   8.531  10.294   3.811
47766SOL    HW143322   8.508  10.347   3.729
47766SOL    HW243323   8.612  10.238   3.792
47767SOL     OW43324   9.309  10.879   4.575
47767SOL    HW143325   9.238  10.867   4.505
47767SOL    HW243326   9.310  10.800   4.635
47768SOL     OW43327   7.669  10.624   5.568
47768SOL    HW143328   7.604  10.551   5.547
47768SOL    HW243329   7.673  10.638   5.666
47769SOL     OW43330   7.527  10.550   4.377
47769SOL    HW143331   7.526  10.503   4.465
47769SOL    HW243332   7.609  10.522   4.326
47770SOL     OW43333   8.120  10.701   5.348
47770SOL    HW143334   8.042  10.651   5.386
47770SOL    HW243335   8.117  10.796   5.379
47771SOL     OW43336   9.272   9.502   4.951
47771SOL    HW143337   9.268   9.412   4.995
47771SOL    HW243338   9.275   9.491   4.852
47772SOL     OW43339   7.876   9.734   4.244
47772SOL    HW143340   7.906   9.662   4.182
47772SOL    HW243341   7.837   9.694   4.327
47773SOL     OW43342   9.153  10.797   4.828
47773SOL    HW143343   9.060  10.772   4.801
47773SOL    HW243344   9.179  10.747   4.910
47774SOL     OW43345   7.765   9.857   5.004
47774SOL    HW143346   7.803   9.798   5.076
47774SOL    HW243347   7.805   9.831   4.916
47775SOL     OW43348   8.260  10.896   4.411
47775SOL    HW143349   8.292  10.906   4.317
47775SOL    HW243350   8.181  10.834   4.413
47776SOL     OW43351   8.872   9.524   4.836
47776SOL    HW143352   8.924   9.459   4.891
47776SOL    HW243353   8.823   9.587   4.897
47777SOL     OW43354   8.449   9.344   4.878
47777SOL    HW143355   8.386   9.272   4.847
47777SOL    HW243356   8.542   9.308   4.878
47778SOL     OW43357   8.218  10.640   4.025
47778SOL    HW143358   8.172  10.553   4.042
47778SOL    HW243359   8.309  10.637   4.066
47779SOL     OW43360   8.066  10.877   5.008
47779SOL    HW143361   8.061  10.959   5.065
47779SOL    HW243362   8.155  10.874   4.963
47780SOL     OW43363   8.800   9.362   3.892
47780SOL    HW143364   8.835   9.321   3.808
47780SOL    HW243365   8.710   9.324   3.912
47781SOL     OW43366   8.748   9.763   4.415
47781SOL    HW143367   8.689   9.843   4.419
47781SOL    HW243368   8.763   9.728   4.508
47782SOL     OW43369   9.041   9.531   4.606
47782SOL    HW143370   8.957   9.530   4.660
47782SOL    HW243371   9.043   9.614   4.550
47783SOL     OW43372   7.487  10.387   4.024
47783SOL    HW143373   7.586  10.376   4.015
47783SOL    HW243374   7.447  10.301   4.056
47784SOL     OW43375   8.323  10.956   4.061
47784SOL    HW143376   8.246  10.921   4.007
47784SOL    HW243377   8.291  11.027   4.123
47785SOL     OW43378   7.678   9.938   5.699
47785SOL    HW143379   7.585   9.936   5.736
47785SOL    HW243380   7.679   9.899   5.607
47786SOL     OW43381   7.673   9.585   6.582
47786SOL    HW143382   7.708   9.568   6.674
47786SOL    HW243383   7.585   9.540   6.570
47787SOL     OW43384   7.467   9.678   6.233
47787SOL    HW143385   7.385   9.721   6.272
47787SOL    HW243386   7.439   9.605   6.170
47788SOL     OW43387   8.017  10.585   6.751
47788SOL    HW143388   7.924  10.578   6.714
47788SOL    HW243389   8.028  10.674   6.795
47789SOL     OW43390   9.003  10.821   6.289
47789SOL    HW143391   8.946  10.805   6.370
47789SOL    HW243392   8.944  10.831   6.209
47790SOL     OW43393   8.583  10.013   6.303
47790SOL    HW143394   8.640  10.091   6.278
47790SOL    HW243395   8.523  10.039   6.379
47791SOL     OW43396   9.203   9.917   5.817
47791SOL    HW143397   9.191   9.904   5.718
47791SOL    HW243398   9.173   9.836   5.866
47792SOL     OW43399   8.216  10.454   6.609
47792SOL    HW143400   8.138  10.471   6.669
47792SOL    HW243401   8.250  10.541   6.573
47793SOL     OW43402   8.298  10.108   7.409
47793SOL    HW143403   8.294  10.184   7.474
47793SOL    HW243404   8.320  10.144   7.318
47794SOL     OW43405   8.133  10.322   6.251
47794SOL    HW143406   8.202  10.306   6.321
47794SOL    HW243407   8.060  10.379   6.289
47795SOL     OW43408   8.134  10.471   7.389
47795SOL    HW143409   8.194  10.550   7.403
47795SOL    HW243410   8.048  10.502   7.348
47796SOL     OW43411   7.783  10.745   6.647
47796SOL    HW143412   7.705  10.714   6.594
47796SOL    HW243413   7.841  10.803   6.590
47797SOL     OW43414   8.908  10.815   6.925
47797SOL    HW143415   8.932  10.909   6.951
47797SOL    HW243416   8.892  10.761   7.007
47798SOL     OW43417   7.886   9.702   7.085
47798SOL    HW143418   7.968   9.646   7.094
47798SOL    HW243419   7.805   9.644   7.089
47799SOL     OW43420   9.051   9.757   6.323
47799SOL    HW143421   8.977   9.803   6.273
47799SOL    HW243422   9.102   9.825   6.376
47800SOL     OW43423   7.679  11.023   6.069
47800SOL    HW143424   7.713  11.100   6.123
47800SOL    HW243425   7.723  11.023   5.979
47801SOL     OW43426   8.575  10.651   7.276
47801SOL    HW143427   8.622  10.651   7.364
47801SOL    HW243428   8.527  10.564   7.265
47802SOL     OW43429   7.678  10.744   6.124
47802SOL    HW143430   7.652  10.840   6.124
47802SOL    HW243431   7.607  10.690   6.169
47803SOL     OW43432   7.688  10.401   6.472
47803SOL    HW143433   7.702  10.317   6.524
47803SOL    HW243434   7.633  10.465   6.527
47804SOL     OW43435   8.068  11.096   7.025
47804SOL    HW143436   7.976  11.079   7.060
47804SOL    HW243437   8.096  11.188   7.051
47805SOL     OW43438   8.054  10.274   5.709
47805SOL    HW143439   8.061  10.358   5.655
47805SOL    HW243440   8.100  10.287   5.797
47806SOL     OW43441   9.042   9.424   7.066
47806SOL    HW143442   9.024   9.491   6.994
47806SOL    HW243443   9.039   9.470   7.155
47807SOL     OW43444   7.570   9.953   6.149
47807SOL    HW143445   7.525   9.865   6.166
47807SOL    HW243446   7.569  10.007   6.233
47808SOL     OW43447   9.290  11.077   5.945
47808SOL    HW143448   9.344  11.048   6.025
47808SOL    HW243449   9.320  11.167   5.916
47809SOL     OW43450   7.475  10.906   5.703
47809SOL    HW143451   7.456  10.810   5.724
47809SOL    HW243452   7.442  10.964   5.778
47810SOL     OW43453   9.137  10.232   6.198
47810SOL    HW143454   9.232  10.203   6.206
47810SOL    HW243455   9.129  10.297   6.123
47811SOL     OW43456   9.089  10.418   6.018
47811SOL    HW143457   9.175  10.420   5.966
47811SOL    HW243458   9.103  10.465   6.106
47812SOL     OW43459   7.561  10.047   7.183
47812SOL    HW143460   7.649  10.034   7.228
47812SOL    HW243461   7.548  10.144   7.161
47813SOL     OW43462   8.061  10.675   6.312
47813SOL    HW143463   8.012  10.588   6.321
47813SOL    HW243464   8.038  10.718   6.225
47814SOL     OW43465   8.741  10.538   7.009
47814SOL    HW143466   8.778  10.465   6.951
47814SOL    HW243467   8.793  10.543   7.094
47815SOL     OW43468   8.257   9.314   6.088
47815SOL    HW143469   8.297   9.405   6.079
47815SOL    HW243470   8.157   9.322   6.094
47816SOL     OW43471   7.645  10.286   6.850
47816SOL    HW143472   7.734  10.241   6.836
47816SOL    HW243473   7.572  10.221   6.831
47817SOL     OW43474   8.973  10.309   5.776
47817SOL    HW143475   8.910  10.233   5.789
47817SOL    HW243476   9.021  10.327   5.862
47818SOL     OW43477   8.635  11.102   7.202
47818SOL    HW143478   8.659  11.162   7.126
47818SOL    HW243479   8.642  11.007   7.172
47819SOL     OW43480   7.765   9.561   7.387
47819SOL    HW143481   7.836   9.632   7.393
47819SOL    HW243482   7.677   9.600   7.415
47820SOL     OW43483   8.914  10.727   6.539
47820SOL    HW143484   8.855  10.733   6.619
47820SOL    HW243485   8.899  10.639   6.493
47821SOL     OW43486   9.115  11.024   6.158
47821SOL    HW143487   9.074  11.001   6.070
47821SOL    HW243488   9.097  10.950   6.223
47822SOL     OW43489   8.046  10.039   5.856
47822SOL    HW143490   8.070  10.108   5.788
47822SOL    HW243491   7.968  10.072   5.910
47823SOL     OW43492   8.729   9.655   6.530
47823SOL    HW143493   8.643   9.605   6.517
47823SOL    HW243494   8.791   9.601   6.586
47824SOL     OW43495   9.024  10.972   5.893
47824SOL    HW143496   9.113  11.018   5.896
47824SOL    HW243497   9.003  10.948   5.798
47825SOL     OW43498   8.255   9.915   7.051
47825SOL    HW143499   8.208   9.912   7.140
47825SOL    HW243500   8.204   9.860   6.985
47826SOL     OW43501   8.842   9.779   7.260
47826SOL    HW143502   8.822   9.822   7.348
47826SOL    HW243503   8.920   9.717   7.269
47827SOL     OW43504   8.421  10.200   7.158
47827SOL    HW143505   8.467  10.116   7.129
47827SOL    HW243506   8.365  10.234   7.083
47828SOL     OW43507   8.439   9.720   6.828
47828SOL    HW143508   8.362   9.754   6.882
47828SOL    HW243509   8.405   9.669   6.749
47829SOL     OW43510   8.489  10.011   6.015
47829SOL    HW143511   8.515  10.007   6.111
47829SOL    HW243512   8.404   9.960   6.001
47830SOL     OW43513   7.524  10.121   6.375
47830SOL    HW143514   7.623  10.109   6.384
47830SOL    HW243515   7.500  10.216   6.396
47831SOL     OW43516   7.578  11.131   7.157
47831SOL    HW143517   7.568  11.116   7.256
47831SOL    HW243518   7.492  11.167   7.121
47832SOL     OW43519   8.313   9.658   5.781
47832SOL    HW143520   8.372   9.721   5.732
47832SOL    HW243521   8.332   9.564   5.752
47833SOL     OW43522   9.167   9.895   7.417
47833SOL    HW143523   9.141   9.984   7.381
47833SOL    HW243524   9.165   9.827   7.344
47834SOL     OW43525   8.810  10.454   6.131
47834SOL    HW143526   8.893  10.425   6.083
47834SOL    HW243527   8.761  10.521   6.075
47835SOL     OW43528   7.998   9.506   6.471
47835SOL    HW143529   7.993   9.501   6.571
47835SOL    HW243530   8.000   9.602   6.442
47836SOL     OW43531   8.456  10.766   6.063
47836SOL    HW143532   8.410  10.838   6.011
47836SOL    HW243533   8.452  10.786   6.161
47837SOL     OW43534   7.799  11.111   6.439
47837SOL    HW143535   7.849  11.025   6.445
47837SOL    HW243536   7.864  11.188   6.436
47838SOL     OW43537   9.243  10.376   6.459
47838SOL    HW143538   9.181  10.361   6.383
47838SOL    HW243539   9.191  10.387   6.544
47839SOL     OW43540   8.675  10.860   7.092
47839SOL    HW143541   8.681  10.783   7.156
47839SOL    HW243542   8.623  10.834   7.012
47840SOL     OW43543   7.769  10.253   5.828
47840SOL    HW143544   7.851  10.292   5.786
47840SOL    HW243545   7.742  10.171   5.779
47841SOL     OW43546   8.906  10.045   6.314
47841SOL    HW143547   8.901   9.980   6.389
47841SOL    HW243548   8.986  10.104   6.327
47842SOL     OW43549   7.909  10.576   7.313
47842SOL    HW143550   7.859  10.577   7.227
47842SOL    HW243551   7.846  10.558   7.389
47843SOL     OW43552   8.559  11.086   5.823
47843SOL    HW143553   8.499  11.024   5.873
47843SOL    HW243554   8.590  11.042   5.738
47844SOL     OW43555   7.650   9.595   7.084
47844SOL    HW143556   7.570   9.655   7.071
47844SOL    HW243557   7.640   9.546   7.170
47845SOL     OW43558   9.080  10.687   5.667
47845SOL    HW143559   9.048  10.781   5.657
47845SOL    HW243560   9.004  10.624   5.655
47846SOL     OW43561   7.912  11.053   5.909
47846SOL    HW143562   7.945  11.092   5.995
47846SOL    HW243563   7.988  11.046   5.844
47847SOL     OW43564   8.848   9.417   6.012
47847SOL    HW143565   8.824   9.380   5.922
47847SOL    HW243566   8.947   9.433   6.016
47848SOL     OW43567   7.697  11.095   6.827
47848SOL    HW143568   7.754  11.030   6.877
47848SOL    HW243569   7.681  11.062   6.734
47849SOL     OW43570   8.388  11.008   6.490
47849SOL    HW143571   8.468  10.951   6.511
47849SOL    HW243572   8.339  10.968   6.413
47850SOL     OW43573   7.830  10.010   6.066
47850SOL    HW143574   7.875   9.920   6.063
47850SOL    HW243575   7.736   9.999   6.099
47851SOL     OW43576   8.995   9.532   7.315
47851SOL    HW143577   8.990   9.569   7.407
47851SOL    HW243578   8.923   9.463   7.303
47852SOL     OW43579   8.062   9.432   5.703
47852SOL    HW143580   8.160   9.410   5.710
47852SOL    HW243581   8.031   9.415   5.610
47853SOL     OW43582   8.229   9.574   7.335
47853SOL    HW143583   8.296   9.513   7.378
47853SOL    HW243584   8.156   9.593   7.400
47854SOL     OW43585   8.336  10.824   6.781
47854SOL    HW143586   8.313  10.799   6.687
47854SOL    HW243587   8.397  10.755   6.820
47855SOL     OW43588   8.799   9.900   7.019
47855SOL    HW143589   8.827   9.857   7.104
47855SOL    HW243590   8.824   9.996   7.020
47856SOL     OW43591   8.251  10.712   6.510
47856SOL    HW143592   8.341  10.726   6.468
47856SOL    HW243593   8.180  10.714   6.439
47857SOL     OW43594   8.370   9.813   6.485
47857SOL    HW143595   8.345   9.804   6.389
47857SOL    HW243596   8.418   9.731   6.516
47858SOL     OW43597   7.987   9.374   6.098
47858SOL    HW143598   7.906   9.375   6.156
47858SOL    HW243599   7.990   9.457   6.043
47859SOL     OW43600   8.882  10.498   5.627
47859SOL    HW143601   8.914  10.422   5.684
47859SOL    HW243602   8.790  10.525   5.657
47860SOL     OW43603   7.745   9.345   5.757
47860SOL    HW143604   7.794   9.429   5.736
47860SOL    HW243605   7.807   9.280   5.802
47861SOL     OW43606   8.383   9.546   6.066
47861SOL    HW143607   8.335   9.587   5.988
47861SOL    HW243608   8.482   9.544   6.047
47862SOL     OW43609   8.524   9.993   7.050
47862SOL    HW143610   8.444   9.932   7.053
47862SOL    HW243611   8.605   9.940   7.026
47863SOL     OW43612   8.675  10.880   6.379
47863SOL    HW143613   8.696  10.954   6.314
47863SOL    HW243614   8.743  10.880   6.452
47864SOL     OW43615   7.907  10.462   6.327
47864SOL    HW143616   7.836  10.435   6.392
47864SOL    HW243617   7.881  10.434   6.234
47865SOL     OW43618   8.719  11.107   6.177
47865SOL    HW143619   8.763  11.171   6.113
47865SOL    HW243620   8.669  11.159   6.247
47866SOL     OW43621   7.526   9.866   6.972
47866SOL    HW143622   7.618   9.865   6.931
47866SOL    HW243623   7.520   9.940   7.039
47867SOL     OW43624   8.009   9.532   6.733
47867SOL    HW143625   8.047   9.448   6.770
47867SOL    HW243626   7.921   9.551   6.777
47868SOL     OW43627   8.314   9.764   6.228
47868SOL    HW143628   8.282   9.836   6.166
47868SOL    HW243629   8.338   9.683   6.175
47869SOL     OW43630   8.465   9.349   6.339
47869SOL    HW143631   8.393   9.354   6.270
47869SOL    HW243632   8.441   9.280   6.408
47870SOL     OW43633   8.877  10.483   6.453
47870SOL    HW143634   8.822  10.399   6.446
47870SOL    HW243635   8.903  10.512   6.361
47871SOL     OW43636   8.914   9.900   6.578
47871SOL    HW143637   8.884   9.805   6.585
47871SOL    HW243638   8.987   9.916   6.644
47872SOL     OW43639   9.305  10.143   5.963
47872SOL    HW143640   9.347  10.079   6.027
47872SOL    HW243641   9.267  10.092   5.885
47873SOL     OW43642   7.936  10.695   5.760
47873SOL    HW143643   7.849  10.680   5.807
47873SOL    HW243644   7.919  10.721   5.665
47874SOL     OW43645   9.112  10.590   6.243
47874SOL    HW143646   9.211  10.598   6.257
47874SOL    HW243647   9.067  10.674   6.274
47875SOL     OW43648   8.838   9.885   5.664
47875SOL    HW143649   8.784   9.864   5.745
47875SOL    HW243650   8.929   9.844   5.673
47876SOL     OW43651   7.975   9.566   5.914
47876SOL    HW143652   8.002   9.507   5.839
47876SOL    HW243653   7.975   9.661   5.883
47877SOL     OW43654   9.202  10.533   7.174
47877SOL    HW143655   9.293  10.494   7.161
47877SOL    HW243656   9.210  10.629   7.198
47878SOL     OW43657   8.512  10.657   6.926
47878SOL    HW143658   8.432  10.634   6.981
47878SOL    HW243659   8.595  10.631   6.975
47879SOL     OW43660   9.040  10.939   7.211
47879SOL    HW143661   9.067  10.973   7.121
47879SOL    HW243662   9.119  10.901   7.257
47880SOL     OW43663   8.559  10.505   6.686
47880SOL    HW143664   8.519  10.549   6.767
47880SOL    HW243665   8.518  10.542   6.603
47881SOL     OW43666   9.086  10.409   6.665
47881SOL    HW143667   9.091  10.490   6.724
47881SOL    HW243668   9.000  10.411   6.614
47882SOL     OW43669   8.363   9.399   6.988
47882SOL    HW143670   8.388   9.379   6.893
47882SOL    HW243671   8.435   9.455   7.030
47883SOL     OW43672   8.428  10.426   7.305
47883SOL    HW143673   8.329  10.432   7.315
47883SOL    HW243674   8.451  10.346   7.249
47884SOL     OW43675   8.153  10.360   5.954
47884SOL    HW143676   8.139  10.367   6.053
47884SOL    HW243677   8.237  10.309   5.936
47885SOL     OW43678   7.858  10.123   6.837
47885SOL    HW143679   7.944  10.135   6.887
47885SOL    HW243680   7.816  10.036   6.864
47886SOL     OW43681   8.722   9.696   6.848
47886SOL    HW143682   8.743   9.770   6.912
47886SOL    HW243683   8.633   9.713   6.805
47887SOL     OW43684   7.512  10.874   6.917
47887SOL    HW143685   7.466  10.956   6.883
47887SOL    HW243686   7.610  10.893   6.926
47888SOL     OW43687   7.815  10.410   6.087
47888SOL    HW143688   7.808  10.493   6.031
47888SOL    HW243689   7.819  10.330   6.027
47889SOL     OW43690   8.014   9.847   6.451
47889SOL    HW143691   8.026   9.913   6.377
47889SOL    HW243692   8.060   9.881   6.534
47890SOL     OW43693   8.700  10.658   5.974
47890SOL    HW143694   8.750  10.735   6.014
47890SOL    HW243695   8.605  10.660   6.006
47891SOL     OW43696   8.720  10.755   6.728
47891SOL    HW143697   8.767  10.768   6.815
47891SOL    HW243698   8.654  10.681   6.737
47892SOL     OW43699   9.030   9.949   6.058
47892SOL    HW143700   8.999  10.010   6.131
47892SOL    HW243701   9.080  10.001   5.989
47893SOL     OW43702   7.802  10.820   6.915
47893SOL    HW143703   7.781  10.776   6.828
47893SOL    HW243704   7.899  10.846   6.918
47894SOL     OW43705   7.850  10.061   7.184
47894SOL    HW143706   7.918  10.116   7.137
47894SOL    HW243707   7.890   9.973   7.211
47895SOL     OW43708   9.035  10.089   7.256
47895SOL    HW143709   8.943  10.127   7.251
47895SOL    HW243710   9.095  10.136   7.191
47896SOL     OW43711   8.461   9.415   7.356
47896SOL    HW143712   8.467   9.500   7.304
47896SOL    HW243713   8.493   9.339   7.299
47897SOL     OW43714   7.952   9.360   7.326
47897SOL    HW143715   7.910   9.303   7.256
47897SOL    HW243716   7.886   9.429   7.358
47898SOL     OW43717   8.021  10.180   6.615
47898SOL    HW143718   8.065  10.269   6.606
47898SOL    HW243719   7.958  10.180   6.692
47899SOL     OW43720   8.808  10.172   6.631
47899SOL    HW143721   8.733  10.172   6.565
47899SOL    HW243722   8.845  10.080   6.640
47900SOL     OW43723   8.657   9.835   5.861
47900SOL    HW143724   8.670   9.751   5.915
47900SOL    HW243725   8.628   9.909   5.921
47901SOL     OW43726   7.755   9.523   6.817
47901SOL    HW143727   7.732   9.560   6.907
47901SOL    HW243728   7.725   9.428   6.811
47902SOL     OW43729   7.485  10.620   6.868
47902SOL    HW143730   7.538  10.571   6.936
47902SOL    HW243731   7.507  10.718   6.873
47903SOL     OW43732   8.180   9.944   6.650
47903SOL    HW143733   8.239   9.918   6.574
47903SOL    HW243734   8.152  10.040   6.639
47904SOL     OW43735   9.176  10.245   7.440
47904SOL    HW143736   9.130  10.238   7.351
47904SOL    HW243737   9.114  10.289   7.506
47905SOL     OW43738   7.755   9.373   6.204
47905SOL    HW143739   7.744   9.467   6.237
47905SOL    HW243740   7.750   9.310   6.281
47906SOL     OW43741   9.070   9.677   5.960
47906SOL    HW143742   9.072   9.601   6.024
47906SOL    HW243743   9.022   9.754   6.000
47907SOL     OW43744   8.471  10.076   6.552
47907SOL    HW143745   8.486  10.097   6.648
47907SOL    HW243746   8.441   9.981   6.543
47908SOL     OW43747   8.428  10.883   7.286
47908SOL    HW143748   8.408  10.927   7.198
47908SOL    HW243749   8.467  10.792   7.270
47909SOL     OW43750   9.307  10.828   7.191
47909SOL    HW143751   9.321  10.855   7.096
47909SOL    HW243752   9.390  10.850   7.244
47910SOL     OW43753   7.798  10.208   7.390
47910SOL    HW143754   7.874  10.252   7.438
47910SOL    HW243755   7.833  10.161   7.308
47911SOL     OW43756   8.988   9.584   5.711
47911SOL    HW143757   8.927   9.509   5.734
47911SOL    HW243758   9.010   9.636   5.794
47912SOL     OW43759   8.751  10.148   5.628
47912SOL    HW143760   8.785  10.055   5.643
47912SOL    HW243761   8.769  10.175   5.533
47913SOL     OW43762   8.516  10.643   6.435
47913SOL    HW143763   8.523  10.559   6.380
47913SOL    HW243764   8.578  10.712   6.399
47914SOL     OW43765   7.767  10.120   6.535
47914SOL    HW143766   7.860  10.156   6.540
47914SOL    HW243767   7.761  10.035   6.587
47915SOL     OW43768   7.787   9.819   6.592
47915SOL    HW143769   7.735   9.736   6.575
47915SOL    HW243770   7.864   9.824   6.528
47916SOL     OW43771   8.586   9.690   7.264
47916SOL    HW143772   8.541   9.753   7.328
47916SOL    HW243773   8.679   9.721   7.247
47917SOL     OW43774   8.608   9.517   7.063
47917SOL    HW143775   8.608   9.581   7.140
47917SOL    HW243776   8.636   9.565   6.980
47918SOL     OW43777   7.456  10.636   5.786
47918SOL    HW143778   7.363  10.657   5.755
47918SOL    HW243779   7.466  10.537   5.799
47919SOL     OW43780   7.536  11.111   6.513
47919SOL    HW143781   7.494  11.025   6.486
47919SOL    HW243782   7.630  11.114   6.479
47920SOL     OW43783   7.952  10.878   6.496
47920SOL    HW143784   8.018  10.952   6.505
47920SOL    HW243785   7.996  10.799   6.454
47921SOL     OW43786   8.450  10.106   6.824
47921SOL    HW143787   8.491  10.074   6.910
47921SOL    HW243788   8.354  10.079   6.821
47922SOL     OW43789   7.488   9.854   6.700
47922SOL    HW143790   7.573   9.821   6.659
47922SOL    HW243791   7.501   9.869   6.798
47923SOL     OW43792   7.637   9.830   7.308
47923SOL    HW143793   7.696   9.790   7.238
47923SOL    HW243794   7.579   9.901   7.267
47924SOL     OW43795   8.817  10.260   7.246
47924SOL    HW143796   8.856  10.349   7.266
47924SOL    HW243797   8.827  10.240   7.149
47925SOL     OW43798   8.263   9.882   5.911
47925SOL    HW143799   8.270   9.793   5.865
47925SOL    HW243800   8.169   9.916   5.903
47926SOL     OW43801   9.105   9.914   6.792
47926SOL    HW143802   9.067   9.845   6.854
47926SOL    HW243803   9.187   9.878   6.748
47927SOL     OW43804   7.700  10.874   7.330
47927SOL    HW143805   7.670  10.931   7.406
47927SOL    HW243806   7.693  10.777   7.356
47928SOL     OW43807   8.119   9.774   6.855
47928SOL    HW143808   8.085   9.685   6.825
47928SOL    HW243809   8.145   9.828   6.775
47929SOL     OW43810   8.378  10.988   7.051
47929SOL    HW143811   8.354  10.970   6.956
47929SOL    HW243812   8.408  11.082   7.061
47930SOL     OW43813   7.921   9.810   5.777
47930SOL    HW143814   7.982   9.890   5.781
47930SOL    HW243815   7.826   9.841   5.784
47931SOL     OW43816   7.607  10.447   7.052
47931SOL    HW143817   7.629  10.386   7.128
47931SOL    HW243818   7.617  10.398   6.966
47932SOL     OW43819   8.795  10.369   6.820
47932SOL    HW143820   8.819  10.306   6.746
47932SOL    HW243821   8.705  10.409   6.802
47933SOL     OW43822   8.750  10.165   5.895
47933SOL    HW143823   8.664  10.134   5.937
47933SOL    HW243824   8.746  10.151   5.796
47934SOL     OW43825   9.207  11.057   6.740
47934SOL    HW143826   9.268  11.087   6.667
47934SOL    HW243827   9.169  10.968   6.718
47935SOL     OW43828   8.700  11.041   6.714
47935SOL    HW143829   8.784  11.046   6.660
47935SOL    HW243830   8.677  10.945   6.732
47936SOL     OW43831   7.531  10.568   6.608
47936SOL    HW143832   7.526  10.567   6.708
47936SOL    HW243833   7.448  10.527   6.570
47937SOL     OW43834   8.136  10.972   7.302
47937SOL    HW143835   8.080  11.053   7.311
47937SOL    HW243836   8.188  10.976   7.216
47938SOL     OW43837   9.174   9.445   6.109
47938SOL    HW143838   9.247   9.428   6.042
47938SOL    HW243839   9.143   9.358   6.147
47939SOL     OW43840   8.836  10.883   6.063
47939SOL    HW143841   8.903  10.895   5.989
47939SOL    HW243842   8.796  10.972   6.086
47940SOL     OW43843   7.578  11.104   7.437
47940SOL    HW143844   7.537  11.030   7.490
47940SOL    HW243845   7.642  11.155   7.495
47941SOL     OW43846   8.728  10.237   6.258
47941SOL    HW143847   8.788  10.156   6.260
47941SOL    HW243848   8.768  10.306   6.198
47942SOL     OW43849   8.278  10.583   7.008
47942SOL    HW143850   8.273  10.616   7.103
47942SOL    HW243851   8.192  10.602   6.962
47943SOL     OW43852   8.120  10.926   5.740
47943SOL    HW143853   8.129  10.936   5.641
47943SOL    HW243854   8.080  10.837   5.761
47944SOL     OW43855   9.098  11.030   6.980
47944SOL    HW143856   9.151  11.040   6.896
47944SOL    HW243857   9.071  11.120   7.014
47945SOL     OW43858   9.289   9.485   6.549
47945SOL    HW143859   9.328   9.400   6.513
47945SOL    HW243860   9.191   9.487   6.530
47946SOL     OW43861   7.711   9.636   6.306
47946SOL    HW143862   7.632   9.687   6.272
47946SOL    HW243863   7.702   9.621   6.404
47947SOL     OW43864   8.642  10.922   5.617
47947SOL    HW143865   8.648  10.829   5.654
47947SOL    HW243866   8.583  10.922   5.537
47948SOL     OW43867   8.270  10.312   6.958
47948SOL    HW143868   8.310  10.311   6.866
47948SOL    HW243869   8.280  10.404   6.998
47949SOL     OW43870   8.364  10.220   5.877
47949SOL    HW143871   8.427  10.258   5.809
47949SOL    HW243872   8.404  10.137   5.916
47950SOL     OW43873   8.952  10.917   5.630
47950SOL    HW143874   8.860  10.954   5.637
47950SOL    HW243875   8.990  10.937   5.540
47951SOL     OW43876   7.820  10.598   7.076
47951SOL    HW143877   7.807  10.691   7.042
47951SOL    HW243878   7.736  10.546   7.063
47952SOL     OW43879   9.062  10.602   6.875
47952SOL    HW143880   9.122  10.605   6.955
47952SOL    HW243881   8.987  10.666   6.888
47953SOL     OW43882   8.487  10.408   6.282
47953SOL    HW143883   8.417  10.361   6.336
47953SOL    HW243884   8.546  10.340   6.239
47954SOL     OW43885   8.462   9.546   6.557
47954SOL    HW143886   8.454   9.510   6.464
47954SOL    HW243887   8.460   9.470   6.622
47955SOL     OW43888   8.038  10.797   6.077
47955SOL    HW143889   8.080  10.739   6.007
47955SOL    HW243890   7.994  10.876   6.033
47956SOL     OW43891   9.157   9.695   6.967
47956SOL    HW143892   9.230   9.764   6.971
47956SOL    HW243893   9.185   9.620   6.908
47957SOL     OW43894   7.703  10.658   5.876
47957SOL    HW143895   7.607  10.659   5.849
47957SOL    HW243896   7.715  10.711   5.960
47958SOL     OW43897   7.553  10.323   7.312
47958SOL    HW143898   7.476  10.290   7.366
47958SOL    HW243899   7.638  10.293   7.354
47959SOL     OW43900   8.120   9.513   7.075
47959SOL    HW143901   8.210   9.497   7.035
47959SOL    HW243902   8.128   9.518   7.174
47960SOL     OW43903   7.523   9.655   5.619
47960SOL    HW143904   7.431   9.627   5.590
47960SOL    HW243905   7.554   9.732   5.563
47961SOL     OW43906   8.888  10.166   6.984
47961SOL    HW143907   8.831  10.218   6.921
47961SOL    HW243908   8.984  10.178   6.960
47962SOL     OW43909   7.520   9.476   5.904
47962SOL    HW143910   7.503   9.559   5.850
47962SOL    HW243911   7.610   9.439   5.882
47963SOL     OW43912   8.631  10.645   5.705
47963SOL    HW143913   8.532  10.634   5.707
47963SOL    HW243914   8.665  10.660   5.798
47964SOL     OW43915   8.061  10.152   7.017
47964SOL    HW143916   8.117  10.233   7.000
47964SOL    HW243917   8.120  10.072   7.020
47965SOL     OW43918   8.941  11.077   6.545
47965SOL    HW143919   8.974  11.141   6.476
47965SOL    HW243920   9.007  11.071   6.620
47966SOL     OW43921   8.164   9.875   7.294
47966SOL    HW143922   8.183   9.940   7.368
47966SOL    HW243923   8.224   9.795   7.303
47967SOL     OW43924   8.898  10.530   7.219
47967SOL    HW143925   8.889  10.520   7.318
47967SOL    HW243926   8.994  10.523   7.193
47968SOL     OW43927   7.838  11.051   7.146
47968SOL    HW143928   7.747  11.092   7.144
47968SOL    HW243929   7.831  10.957   7.178
47969SOL     OW43930   9.122  10.193   6.840
47969SOL    HW143931   9.095  10.104   6.803
47969SOL    HW243932   9.123  10.261   6.767
47970SOL     OW43933   8.673   9.635   6.035
47970SOL    HW143934   8.738   9.561   6.024
47970SOL    HW243935   8.693   9.685   6.119
47971SOL     OW43936   8.042  10.055   6.238
47971SOL    HW143937   8.092  10.140   6.219
47971SOL    HW243938   7.954  10.057   6.190
47972SOL     OW43939   9.225   9.652   7.228
47972SOL    HW143940   9.208   9.683   7.134
47972SOL    HW243941   9.141   9.615   7.266
47973SOL     OW43942   9.178  10.244   7.103
47973SOL    HW143943   9.216  10.335   7.118
47973SOL    HW243944   9.170  10.227   7.004
47974SOL     OW43945   8.307  10.684   5.602
47974SOL    HW143946   8.261  10.699   5.690
47974SOL    HW243947   8.351  10.769   5.572
47975SOL     OW43948   8.109  11.100   6.539
47975SOL    HW143949   8.063  11.188   6.526
47975SOL    HW243950   8.208  11.112   6.532
47976SOL     OW43951   8.307  10.266   6.447
47976SOL    HW143952   8.361  10.197   6.495
47976SOL    HW243953   8.275  10.335   6.513
47977SOL     OW43954   8.531  10.294   5.673
47977SOL    HW143955   8.508  10.347   5.591
47977SOL    HW243956   8.612  10.238   5.654
47978SOL     OW43957   9.309  10.879   6.437
47978SOL    HW143958   9.238  10.867   6.367
47978SOL    HW243959   9.310  10.800   6.497
47979SOL     OW43960   7.669  10.624   7.430
47979SOL    HW143961   7.604  10.551   7.409
47979SOL    HW243962   7.673  10.638   7.528
47980SOL     OW43963   7.527  10.550   6.239
47980SOL    HW143964   7.526  10.503   6.327
47980SOL    HW243965   7.609  10.522   6.188
47981SOL     OW43966   8.120  10.701   7.210
47981SOL    HW143967   8.042  10.651   7.248
47981SOL    HW243968   8.117  10.796   7.241
47982SOL     OW43969   9.272   9.502   6.813
47982SOL    HW143970   9.268   9.412   6.857
47982SOL    HW243971   9.275   9.491   6.714
47983SOL     OW43972   7.876   9.734   6.106
47983SOL    HW143973   7.906   9.662   6.044
47983SOL    HW243974   7.837   9.694   6.189
47984SOL     OW43975   7.765   9.857   6.866
47984SOL    HW143976   7.803   9.798   6.938
47984SOL    HW243977   7.805   9.831   6.778
47985SOL     OW43978   8.260  10.896   6.273
47985SOL    HW143979   8.292  10.906   6.179
47985SOL    HW243980   8.181  10.834   6.275
47986SOL     OW43981   8.872   9.524   6.698
47986SOL    HW143982   8.924   9.459   6.753
47986SOL    HW243983   8.823   9.587   6.759
47987SOL     OW43984   8.449   9.344   6.740
47987SOL    HW143985   8.386   9.272   6.709
47987SOL    HW243986   8.542   9.308   6.740
47988SOL     OW43987   8.218  10.640   5.887
47988SOL    HW143988   8.172  10.553   5.904
47988SOL    HW243989   8.309  10.637   5.928
47989SOL     OW43990   8.066  10.877   6.870
47989SOL    HW143991   8.061  10.959   6.927
47989SOL    HW243992   8.155  10.874   6.825
47990SOL     OW43993   8.800   9.362   5.754
47990SOL    HW143994   8.835   9.321   5.670
47990SOL    HW243995   8.710   9.324   5.774
47991SOL     OW43996   8.748   9.763   6.277
47991SOL    HW143997   8.689   9.843   6.281
47991SOL    HW243998   8.763   9.728   6.370
47992SOL     OW43999   9.041   9.531   6.468
47992SOL    HW144000   8.957   9.530   6.522
47992SOL    HW244001   9.043   9.614   6.412
47993SOL     OW44002   7.487  10.387   5.886
47993SOL    HW144003   7.586  10.376   5.877
47993SOL    HW244004   7.447  10.301   5.918
47994SOL     OW44005   8.323  10.956   5.923
47994SOL    HW144006   8.246  10.921   5.869
47994SOL    HW244007   8.291  11.027   5.985
47995SOL     OW44008   7.678   9.938   7.561
47995SOL    HW144009   7.585   9.936   7.598
47995SOL    HW244010   7.679   9.899   7.469
47996SOL     OW44011   7.673   9.585   8.444
47996SOL    HW144012   7.708   9.568   8.536
47996SOL    HW244013   7.585   9.540   8.432
47997SOL     OW44014   7.467   9.678   8.095
47997SOL    HW144015   7.385   9.721   8.134
47997SOL    HW244016   7.439   9.605   8.032
47998SOL     OW44017   8.017  10.585   8.613
47998SOL    HW144018   7.924  10.578   8.576
47998SOL    HW244019   8.028  10.674   8.657
47999SOL     OW44020   9.003  10.821   8.151
47999SOL    HW144021   8.946  10.805   8.232
47999SOL    HW244022   8.944  10.831   8.071
48000SOL     OW44023   8.583  10.013   8.165
48000SOL    HW144024   8.640  10.091   8.140
48000SOL    HW244025   8.523  10.039   8.241
48001SOL     OW44026   9.203   9.917   7.679
48001SOL    HW144027   9.191   9.904   7.580
48001SOL    HW244028   9.173   9.836   7.728
48002SOL     OW44029   8.216  10.454   8.471
48002SOL    HW144030   8.138  10.471   8.531
48002SOL    HW244031   8.250  10.541   8.435
48003SOL     OW44032   8.298  10.108   9.271
48003SOL    HW144033   8.294  10.184   9.336
48003SOL    HW244034   8.320  10.144   9.180
48004SOL     OW44035   8.133  10.322   8.113
48004SOL    HW144036   8.202  10.306   8.183
48004SOL    HW244037   8.060  10.379   8.151
48005SOL     OW44038   8.134  10.471   9.251
48005SOL    HW144039   8.194  10.550   9.265
48005SOL    HW244040   8.048  10.502   9.210
48006SOL     OW44041   7.783  10.745   8.509
48006SOL    HW144042   7.705  10.714   8.456
48006SOL    HW244043   7.841  10.803   8.452
48007SOL     OW44044   8.908  10.815   8.787
48007SOL    HW144045   8.932  10.909   8.813
48007SOL    HW244046   8.892  10.761   8.869
48008SOL     OW44047   7.886   9.702   8.947
48008SOL    HW144048   7.968   9.646   8.956
48008SOL    HW244049   7.805   9.644   8.951
48009SOL     OW44050   9.051   9.757   8.185
48009SOL    HW144051   8.977   9.803   8.135
48009SOL    HW244052   9.102   9.825   8.238
48010SOL     OW44053   7.679  11.023   7.931
48010SOL    HW144054   7.713  11.100   7.985
48010SOL    HW244055   7.723  11.023   7.841
48011SOL     OW44056   8.575  10.651   9.138
48011SOL    HW144057   8.622  10.651   9.226
48011SOL    HW244058   8.527  10.564   9.127
48012SOL     OW44059   7.678  10.744   7.986
48012SOL    HW144060   7.652  10.840   7.986
48012SOL    HW244061   7.607  10.690   8.031
48013SOL     OW44062   7.688  10.401   8.334
48013SOL    HW144063   7.702  10.317   8.386
48013SOL    HW244064   7.633  10.465   8.389
48014SOL     OW44065   8.068  11.096   8.887
48014SOL    HW144066   7.976  11.079   8.922
48014SOL    HW244067   8.096  11.188   8.913
48015SOL     OW44068   8.054  10.274   7.571
48015SOL    HW144069   8.061  10.358   7.517
48015SOL    HW244070   8.100  10.287   7.659
48016SOL     OW44071   9.042   9.424   8.928
48016SOL    HW144072   9.024   9.491   8.856
48016SOL    HW244073   9.039   9.470   9.017
48017SOL     OW44074   7.570   9.953   8.011
48017SOL    HW144075   7.525   9.865   8.028
48017SOL    HW244076   7.569  10.007   8.095
48018SOL     OW44077   9.290  11.077   7.807
48018SOL    HW144078   9.344  11.048   7.887
48018SOL    HW244079   9.320  11.167   7.778
48019SOL     OW44080   7.475  10.906   7.565
48019SOL    HW144081   7.456  10.810   7.586
48019SOL    HW244082   7.442  10.964   7.640
48020SOL     OW44083   9.137  10.232   8.060
48020SOL    HW144084   9.232  10.203   8.068
48020SOL    HW244085   9.129  10.297   7.985
48021SOL     OW44086   9.089  10.418   7.880
48021SOL    HW144087   9.175  10.420   7.828
48021SOL    HW244088   9.103  10.465   7.968
48022SOL     OW44089   7.561  10.047   9.045
48022SOL    HW144090   7.649  10.034   9.090
48022SOL    HW244091   7.548  10.144   9.023
48023SOL     OW44092   8.061  10.675   8.174
48023SOL    HW144093   8.012  10.588   8.183
48023SOL    HW244094   8.038  10.718   8.087
48024SOL     OW44095   8.741  10.538   8.871
48024SOL    HW144096   8.778  10.465   8.813
48024SOL    HW244097   8.793  10.543   8.956
48025SOL     OW44098   8.257   9.314   7.950
48025SOL    HW144099   8.297   9.405   7.941
48025SOL    HW244100   8.157   9.322   7.956
48026SOL     OW44101   7.645  10.286   8.712
48026SOL    HW144102   7.734  10.241   8.698
48026SOL    HW244103   7.572  10.221   8.693
48027SOL     OW44104   8.973  10.309   7.638
48027SOL    HW144105   8.910  10.233   7.651
48027SOL    HW244106   9.021  10.327   7.724
48028SOL     OW44107   8.635  11.102   9.064
48028SOL    HW144108   8.659  11.162   8.988
48028SOL    HW244109   8.642  11.007   9.034
48029SOL     OW44110   7.765   9.561   9.249
48029SOL    HW144111   7.836   9.632   9.255
48029SOL    HW244112   7.677   9.600   9.277
48030SOL     OW44113   8.914  10.727   8.401
48030SOL    HW144114   8.855  10.733   8.481
48030SOL    HW244115   8.899  10.639   8.355
48031SOL     OW44116   9.115  11.024   8.020
48031SOL    HW144117   9.074  11.001   7.932
48031SOL    HW244118   9.097  10.950   8.085
48032SOL     OW44119   8.046  10.039   7.718
48032SOL    HW144120   8.070  10.108   7.650
48032SOL    HW244121   7.968  10.072   7.772
48033SOL     OW44122   8.729   9.655   8.392
48033SOL    HW144123   8.643   9.605   8.379
48033SOL    HW244124   8.791   9.601   8.448
48034SOL     OW44125   9.024  10.972   7.755
48034SOL    HW144126   9.113  11.018   7.758
48034SOL    HW244127   9.003  10.948   7.660
48035SOL     OW44128   8.255   9.915   8.913
48035SOL    HW144129   8.208   9.912   9.002
48035SOL    HW244130   8.204   9.860   8.847
48036SOL     OW44131   8.842   9.779   9.122
48036SOL    HW144132   8.822   9.822   9.210
48036SOL    HW244133   8.920   9.717   9.131
48037SOL     OW44134   8.421  10.200   9.020
48037SOL    HW144135   8.467  10.116   8.991
48037SOL    HW244136   8.365  10.234   8.945
48038SOL     OW44137   8.439   9.720   8.690
48038SOL    HW144138   8.362   9.754   8.744
48038SOL    HW244139   8.405   9.669   8.611
48039SOL     OW44140   8.489  10.011   7.877
48039SOL    HW144141   8.515  10.007   7.973
48039SOL    HW244142   8.404   9.960   7.863
48040SOL     OW44143   7.524  10.121   8.237
48040SOL    HW144144   7.623  10.109   8.246
48040SOL    HW244145   7.500  10.216   8.258
48041SOL     OW44146   7.578  11.131   9.019
48041SOL    HW144147   7.568  11.116   9.118
48041SOL    HW244148   7.492  11.167   8.983
48042SOL     OW44149   8.313   9.658   7.643
48042SOL    HW144150   8.372   9.721   7.594
48042SOL    HW244151   8.332   9.564   7.614
48043SOL     OW44152   9.167   9.895   9.279
48043SOL    HW144153   9.141   9.984   9.243
48043SOL    HW244154   9.165   9.827   9.206
48044SOL     OW44155   8.810  10.454   7.993
48044SOL    HW144156   8.893  10.425   7.945
48044SOL    HW244157   8.761  10.521   7.937
48045SOL     OW44158   7.998   9.506   8.333
48045SOL    HW144159   7.993   9.501   8.433
48045SOL    HW244160   8.000   9.602   8.304
48046SOL     OW44161   8.456  10.766   7.925
48046SOL    HW144162   8.410  10.838   7.873
48046SOL    HW244163   8.452  10.786   8.023
48047SOL     OW44164   9.243  10.376   8.321
48047SOL    HW144165   9.181  10.361   8.245
48047SOL    HW244166   9.191  10.387   8.406
48048SOL     OW44167   8.675  10.860   8.954
48048SOL    HW144168   8.681  10.783   9.018
48048SOL    HW244169   8.623  10.834   8.874
48049SOL     OW44170   7.769  10.253   7.690
48049SOL    HW144171   7.851  10.292   7.648
48049SOL    HW244172   7.742  10.171   7.641
48050SOL     OW44173   8.906  10.045   8.176
48050SOL    HW144174   8.901   9.980   8.251
48050SOL    HW244175   8.986  10.104   8.189
48051SOL     OW44176   7.909  10.576   9.175
48051SOL    HW144177   7.859  10.577   9.089
48051SOL    HW244178   7.846  10.558   9.251
48052SOL     OW44179   8.559  11.086   7.685
48052SOL    HW144180   8.499  11.024   7.735
48052SOL    HW244181   8.590  11.042   7.600
48053SOL     OW44182   7.650   9.595   8.946
48053SOL    HW144183   7.570   9.655   8.933
48053SOL    HW244184   7.640   9.546   9.032
48054SOL     OW44185   9.080  10.687   7.529
48054SOL    HW144186   9.048  10.781   7.519
48054SOL    HW244187   9.004  10.624   7.517
48055SOL     OW44188   7.912  11.053   7.771
48055SOL    HW144189   7.945  11.092   7.857
48055SOL    HW244190   7.988  11.046   7.706
48056SOL     OW44191   8.848   9.417   7.874
48056SOL    HW144192   8.824   9.380   7.784
48056SOL    HW244193   8.947   9.433   7.878
48057SOL     OW44194   7.697  11.095   8.689
48057SOL    HW144195   7.754  11.030   8.739
48057SOL    HW244196   7.681  11.062   8.596
48058SOL     OW44197   8.388  11.008   8.352
48058SOL    HW144198   8.468  10.951   8.373
48058SOL    HW244199   8.339  10.968   8.275
48059SOL     OW44200   7.830  10.010   7.928
48059SOL    HW144201   7.875   9.920   7.925
48059SOL    HW244202   7.736   9.999   7.961
48060SOL     OW44203   8.995   9.532   9.177
48060SOL    HW144204   8.990   9.569   9.269
48060SOL    HW244205   8.923   9.463   9.165
48061SOL     OW44206   8.062   9.432   7.565
48061SOL    HW144207   8.160   9.410   7.572
48061SOL    HW244208   8.031   9.415   7.472
48062SOL     OW44209   8.229   9.574   9.197
48062SOL    HW144210   8.296   9.513   9.240
48062SOL    HW244211   8.156   9.593   9.262
48063SOL     OW44212   8.336  10.824   8.643
48063SOL    HW144213   8.313  10.799   8.549
48063SOL    HW244214   8.397  10.755   8.682
48064SOL     OW44215   8.799   9.900   8.881
48064SOL    HW144216   8.827   9.857   8.966
48064SOL    HW244217   8.824   9.996   8.882
48065SOL     OW44218   8.251  10.712   8.372
48065SOL    HW144219   8.341  10.726   8.330
48065SOL    HW244220   8.180  10.714   8.301
48066SOL     OW44221   8.370   9.813   8.347
48066SOL    HW144222   8.345   9.804   8.251
48066SOL    HW244223   8.418   9.731   8.378
48067SOL     OW44224   7.987   9.374   7.960
48067SOL    HW144225   7.906   9.375   8.018
48067SOL    HW244226   7.990   9.457   7.905
48068SOL     OW44227   8.882  10.498   7.489
48068SOL    HW144228   8.914  10.422   7.546
48068SOL    HW244229   8.790  10.525   7.519
48069SOL     OW44230   7.745   9.345   7.619
48069SOL    HW144231   7.794   9.429   7.598
48069SOL    HW244232   7.807   9.280   7.664
48070SOL     OW44233   8.383   9.546   7.928
48070SOL    HW144234   8.335   9.587   7.850
48070SOL    HW244235   8.482   9.544   7.909
48071SOL     OW44236   8.524   9.993   8.912
48071SOL    HW144237   8.444   9.932   8.915
48071SOL    HW244238   8.605   9.940   8.888
48072SOL     OW44239   8.675  10.880   8.241
48072SOL    HW144240   8.696  10.954   8.176
48072SOL    HW244241   8.743  10.880   8.314
48073SOL     OW44242   7.907  10.462   8.189
48073SOL    HW144243   7.836  10.435   8.254
48073SOL    HW244244   7.881  10.434   8.096
48074SOL     OW44245   8.719  11.107   8.039
48074SOL    HW144246   8.763  11.171   7.975
48074SOL    HW244247   8.669  11.159   8.109
48075SOL     OW44248   8.480   9.859   7.464
48075SOL    HW144249   8.439   9.941   7.425
48075SOL    HW244250   8.544   9.885   7.537
48076SOL     OW44251   7.526   9.866   8.834
48076SOL    HW144252   7.618   9.865   8.793
48076SOL    HW244253   7.520   9.940   8.901
48077SOL     OW44254   8.009   9.532   8.595
48077SOL    HW144255   8.047   9.448   8.632
48077SOL    HW244256   7.921   9.551   8.639
48078SOL     OW44257   8.314   9.764   8.090
48078SOL    HW144258   8.282   9.836   8.028
48078SOL    HW244259   8.338   9.683   8.037
48079SOL     OW44260   8.465   9.349   8.201
48079SOL    HW144261   8.393   9.354   8.132
48079SOL    HW244262   8.441   9.280   8.270
48080SOL     OW44263   8.877  10.483   8.315
48080SOL    HW144264   8.822  10.399   8.308
48080SOL    HW244265   8.903  10.512   8.223
48081SOL     OW44266   9.305  10.143   7.825
48081SOL    HW144267   9.347  10.079   7.889
48081SOL    HW244268   9.267  10.092   7.747
48082SOL     OW44269   7.936  10.695   7.622
48082SOL    HW144270   7.849  10.680   7.669
48082SOL    HW244271   7.919  10.721   7.527
48083SOL     OW44272   9.112  10.590   8.105
48083SOL    HW144273   9.211  10.598   8.119
48083SOL    HW244274   9.067  10.674   8.136
48084SOL     OW44275   8.838   9.885   7.526
48084SOL    HW144276   8.784   9.864   7.607
48084SOL    HW244277   8.929   9.844   7.535
48085SOL     OW44278   7.975   9.566   7.776
48085SOL    HW144279   8.002   9.507   7.701
48085SOL    HW244280   7.975   9.661   7.745
48086SOL     OW44281   9.202  10.533   9.036
48086SOL    HW144282   9.293  10.494   9.023
48086SOL    HW244283   9.210  10.629   9.060
48087SOL     OW44284   8.512  10.657   8.788
48087SOL    HW144285   8.432  10.634   8.843
48087SOL    HW244286   8.595  10.631   8.837
48088SOL     OW44287   9.040  10.939   9.073
48088SOL    HW144288   9.067  10.973   8.983
48088SOL    HW244289   9.119  10.901   9.119
48089SOL     OW44290   8.559  10.505   8.548
48089SOL    HW144291   8.519  10.549   8.629
48089SOL    HW244292   8.518  10.542   8.465
48090SOL     OW44293   9.086  10.409   8.527
48090SOL    HW144294   9.091  10.490   8.586
48090SOL    HW244295   9.000  10.411   8.476
48091SOL     OW44296   8.363   9.399   8.850
48091SOL    HW144297   8.388   9.379   8.755
48091SOL    HW244298   8.435   9.455   8.892
48092SOL     OW44299   8.428  10.426   9.167
48092SOL    HW144300   8.329  10.432   9.177
48092SOL    HW244301   8.451  10.346   9.111
48093SOL     OW44302   8.153  10.360   7.816
48093SOL    HW144303   8.139  10.367   7.915
48093SOL    HW244304   8.237  10.309   7.798
48094SOL     OW44305   7.858  10.123   8.699
48094SOL    HW144306   7.944  10.135   8.749
48094SOL    HW244307   7.816  10.036   8.726
48095SOL     OW44308   8.722   9.696   8.710
48095SOL    HW144309   8.743   9.770   8.774
48095SOL    HW244310   8.633   9.713   8.667
48096SOL     OW44311   7.512  10.874   8.779
48096SOL    HW144312   7.466  10.956   8.745
48096SOL    HW244313   7.610  10.893   8.788
48097SOL     OW44314   7.815  10.410   7.949
48097SOL    HW144315   7.808  10.493   7.893
48097SOL    HW244316   7.819  10.330   7.889
48098SOL     OW44317   8.014   9.847   8.313
48098SOL    HW144318   8.026   9.913   8.239
48098SOL    HW244319   8.060   9.881   8.396
48099SOL     OW44320   8.700  10.658   7.836
48099SOL    HW144321   8.750  10.735   7.876
48099SOL    HW244322   8.605  10.660   7.868
48100SOL     OW44323   8.720  10.755   8.590
48100SOL    HW144324   8.767  10.768   8.677
48100SOL    HW244325   8.654  10.681   8.599
48101SOL     OW44326   9.030   9.949   7.920
48101SOL    HW144327   8.999  10.010   7.993
48101SOL    HW244328   9.080  10.001   7.851
48102SOL     OW44329   7.802  10.820   8.777
48102SOL    HW144330   7.781  10.776   8.690
48102SOL    HW244331   7.899  10.846   8.780
48103SOL     OW44332   7.850  10.061   9.046
48103SOL    HW144333   7.918  10.116   8.999
48103SOL    HW244334   7.890   9.973   9.073
48104SOL     OW44335   9.035  10.089   9.118
48104SOL    HW144336   8.943  10.127   9.113
48104SOL    HW244337   9.095  10.136   9.053
48105SOL     OW44338   8.461   9.415   9.218
48105SOL    HW144339   8.467   9.500   9.166
48105SOL    HW244340   8.493   9.339   9.161
48106SOL     OW44341   7.952   9.360   9.188
48106SOL    HW144342   7.910   9.303   9.118
48106SOL    HW244343   7.886   9.429   9.220
48107SOL     OW44344   8.021  10.180   8.477
48107SOL    HW144345   8.065  10.269   8.468
48107SOL    HW244346   7.958  10.180   8.554
48108SOL     OW44347   8.808  10.172   8.493
48108SOL    HW144348   8.733  10.172   8.427
48108SOL    HW244349   8.845  10.080   8.502
48109SOL     OW44350   8.657   9.835   7.723
48109SOL    HW144351   8.670   9.751   7.777
48109SOL    HW244352   8.628   9.909   7.783
48110SOL     OW44353   7.755   9.523   8.679
48110SOL    HW144354   7.732   9.560   8.769
48110SOL    HW244355   7.725   9.428   8.673
48111SOL     OW44356   7.485  10.620   8.730
48111SOL    HW144357   7.538  10.571   8.798
48111SOL    HW244358   7.507  10.718   8.735
48112SOL     OW44359   8.180   9.944   8.512
48112SOL    HW144360   8.239   9.918   8.436
48112SOL    HW244361   8.152  10.040   8.501
48113SOL     OW44362   9.176  10.245   9.302
48113SOL    HW144363   9.130  10.238   9.213
48113SOL    HW244364   9.114  10.289   9.368
48114SOL     OW44365   7.755   9.373   8.066
48114SOL    HW144366   7.744   9.467   8.099
48114SOL    HW244367   7.750   9.310   8.143
48115SOL     OW44368   9.070   9.677   7.822
48115SOL    HW144369   9.072   9.601   7.886
48115SOL    HW244370   9.022   9.754   7.862
48116SOL     OW44371   8.471  10.076   8.414
48116SOL    HW144372   8.486  10.097   8.510
48116SOL    HW244373   8.441   9.981   8.405
48117SOL     OW44374   8.428  10.883   9.148
48117SOL    HW144375   8.408  10.927   9.060
48117SOL    HW244376   8.467  10.792   9.132
48118SOL     OW44377   9.307  10.828   9.053
48118SOL    HW144378   9.321  10.855   8.958
48118SOL    HW244379   9.390  10.850   9.106
48119SOL     OW44380   7.798  10.208   9.252
48119SOL    HW144381   7.874  10.252   9.300
48119SOL    HW244382   7.833  10.161   9.170
48120SOL     OW44383   8.988   9.584   7.573
48120SOL    HW144384   8.927   9.509   7.596
48120SOL    HW244385   9.010   9.636   7.656
48121SOL     OW44386   8.751  10.148   7.490
48121SOL    HW144387   8.785  10.055   7.505
48121SOL    HW244388   8.769  10.175   7.395
48122SOL     OW44389   8.516  10.643   8.297
48122SOL    HW144390   8.523  10.559   8.242
48122SOL    HW244391   8.578  10.712   8.261
48123SOL     OW44392   7.767  10.120   8.397
48123SOL    HW144393   7.860  10.156   8.402
48123SOL    HW244394   7.761  10.035   8.449
48124SOL     OW44395   7.787   9.819   8.454
48124SOL    HW144396   7.735   9.736   8.437
48124SOL    HW244397   7.864   9.824   8.390
48125SOL     OW44398   8.586   9.690   9.126
48125SOL    HW144399   8.541   9.753   9.190
48125SOL    HW244400   8.679   9.721   9.109
48126SOL     OW44401   8.608   9.517   8.925
48126SOL    HW144402   8.608   9.581   9.002
48126SOL    HW244403   8.636   9.565   8.842
48127SOL     OW44404   7.456  10.636   7.648
48127SOL    HW144405   7.363  10.657   7.617
48127SOL    HW244406   7.466  10.537   7.661
48128SOL     OW44407   7.536  11.111   8.375
48128SOL    HW144408   7.494  11.025   8.348
48128SOL    HW244409   7.630  11.114   8.341
48129SOL     OW44410   7.952  10.878   8.358
48129SOL    HW144411   8.018  10.952   8.367
48129SOL    HW244412   7.996  10.799   8.316
48130SOL     OW44413   8.450  10.106   8.686
48130SOL    HW144414   8.491  10.074   8.772
48130SOL    HW244415   8.354  10.079   8.683
48131SOL     OW44416   7.488   9.854   8.562
48131SOL    HW144417   7.573   9.821   8.521
48131SOL    HW244418   7.501   9.869   8.660
48132SOL     OW44419   7.637   9.830   9.170
48132SOL    HW144420   7.696   9.790   9.100
48132SOL    HW244421   7.579   9.901   9.129
48133SOL     OW44422   8.817  10.260   9.108
48133SOL    HW144423   8.856  10.349   9.128
48133SOL    HW244424   8.827  10.240   9.011
48134SOL     OW44425   8.263   9.882   7.773
48134SOL    HW144426   8.270   9.793   7.727
48134SOL    HW244427   8.169   9.916   7.765
48135SOL     OW44428   9.105   9.914   8.654
48135SOL    HW144429   9.067   9.845   8.716
48135SOL    HW244430   9.187   9.878   8.610
48136SOL     OW44431   7.700  10.874   9.192
48136SOL    HW144432   7.670  10.931   9.268
48136SOL    HW244433   7.693  10.777   9.218
48137SOL     OW44434   8.119   9.774   8.717
48137SOL    HW144435   8.085   9.685   8.687
48137SOL    HW244436   8.145   9.828   8.637
48138SOL     OW44437   8.378  10.988   8.913
48138SOL    HW144438   8.354  10.970   8.818
48138SOL    HW244439   8.408  11.082   8.923
48139SOL     OW44440   7.921   9.810   7.639
48139SOL    HW144441   7.982   9.890   7.643
48139SOL    HW244442   7.826   9.841   7.646
48140SOL     OW44443   7.607  10.447   8.914
48140SOL    HW144444   7.629  10.386   8.990
48140SOL    HW244445   7.617  10.398   8.828
48141SOL     OW44446   8.795  10.369   8.682
48141SOL    HW144447   8.819  10.306   8.608
48141SOL    HW244448   8.705  10.409   8.664
48142SOL     OW44449   8.750  10.165   7.757
48142SOL    HW144450   8.664  10.134   7.799
48142SOL    HW244451   8.746  10.151   7.658
48143SOL     OW44452   9.207  11.057   8.602
48143SOL    HW144453   9.268  11.087   8.529
48143SOL    HW244454   9.169  10.968   8.580
48144SOL     OW44455   8.700  11.041   8.576
48144SOL    HW144456   8.784  11.046   8.522
48144SOL    HW244457   8.677  10.945   8.594
48145SOL     OW44458   7.531  10.568   8.470
48145SOL    HW144459   7.526  10.567   8.570
48145SOL    HW244460   7.448  10.527   8.432
48146SOL     OW44461   8.136  10.972   9.164
48146SOL    HW144462   8.080  11.053   9.173
48146SOL    HW244463   8.188  10.976   9.078
48147SOL     OW44464   9.174   9.445   7.971
48147SOL    HW144465   9.247   9.428   7.904
48147SOL    HW244466   9.143   9.358   8.009
48148SOL     OW44467   8.836  10.883   7.925
48148SOL    HW144468   8.903  10.895   7.851
48148SOL    HW244469   8.796  10.972   7.948
48149SOL     OW44470   7.578  11.104   9.299
48149SOL    HW144471   7.537  11.030   9.352
48149SOL    HW244472   7.642  11.155   9.357
48150SOL     OW44473   8.728  10.237   8.120
48150SOL    HW144474   8.788  10.156   8.122
48150SOL    HW244475   8.768  10.306   8.060
48151SOL     OW44476   8.278  10.583   8.870
48151SOL    HW144477   8.273  10.616   8.965
48151SOL    HW244478   8.192  10.602   8.824
48152SOL     OW44479   8.120  10.926   7.602
48152SOL    HW144480   8.129  10.936   7.503
48152SOL    HW244481   8.080  10.837   7.623
48153SOL     OW44482   9.098  11.030   8.842
48153SOL    HW144483   9.151  11.040   8.758
48153SOL    HW244484   9.071  11.120   8.876
48154SOL     OW44485   9.289   9.485   8.411
48154SOL    HW144486   9.328   9.400   8.375
48154SOL    HW244487   9.191   9.487   8.392
48155SOL     OW44488   7.711   9.636   8.168
48155SOL    HW144489   7.632   9.687   8.134
48155SOL    HW244490   7.702   9.621   8.266
48156SOL     OW44491   8.642  10.922   7.479
48156SOL    HW144492   8.648  10.829   7.516
48156SOL    HW244493   8.583  10.922   7.399
48157SOL     OW44494   8.270  10.312   8.820
48157SOL    HW144495   8.310  10.311   8.728
48157SOL    HW244496   8.280  10.404   8.860
48158SOL     OW44497   8.364  10.220   7.739
48158SOL    HW144498   8.427  10.258   7.671
48158SOL    HW244499   8.404  10.137   7.778
48159SOL     OW44500   8.952  10.917   7.492
48159SOL    HW144501   8.860  10.954   7.499
48159SOL    HW244502   8.990  10.937   7.402
48160SOL     OW44503   7.820  10.598   8.938
48160SOL    HW144504   7.807  10.691   8.904
48160SOL    HW244505   7.736  10.546   8.925
48161SOL     OW44506   9.062  10.602   8.737
48161SOL    HW144507   9.122  10.605   8.817
48161SOL    HW244508   8.987  10.666   8.750
48162SOL     OW44509   8.487  10.408   8.144
48162SOL    HW144510   8.417  10.361   8.198
48162SOL    HW244511   8.546  10.340   8.101
48163SOL     OW44512   8.462   9.546   8.419
48163SOL    HW144513   8.454   9.510   8.326
48163SOL    HW244514   8.460   9.470   8.484
48164SOL     OW44515   8.038  10.797   7.939
48164SOL    HW144516   8.080  10.739   7.869
48164SOL    HW244517   7.994  10.876   7.895
48165SOL     OW44518   9.157   9.695   8.829
48165SOL    HW144519   9.230   9.764   8.833
48165SOL    HW244520   9.185   9.620   8.770
48166SOL     OW44521   7.703  10.658   7.738
48166SOL    HW144522   7.607  10.659   7.711
48166SOL    HW244523   7.715  10.711   7.822
48167SOL     OW44524   7.553  10.323   9.174
48167SOL    HW144525   7.476  10.290   9.228
48167SOL    HW244526   7.638  10.293   9.216
48168SOL     OW44527   8.120   9.513   8.937
48168SOL    HW144528   8.210   9.497   8.897
48168SOL    HW244529   8.128   9.518   9.036
48169SOL     OW44530   7.523   9.655   7.481
48169SOL    HW144531   7.431   9.627   7.452
48169SOL    HW244532   7.554   9.732   7.425
48170SOL     OW44533   8.888  10.166   8.846
48170SOL    HW144534   8.831  10.218   8.783
48170SOL    HW244535   8.984  10.178   8.822
48171SOL     OW44536   7.520   9.476   7.766
48171SOL    HW144537   7.503   9.559   7.712
48171SOL    HW244538   7.610   9.439   7.744
48172SOL     OW44539   8.631  10.645   7.567
48172SOL    HW144540   8.532  10.634   7.569
48172SOL    HW244541   8.665  10.660   7.660
48173SOL     OW44542   8.061  10.152   8.879
48173SOL    HW144543   8.117  10.233   8.862
48173SOL    HW244544   8.120  10.072   8.882
48174SOL     OW44545   8.941  11.077   8.407
48174SOL    HW144546   8.974  11.141   8.338
48174SOL    HW244547   9.007  11.071   8.482
48175SOL     OW44548   8.164   9.875   9.156
48175SOL    HW144549   8.183   9.940   9.230
48175SOL    HW244550   8.224   9.795   9.165
48176SOL     OW44551   8.898  10.530   9.081
48176SOL    HW144552   8.889  10.520   9.180
48176SOL    HW244553   8.994  10.523   9.055
48177SOL     OW44554   7.838  11.051   9.008
48177SOL    HW144555   7.747  11.092   9.006
48177SOL    HW244556   7.831  10.957   9.040
48178SOL     OW44557   9.122  10.193   8.702
48178SOL    HW144558   9.095  10.104   8.665
48178SOL    HW244559   9.123  10.261   8.629
48179SOL     OW44560   8.673   9.635   7.897
48179SOL    HW144561   8.738   9.561   7.886
48179SOL    HW244562   8.693   9.685   7.981
48180SOL     OW44563   8.042  10.055   8.100
48180SOL    HW144564   8.092  10.140   8.081
48180SOL    HW244565   7.954  10.057   8.052
48181SOL     OW44566   9.225   9.652   9.090
48181SOL    HW144567   9.208   9.683   8.996
48181SOL    HW244568   9.141   9.615   9.128
48182SOL     OW44569   9.178  10.244   8.965
48182SOL    HW144570   9.216  10.335   8.980
48182SOL    HW244571   9.170  10.227   8.866
48183SOL     OW44572   8.307  10.684   7.464
48183SOL    HW144573   8.261  10.699   7.552
48183SOL    HW244574   8.351  10.769   7.434
48184SOL     OW44575   8.109  11.100   8.401
48184SOL    HW144576   8.063  11.188   8.388
48184SOL    HW244577   8.208  11.112   8.394
48185SOL     OW44578   8.307  10.266   8.309
48185SOL    HW144579   8.361  10.197   8.357
48185SOL    HW244580   8.275  10.335   8.375
48186SOL     OW44581   8.531  10.294   7.535
48186SOL    HW144582   8.508  10.347   7.453
48186SOL    HW244583   8.612  10.238   7.516
48187SOL     OW44584   9.309  10.879   8.299
48187SOL    HW144585   9.238  10.867   8.229
48187SOL    HW244586   9.310  10.800   8.359
48188SOL     OW44587   7.669  10.624   9.292
48188SOL    HW144588   7.604  10.551   9.271
48188SOL    HW244589   7.673  10.638   9.390
48189SOL     OW44590   7.527  10.550   8.101
48189SOL    HW144591   7.526  10.503   8.189
48189SOL    HW244592   7.609  10.522   8.050
48190SOL     OW44593   8.120  10.701   9.072
48190SOL    HW144594   8.042  10.651   9.110
48190SOL    HW244595   8.117  10.796   9.103
48191SOL     OW44596   9.272   9.502   8.675
48191SOL    HW144597   9.268   9.412   8.719
48191SOL    HW244598   9.275   9.491   8.576
48192SOL     OW44599   7.876   9.734   7.968
48192SOL    HW144600   7.906   9.662   7.906
48192SOL    HW244601   7.837   9.694   8.051
48193SOL     OW44602   9.153  10.797   8.552
48193SOL    HW144603   9.060  10.772   8.525
48193SOL    HW244604   9.179  10.747   8.634
48194SOL     OW44605   7.765   9.857   8.728
48194SOL    HW144606   7.803   9.798   8.800
48194SOL    HW244607   7.805   9.831   8.640
48195SOL     OW44608   8.260  10.896   8.135
48195SOL    HW144609   8.292  10.906   8.041
48195SOL    HW244610   8.181  10.834   8.137
48196SOL     OW44611   8.872   9.524   8.560
48196SOL    HW144612   8.924   9.459   8.615
48196SOL    HW244613   8.823   9.587   8.621
48197SOL     OW44614   8.449   9.344   8.602
48197SOL    HW144615   8.386   9.272   8.571
48197SOL    HW244616   8.542   9.308   8.602
48198SOL     OW44617   8.218  10.640   7.749
48198SOL    HW144618   8.172  10.553   7.766
48198SOL    HW244619   8.309  10.637   7.790
48199SOL     OW44620   8.066  10.877   8.732
48199SOL    HW144621   8.061  10.959   8.789
48199SOL    HW244622   8.155  10.874   8.687
48200SOL     OW44623   8.800   9.362   7.616
48200SOL    HW144624   8.835   9.321   7.532
48200SOL    HW244625   8.710   9.324   7.636
48201SOL     OW44626   8.748   9.763   8.139
48201SOL    HW144627   8.689   9.843   8.143
48201SOL    HW244628   8.763   9.728   8.232
48202SOL     OW44629   9.041   9.531   8.330
48202SOL    HW144630   8.957   9.530   8.384
48202SOL    HW244631   9.043   9.614   8.274
48203SOL     OW44632   7.487  10.387   7.748
48203SOL    HW144633   7.586  10.376   7.739
48203SOL    HW244634   7.447  10.301   7.780
48204SOL     OW44635   8.323  10.956   7.785
48204SOL    HW144636   8.246  10.921   7.731
48204SOL    HW244637   8.291  11.027   7.847
48205SOL     OW44638   7.678   9.938   9.423
48205SOL    HW144639   7.585   9.936   9.460
48205SOL    HW244640   7.679   9.899   9.331
48206SOL     OW44641   7.673   9.585  10.306
48206SOL    HW144642   7.708   9.568  10.398
48206SOL    HW244643   7.585   9.540  10.294
48207SOL     OW44644   7.467   9.678   9.957
48207SOL    HW144645   7.385   9.721   9.996
48207SOL    HW244646   7.439   9.605   9.894
48208SOL     OW44647   8.017  10.585  10.475
48208SOL    HW144648   7.924  10.578  10.438
48208SOL    HW244649   8.028  10.674  10.519
48209SOL     OW44650   9.003  10.821  10.013
48209SOL    HW144651   8.946  10.805  10.094
48209SOL    HW244652   8.944  10.831   9.933
48210SOL     OW44653   8.583  10.013  10.027
48210SOL    HW144654   8.640  10.091  10.002
48210SOL    HW244655   8.523  10.039  10.103
48211SOL     OW44656   9.203   9.917   9.541
48211SOL    HW144657   9.191   9.904   9.442
48211SOL    HW244658   9.173   9.836   9.590
48212SOL     OW44659   8.216  10.454  10.333
48212SOL    HW144660   8.138  10.471  10.393
48212SOL    HW244661   8.250  10.541  10.297
48213SOL     OW44662   8.298  10.108  11.133
48213SOL    HW144663   8.294  10.184  11.198
48213SOL    HW244664   8.320  10.144  11.042
48214SOL     OW44665   8.133  10.322   9.975
48214SOL    HW144666   8.202  10.306  10.045
48214SOL    HW244667   8.060  10.379  10.013
48215SOL     OW44668   8.134  10.471  11.113
48215SOL    HW144669   8.194  10.550  11.127
48215SOL    HW244670   8.048  10.502  11.072
48216SOL     OW44671   7.783  10.745  10.371
48216SOL    HW144672   7.705  10.714  10.318
48216SOL    HW244673   7.841  10.803  10.314
48217SOL     OW44674   8.908  10.815  10.649
48217SOL    HW144675   8.932  10.909  10.675
48217SOL    HW244676   8.892  10.761  10.731
48218SOL     OW44677   7.886   9.702  10.809
48218SOL    HW144678   7.968   9.646  10.818
48218SOL    HW244679   7.805   9.644  10.813
48219SOL     OW44680   9.051   9.757  10.047
48219SOL    HW144681   8.977   9.803   9.997
48219SOL    HW244682   9.102   9.825  10.100
48220SOL     OW44683   7.679  11.023   9.793
48220SOL    HW144684   7.713  11.100   9.847
48220SOL    HW244685   7.723  11.023   9.703
48221SOL     OW44686   8.575  10.651  11.000
48221SOL    HW144687   8.622  10.651  11.088
48221SOL    HW244688   8.527  10.564  10.989
48222SOL     OW44689   7.678  10.744   9.848
48222SOL    HW144690   7.652  10.840   9.848
48222SOL    HW244691   7.607  10.690   9.893
48223SOL     OW44692   7.688  10.401  10.196
48223SOL    HW144693   7.702  10.317  10.248
48223SOL    HW244694   7.633  10.465  10.251
48224SOL     OW44695   8.068  11.096  10.749
48224SOL    HW144696   7.976  11.079  10.784
48224SOL    HW244697   8.096  11.188  10.775
48225SOL     OW44698   8.054  10.274   9.433
48225SOL    HW144699   8.061  10.358   9.379
48225SOL    HW244700   8.100  10.287   9.521
48226SOL     OW44701   9.042   9.424  10.790
48226SOL    HW144702   9.024   9.491  10.718
48226SOL    HW244703   9.039   9.470  10.879
48227SOL     OW44704   7.570   9.953   9.873
48227SOL    HW144705   7.525   9.865   9.890
48227SOL    HW244706   7.569  10.007   9.957
48228SOL     OW44707   9.290  11.077   9.669
48228SOL    HW144708   9.344  11.048   9.749
48228SOL    HW244709   9.320  11.167   9.640
48229SOL     OW44710   7.475  10.906   9.427
48229SOL    HW144711   7.456  10.810   9.448
48229SOL    HW244712   7.442  10.964   9.502
48230SOL     OW44713   9.137  10.232   9.922
48230SOL    HW144714   9.232  10.203   9.930
48230SOL    HW244715   9.129  10.297   9.847
48231SOL     OW44716   9.089  10.418   9.742
48231SOL    HW144717   9.175  10.420   9.690
48231SOL    HW244718   9.103  10.465   9.830
48232SOL     OW44719   7.561  10.047  10.907
48232SOL    HW144720   7.649  10.034  10.952
48232SOL    HW244721   7.548  10.144  10.885
48233SOL     OW44722   8.061  10.675  10.036
48233SOL    HW144723   8.012  10.588  10.045
48233SOL    HW244724   8.038  10.718   9.949
48234SOL     OW44725   8.741  10.538  10.733
48234SOL    HW144726   8.778  10.465  10.675
48234SOL    HW244727   8.793  10.543  10.818
48235SOL     OW44728   8.257   9.314   9.812
48235SOL    HW144729   8.297   9.405   9.803
48235SOL    HW244730   8.157   9.322   9.818
48236SOL     OW44731   7.645  10.286  10.574
48236SOL    HW144732   7.734  10.241  10.560
48236SOL    HW244733   7.572  10.221  10.555
48237SOL     OW44734   8.973  10.309   9.500
48237SOL    HW144735   8.910  10.233   9.513
48237SOL    HW244736   9.021  10.327   9.586
48238SOL     OW44737   8.635  11.102  10.926
48238SOL    HW144738   8.659  11.162  10.850
48238SOL    HW244739   8.642  11.007  10.896
48239SOL     OW44740   7.765   9.561  11.111
48239SOL    HW144741   7.836   9.632  11.117
48239SOL    HW244742   7.677   9.600  11.139
48240SOL     OW44743   8.914  10.727  10.263
48240SOL    HW144744   8.855  10.733  10.343
48240SOL    HW244745   8.899  10.639  10.217
48241SOL     OW44746   9.115  11.024   9.882
48241SOL    HW144747   9.074  11.001   9.794
48241SOL    HW244748   9.097  10.950   9.947
48242SOL     OW44749   8.046  10.039   9.580
48242SOL    HW144750   8.070  10.108   9.512
48242SOL    HW244751   7.968  10.072   9.634
48243SOL     OW44752   8.729   9.655  10.254
48243SOL    HW144753   8.643   9.605  10.241
48243SOL    HW244754   8.791   9.601  10.310
48244SOL     OW44755   9.024  10.972   9.617
48244SOL    HW144756   9.113  11.018   9.620
48244SOL    HW244757   9.003  10.948   9.522
48245SOL     OW44758   8.255   9.915  10.775
48245SOL    HW144759   8.208   9.912  10.864
48245SOL    HW244760   8.204   9.860  10.709
48246SOL     OW44761   8.842   9.779  10.984
48246SOL    HW144762   8.822   9.822  11.072
48246SOL    HW244763   8.920   9.717  10.993
48247SOL     OW44764   8.421  10.200  10.882
48247SOL    HW144765   8.467  10.116  10.853
48247SOL    HW244766   8.365  10.234  10.807
48248SOL     OW44767   8.439   9.720  10.552
48248SOL    HW144768   8.362   9.754  10.606
48248SOL    HW244769   8.405   9.669  10.473
48249SOL     OW44770   8.489  10.011   9.739
48249SOL    HW144771   8.515  10.007   9.835
48249SOL    HW244772   8.404   9.960   9.725
48250SOL     OW44773   7.524  10.121  10.099
48250SOL    HW144774   7.623  10.109  10.108
48250SOL    HW244775   7.500  10.216  10.120
48251SOL     OW44776   7.578  11.131  10.881
48251SOL    HW144777   7.568  11.116  10.980
48251SOL    HW244778   7.492  11.167  10.845
48252SOL     OW44779   8.313   9.658   9.505
48252SOL    HW144780   8.372   9.721   9.456
48252SOL    HW244781   8.332   9.564   9.476
48253SOL     OW44782   9.167   9.895  11.141
48253SOL    HW144783   9.141   9.984  11.105
48253SOL    HW244784   9.165   9.827  11.068
48254SOL     OW44785   8.810  10.454   9.855
48254SOL    HW144786   8.893  10.425   9.807
48254SOL    HW244787   8.761  10.521   9.799
48255SOL     OW44788   7.998   9.506  10.195
48255SOL    HW144789   7.993   9.501  10.295
48255SOL    HW244790   8.000   9.602  10.166
48256SOL     OW44791   8.456  10.766   9.787
48256SOL    HW144792   8.410  10.838   9.735
48256SOL    HW244793   8.452  10.786   9.885
48257SOL     OW44794   7.799  11.111  10.163
48257SOL    HW144795   7.849  11.025  10.169
48257SOL    HW244796   7.864  11.188  10.160
48258SOL     OW44797   9.243  10.376  10.183
48258SOL    HW144798   9.181  10.361  10.107
48258SOL    HW244799   9.191  10.387  10.268
48259SOL     OW44800   8.675  10.860  10.816
48259SOL    HW144801   8.681  10.783  10.880
48259SOL    HW244802   8.623  10.834  10.736
48260SOL     OW44803   7.769  10.253   9.552
48260SOL    HW144804   7.851  10.292   9.510
48260SOL    HW244805   7.742  10.171   9.503
48261SOL     OW44806   8.906  10.045  10.038
48261SOL    HW144807   8.901   9.980  10.113
48261SOL    HW244808   8.986  10.104  10.051
48262SOL     OW44809   7.909  10.576  11.037
48262SOL    HW144810   7.859  10.577  10.951
48262SOL    HW244811   7.846  10.558  11.113
48263SOL     OW44812   8.559  11.086   9.547
48263SOL    HW144813   8.499  11.024   9.597
48263SOL    HW244814   8.590  11.042   9.462
48264SOL     OW44815   7.650   9.595  10.808
48264SOL    HW144816   7.570   9.655  10.795
48264SOL    HW244817   7.640   9.546  10.894
48265SOL     OW44818   9.080  10.687   9.391
48265SOL    HW144819   9.048  10.781   9.381
48265SOL    HW244820   9.004  10.624   9.379
48266SOL     OW44821   7.912  11.053   9.633
48266SOL    HW144822   7.945  11.092   9.719
48266SOL    HW244823   7.988  11.046   9.568
48267SOL     OW44824   8.848   9.417   9.736
48267SOL    HW144825   8.824   9.380   9.646
48267SOL    HW244826   8.947   9.433   9.740
48268SOL     OW44827   7.697  11.095  10.551
48268SOL    HW144828   7.754  11.030  10.601
48268SOL    HW244829   7.681  11.062  10.458
48269SOL     OW44830   8.388  11.008  10.214
48269SOL    HW144831   8.468  10.951  10.235
48269SOL    HW244832   8.339  10.968  10.137
48270SOL     OW44833   7.830  10.010   9.790
48270SOL    HW144834   7.875   9.920   9.787
48270SOL    HW244835   7.736   9.999   9.823
48271SOL     OW44836   8.995   9.532  11.039
48271SOL    HW144837   8.990   9.569  11.131
48271SOL    HW244838   8.923   9.463  11.027
48272SOL     OW44839   8.062   9.432   9.427
48272SOL    HW144840   8.160   9.410   9.434
48272SOL    HW244841   8.031   9.415   9.334
48273SOL     OW44842   8.229   9.574  11.059
48273SOL    HW144843   8.296   9.513  11.102
48273SOL    HW244844   8.156   9.593  11.124
48274SOL     OW44845   8.336  10.824  10.505
48274SOL    HW144846   8.313  10.799  10.411
48274SOL    HW244847   8.397  10.755  10.544
48275SOL     OW44848   8.799   9.900  10.743
48275SOL    HW144849   8.827   9.857  10.828
48275SOL    HW244850   8.824   9.996  10.744
48276SOL     OW44851   8.251  10.712  10.234
48276SOL    HW144852   8.341  10.726  10.192
48276SOL    HW244853   8.180  10.714  10.163
48277SOL     OW44854   8.370   9.813  10.209
48277SOL    HW144855   8.345   9.804  10.113
48277SOL    HW244856   8.418   9.731  10.240
48278SOL     OW44857   7.987   9.374   9.822
48278SOL    HW144858   7.906   9.375   9.880
48278SOL    HW244859   7.990   9.457   9.767
48279SOL     OW44860   8.882  10.498   9.351
48279SOL    HW144861   8.914  10.422   9.408
48279SOL    HW244862   8.790  10.525   9.381
48280SOL     OW44863   7.745   9.345   9.481
48280SOL    HW144864   7.794   9.429   9.460
48280SOL    HW244865   7.807   9.280   9.526
48281SOL     OW44866   8.383   9.546   9.790
48281SOL    HW144867   8.335   9.587   9.712
48281SOL    HW244868   8.482   9.544   9.771
48282SOL     OW44869   8.524   9.993  10.774
48282SOL    HW144870   8.444   9.932  10.777
48282SOL    HW244871   8.605   9.940  10.750
48283SOL     OW44872   8.675  10.880  10.103
48283SOL    HW144873   8.696  10.954  10.038
48283SOL    HW244874   8.743  10.880  10.176
48284SOL     OW44875   7.907  10.462  10.051
48284SOL    HW144876   7.836  10.435  10.116
48284SOL    HW244877   7.881  10.434   9.958
48285SOL     OW44878   8.719  11.107   9.901
48285SOL    HW144879   8.763  11.171   9.837
48285SOL    HW244880   8.669  11.159   9.971
48286SOL     OW44881   8.480   9.859   9.326
48286SOL    HW144882   8.439   9.941   9.287
48286SOL    HW244883   8.544   9.885   9.399
48287SOL     OW44884   7.526   9.866  10.696
48287SOL    HW144885   7.618   9.865  10.655
48287SOL    HW244886   7.520   9.940  10.763
48288SOL     OW44887   8.009   9.532  10.457
48288SOL    HW144888   8.047   9.448  10.494
48288SOL    HW244889   7.921   9.551  10.501
48289SOL     OW44890   8.314   9.764   9.952
48289SOL    HW144891   8.282   9.836   9.890
48289SOL    HW244892   8.338   9.683   9.899
48290SOL     OW44893   8.465   9.349  10.063
48290SOL    HW144894   8.393   9.354   9.994
48290SOL    HW244895   8.441   9.280  10.132
48291SOL     OW44896   8.877  10.483  10.177
48291SOL    HW144897   8.822  10.399  10.170
48291SOL    HW244898   8.903  10.512  10.085
48292SOL     OW44899   8.914   9.900  10.302
48292SOL    HW144900   8.884   9.805  10.309
48292SOL    HW244901   8.987   9.916  10.368
48293SOL     OW44902   9.305  10.143   9.687
48293SOL    HW144903   9.347  10.079   9.751
48293SOL    HW244904   9.267  10.092   9.609
48294SOL     OW44905   7.936  10.695   9.484
48294SOL    HW144906   7.849  10.680   9.531
48294SOL    HW244907   7.919  10.721   9.389
48295SOL     OW44908   9.112  10.590   9.967
48295SOL    HW144909   9.211  10.598   9.981
48295SOL    HW244910   9.067  10.674   9.998
48296SOL     OW44911   8.838   9.885   9.388
48296SOL    HW144912   8.784   9.864   9.469
48296SOL    HW244913   8.929   9.844   9.397
48297SOL     OW44914   7.975   9.566   9.638
48297SOL    HW144915   8.002   9.507   9.563
48297SOL    HW244916   7.975   9.661   9.607
48298SOL     OW44917   9.202  10.533  10.898
48298SOL    HW144918   9.293  10.494  10.885
48298SOL    HW244919   9.210  10.629  10.922
48299SOL     OW44920   8.512  10.657  10.650
48299SOL    HW144921   8.432  10.634  10.705
48299SOL    HW244922   8.595  10.631  10.699
48300SOL     OW44923   9.040  10.939  10.935
48300SOL    HW144924   9.067  10.973  10.845
48300SOL    HW244925   9.119  10.901  10.981
48301SOL     OW44926   8.559  10.505  10.410
48301SOL    HW144927   8.519  10.549  10.491
48301SOL    HW244928   8.518  10.542  10.327
48302SOL     OW44929   9.086  10.409  10.389
48302SOL    HW144930   9.091  10.490  10.448
48302SOL    HW244931   9.000  10.411  10.338
48303SOL     OW44932   8.363   9.399  10.712
48303SOL    HW144933   8.388   9.379  10.617
48303SOL    HW244934   8.435   9.455  10.754
48304SOL     OW44935   8.428  10.426  11.029
48304SOL    HW144936   8.329  10.432  11.039
48304SOL    HW244937   8.451  10.346  10.973
48305SOL     OW44938   8.153  10.360   9.678
48305SOL    HW144939   8.139  10.367   9.777
48305SOL    HW244940   8.237  10.309   9.660
48306SOL     OW44941   7.858  10.123  10.561
48306SOL    HW144942   7.944  10.135  10.611
48306SOL    HW244943   7.816  10.036  10.588
48307SOL     OW44944   8.722   9.696  10.572
48307SOL    HW144945   8.743   9.770  10.636
48307SOL    HW244946   8.633   9.713  10.529
48308SOL     OW44947   7.512  10.874  10.641
48308SOL    HW144948   7.466  10.956  10.607
48308SOL    HW244949   7.610  10.893  10.650
48309SOL     OW44950   7.815  10.410   9.811
48309SOL    HW144951   7.808  10.493   9.755
48309SOL    HW244952   7.819  10.330   9.751
48310SOL     OW44953   8.014   9.847  10.175
48310SOL    HW144954   8.026   9.913  10.101
48310SOL    HW244955   8.060   9.881  10.258
48311SOL     OW44956   8.700  10.658   9.698
48311SOL    HW144957   8.750  10.735   9.738
48311SOL    HW244958   8.605  10.660   9.730
48312SOL     OW44959   8.720  10.755  10.452
48312SOL    HW144960   8.767  10.768  10.539
48312SOL    HW244961   8.654  10.681  10.461
48313SOL     OW44962   9.030   9.949   9.782
48313SOL    HW144963   8.999  10.010   9.855
48313SOL    HW244964   9.080  10.001   9.713
48314SOL     OW44965   7.802  10.820  10.639
48314SOL    HW144966   7.781  10.776  10.552
48314SOL    HW244967   7.899  10.846  10.642
48315SOL     OW44968   7.850  10.061  10.908
48315SOL    HW144969   7.918  10.116  10.861
48315SOL    HW244970   7.890   9.973  10.935
48316SOL     OW44971   9.035  10.089  10.980
48316SOL    HW144972   8.943  10.127  10.975
48316SOL    HW244973   9.095  10.136  10.915
48317SOL     OW44974   8.461   9.415  11.080
48317SOL    HW144975   8.467   9.500  11.028
48317SOL    HW244976   8.493   9.339  11.023
48318SOL     OW44977   7.952   9.360  11.050
48318SOL    HW144978   7.910   9.303  10.980
48318SOL    HW244979   7.886   9.429  11.082
48319SOL     OW44980   8.021  10.180  10.339
48319SOL    HW144981   8.065  10.269  10.330
48319SOL    HW244982   7.958  10.180  10.416
48320SOL     OW44983   8.808  10.172  10.355
48320SOL    HW144984   8.733  10.172  10.289
48320SOL    HW244985   8.845  10.080  10.364
48321SOL     OW44986   8.657   9.835   9.585
48321SOL    HW144987   8.670   9.751   9.639
48321SOL    HW244988   8.628   9.909   9.645
48322SOL     OW44989   7.755   9.523  10.541
48322SOL    HW144990   7.732   9.560  10.631
48322SOL    HW244991   7.725   9.428  10.535
48323SOL     OW44992   7.485  10.620  10.592
48323SOL    HW144993   7.538  10.571  10.660
48323SOL    HW244994   7.507  10.718  10.597
48324SOL     OW44995   8.180   9.944  10.374
48324SOL    HW144996   8.239   9.918  10.298
48324SOL    HW244997   8.152  10.040  10.363
48325SOL     OW44998   9.176  10.245  11.164
48325SOL    HW144999   9.130  10.238  11.075
48325SOL    HW245000   9.114  10.289  11.230
48326SOL     OW45001   7.755   9.373   9.928
48326SOL    HW145002   7.744   9.467   9.961
48326SOL    HW245003   7.750   9.310  10.005
48327SOL     OW45004   9.070   9.677   9.684
48327SOL    HW145005   9.072   9.601   9.748
48327SOL    HW245006   9.022   9.754   9.724
48328SOL     OW45007   8.471  10.076  10.276
48328SOL    HW145008   8.486  10.097  10.372
48328SOL    HW245009   8.441   9.981  10.267
48329SOL     OW45010   8.428  10.883  11.010
48329SOL    HW145011   8.408  10.927  10.922
48329SOL    HW245012   8.467  10.792  10.994
48330SOL     OW45013   9.307  10.828  10.915
48330SOL    HW145014   9.321  10.855  10.820
48330SOL    HW245015   9.390  10.850  10.968
48331SOL     OW45016   7.798  10.208  11.114
48331SOL    HW145017   7.874  10.252  11.162
48331SOL    HW245018   7.833  10.161  11.032
48332SOL     OW45019   8.988   9.584   9.435
48332SOL    HW145020   8.927   9.509   9.458
48332SOL    HW245021   9.010   9.636   9.518
48333SOL     OW45022   8.751  10.148   9.352
48333SOL    HW145023   8.785  10.055   9.367
48333SOL    HW245024   8.769  10.175   9.257
48334SOL     OW45025   8.516  10.643  10.159
48334SOL    HW145026   8.523  10.559  10.104
48334SOL    HW245027   8.578  10.712  10.123
48335SOL     OW45028   7.767  10.120  10.259
48335SOL    HW145029   7.860  10.156  10.264
48335SOL    HW245030   7.761  10.035  10.311
48336SOL     OW45031   7.787   9.819  10.316
48336SOL    HW145032   7.735   9.736  10.299
48336SOL    HW245033   7.864   9.824  10.252
48337SOL     OW45034   8.586   9.690  10.988
48337SOL    HW145035   8.541   9.753  11.052
48337SOL    HW245036   8.679   9.721  10.971
48338SOL     OW45037   8.608   9.517  10.787
48338SOL    HW145038   8.608   9.581  10.864
48338SOL    HW245039   8.636   9.565  10.704
48339SOL     OW45040   7.456  10.636   9.510
48339SOL    HW145041   7.363  10.657   9.479
48339SOL    HW245042   7.466  10.537   9.523
48340SOL     OW45043   7.536  11.111  10.237
48340SOL    HW145044   7.494  11.025  10.210
48340SOL    HW245045   7.630  11.114  10.203
48341SOL     OW45046   7.952  10.878  10.220
48341SOL    HW145047   8.018  10.952  10.229
48341SOL    HW245048   7.996  10.799  10.178
48342SOL     OW45049   8.450  10.106  10.548
48342SOL    HW145050   8.491  10.074  10.634
48342SOL    HW245051   8.354  10.079  10.545
48343SOL     OW45052   7.488   9.854  10.424
48343SOL    HW145053   7.573   9.821  10.383
48343SOL    HW245054   7.501   9.869  10.522
48344SOL     OW45055   7.637   9.830  11.032
48344SOL    HW145056   7.696   9.790  10.962
48344SOL    HW245057   7.579   9.901  10.991
48345SOL     OW45058   8.817  10.260  10.970
48345SOL    HW145059   8.856  10.349  10.990
48345SOL    HW245060   8.827  10.240  10.873
48346SOL     OW45061   8.263   9.882   9.635
48346SOL    HW145062   8.270   9.793   9.589
48346SOL    HW245063   8.169   9.916   9.627
48347SOL     OW45064   9.105   9.914  10.516
48347SOL    HW145065   9.067   9.845  10.578
48347SOL    HW245066   9.187   9.878  10.472
48348SOL     OW45067   7.700  10.874  11.054
48348SOL    HW145068   7.670  10.931  11.130
48348SOL    HW245069   7.693  10.777  11.080
48349SOL     OW45070   8.119   9.774  10.579
48349SOL    HW145071   8.085   9.685  10.549
48349SOL    HW245072   8.145   9.828  10.499
48350SOL     OW45073   8.378  10.988  10.775
48350SOL    HW145074   8.354  10.970  10.680
48350SOL    HW245075   8.408  11.082  10.785
48351SOL     OW45076   7.921   9.810   9.501
48351SOL    HW145077   7.982   9.890   9.505
48351SOL    HW245078   7.826   9.841   9.508
48352SOL     OW45079   7.607  10.447  10.776
48352SOL    HW145080   7.629  10.386  10.852
48352SOL    HW245081   7.617  10.398  10.690
48353SOL     OW45082   8.795  10.369  10.544
48353SOL    HW145083   8.819  10.306  10.470
48353SOL    HW245084   8.705  10.409  10.526
48354SOL     OW45085   8.750  10.165   9.619
48354SOL    HW145086   8.664  10.134   9.661
48354SOL    HW245087   8.746  10.151   9.520
48355SOL     OW45088   9.207  11.057  10.464
48355SOL    HW145089   9.268  11.087  10.391
48355SOL    HW245090   9.169  10.968  10.442
48356SOL     OW45091   8.700  11.041  10.438
48356SOL    HW145092   8.784  11.046  10.384
48356SOL    HW245093   8.677  10.945  10.456
48357SOL     OW45094   7.531  10.568  10.332
48357SOL    HW145095   7.526  10.567  10.432
48357SOL    HW245096   7.448  10.527  10.294
48358SOL     OW45097   8.136  10.972  11.026
48358SOL    HW145098   8.080  11.053  11.035
48358SOL    HW245099   8.188  10.976  10.940
48359SOL     OW45100   9.174   9.445   9.833
48359SOL    HW145101   9.247   9.428   9.766
48359SOL    HW245102   9.143   9.358   9.871
48360SOL     OW45103   8.836  10.883   9.787
48360SOL    HW145104   8.903  10.895   9.713
48360SOL    HW245105   8.796  10.972   9.810
48361SOL     OW45106   7.578  11.104  11.161
48361SOL    HW145107   7.537  11.030  11.214
48361SOL    HW245108   7.642  11.155  11.219
48362SOL     OW45109   8.728  10.237   9.982
48362SOL    HW145110   8.788  10.156   9.984
48362SOL    HW245111   8.768  10.306   9.922
48363SOL     OW45112   8.278  10.583  10.732
48363SOL    HW145113   8.273  10.616  10.827
48363SOL    HW245114   8.192  10.602  10.686
48364SOL     OW45115   8.120  10.926   9.464
48364SOL    HW145116   8.129  10.936   9.365
48364SOL    HW245117   8.080  10.837   9.485
48365SOL     OW45118   9.098  11.030  10.704
48365SOL    HW145119   9.151  11.040  10.620
48365SOL    HW245120   9.071  11.120  10.738
48366SOL     OW45121   9.289   9.485  10.273
48366SOL    HW145122   9.328   9.400  10.237
48366SOL    HW245123   9.191   9.487  10.254
48367SOL     OW45124   7.711   9.636  10.030
48367SOL    HW145125   7.632   9.687   9.996
48367SOL    HW245126   7.702   9.621  10.128
48368SOL     OW45127   8.642  10.922   9.341
48368SOL    HW145128   8.648  10.829   9.378
48368SOL    HW245129   8.583  10.922   9.261
48369SOL     OW45130   8.270  10.312  10.682
48369SOL    HW145131   8.310  10.311  10.590
48369SOL    HW245132   8.280  10.404  10.722
48370SOL     OW45133   8.364  10.220   9.601
48370SOL    HW145134   8.427  10.258   9.533
48370SOL    HW245135   8.404  10.137   9.640
48371SOL     OW45136   8.952  10.917   9.354
48371SOL    HW145137   8.860  10.954   9.361
48371SOL    HW245138   8.990  10.937   9.264
48372SOL     OW45139   7.820  10.598  10.800
48372SOL    HW145140   7.807  10.691  10.766
48372SOL    HW245141   7.736  10.546  10.787
48373SOL     OW45142   9.062  10.602  10.599
48373SOL    HW145143   9.122  10.605  10.679
48373SOL    HW245144   8.987  10.666  10.612
48374SOL     OW45145   8.487  10.408  10.006
48374SOL    HW145146   8.417  10.361  10.060
48374SOL    HW245147   8.546  10.340   9.963
48375SOL     OW45148   8.462   9.546  10.281
48375SOL    HW145149   8.454   9.510  10.188
48375SOL    HW245150   8.460   9.470  10.346
48376SOL     OW45151   8.038  10.797   9.801
48376SOL    HW145152   8.080  10.739   9.731
48376SOL    HW245153   7.994  10.876   9.757
48377SOL     OW45154   9.157   9.695  10.691
48377SOL    HW145155   9.230   9.764  10.695
48377SOL    HW245156   9.185   9.620  10.632
48378SOL     OW45157   7.703  10.658   9.600
48378SOL    HW145158   7.607  10.659   9.573
48378SOL    HW245159   7.715  10.711   9.684
48379SOL     OW45160   7.553  10.323  11.036
48379SOL    HW145161   7.476  10.290  11.090
48379SOL    HW245162   7.638  10.293  11.078
48380SOL     OW45163   8.120   9.513  10.799
48380SOL    HW145164   8.210   9.497  10.759
48380SOL    HW245165   8.128   9.518  10.898
48381SOL     OW45166   7.523   9.655   9.343
48381SOL    HW145167   7.431   9.627   9.314
48381SOL    HW245168   7.554   9.732   9.287
48382SOL     OW45169   8.888  10.166  10.708
48382SOL    HW145170   8.831  10.218  10.645
48382SOL    HW245171   8.984  10.178  10.684
48383SOL     OW45172   7.520   9.476   9.628
48383SOL    HW145173   7.503   9.559   9.574
48383SOL    HW245174   7.610   9.439   9.606
48384SOL     OW45175   8.631  10.645   9.429
48384SOL    HW145176   8.532  10.634   9.431
48384SOL    HW245177   8.665  10.660   9.522
48385SOL     OW45178   8.061  10.152  10.741
48385SOL    HW145179   8.117  10.233  10.724
48385SOL    HW245180   8.120  10.072  10.744
48386SOL     OW45181   8.941  11.077  10.269
48386SOL    HW145182   8.974  11.141  10.200
48386SOL    HW245183   9.007  11.071  10.344
48387SOL     OW45184   8.898  10.530  10.943
48387SOL    HW145185   8.889  10.520  11.042
48387SOL    HW245186   8.994  10.523  10.917
48388SOL     OW45187   7.838  11.051  10.870
48388SOL    HW145188   7.747  11.092  10.868
48388SOL    HW245189   7.831  10.957  10.902
48389SOL     OW45190   9.122  10.193  10.564
48389SOL    HW145191   9.095  10.104  10.527
48389SOL    HW245192   9.123  10.261  10.491
48390SOL     OW45193   8.673   9.635   9.759
48390SOL    HW145194   8.738   9.561   9.748
48390SOL    HW245195   8.693   9.685   9.843
48391SOL     OW45196   8.042  10.055   9.962
48391SOL    HW145197   8.092  10.140   9.943
48391SOL    HW245198   7.954  10.057   9.914
48392SOL     OW45199   9.225   9.652  10.952
48392SOL    HW145200   9.208   9.683  10.858
48392SOL    HW245201   9.141   9.615  10.990
48393SOL     OW45202   9.178  10.244  10.827
48393SOL    HW145203   9.216  10.335  10.842
48393SOL    HW245204   9.170  10.227  10.728
48394SOL     OW45205   8.307  10.684   9.326
48394SOL    HW145206   8.261  10.699   9.414
48394SOL    HW245207   8.351  10.769   9.296
48395SOL     OW45208   8.109  11.100  10.263
48395SOL    HW145209   8.063  11.188  10.250
48395SOL    HW245210   8.208  11.112  10.256
48396SOL     OW45211   8.307  10.266  10.171
48396SOL    HW145212   8.361  10.197  10.219
48396SOL    HW245213   8.275  10.335  10.237
48397SOL     OW45214   8.531  10.294   9.397
48397SOL    HW145215   8.508  10.347   9.315
48397SOL    HW245216   8.612  10.238   9.378
48398SOL     OW45217   9.309  10.879  10.161
48398SOL    HW145218   9.238  10.867  10.091
48398SOL    HW245219   9.310  10.800  10.221
48399SOL     OW45220   7.669  10.624  11.154
48399SOL    HW145221   7.604  10.551  11.133
48399SOL    HW245222   7.673  10.638  11.252
48400SOL     OW45223   7.527  10.550   9.963
48400SOL    HW145224   7.526  10.503  10.051
48400SOL    HW245225   7.609  10.522   9.912
48401SOL     OW45226   8.120  10.701  10.934
48401SOL    HW145227   8.042  10.651  10.972
48401SOL    HW245228   8.117  10.796  10.965
48402SOL     OW45229   9.272   9.502  10.537
48402SOL    HW145230   9.268   9.412  10.581
48402SOL    HW245231   9.275   9.491  10.438
48403SOL     OW45232   7.876   9.734   9.830
48403SOL    HW145233   7.906   9.662   9.768
48403SOL    HW245234   7.837   9.694   9.913
48404SOL     OW45235   9.153  10.797  10.414
48404SOL    HW145236   9.060  10.772  10.387
48404SOL    HW245237   9.179  10.747  10.496
48405SOL     OW45238   7.765   9.857  10.590
48405SOL    HW145239   7.803   9.798  10.662
48405SOL    HW245240   7.805   9.831  10.502
48406SOL     OW45241   8.260  10.896   9.997
48406SOL    HW145242   8.292  10.906   9.903
48406SOL    HW245243   8.181  10.834   9.999
48407SOL     OW45244   8.872   9.524  10.422
48407SOL    HW145245   8.924   9.459  10.477
48407SOL    HW245246   8.823   9.587  10.483
48408SOL     OW45247   8.449   9.344  10.464
48408SOL    HW145248   8.386   9.272  10.433
48408SOL    HW245249   8.542   9.308  10.464
48409SOL     OW45250   8.218  10.640   9.611
48409SOL    HW145251   8.172  10.553   9.628
48409SOL    HW245252   8.309  10.637   9.652
48410SOL     OW45253   8.066  10.877  10.594
48410SOL    HW145254   8.061  10.959  10.651
48410SOL    HW245255   8.155  10.874  10.549
48411SOL     OW45256   8.800   9.362   9.478
48411SOL    HW145257   8.835   9.321   9.394
48411SOL    HW245258   8.710   9.324   9.498
48412SOL     OW45259   8.748   9.763  10.001
48412SOL    HW145260   8.689   9.843  10.005
48412SOL    HW245261   8.763   9.728  10.094
48413SOL     OW45262   9.041   9.531  10.192
48413SOL    HW145263   8.957   9.530  10.246
48413SOL    HW245264   9.043   9.614  10.136
48414SOL     OW45265   7.487  10.387   9.610
48414SOL    HW145266   7.586  10.376   9.601
48414SOL    HW245267   7.447  10.301   9.642
48415SOL     OW45268   8.323  10.956   9.647
48415SOL    HW145269   8.246  10.921   9.593
48415SOL    HW245270   8.291  11.027   9.709
48416SOL     OW45271   7.678   9.938  11.285
48416SOL    HW145272   7.585   9.936  11.322
48416SOL    HW245273   7.679   9.899  11.193
48417SOL     OW45274   7.673   9.585  12.168
48417SOL    HW145275   7.708   9.568  12.260
48417SOL    HW245276   7.585   9.540  12.156
48418SOL     OW45277   7.467   9.678  11.819
48418SOL    HW145278   7.385   9.721  11.858
48418SOL    HW245279   7.439   9.605  11.756
48419SOL     OW45280   8.017  10.585  12.337
48419SOL    HW145281   7.924  10.578  12.300
48419SOL    HW245282   8.028  10.674  12.381
48420SOL     OW45283   9.003  10.821  11.875
48420SOL    HW145284   8.946  10.805  11.956
48420SOL    HW245285   8.944  10.831  11.795
48421SOL     OW45286   8.583  10.013  11.889
48421SOL    HW145287   8.640  10.091  11.864
48421SOL    HW245288   8.523  10.039  11.965
48422SOL     OW45289   9.203   9.917  11.403
48422SOL    HW145290   9.191   9.904  11.304
48422SOL    HW245291   9.173   9.836  11.452
48423SOL     OW45292   8.216  10.454  12.195
48423SOL    HW145293   8.138  10.471  12.255
48423SOL    HW245294   8.250  10.541  12.159
48424SOL     OW45295   8.133  10.322  11.837
48424SOL    HW145296   8.202  10.306  11.907
48424SOL    HW245297   8.060  10.379  11.875
48425SOL     OW45298   7.783  10.745  12.233
48425SOL    HW145299   7.705  10.714  12.180
48425SOL    HW245300   7.841  10.803  12.176
48426SOL     OW45301   8.908  10.815  12.511
48426SOL    HW145302   8.932  10.909  12.537
48426SOL    HW245303   8.892  10.761  12.593
48427SOL     OW45304   7.886   9.702  12.671
48427SOL    HW145305   7.968   9.646  12.680
48427SOL    HW245306   7.805   9.644  12.675
48428SOL     OW45307   9.051   9.757  11.909
48428SOL    HW145308   8.977   9.803  11.859
48428SOL    HW245309   9.102   9.825  11.962
48429SOL     OW45310   7.679  11.023  11.655
48429SOL    HW145311   7.713  11.100  11.709
48429SOL    HW245312   7.723  11.023  11.565
48430SOL     OW45313   7.678  10.744  11.710
48430SOL    HW145314   7.652  10.840  11.710
48430SOL    HW245315   7.607  10.690  11.755
48431SOL     OW45316   7.688  10.401  12.058
48431SOL    HW145317   7.702  10.317  12.110
48431SOL    HW245318   7.633  10.465  12.113
48432SOL     OW45319   8.068  11.096  12.611
48432SOL    HW145320   7.976  11.079  12.646
48432SOL    HW245321   8.096  11.188  12.637
48433SOL     OW45322   8.054  10.274  11.295
48433SOL    HW145323   8.061  10.358  11.241
48433SOL    HW245324   8.100  10.287  11.383
48434SOL     OW45325   9.042   9.424  12.652
48434SOL    HW145326   9.024   9.491  12.580
48434SOL    HW245327   9.039   9.470  12.741
48435SOL     OW45328   7.570   9.953  11.735
48435SOL    HW145329   7.525   9.865  11.752
48435SOL    HW245330   7.569  10.007  11.819
48436SOL     OW45331   9.290  11.077  11.531
48436SOL    HW145332   9.344  11.048  11.611
48436SOL    HW245333   9.320  11.167  11.502
48437SOL     OW45334   7.475  10.906  11.289
48437SOL    HW145335   7.456  10.810  11.310
48437SOL    HW245336   7.442  10.964  11.364
48438SOL     OW45337   9.137  10.232  11.784
48438SOL    HW145338   9.232  10.203  11.792
48438SOL    HW245339   9.129  10.297  11.709
48439SOL     OW45340   9.089  10.418  11.604
48439SOL    HW145341   9.175  10.420  11.552
48439SOL    HW245342   9.103  10.465  11.692
48440SOL     OW45343   7.561  10.047  12.769
48440SOL    HW145344   7.649  10.034  12.814
48440SOL    HW245345   7.548  10.144  12.747
48441SOL     OW45346   8.061  10.675  11.898
48441SOL    HW145347   8.012  10.588  11.907
48441SOL    HW245348   8.038  10.718  11.811
48442SOL     OW45349   8.741  10.538  12.595
48442SOL    HW145350   8.778  10.465  12.537
48442SOL    HW245351   8.793  10.543  12.680
48443SOL     OW45352   8.257   9.314  11.674
48443SOL    HW145353   8.297   9.405  11.665
48443SOL    HW245354   8.157   9.322  11.680
48444SOL     OW45355   7.645  10.286  12.436
48444SOL    HW145356   7.734  10.241  12.422
48444SOL    HW245357   7.572  10.221  12.417
48445SOL     OW45358   8.973  10.309  11.362
48445SOL    HW145359   8.910  10.233  11.375
48445SOL    HW245360   9.021  10.327  11.448
48446SOL     OW45361   8.914  10.727  12.125
48446SOL    HW145362   8.855  10.733  12.205
48446SOL    HW245363   8.899  10.639  12.079
48447SOL     OW45364   9.115  11.024  11.744
48447SOL    HW145365   9.074  11.001  11.656
48447SOL    HW245366   9.097  10.950  11.809
48448SOL     OW45367   8.046  10.039  11.442
48448SOL    HW145368   8.070  10.108  11.374
48448SOL    HW245369   7.968  10.072  11.496
48449SOL     OW45370   8.729   9.655  12.116
48449SOL    HW145371   8.643   9.605  12.103
48449SOL    HW245372   8.791   9.601  12.172
48450SOL     OW45373   9.024  10.972  11.479
48450SOL    HW145374   9.113  11.018  11.482
48450SOL    HW245375   9.003  10.948  11.384
48451SOL     OW45376   8.255   9.915  12.637
48451SOL    HW145377   8.208   9.912  12.726
48451SOL    HW245378   8.204   9.860  12.571
48452SOL     OW45379   8.421  10.200  12.744
48452SOL    HW145380   8.467  10.116  12.715
48452SOL    HW245381   8.365  10.234  12.669
48453SOL     OW45382   8.439   9.720  12.414
48453SOL    HW145383   8.362   9.754  12.468
48453SOL    HW245384   8.405   9.669  12.335
48454SOL     OW45385   8.489  10.011  11.601
48454SOL    HW145386   8.515  10.007  11.697
48454SOL    HW245387   8.404   9.960  11.587
48455SOL     OW45388   7.524  10.121  11.961
48455SOL    HW145389   7.623  10.109  11.970
48455SOL    HW245390   7.500  10.216  11.982
48456SOL     OW45391   7.578  11.131  12.743
48456SOL    HW145392   7.568  11.116  12.842
48456SOL    HW245393   7.492  11.167  12.707
48457SOL     OW45394   8.313   9.658  11.367
48457SOL    HW145395   8.372   9.721  11.318
48457SOL    HW245396   8.332   9.564  11.338
48458SOL     OW45397   8.810  10.454  11.717
48458SOL    HW145398   8.893  10.425  11.669
48458SOL    HW245399   8.761  10.521  11.661
48459SOL     OW45400   7.998   9.506  12.057
48459SOL    HW145401   7.993   9.501  12.157
48459SOL    HW245402   8.000   9.602  12.028
48460SOL     OW45403   8.456  10.766  11.649
48460SOL    HW145404   8.410  10.838  11.597
48460SOL    HW245405   8.452  10.786  11.747
48461SOL     OW45406   7.799  11.111  12.025
48461SOL    HW145407   7.849  11.025  12.031
48461SOL    HW245408   7.864  11.188  12.022
48462SOL     OW45409   9.243  10.376  12.045
48462SOL    HW145410   9.181  10.361  11.969
48462SOL    HW245411   9.191  10.387  12.130
48463SOL     OW45412   8.675  10.860  12.678
48463SOL    HW145413   8.681  10.783  12.742
48463SOL    HW245414   8.623  10.834  12.598
48464SOL     OW45415   7.769  10.253  11.414
48464SOL    HW145416   7.851  10.292  11.372
48464SOL    HW245417   7.742  10.171  11.365
48465SOL     OW45418   8.906  10.045  11.900
48465SOL    HW145419   8.901   9.980  11.975
48465SOL    HW245420   8.986  10.104  11.913
48466SOL     OW45421   8.559  11.086  11.409
48466SOL    HW145422   8.499  11.024  11.459
48466SOL    HW245423   8.590  11.042  11.324
48467SOL     OW45424   7.650   9.595  12.670
48467SOL    HW145425   7.570   9.655  12.657
48467SOL    HW245426   7.640   9.546  12.756
48468SOL     OW45427   9.080  10.687  11.253
48468SOL    HW145428   9.048  10.781  11.243
48468SOL    HW245429   9.004  10.624  11.241
48469SOL     OW45430   7.912  11.053  11.495
48469SOL    HW145431   7.945  11.092  11.581
48469SOL    HW245432   7.988  11.046  11.430
48470SOL     OW45433   8.848   9.417  11.598
48470SOL    HW145434   8.824   9.380  11.508
48470SOL    HW245435   8.947   9.433  11.602
48471SOL     OW45436   7.697  11.095  12.413
48471SOL    HW145437   7.754  11.030  12.463
48471SOL    HW245438   7.681  11.062  12.320
48472SOL     OW45439   8.388  11.008  12.076
48472SOL    HW145440   8.468  10.951  12.097
48472SOL    HW245441   8.339  10.968  11.999
48473SOL     OW45442   7.830  10.010  11.652
48473SOL    HW145443   7.875   9.920  11.649
48473SOL    HW245444   7.736   9.999  11.685
48474SOL     OW45445   8.062   9.432  11.289
48474SOL    HW145446   8.160   9.410  11.296
48474SOL    HW245447   8.031   9.415  11.196
48475SOL     OW45448   8.336  10.824  12.367
48475SOL    HW145449   8.313  10.799  12.273
48475SOL    HW245450   8.397  10.755  12.406
48476SOL     OW45451   8.799   9.900  12.605
48476SOL    HW145452   8.827   9.857  12.690
48476SOL    HW245453   8.824   9.996  12.606
48477SOL     OW45454   8.251  10.712  12.096
48477SOL    HW145455   8.341  10.726  12.054
48477SOL    HW245456   8.180  10.714  12.025
48478SOL     OW45457   8.370   9.813  12.071
48478SOL    HW145458   8.345   9.804  11.975
48478SOL    HW245459   8.418   9.731  12.102
48479SOL     OW45460   8.882  10.498  11.213
48479SOL    HW145461   8.914  10.422  11.270
48479SOL    HW245462   8.790  10.525  11.243
48480SOL     OW45463   7.745   9.345  11.343
48480SOL    HW145464   7.794   9.429  11.322
48480SOL    HW245465   7.807   9.280  11.388
48481SOL     OW45466   8.383   9.546  11.652
48481SOL    HW145467   8.335   9.587  11.574
48481SOL    HW245468   8.482   9.544  11.633
48482SOL     OW45469   8.524   9.993  12.636
48482SOL    HW145470   8.444   9.932  12.639
48482SOL    HW245471   8.605   9.940  12.612
48483SOL     OW45472   8.675  10.880  11.965
48483SOL    HW145473   8.696  10.954  11.900
48483SOL    HW245474   8.743  10.880  12.038
48484SOL     OW45475   7.907  10.462  11.913
48484SOL    HW145476   7.836  10.435  11.978
48484SOL    HW245477   7.881  10.434  11.820
48485SOL     OW45478   8.719  11.107  11.763
48485SOL    HW145479   8.763  11.171  11.699
48485SOL    HW245480   8.669  11.159  11.833
48486SOL     OW45481   8.480   9.859  11.188
48486SOL    HW145482   8.439   9.941  11.149
48486SOL    HW245483   8.544   9.885  11.261
48487SOL     OW45484   7.526   9.866  12.558
48487SOL    HW145485   7.618   9.865  12.517
48487SOL    HW245486   7.520   9.940  12.625
48488SOL     OW45487   8.009   9.532  12.319
48488SOL    HW145488   8.047   9.448  12.356
48488SOL    HW245489   7.921   9.551  12.363
48489SOL     OW45490   8.314   9.764  11.814
48489SOL    HW145491   8.282   9.836  11.752
48489SOL    HW245492   8.338   9.683  11.761
48490SOL     OW45493   8.465   9.349  11.925
48490SOL    HW145494   8.393   9.354  11.856
48490SOL    HW245495   8.441   9.280  11.994
48491SOL     OW45496   8.877  10.483  12.039
48491SOL    HW145497   8.822  10.399  12.032
48491SOL    HW245498   8.903  10.512  11.947
48492SOL     OW45499   8.914   9.900  12.164
48492SOL    HW145500   8.884   9.805  12.171
48492SOL    HW245501   8.987   9.916  12.230
48493SOL     OW45502   9.305  10.143  11.549
48493SOL    HW145503   9.347  10.079  11.613
48493SOL    HW245504   9.267  10.092  11.471
48494SOL     OW45505   7.936  10.695  11.346
48494SOL    HW145506   7.849  10.680  11.393
48494SOL    HW245507   7.919  10.721  11.251
48495SOL     OW45508   9.112  10.590  11.829
48495SOL    HW145509   9.211  10.598  11.843
48495SOL    HW245510   9.067  10.674  11.860
48496SOL     OW45511   8.838   9.885  11.250
48496SOL    HW145512   8.784   9.864  11.331
48496SOL    HW245513   8.929   9.844  11.259
48497SOL     OW45514   7.975   9.566  11.500
48497SOL    HW145515   8.002   9.507  11.425
48497SOL    HW245516   7.975   9.661  11.469
48498SOL     OW45517   9.202  10.533  12.760
48498SOL    HW145518   9.293  10.494  12.747
48498SOL    HW245519   9.210  10.629  12.784
48499SOL     OW45520   8.512  10.657  12.512
48499SOL    HW145521   8.432  10.634  12.567
48499SOL    HW245522   8.595  10.631  12.561
48500SOL     OW45523   8.559  10.505  12.272
48500SOL    HW145524   8.519  10.549  12.353
48500SOL    HW245525   8.518  10.542  12.189
48501SOL     OW45526   9.086  10.409  12.251
48501SOL    HW145527   9.091  10.490  12.310
48501SOL    HW245528   9.000  10.411  12.200
48502SOL     OW45529   8.363   9.399  12.574
48502SOL    HW145530   8.388   9.379  12.479
48502SOL    HW245531   8.435   9.455  12.616
48503SOL     OW45532   8.153  10.360  11.540
48503SOL    HW145533   8.139  10.367  11.639
48503SOL    HW245534   8.237  10.309  11.522
48504SOL     OW45535   7.858  10.123  12.423
48504SOL    HW145536   7.944  10.135  12.473
48504SOL    HW245537   7.816  10.036  12.450
48505SOL     OW45538   8.722   9.696  12.434
48505SOL    HW145539   8.743   9.770  12.498
48505SOL    HW245540   8.633   9.713  12.391
48506SOL     OW45541   7.512  10.874  12.503
48506SOL    HW145542   7.466  10.956  12.469
48506SOL    HW245543   7.610  10.893  12.512
48507SOL     OW45544   7.815  10.410  11.673
48507SOL    HW145545   7.808  10.493  11.617
48507SOL    HW245546   7.819  10.330  11.613
48508SOL     OW45547   8.014   9.847  12.037
48508SOL    HW145548   8.026   9.913  11.963
48508SOL    HW245549   8.060   9.881  12.120
48509SOL     OW45550   8.700  10.658  11.560
48509SOL    HW145551   8.750  10.735  11.600
48509SOL    HW245552   8.605  10.660  11.592
48510SOL     OW45553   8.720  10.755  12.314
48510SOL    HW145554   8.767  10.768  12.401
48510SOL    HW245555   8.654  10.681  12.323
48511SOL     OW45556   9.030   9.949  11.644
48511SOL    HW145557   8.999  10.010  11.717
48511SOL    HW245558   9.080  10.001  11.575
48512SOL     OW45559   7.802  10.820  12.501
48512SOL    HW145560   7.781  10.776  12.414
48512SOL    HW245561   7.899  10.846  12.504
48513SOL     OW45562   7.850  10.061  12.770
48513SOL    HW145563   7.918  10.116  12.723
48513SOL    HW245564   7.890   9.973  12.797
48514SOL     OW45565   9.035  10.089  12.842
48514SOL    HW145566   8.943  10.127  12.837
48514SOL    HW245567   9.095  10.136  12.777
48515SOL     OW45568   8.021  10.180  12.201
48515SOL    HW145569   8.065  10.269  12.192
48515SOL    HW245570   7.958  10.180  12.278
48516SOL     OW45571   8.808  10.172  12.217
48516SOL    HW145572   8.733  10.172  12.151
48516SOL    HW245573   8.845  10.080  12.226
48517SOL     OW45574   8.657   9.835  11.447
48517SOL    HW145575   8.670   9.751  11.501
48517SOL    HW245576   8.628   9.909  11.507
48518SOL     OW45577   7.755   9.523  12.403
48518SOL    HW145578   7.732   9.560  12.493
48518SOL    HW245579   7.725   9.428  12.397
48519SOL     OW45580   7.485  10.620  12.454
48519SOL    HW145581   7.538  10.571  12.522
48519SOL    HW245582   7.507  10.718  12.459
48520SOL     OW45583   8.180   9.944  12.236
48520SOL    HW145584   8.239   9.918  12.160
48520SOL    HW245585   8.152  10.040  12.225
48521SOL     OW45586   7.755   9.373  11.790
48521SOL    HW145587   7.744   9.467  11.823
48521SOL    HW245588   7.750   9.310  11.867
48522SOL     OW45589   9.070   9.677  11.546
48522SOL    HW145590   9.072   9.601  11.610
48522SOL    HW245591   9.022   9.754  11.586
48523SOL     OW45592   8.471  10.076  12.138
48523SOL    HW145593   8.486  10.097  12.234
48523SOL    HW245594   8.441   9.981  12.129
48524SOL     OW45595   8.988   9.584  11.297
48524SOL    HW145596   8.927   9.509  11.320
48524SOL    HW245597   9.010   9.636  11.380
48525SOL     OW45598   8.751  10.148  11.214
48525SOL    HW145599   8.785  10.055  11.229
48525SOL    HW245600   8.769  10.175  11.119
48526SOL     OW45601   8.516  10.643  12.021
48526SOL    HW145602   8.523  10.559  11.966
48526SOL    HW245603   8.578  10.712  11.985
48527SOL     OW45604   7.767  10.120  12.121
48527SOL    HW145605   7.860  10.156  12.126
48527SOL    HW245606   7.761  10.035  12.173
48528SOL     OW45607   7.787   9.819  12.178
48528SOL    HW145608   7.735   9.736  12.161
48528SOL    HW245609   7.864   9.824  12.114
48529SOL     OW45610   8.608   9.517  12.649
48529SOL    HW145611   8.608   9.581  12.726
48529SOL    HW245612   8.636   9.565  12.566
48530SOL     OW45613   7.456  10.636  11.372
48530SOL    HW145614   7.363  10.657  11.341
48530SOL    HW245615   7.466  10.537  11.385
48531SOL     OW45616   7.536  11.111  12.099
48531SOL    HW145617   7.494  11.025  12.072
48531SOL    HW245618   7.630  11.114  12.065
48532SOL     OW45619   7.952  10.878  12.082
48532SOL    HW145620   8.018  10.952  12.091
48532SOL    HW245621   7.996  10.799  12.040
48533SOL     OW45622   8.450  10.106  12.410
48533SOL    HW145623   8.491  10.074  12.496
48533SOL    HW245624   8.354  10.079  12.407
48534SOL     OW45625   7.488   9.854  12.286
48534SOL    HW145626   7.573   9.821  12.245
48534SOL    HW245627   7.501   9.869  12.384
48535SOL     OW45628   8.263   9.882  11.497
48535SOL    HW145629   8.270   9.793  11.451
48535SOL    HW245630   8.169   9.916  11.489
48536SOL     OW45631   9.105   9.914  12.378
48536SOL    HW145632   9.067   9.845  12.440
48536SOL    HW245633   9.187   9.878  12.334
48537SOL     OW45634   7.700  10.874  12.916
48537SOL    HW145635   7.670  10.931  12.992
48537SOL    HW245636   7.693  10.777  12.942
48538SOL     OW45637   8.119   9.774  12.441
48538SOL    HW145638   8.085   9.685  12.411
48538SOL    HW245639   8.145   9.828  12.361
48539SOL     OW45640   8.378  10.988  12.637
48539SOL    HW145641   8.354  10.970  12.542
48539SOL    HW245642   8.408  11.082  12.647
48540SOL     OW45643   7.921   9.810  11.363
48540SOL    HW145644   7.982   9.890  11.367
48540SOL    HW245645   7.826   9.841  11.370
48541SOL     OW45646   7.607  10.447  12.638
48541SOL    HW145647   7.629  10.386  12.714
48541SOL    HW245648   7.617  10.398  12.552
48542SOL     OW45649   8.795  10.369  12.406
48542SOL    HW145650   8.819  10.306  12.332
48542SOL    HW245651   8.705  10.409  12.388
48543SOL     OW45652   8.750  10.165  11.481
48543SOL    HW145653   8.664  10.134  11.523
48543SOL    HW245654   8.746  10.151  11.382
48544SOL     OW45655   9.207  11.057  12.326
48544SOL    HW145656   9.268  11.087  12.253
48544SOL    HW245657   9.169  10.968  12.304
48545SOL     OW45658   8.700  11.041  12.300
48545SOL    HW145659   8.784  11.046  12.246
48545SOL    HW245660   8.677  10.945  12.318
48546SOL     OW45661   7.531  10.568  12.194
48546SOL    HW145662   7.526  10.567  12.294
48546SOL    HW245663   7.448  10.527  12.156
48547SOL     OW45664   9.174   9.445  11.695
48547SOL    HW145665   9.247   9.428  11.628
48547SOL    HW245666   9.143   9.358  11.733
48548SOL     OW45667   8.836  10.883  11.649
48548SOL    HW145668   8.903  10.895  11.575
48548SOL    HW245669   8.796  10.972  11.672
48549SOL     OW45670   8.728  10.237  11.844
48549SOL    HW145671   8.788  10.156  11.846
48549SOL    HW245672   8.768  10.306  11.784
48550SOL     OW45673   8.278  10.583  12.594
48550SOL    HW145674   8.273  10.616  12.689
48550SOL    HW245675   8.192  10.602  12.548
48551SOL     OW45676   8.120  10.926  11.326
48551SOL    HW145677   8.129  10.936  11.227
48551SOL    HW245678   8.080  10.837  11.347
48552SOL     OW45679   9.098  11.030  12.566
48552SOL    HW145680   9.151  11.040  12.482
48552SOL    HW245681   9.071  11.120  12.600
48553SOL     OW45682   9.289   9.485  12.135
48553SOL    HW145683   9.328   9.400  12.099
48553SOL    HW245684   9.191   9.487  12.116
48554SOL     OW45685   7.711   9.636  11.892
48554SOL    HW145686   7.632   9.687  11.858
48554SOL    HW245687   7.702   9.621  11.990
48555SOL     OW45688   8.642  10.922  11.203
48555SOL    HW145689   8.648  10.829  11.240
48555SOL    HW245690   8.583  10.922  11.123
48556SOL     OW45691   8.270  10.312  12.544
48556SOL    HW145692   8.310  10.311  12.452
48556SOL    HW245693   8.280  10.404  12.584
48557SOL     OW45694   8.364  10.220  11.463
48557SOL    HW145695   8.427  10.258  11.395
48557SOL    HW245696   8.404  10.137  11.502
48558SOL     OW45697   8.952  10.917  11.216
48558SOL    HW145698   8.860  10.954  11.223
48558SOL    HW245699   8.990  10.937  11.126
48559SOL     OW45700   7.820  10.598  12.662
48559SOL    HW145701   7.807  10.691  12.628
48559SOL    HW245702   7.736  10.546  12.649
48560SOL     OW45703   9.062  10.602  12.461
48560SOL    HW145704   9.122  10.605  12.541
48560SOL    HW245705   8.987  10.666  12.474
48561SOL     OW45706   8.487  10.408  11.868
48561SOL    HW145707   8.417  10.361  11.922
48561SOL    HW245708   8.546  10.340  11.825
48562SOL     OW45709   8.462   9.546  12.143
48562SOL    HW145710   8.454   9.510  12.050
48562SOL    HW245711   8.460   9.470  12.208
48563SOL     OW45712   8.038  10.797  11.663
48563SOL    HW145713   8.080  10.739  11.593
48563SOL    HW245714   7.994  10.876  11.619
48564SOL     OW45715   9.157   9.695  12.553
48564SOL    HW145716   9.230   9.764  12.557
48564SOL    HW245717   9.185   9.620  12.494
48565SOL     OW45718   7.703  10.658  11.462
48565SOL    HW145719   7.607  10.659  11.435
48565SOL    HW245720   7.715  10.711  11.546
48566SOL     OW45721   7.553  10.323  12.898
48566SOL    HW145722   7.476  10.290  12.952
48566SOL    HW245723   7.638  10.293  12.940
48567SOL     OW45724   8.120   9.513  12.661
48567SOL    HW145725   8.210   9.497  12.621
48567SOL    HW245726   8.128   9.518  12.760
48568SOL     OW45727   7.523   9.655  11.205
48568SOL    HW145728   7.431   9.627  11.176
48568SOL    HW245729   7.554   9.732  11.149
48569SOL     OW45730   8.888  10.166  12.570
48569SOL    HW145731   8.831  10.218  12.507
48569SOL    HW245732   8.984  10.178  12.546
48570SOL     OW45733   7.520   9.476  11.490
48570SOL    HW145734   7.503   9.559  11.436
48570SOL    HW245735   7.610   9.439  11.468
48571SOL     OW45736   8.631  10.645  11.291
48571SOL    HW145737   8.532  10.634  11.293
48571SOL    HW245738   8.665  10.660  11.384
48572SOL     OW45739   8.061  10.152  12.603
48572SOL    HW145740   8.117  10.233  12.586
48572SOL    HW245741   8.120  10.072  12.606
48573SOL     OW45742   8.941  11.077  12.131
48573SOL    HW145743   8.974  11.141  12.062
48573SOL    HW245744   9.007  11.071  12.206
48574SOL     OW45745   8.164   9.875  12.880
48574SOL    HW145746   8.183   9.940  12.954
48574SOL    HW245747   8.224   9.795  12.889
48575SOL     OW45748   7.838  11.051  12.732
48575SOL    HW145749   7.747  11.092  12.730
48575SOL    HW245750   7.831  10.957  12.764
48576SOL     OW45751   9.122  10.193  12.426
48576SOL    HW145752   9.095  10.104  12.389
48576SOL    HW245753   9.123  10.261  12.353
48577SOL     OW45754   8.673   9.635  11.621
48577SOL    HW145755   8.738   9.561  11.610
48577SOL    HW245756   8.693   9.685  11.705
48578SOL     OW45757   8.042  10.055  11.824
48578SOL    HW145758   8.092  10.140  11.805
48578SOL    HW245759   7.954  10.057  11.776
48579SOL     OW45760   9.178  10.244  12.689
48579SOL    HW145761   9.216  10.335  12.704
48579SOL    HW245762   9.170  10.227  12.590
48580SOL     OW45763   8.307  10.684  11.188
48580SOL    HW145764   8.261  10.699  11.276
48580SOL    HW245765   8.351  10.769  11.158
48581SOL     OW45766   8.109  11.100  12.125
48581SOL    HW145767   8.063  11.188  12.112
48581SOL    HW245768   8.208  11.112  12.118
48582SOL     OW45769   8.307  10.266  12.033
48582SOL    HW145770   8.361  10.197  12.081
48582SOL    HW245771   8.275  10.335  12.099
48583SOL     OW45772   8.531  10.294  11.259
48583SOL    HW145773   8.508  10.347  11.177
48583SOL    HW245774   8.612  10.238  11.240
48584SOL     OW45775   9.309  10.879  12.023
48584SOL    HW145776   9.238  10.867  11.953
48584SOL    HW245777   9.310  10.800  12.083
48585SOL     OW45778   7.527  10.550  11.825
48585SOL    HW145779   7.526  10.503  11.913
48585SOL    HW245780   7.609  10.522  11.774
48586SOL     OW45781   8.120  10.701  12.796
48586SOL    HW145782   8.042  10.651  12.834
48586SOL    HW245783   8.117  10.796  12.827
48587SOL     OW45784   9.272   9.502  12.399
48587SOL    HW145785   9.268   9.412  12.443
48587SOL    HW245786   9.275   9.491  12.300
48588SOL     OW45787   7.876   9.734  11.692
48588SOL    HW145788   7.906   9.662  11.630
48588SOL    HW245789   7.837   9.694  11.775
48589SOL     OW45790   9.153  10.797  12.276
48589SOL    HW145791   9.060  10.772  12.249
48589SOL    HW245792   9.179  10.747  12.358
48590SOL     OW45793   7.765   9.857  12.452
48590SOL    HW145794   7.803   9.798  12.524
48590SOL    HW245795   7.805   9.831  12.364
48591SOL     OW45796   8.260  10.896  11.859
48591SOL    HW145797   8.292  10.906  11.765
48591SOL    HW245798   8.181  10.834  11.861
48592SOL     OW45799   8.872   9.524  12.284
48592SOL    HW145800   8.924   9.459  12.339
48592SOL    HW245801   8.823   9.587  12.345
48593SOL     OW45802   8.449   9.344  12.326
48593SOL    HW145803   8.386   9.272  12.295
48593SOL    HW245804   8.542   9.308  12.326
48594SOL     OW45805   8.218  10.640  11.473
48594SOL    HW145806   8.172  10.553  11.490
48594SOL    HW245807   8.309  10.637  11.514
48595SOL     OW45808   8.066  10.877  12.456
48595SOL    HW145809   8.061  10.959  12.513
48595SOL    HW245810   8.155  10.874  12.411
48596SOL     OW45811   8.800   9.362  11.340
48596SOL    HW145812   8.835   9.321  11.256
48596SOL    HW245813   8.710   9.324  11.360
48597SOL     OW45814   8.748   9.763  11.863
48597SOL    HW145815   8.689   9.843  11.867
48597SOL    HW245816   8.763   9.728  11.956
48598SOL     OW45817   9.041   9.531  12.054
48598SOL    HW145818   8.957   9.530  12.108
48598SOL    HW245819   9.043   9.614  11.998
48599SOL     OW45820   7.487  10.387  11.472
48599SOL    HW145821   7.586  10.376  11.463
48599SOL    HW245822   7.447  10.301  11.504
48600SOL     OW45823   8.323  10.956  11.509
48600SOL    HW145824   8.246  10.921  11.455
48600SOL    HW245825   8.291  11.027  11.571
48601SOL     OW45826   7.678  11.800   0.113
48601SOL    HW145827   7.585  11.798   0.150
48601SOL    HW245828   7.679  11.761   0.021
48602SOL     OW45829   7.673  11.447   0.996
48602SOL    HW145830   7.708  11.430   1.088
48602SOL    HW245831   7.585  11.402   0.984
48603SOL     OW45832   7.467  11.540   0.647
48603SOL    HW145833   7.385  11.583   0.686
48603SOL    HW245834   7.439  11.467   0.584
48604SOL     OW45835   8.017  12.447   1.165
48604SOL    HW145836   7.924  12.440   1.128
48604SOL    HW245837   8.028  12.536   1.209
48605SOL     OW45838   9.003  12.683   0.703
48605SOL    HW145839   8.946  12.667   0.784
48605SOL    HW245840   8.944  12.693   0.623
48606SOL     OW45841   8.583  11.875   0.717
48606SOL    HW145842   8.640  11.953   0.692
48606SOL    HW245843   8.523  11.901   0.793
48607SOL     OW45844   9.203  11.779   0.231
48607SOL    HW145845   9.191  11.766   0.132
48607SOL    HW245846   9.173  11.698   0.280
48608SOL     OW45847   8.216  12.316   1.023
48608SOL    HW145848   8.138  12.333   1.083
48608SOL    HW245849   8.250  12.403   0.987
48609SOL     OW45850   8.298  11.970   1.823
48609SOL    HW145851   8.294  12.046   1.888
48609SOL    HW245852   8.320  12.006   1.732
48610SOL     OW45853   8.133  12.184   0.665
48610SOL    HW145854   8.202  12.168   0.735
48610SOL    HW245855   8.060  12.241   0.703
48611SOL     OW45856   8.134  12.333   1.803
48611SOL    HW145857   8.194  12.412   1.817
48611SOL    HW245858   8.048  12.364   1.762
48612SOL     OW45859   7.783  12.607   1.061
48612SOL    HW145860   7.705  12.576   1.008
48612SOL    HW245861   7.841  12.665   1.004
48613SOL     OW45862   8.908  12.677   1.339
48613SOL    HW145863   8.932  12.771   1.365
48613SOL    HW245864   8.892  12.623   1.421
48614SOL     OW45865   7.886  11.564   1.499
48614SOL    HW145866   7.968  11.508   1.508
48614SOL    HW245867   7.805  11.506   1.503
48615SOL     OW45868   9.051  11.619   0.737
48615SOL    HW145869   8.977  11.665   0.687
48615SOL    HW245870   9.102  11.687   0.790
48616SOL     OW45871   8.575  12.513   1.690
48616SOL    HW145872   8.622  12.513   1.778
48616SOL    HW245873   8.527  12.426   1.679
48617SOL     OW45874   7.678  12.606   0.538
48617SOL    HW145875   7.652  12.702   0.538
48617SOL    HW245876   7.607  12.552   0.583
48618SOL     OW45877   7.688  12.263   0.886
48618SOL    HW145878   7.702  12.179   0.938
48618SOL    HW245879   7.633  12.327   0.941
48619SOL     OW45880   8.054  12.136   0.123
48619SOL    HW145881   8.061  12.220   0.069
48619SOL    HW245882   8.100  12.149   0.211
48620SOL     OW45883   9.042  11.286   1.480
48620SOL    HW145884   9.024  11.353   1.408
48620SOL    HW245885   9.039  11.332   1.569
48621SOL     OW45886   7.570  11.815   0.563
48621SOL    HW145887   7.525  11.727   0.580
48621SOL    HW245888   7.569  11.869   0.647
48622SOL     OW45889   7.475  12.768   0.117
48622SOL    HW145890   7.456  12.672   0.138
48622SOL    HW245891   7.442  12.826   0.192
48623SOL     OW45892   9.137  12.094   0.612
48623SOL    HW145893   9.232  12.065   0.620
48623SOL    HW245894   9.129  12.159   0.537
48624SOL     OW45895   9.089  12.280   0.432
48624SOL    HW145896   9.175  12.282   0.380
48624SOL    HW245897   9.103  12.327   0.520
48625SOL     OW45898   7.561  11.909   1.597
48625SOL    HW145899   7.649  11.896   1.642
48625SOL    HW245900   7.548  12.006   1.575
48626SOL     OW45901   8.061  12.537   0.726
48626SOL    HW145902   8.012  12.450   0.735
48626SOL    HW245903   8.038  12.580   0.639
48627SOL     OW45904   8.741  12.400   1.423
48627SOL    HW145905   8.778  12.327   1.365
48627SOL    HW245906   8.793  12.405   1.508
48628SOL     OW45907   8.257  11.176   0.502
48628SOL    HW145908   8.297  11.267   0.493
48628SOL    HW245909   8.157  11.184   0.508
48629SOL     OW45910   7.645  12.148   1.264
48629SOL    HW145911   7.734  12.103   1.250
48629SOL    HW245912   7.572  12.083   1.245
48630SOL     OW45913   8.973  12.171   0.190
48630SOL    HW145914   8.910  12.095   0.203
48630SOL    HW245915   9.021  12.189   0.276
48631SOL     OW45916   7.765  11.423   1.801
48631SOL    HW145917   7.836  11.494   1.807
48631SOL    HW245918   7.677  11.462   1.829
48632SOL     OW45919   8.914  12.589   0.953
48632SOL    HW145920   8.855  12.595   1.033
48632SOL    HW245921   8.899  12.501   0.907
48633SOL     OW45922   8.046  11.901   0.270
48633SOL    HW145923   8.070  11.970   0.202
48633SOL    HW245924   7.968  11.934   0.324
48634SOL     OW45925   8.729  11.517   0.944
48634SOL    HW145926   8.643  11.467   0.931
48634SOL    HW245927   8.791  11.463   1.000
48635SOL     OW45928   9.024  12.834   0.307
48635SOL    HW145929   9.113  12.880   0.310
48635SOL    HW245930   9.003  12.810   0.212
48636SOL     OW45931   8.255  11.777   1.465
48636SOL    HW145932   8.208  11.774   1.554
48636SOL    HW245933   8.204  11.722   1.399
48637SOL     OW45934   8.842  11.641   1.674
48637SOL    HW145935   8.822  11.684   1.762
48637SOL    HW245936   8.920  11.579   1.683
48638SOL     OW45937   8.421  12.062   1.572
48638SOL    HW145938   8.467  11.978   1.543
48638SOL    HW245939   8.365  12.096   1.497
48639SOL     OW45940   8.439  11.582   1.242
48639SOL    HW145941   8.362  11.616   1.296
48639SOL    HW245942   8.405  11.531   1.163
48640SOL     OW45943   8.489  11.873   0.429
48640SOL    HW145944   8.515  11.869   0.525
48640SOL    HW245945   8.404  11.822   0.415
48641SOL     OW45946   7.524  11.983   0.789
48641SOL    HW145947   7.623  11.971   0.798
48641SOL    HW245948   7.500  12.078   0.810
48642SOL     OW45949   8.313  11.520   0.195
48642SOL    HW145950   8.372  11.583   0.146
48642SOL    HW245951   8.332  11.426   0.166
48643SOL     OW45952   9.167  11.757   1.831
48643SOL    HW145953   9.141  11.846   1.795
48643SOL    HW245954   9.165  11.689   1.758
48644SOL     OW45955   8.810  12.316   0.545
48644SOL    HW145956   8.893  12.287   0.497
48644SOL    HW245957   8.761  12.383   0.489
48645SOL     OW45958   7.998  11.368   0.885
48645SOL    HW145959   7.993  11.363   0.985
48645SOL    HW245960   8.000  11.464   0.856
48646SOL     OW45961   8.456  12.628   0.477
48646SOL    HW145962   8.410  12.700   0.425
48646SOL    HW245963   8.452  12.648   0.575
48647SOL     OW45964   9.243  12.238   0.873
48647SOL    HW145965   9.181  12.223   0.797
48647SOL    HW245966   9.191  12.249   0.958
48648SOL     OW45967   8.675  12.722   1.506
48648SOL    HW145968   8.681  12.645   1.570
48648SOL    HW245969   8.623  12.696   1.426
48649SOL     OW45970   7.769  12.115   0.242
48649SOL    HW145971   7.851  12.154   0.200
48649SOL    HW245972   7.742  12.033   0.193
48650SOL     OW45973   8.906  11.907   0.728
48650SOL    HW145974   8.901  11.842   0.803
48650SOL    HW245975   8.986  11.966   0.741
48651SOL     OW45976   7.909  12.438   1.727
48651SOL    HW145977   7.859  12.439   1.641
48651SOL    HW245978   7.846  12.420   1.803
48652SOL     OW45979   7.650  11.457   1.498
48652SOL    HW145980   7.570  11.517   1.485
48652SOL    HW245981   7.640  11.408   1.584
48653SOL     OW45982   9.080  12.549   0.081
48653SOL    HW145983   9.048  12.643   0.071
48653SOL    HW245984   9.004  12.486   0.069
48654SOL     OW45985   8.848  11.279   0.426
48654SOL    HW145986   8.824  11.242   0.336
48654SOL    HW245987   8.947  11.295   0.430
48655SOL     OW45988   7.830  11.872   0.480
48655SOL    HW145989   7.875  11.782   0.477
48655SOL    HW245990   7.736  11.861   0.513
48656SOL     OW45991   8.995  11.394   1.729
48656SOL    HW145992   8.990  11.431   1.821
48656SOL    HW245993   8.923  11.325   1.717
48657SOL     OW45994   8.062  11.294   0.117
48657SOL    HW145995   8.160  11.272   0.124
48657SOL    HW245996   8.031  11.277   0.024
48658SOL     OW45997   8.229  11.436   1.749
48658SOL    HW145998   8.296  11.375   1.792
48658SOL    HW245999   8.156  11.455   1.814
48659SOL     OW46000   8.799  11.762   1.433
48659SOL    HW146001   8.827  11.719   1.518
48659SOL    HW246002   8.824  11.858   1.434
48660SOL     OW46003   8.251  12.574   0.924
48660SOL    HW146004   8.341  12.588   0.882
48660SOL    HW246005   8.180  12.576   0.853
48661SOL     OW46006   8.370  11.675   0.899
48661SOL    HW146007   8.345  11.666   0.803
48661SOL    HW246008   8.418  11.593   0.930
48662SOL     OW46009   7.987  11.236   0.512
48662SOL    HW146010   7.906  11.237   0.570
48662SOL    HW246011   7.990  11.319   0.457
48663SOL     OW46012   8.882  12.360   0.041
48663SOL    HW146013   8.914  12.284   0.098
48663SOL    HW246014   8.790  12.387   0.071
48664SOL     OW46015   7.745  11.207   0.171
48664SOL    HW146016   7.794  11.291   0.150
48664SOL    HW246017   7.807  11.142   0.216
48665SOL     OW46018   8.383  11.408   0.480
48665SOL    HW146019   8.335  11.449   0.402
48665SOL    HW246020   8.482  11.406   0.461
48666SOL     OW46021   8.524  11.855   1.464
48666SOL    HW146022   8.444  11.794   1.467
48666SOL    HW246023   8.605  11.802   1.440
48667SOL     OW46024   8.675  12.742   0.793
48667SOL    HW146025   8.696  12.816   0.728
48667SOL    HW246026   8.743  12.742   0.866
48668SOL     OW46027   7.907  12.324   0.741
48668SOL    HW146028   7.836  12.297   0.806
48668SOL    HW246029   7.881  12.296   0.648
48669SOL     OW46030   8.480  11.721   0.016
48669SOL    HW146031   8.439  11.803  -0.023
48669SOL    HW246032   8.544  11.747   0.089
48670SOL     OW46033   7.526  11.728   1.386
48670SOL    HW146034   7.618  11.727   1.345
48670SOL    HW246035   7.520  11.802   1.453
48671SOL     OW46036   8.009  11.394   1.147
48671SOL    HW146037   8.047  11.310   1.184
48671SOL    HW246038   7.921  11.413   1.191
48672SOL     OW46039   8.314  11.626   0.642
48672SOL    HW146040   8.282  11.698   0.580
48672SOL    HW246041   8.338  11.545   0.589
48673SOL     OW46042   8.465  11.211   0.753
48673SOL    HW146043   8.393  11.216   0.684
48673SOL    HW246044   8.441  11.142   0.822
48674SOL     OW46045   8.877  12.345   0.867
48674SOL    HW146046   8.822  12.261   0.860
48674SOL    HW246047   8.903  12.374   0.775
48675SOL     OW46048   8.914  11.762   0.992
48675SOL    HW146049   8.884  11.667   0.999
48675SOL    HW246050   8.987  11.778   1.058
48676SOL     OW46051   9.305  12.005   0.377
48676SOL    HW146052   9.347  11.941   0.441
48676SOL    HW246053   9.267  11.954   0.299
48677SOL     OW46054   7.936  12.557   0.174
48677SOL    HW146055   7.849  12.542   0.221
48677SOL    HW246056   7.919  12.583   0.079
48678SOL     OW46057   9.112  12.452   0.657
48678SOL    HW146058   9.211  12.460   0.671
48678SOL    HW246059   9.067  12.536   0.688
48679SOL     OW46060   8.838  11.747   0.078
48679SOL    HW146061   8.784  11.726   0.159
48679SOL    HW246062   8.929  11.706   0.087
48680SOL     OW46063   7.975  11.428   0.328
48680SOL    HW146064   8.002  11.369   0.253
48680SOL    HW246065   7.975  11.523   0.297
48681SOL     OW46066   9.202  12.395   1.588
48681SOL    HW146067   9.293  12.356   1.575
48681SOL    HW246068   9.210  12.491   1.612
48682SOL     OW46069   8.512  12.519   1.340
48682SOL    HW146070   8.432  12.496   1.395
48682SOL    HW246071   8.595  12.493   1.389
48683SOL     OW46072   8.559  12.367   1.100
48683SOL    HW146073   8.519  12.411   1.181
48683SOL    HW246074   8.518  12.404   1.017
48684SOL     OW46075   9.086  12.271   1.079
48684SOL    HW146076   9.091  12.352   1.138
48684SOL    HW246077   9.000  12.273   1.028
48685SOL     OW46078   8.363  11.261   1.402
48685SOL    HW146079   8.388  11.241   1.307
48685SOL    HW246080   8.435  11.317   1.444
48686SOL     OW46081   8.428  12.288   1.719
48686SOL    HW146082   8.329  12.294   1.729
48686SOL    HW246083   8.451  12.208   1.663
48687SOL     OW46084   8.153  12.222   0.368
48687SOL    HW146085   8.139  12.229   0.467
48687SOL    HW246086   8.237  12.171   0.350
48688SOL     OW46087   7.858  11.985   1.251
48688SOL    HW146088   7.944  11.997   1.301
48688SOL    HW246089   7.816  11.898   1.278
48689SOL     OW46090   8.722  11.558   1.262
48689SOL    HW146091   8.743  11.632   1.326
48689SOL    HW246092   8.633  11.575   1.219
48690SOL     OW46093   7.512  12.736   1.331
48690SOL    HW146094   7.466  12.818   1.297
48690SOL    HW246095   7.610  12.755   1.340
48691SOL     OW46096   7.815  12.272   0.501
48691SOL    HW146097   7.808  12.355   0.445
48691SOL    HW246098   7.819  12.192   0.441
48692SOL     OW46099   8.014  11.709   0.865
48692SOL    HW146100   8.026  11.775   0.791
48692SOL    HW246101   8.060  11.743   0.948
48693SOL     OW46102   8.700  12.520   0.388
48693SOL    HW146103   8.750  12.597   0.428
48693SOL    HW246104   8.605  12.522   0.420
48694SOL     OW46105   8.720  12.617   1.142
48694SOL    HW146106   8.767  12.630   1.229
48694SOL    HW246107   8.654  12.543   1.151
48695SOL     OW46108   9.030  11.811   0.472
48695SOL    HW146109   8.999  11.872   0.545
48695SOL    HW246110   9.080  11.863   0.403
48696SOL     OW46111   7.802  12.682   1.329
48696SOL    HW146112   7.781  12.638   1.242
48696SOL    HW246113   7.899  12.708   1.332
48697SOL     OW46114   7.850  11.923   1.598
48697SOL    HW146115   7.918  11.978   1.551
48697SOL    HW246116   7.890  11.835   1.625
48698SOL     OW46117   9.035  11.951   1.670
48698SOL    HW146118   8.943  11.989   1.665
48698SOL    HW246119   9.095  11.998   1.605
48699SOL     OW46120   8.461  11.277   1.770
48699SOL    HW146121   8.467  11.362   1.718
48699SOL    HW246122   8.493  11.201   1.713
48700SOL     OW46123   7.952  11.222   1.740
48700SOL    HW146124   7.910  11.165   1.670
48700SOL    HW246125   7.886  11.291   1.772
48701SOL     OW46126   8.021  12.042   1.029
48701SOL    HW146127   8.065  12.131   1.020
48701SOL    HW246128   7.958  12.042   1.106
48702SOL     OW46129   8.808  12.034   1.045
48702SOL    HW146130   8.733  12.034   0.979
48702SOL    HW246131   8.845  11.942   1.054
48703SOL     OW46132   8.657  11.697   0.275
48703SOL    HW146133   8.670  11.613   0.329
48703SOL    HW246134   8.628  11.771   0.335
48704SOL     OW46135   7.755  11.385   1.231
48704SOL    HW146136   7.732  11.422   1.321
48704SOL    HW246137   7.725  11.290   1.225
48705SOL     OW46138   7.485  12.482   1.282
48705SOL    HW146139   7.538  12.433   1.350
48705SOL    HW246140   7.507  12.580   1.287
48706SOL     OW46141   8.180  11.806   1.064
48706SOL    HW146142   8.239  11.780   0.988
48706SOL    HW246143   8.152  11.902   1.053
48707SOL     OW46144   9.176  12.107   1.854
48707SOL    HW146145   9.130  12.100   1.765
48707SOL    HW246146   9.114  12.151   1.920
48708SOL     OW46147   7.755  11.235   0.618
48708SOL    HW146148   7.744  11.329   0.651
48708SOL    HW246149   7.750  11.172   0.695
48709SOL     OW46150   9.070  11.539   0.374
48709SOL    HW146151   9.072  11.463   0.438
48709SOL    HW246152   9.022  11.616   0.414
48710SOL     OW46153   8.471  11.938   0.966
48710SOL    HW146154   8.486  11.959   1.062
48710SOL    HW246155   8.441  11.843   0.957
48711SOL     OW46156   9.307  12.690   1.605
48711SOL    HW146157   9.321  12.717   1.510
48711SOL    HW246158   9.390  12.712   1.658
48712SOL     OW46159   7.798  12.070   1.804
48712SOL    HW146160   7.874  12.114   1.852
48712SOL    HW246161   7.833  12.023   1.722
48713SOL     OW46162   8.988  11.446   0.125
48713SOL    HW146163   8.927  11.371   0.148
48713SOL    HW246164   9.010  11.498   0.208
48714SOL     OW46165   8.751  12.010   0.042
48714SOL    HW146166   8.785  11.917   0.057
48714SOL    HW246167   8.769  12.037  -0.053
48715SOL     OW46168   8.516  12.505   0.849
48715SOL    HW146169   8.523  12.421   0.794
48715SOL    HW246170   8.578  12.574   0.813
48716SOL     OW46171   7.767  11.982   0.949
48716SOL    HW146172   7.860  12.018   0.954
48716SOL    HW246173   7.761  11.897   1.001
48717SOL     OW46174   7.787  11.681   1.006
48717SOL    HW146175   7.735  11.598   0.989
48717SOL    HW246176   7.864  11.686   0.942
48718SOL     OW46177   8.586  11.552   1.678
48718SOL    HW146178   8.541  11.615   1.742
48718SOL    HW246179   8.679  11.583   1.661
48719SOL     OW46180   8.608  11.379   1.477
48719SOL    HW146181   8.608  11.443   1.554
48719SOL    HW246182   8.636  11.427   1.394
48720SOL     OW46183   7.456  12.498   0.200
48720SOL    HW146184   7.363  12.519   0.169
48720SOL    HW246185   7.466  12.399   0.213
48721SOL     OW46186   7.952  12.740   0.910
48721SOL    HW146187   8.018  12.814   0.919
48721SOL    HW246188   7.996  12.661   0.868
48722SOL     OW46189   8.450  11.968   1.238
48722SOL    HW146190   8.491  11.936   1.324
48722SOL    HW246191   8.354  11.941   1.235
48723SOL     OW46192   7.488  11.716   1.114
48723SOL    HW146193   7.573  11.683   1.073
48723SOL    HW246194   7.501  11.731   1.212
48724SOL     OW46195   7.637  11.692   1.722
48724SOL    HW146196   7.696  11.652   1.652
48724SOL    HW246197   7.579  11.763   1.681
48725SOL     OW46198   8.817  12.122   1.660
48725SOL    HW146199   8.856  12.211   1.680
48725SOL    HW246200   8.827  12.102   1.563
48726SOL     OW46201   8.263  11.744   0.325
48726SOL    HW146202   8.270  11.655   0.279
48726SOL    HW246203   8.169  11.778   0.317
48727SOL     OW46204   9.105  11.776   1.206
48727SOL    HW146205   9.067  11.707   1.268
48727SOL    HW246206   9.187  11.740   1.162
48728SOL     OW46207   7.700  12.736   1.744
48728SOL    HW146208   7.670  12.793   1.820
48728SOL    HW246209   7.693  12.639   1.770
48729SOL     OW46210   8.119  11.636   1.269
48729SOL    HW146211   8.085  11.547   1.239
48729SOL    HW246212   8.145  11.690   1.189
48730SOL     OW46213   7.921  11.672   0.191
48730SOL    HW146214   7.982  11.752   0.195
48730SOL    HW246215   7.826  11.703   0.198
48731SOL     OW46216   7.607  12.309   1.466
48731SOL    HW146217   7.629  12.248   1.542
48731SOL    HW246218   7.617  12.260   1.380
48732SOL     OW46219   8.795  12.231   1.234
48732SOL    HW146220   8.819  12.168   1.160
48732SOL    HW246221   8.705  12.271   1.216
48733SOL     OW46222   8.750  12.027   0.309
48733SOL    HW146223   8.664  11.996   0.351
48733SOL    HW246224   8.746  12.013   0.210
48734SOL     OW46225   8.700  12.903   1.128
48734SOL    HW146226   8.784  12.908   1.074
48734SOL    HW246227   8.677  12.807   1.146
48735SOL     OW46228   7.531  12.430   1.022
48735SOL    HW146229   7.526  12.429   1.122
48735SOL    HW246230   7.448  12.389   0.984
48736SOL     OW46231   8.351  11.258   0.133
48736SOL    HW146232   8.402  11.259   0.047
48736SOL    HW246233   8.407  11.216   0.204
48737SOL     OW46234   9.174  11.307   0.523
48737SOL    HW146235   9.247  11.290   0.456
48737SOL    HW246236   9.143  11.220   0.561
48738SOL     OW46237   7.578  12.966   1.851
48738SOL    HW146238   7.537  12.892   1.904
48738SOL    HW246239   7.642  13.017   1.909
48739SOL     OW46240   8.728  12.099   0.672
48739SOL    HW146241   8.788  12.018   0.674
48739SOL    HW246242   8.768  12.168   0.612
48740SOL     OW46243   8.278  12.445   1.422
48740SOL    HW146244   8.273  12.478   1.517
48740SOL    HW246245   8.192  12.464   1.376
48741SOL     OW46246   8.120  12.788   0.154
48741SOL    HW146247   8.129  12.798   0.055
48741SOL    HW246248   8.080  12.699   0.175
48742SOL     OW46249   9.289  11.347   0.963
48742SOL    HW146250   9.328  11.262   0.927
48742SOL    HW246251   9.191  11.349   0.944
48743SOL     OW46252   7.711  11.498   0.720
48743SOL    HW146253   7.632  11.549   0.686
48743SOL    HW246254   7.702  11.483   0.818
48744SOL     OW46255   8.642  12.784   0.031
48744SOL    HW146256   8.648  12.691   0.068
48744SOL    HW246257   8.583  12.784  -0.049
48745SOL     OW46258   8.270  12.174   1.372
48745SOL    HW146259   8.310  12.173   1.280
48745SOL    HW246260   8.280  12.266   1.412
48746SOL     OW46261   8.364  12.082   0.291
48746SOL    HW146262   8.427  12.120   0.223
48746SOL    HW246263   8.404  11.999   0.330
48747SOL     OW46264   7.820  12.460   1.490
48747SOL    HW146265   7.807  12.553   1.456
48747SOL    HW246266   7.736  12.408   1.477
48748SOL     OW46267   9.062  12.464   1.289
48748SOL    HW146268   9.122  12.467   1.369
48748SOL    HW246269   8.987  12.528   1.302
48749SOL     OW46270   8.487  12.270   0.696
48749SOL    HW146271   8.417  12.223   0.750
48749SOL    HW246272   8.546  12.202   0.653
48750SOL     OW46273   8.462  11.408   0.971
48750SOL    HW146274   8.454  11.372   0.878
48750SOL    HW246275   8.460  11.332   1.036
48751SOL     OW46276   8.038  12.659   0.491
48751SOL    HW146277   8.080  12.601   0.421
48751SOL    HW246278   7.994  12.738   0.447
48752SOL     OW46279   9.157  11.557   1.381
48752SOL    HW146280   9.230  11.626   1.385
48752SOL    HW246281   9.185  11.482   1.322
48753SOL     OW46282   7.703  12.520   0.290
48753SOL    HW146283   7.607  12.521   0.263
48753SOL    HW246284   7.715  12.573   0.374
48754SOL     OW46285   7.553  12.185   1.726
48754SOL    HW146286   7.476  12.152   1.780
48754SOL    HW246287   7.638  12.155   1.768
48755SOL     OW46288   8.120  11.375   1.489
48755SOL    HW146289   8.210  11.359   1.449
48755SOL    HW246290   8.128  11.380   1.588
48756SOL     OW46291   8.888  12.028   1.398
48756SOL    HW146292   8.831  12.080   1.335
48756SOL    HW246293   8.984  12.040   1.374
48757SOL     OW46294   7.520  11.338   0.318
48757SOL    HW146295   7.503  11.421   0.264
48757SOL    HW246296   7.610  11.301   0.296
48758SOL     OW46297   8.631  12.507   0.119
48758SOL    HW146298   8.532  12.496   0.121
48758SOL    HW246299   8.665  12.522   0.212
48759SOL     OW46300   8.061  12.014   1.431
48759SOL    HW146301   8.117  12.095   1.414
48759SOL    HW246302   8.120  11.934   1.434
48760SOL     OW46303   8.164  11.737   1.708
48760SOL    HW146304   8.183  11.802   1.782
48760SOL    HW246305   8.224  11.657   1.717
48761SOL     OW46306   8.898  12.392   1.633
48761SOL    HW146307   8.889  12.382   1.732
48761SOL    HW246308   8.994  12.385   1.607
48762SOL     OW46309   9.122  12.055   1.254
48762SOL    HW146310   9.095  11.966   1.217
48762SOL    HW246311   9.123  12.123   1.181
48763SOL     OW46312   8.673  11.497   0.449
48763SOL    HW146313   8.738  11.423   0.438
48763SOL    HW246314   8.693  11.547   0.533
48764SOL     OW46315   8.042  11.917   0.652
48764SOL    HW146316   8.092  12.002   0.633
48764SOL    HW246317   7.954  11.919   0.604
48765SOL     OW46318   9.225  11.514   1.642
48765SOL    HW146319   9.208  11.545   1.548
48765SOL    HW246320   9.141  11.477   1.680
48766SOL     OW46321   9.178  12.106   1.517
48766SOL    HW146322   9.216  12.197   1.532
48766SOL    HW246323   9.170  12.089   1.418
48767SOL     OW46324   8.307  12.546   0.016
48767SOL    HW146325   8.261  12.561   0.104
48767SOL    HW246326   8.351  12.631  -0.014
48768SOL     OW46327   8.307  12.128   0.861
48768SOL    HW146328   8.361  12.059   0.909
48768SOL    HW246329   8.275  12.197   0.927
48769SOL     OW46330   8.531  12.156   0.087
48769SOL    HW146331   8.508  12.209   0.005
48769SOL    HW246332   8.612  12.100   0.068
48770SOL     OW46333   9.309  12.741   0.851
48770SOL    HW146334   9.238  12.729   0.781
48770SOL    HW246335   9.310  12.662   0.911
48771SOL     OW46336   7.669  12.486   1.844
48771SOL    HW146337   7.604  12.413   1.823
48771SOL    HW246338   7.673  12.500   1.942
48772SOL     OW46339   7.527  12.412   0.653
48772SOL    HW146340   7.526  12.365   0.741
48772SOL    HW246341   7.609  12.384   0.602
48773SOL     OW46342   8.120  12.563   1.624
48773SOL    HW146343   8.042  12.513   1.662
48773SOL    HW246344   8.117  12.658   1.655
48774SOL     OW46345   9.272  11.364   1.227
48774SOL    HW146346   9.268  11.274   1.271
48774SOL    HW246347   9.275  11.353   1.128
48775SOL     OW46348   7.876  11.596   0.520
48775SOL    HW146349   7.906  11.524   0.458
48775SOL    HW246350   7.837  11.556   0.603
48776SOL     OW46351   9.153  12.659   1.104
48776SOL    HW146352   9.060  12.634   1.077
48776SOL    HW246353   9.179  12.609   1.186
48777SOL     OW46354   7.765  11.719   1.280
48777SOL    HW146355   7.803  11.660   1.352
48777SOL    HW246356   7.805  11.693   1.192
48778SOL     OW46357   8.872  11.386   1.112
48778SOL    HW146358   8.924  11.321   1.167
48778SOL    HW246359   8.823  11.449   1.173
48779SOL     OW46360   8.449  11.206   1.154
48779SOL    HW146361   8.386  11.134   1.123
48779SOL    HW246362   8.542  11.170   1.154
48780SOL     OW46363   8.218  12.502   0.301
48780SOL    HW146364   8.172  12.415   0.318
48780SOL    HW246365   8.309  12.499   0.342
48781SOL     OW46366   8.066  12.739   1.284
48781SOL    HW146367   8.061  12.821   1.341
48781SOL    HW246368   8.155  12.736   1.239
48782SOL     OW46369   8.800  11.224   0.168
48782SOL    HW146370   8.835  11.183   0.084
48782SOL    HW246371   8.710  11.186   0.188
48783SOL     OW46372   8.748  11.625   0.691
48783SOL    HW146373   8.689  11.705   0.695
48783SOL    HW246374   8.763  11.590   0.784
48784SOL     OW46375   9.041  11.393   0.882
48784SOL    HW146376   8.957  11.392   0.936
48784SOL    HW246377   9.043  11.476   0.826
48785SOL     OW46378   7.487  12.249   0.300
48785SOL    HW146379   7.586  12.238   0.291
48785SOL    HW246380   7.447  12.163   0.332
48786SOL     OW46381   7.678  11.800   1.975
48786SOL    HW146382   7.585  11.798   2.012
48786SOL    HW246383   7.679  11.761   1.883
48787SOL     OW46384   7.673  11.447   2.858
48787SOL    HW146385   7.708  11.430   2.950
48787SOL    HW246386   7.585  11.402   2.846
48788SOL     OW46387   7.467  11.540   2.509
48788SOL    HW146388   7.385  11.583   2.548
48788SOL    HW246389   7.439  11.467   2.446
48789SOL     OW46390   8.017  12.447   3.027
48789SOL    HW146391   7.924  12.440   2.990
48789SOL    HW246392   8.028  12.536   3.071
48790SOL     OW46393   9.003  12.683   2.565
48790SOL    HW146394   8.946  12.667   2.646
48790SOL    HW246395   8.944  12.693   2.485
48791SOL     OW46396   8.583  11.875   2.579
48791SOL    HW146397   8.640  11.953   2.554
48791SOL    HW246398   8.523  11.901   2.655
48792SOL     OW46399   9.203  11.779   2.093
48792SOL    HW146400   9.191  11.766   1.994
48792SOL    HW246401   9.173  11.698   2.142
48793SOL     OW46402   8.216  12.316   2.885
48793SOL    HW146403   8.138  12.333   2.945
48793SOL    HW246404   8.250  12.403   2.849
48794SOL     OW46405   8.298  11.970   3.685
48794SOL    HW146406   8.294  12.046   3.750
48794SOL    HW246407   8.320  12.006   3.594
48795SOL     OW46408   8.133  12.184   2.527
48795SOL    HW146409   8.202  12.168   2.597
48795SOL    HW246410   8.060  12.241   2.565
48796SOL     OW46411   8.134  12.333   3.665
48796SOL    HW146412   8.194  12.412   3.679
48796SOL    HW246413   8.048  12.364   3.624
48797SOL     OW46414   7.783  12.607   2.923
48797SOL    HW146415   7.705  12.576   2.870
48797SOL    HW246416   7.841  12.665   2.866
48798SOL     OW46417   8.908  12.677   3.201
48798SOL    HW146418   8.932  12.771   3.227
48798SOL    HW246419   8.892  12.623   3.283
48799SOL     OW46420   7.886  11.564   3.361
48799SOL    HW146421   7.968  11.508   3.370
48799SOL    HW246422   7.805  11.506   3.365
48800SOL     OW46423   9.051  11.619   2.599
48800SOL    HW146424   8.977  11.665   2.549
48800SOL    HW246425   9.102  11.687   2.652
48801SOL     OW46426   8.575  12.513   3.552
48801SOL    HW146427   8.622  12.513   3.640
48801SOL    HW246428   8.527  12.426   3.541
48802SOL     OW46429   7.678  12.606   2.400
48802SOL    HW146430   7.652  12.702   2.400
48802SOL    HW246431   7.607  12.552   2.445
48803SOL     OW46432   7.688  12.263   2.748
48803SOL    HW146433   7.702  12.179   2.800
48803SOL    HW246434   7.633  12.327   2.803
48804SOL     OW46435   8.054  12.136   1.985
48804SOL    HW146436   8.061  12.220   1.931
48804SOL    HW246437   8.100  12.149   2.073
48805SOL     OW46438   9.042  11.286   3.342
48805SOL    HW146439   9.024  11.353   3.270
48805SOL    HW246440   9.039  11.332   3.431
48806SOL     OW46441   7.570  11.815   2.425
48806SOL    HW146442   7.525  11.727   2.442
48806SOL    HW246443   7.569  11.869   2.509
48807SOL     OW46444   7.475  12.768   1.979
48807SOL    HW146445   7.456  12.672   2.000
48807SOL    HW246446   7.442  12.826   2.054
48808SOL     OW46447   9.137  12.094   2.474
48808SOL    HW146448   9.232  12.065   2.482
48808SOL    HW246449   9.129  12.159   2.399
48809SOL     OW46450   9.089  12.280   2.294
48809SOL    HW146451   9.175  12.282   2.242
48809SOL    HW246452   9.103  12.327   2.382
48810SOL     OW46453   7.561  11.909   3.459
48810SOL    HW146454   7.649  11.896   3.504
48810SOL    HW246455   7.548  12.006   3.437
48811SOL     OW46456   8.061  12.537   2.588
48811SOL    HW146457   8.012  12.450   2.597
48811SOL    HW246458   8.038  12.580   2.501
48812SOL     OW46459   8.741  12.400   3.285
48812SOL    HW146460   8.778  12.327   3.227
48812SOL    HW246461   8.793  12.405   3.370
48813SOL     OW46462   8.257  11.176   2.364
48813SOL    HW146463   8.297  11.267   2.355
48813SOL    HW246464   8.157  11.184   2.370
48814SOL     OW46465   7.645  12.148   3.126
48814SOL    HW146466   7.734  12.103   3.112
48814SOL    HW246467   7.572  12.083   3.107
48815SOL     OW46468   8.973  12.171   2.052
48815SOL    HW146469   8.910  12.095   2.065
48815SOL    HW246470   9.021  12.189   2.138
48816SOL     OW46471   7.765  11.423   3.663
48816SOL    HW146472   7.836  11.494   3.669
48816SOL    HW246473   7.677  11.462   3.691
48817SOL     OW46474   8.914  12.589   2.815
48817SOL    HW146475   8.855  12.595   2.895
48817SOL    HW246476   8.899  12.501   2.769
48818SOL     OW46477   8.046  11.901   2.132
48818SOL    HW146478   8.070  11.970   2.064
48818SOL    HW246479   7.968  11.934   2.186
48819SOL     OW46480   8.729  11.517   2.806
48819SOL    HW146481   8.643  11.467   2.793
48819SOL    HW246482   8.791  11.463   2.862
48820SOL     OW46483   9.024  12.834   2.169
48820SOL    HW146484   9.113  12.880   2.172
48820SOL    HW246485   9.003  12.810   2.074
48821SOL     OW46486   8.255  11.777   3.327
48821SOL    HW146487   8.208  11.774   3.416
48821SOL    HW246488   8.204  11.722   3.261
48822SOL     OW46489   8.842  11.641   3.536
48822SOL    HW146490   8.822  11.684   3.624
48822SOL    HW246491   8.920  11.579   3.545
48823SOL     OW46492   8.421  12.062   3.434
48823SOL    HW146493   8.467  11.978   3.405
48823SOL    HW246494   8.365  12.096   3.359
48824SOL     OW46495   8.489  11.873   2.291
48824SOL    HW146496   8.515  11.869   2.387
48824SOL    HW246497   8.404  11.822   2.277
48825SOL     OW46498   7.524  11.983   2.651
48825SOL    HW146499   7.623  11.971   2.660
48825SOL    HW246500   7.500  12.078   2.672
48826SOL     OW46501   8.313  11.520   2.057
48826SOL    HW146502   8.372  11.583   2.008
48826SOL    HW246503   8.332  11.426   2.028
48827SOL     OW46504   9.167  11.757   3.693
48827SOL    HW146505   9.141  11.846   3.657
48827SOL    HW246506   9.165  11.689   3.620
48828SOL     OW46507   8.810  12.316   2.407
48828SOL    HW146508   8.893  12.287   2.359
48828SOL    HW246509   8.761  12.383   2.351
48829SOL     OW46510   7.998  11.368   2.747
48829SOL    HW146511   7.993  11.363   2.847
48829SOL    HW246512   8.000  11.464   2.718
48830SOL     OW46513   8.456  12.628   2.339
48830SOL    HW146514   8.410  12.700   2.287
48830SOL    HW246515   8.452  12.648   2.437
48831SOL     OW46516   9.243  12.238   2.735
48831SOL    HW146517   9.181  12.223   2.659
48831SOL    HW246518   9.191  12.249   2.820
48832SOL     OW46519   8.675  12.722   3.368
48832SOL    HW146520   8.681  12.645   3.432
48832SOL    HW246521   8.623  12.696   3.288
48833SOL     OW46522   7.769  12.115   2.104
48833SOL    HW146523   7.851  12.154   2.062
48833SOL    HW246524   7.742  12.033   2.055
48834SOL     OW46525   8.906  11.907   2.590
48834SOL    HW146526   8.901  11.842   2.665
48834SOL    HW246527   8.986  11.966   2.603
48835SOL     OW46528   7.909  12.438   3.589
48835SOL    HW146529   7.859  12.439   3.503
48835SOL    HW246530   7.846  12.420   3.665
48836SOL     OW46531   7.650  11.457   3.360
48836SOL    HW146532   7.570  11.517   3.347
48836SOL    HW246533   7.640  11.408   3.446
48837SOL     OW46534   9.080  12.549   1.943
48837SOL    HW146535   9.048  12.643   1.933
48837SOL    HW246536   9.004  12.486   1.931
48838SOL     OW46537   8.848  11.279   2.288
48838SOL    HW146538   8.824  11.242   2.198
48838SOL    HW246539   8.947  11.295   2.292
48839SOL     OW46540   7.830  11.872   2.342
48839SOL    HW146541   7.875  11.782   2.339
48839SOL    HW246542   7.736  11.861   2.375
48840SOL     OW46543   8.995  11.394   3.591
48840SOL    HW146544   8.990  11.431   3.683
48840SOL    HW246545   8.923  11.325   3.579
48841SOL     OW46546   8.062  11.294   1.979
48841SOL    HW146547   8.160  11.272   1.986
48841SOL    HW246548   8.031  11.277   1.886
48842SOL     OW46549   8.229  11.436   3.611
48842SOL    HW146550   8.296  11.375   3.654
48842SOL    HW246551   8.156  11.455   3.676
48843SOL     OW46552   8.799  11.762   3.295
48843SOL    HW146553   8.827  11.719   3.380
48843SOL    HW246554   8.824  11.858   3.296
48844SOL     OW46555   8.251  12.574   2.786
48844SOL    HW146556   8.341  12.588   2.744
48844SOL    HW246557   8.180  12.576   2.715
48845SOL     OW46558   8.370  11.675   2.761
48845SOL    HW146559   8.345  11.666   2.665
48845SOL    HW246560   8.418  11.593   2.792
48846SOL     OW46561   7.987  11.236   2.374
48846SOL    HW146562   7.906  11.237   2.432
48846SOL    HW246563   7.990  11.319   2.319
48847SOL     OW46564   8.882  12.360   1.903
48847SOL    HW146565   8.914  12.284   1.960
48847SOL    HW246566   8.790  12.387   1.933
48848SOL     OW46567   7.745  11.207   2.033
48848SOL    HW146568   7.794  11.291   2.012
48848SOL    HW246569   7.807  11.142   2.078
48849SOL     OW46570   8.383  11.408   2.342
48849SOL    HW146571   8.335  11.449   2.264
48849SOL    HW246572   8.482  11.406   2.323
48850SOL     OW46573   8.524  11.855   3.326
48850SOL    HW146574   8.444  11.794   3.329
48850SOL    HW246575   8.605  11.802   3.302
48851SOL     OW46576   8.675  12.742   2.655
48851SOL    HW146577   8.696  12.816   2.590
48851SOL    HW246578   8.743  12.742   2.728
48852SOL     OW46579   7.907  12.324   2.603
48852SOL    HW146580   7.836  12.297   2.668
48852SOL    HW246581   7.881  12.296   2.510
48853SOL     OW46582   8.480  11.721   1.878
48853SOL    HW146583   8.439  11.803   1.839
48853SOL    HW246584   8.544  11.747   1.951
48854SOL     OW46585   7.526  11.728   3.248
48854SOL    HW146586   7.618  11.727   3.207
48854SOL    HW246587   7.520  11.802   3.315
48855SOL     OW46588   8.009  11.394   3.009
48855SOL    HW146589   8.047  11.310   3.046
48855SOL    HW246590   7.921  11.413   3.053
48856SOL     OW46591   8.314  11.626   2.504
48856SOL    HW146592   8.282  11.698   2.442
48856SOL    HW246593   8.338  11.545   2.451
48857SOL     OW46594   8.465  11.211   2.615
48857SOL    HW146595   8.393  11.216   2.546
48857SOL    HW246596   8.441  11.142   2.684
48858SOL     OW46597   8.877  12.345   2.729
48858SOL    HW146598   8.822  12.261   2.722
48858SOL    HW246599   8.903  12.374   2.637
48859SOL     OW46600   8.914  11.762   2.854
48859SOL    HW146601   8.884  11.667   2.861
48859SOL    HW246602   8.987  11.778   2.920
48860SOL     OW46603   9.305  12.005   2.239
48860SOL    HW146604   9.347  11.941   2.303
48860SOL    HW246605   9.267  11.954   2.161
48861SOL     OW46606   7.936  12.557   2.036
48861SOL    HW146607   7.849  12.542   2.083
48861SOL    HW246608   7.919  12.583   1.941
48862SOL     OW46609   9.112  12.452   2.519
48862SOL    HW146610   9.211  12.460   2.533
48862SOL    HW246611   9.067  12.536   2.550
48863SOL     OW46612   8.838  11.747   1.940
48863SOL    HW146613   8.784  11.726   2.021
48863SOL    HW246614   8.929  11.706   1.949
48864SOL     OW46615   7.975  11.428   2.190
48864SOL    HW146616   8.002  11.369   2.115
48864SOL    HW246617   7.975  11.523   2.159
48865SOL     OW46618   9.202  12.395   3.450
48865SOL    HW146619   9.293  12.356   3.437
48865SOL    HW246620   9.210  12.491   3.474
48866SOL     OW46621   8.512  12.519   3.202
48866SOL    HW146622   8.432  12.496   3.257
48866SOL    HW246623   8.595  12.493   3.251
48867SOL     OW46624   8.559  12.367   2.962
48867SOL    HW146625   8.519  12.411   3.043
48867SOL    HW246626   8.518  12.404   2.879
48868SOL     OW46627   9.086  12.271   2.941
48868SOL    HW146628   9.091  12.352   3.000
48868SOL    HW246629   9.000  12.273   2.890
48869SOL     OW46630   8.363  11.261   3.264
48869SOL    HW146631   8.388  11.241   3.169
48869SOL    HW246632   8.435  11.317   3.306
48870SOL     OW46633   8.428  12.288   3.581
48870SOL    HW146634   8.329  12.294   3.591
48870SOL    HW246635   8.451  12.208   3.525
48871SOL     OW46636   8.153  12.222   2.230
48871SOL    HW146637   8.139  12.229   2.329
48871SOL    HW246638   8.237  12.171   2.212
48872SOL     OW46639   7.858  11.985   3.113
48872SOL    HW146640   7.944  11.997   3.163
48872SOL    HW246641   7.816  11.898   3.140
48873SOL     OW46642   8.722  11.558   3.124
48873SOL    HW146643   8.743  11.632   3.188
48873SOL    HW246644   8.633  11.575   3.081
48874SOL     OW46645   7.512  12.736   3.193
48874SOL    HW146646   7.466  12.818   3.159
48874SOL    HW246647   7.610  12.755   3.202
48875SOL     OW46648   7.815  12.272   2.363
48875SOL    HW146649   7.808  12.355   2.307
48875SOL    HW246650   7.819  12.192   2.303
48876SOL     OW46651   8.014  11.709   2.727
48876SOL    HW146652   8.026  11.775   2.653
48876SOL    HW246653   8.060  11.743   2.810
48877SOL     OW46654   8.700  12.520   2.250
48877SOL    HW146655   8.750  12.597   2.290
48877SOL    HW246656   8.605  12.522   2.282
48878SOL     OW46657   8.720  12.617   3.004
48878SOL    HW146658   8.767  12.630   3.091
48878SOL    HW246659   8.654  12.543   3.013
48879SOL     OW46660   9.030  11.811   2.334
48879SOL    HW146661   8.999  11.872   2.407
48879SOL    HW246662   9.080  11.863   2.265
48880SOL     OW46663   7.802  12.682   3.191
48880SOL    HW146664   7.781  12.638   3.104
48880SOL    HW246665   7.899  12.708   3.194
48881SOL     OW46666   7.850  11.923   3.460
48881SOL    HW146667   7.918  11.978   3.413
48881SOL    HW246668   7.890  11.835   3.487
48882SOL     OW46669   9.035  11.951   3.532
48882SOL    HW146670   8.943  11.989   3.527
48882SOL    HW246671   9.095  11.998   3.467
48883SOL     OW46672   8.461  11.277   3.632
48883SOL    HW146673   8.467  11.362   3.580
48883SOL    HW246674   8.493  11.201   3.575
48884SOL     OW46675   7.952  11.222   3.602
48884SOL    HW146676   7.910  11.165   3.532
48884SOL    HW246677   7.886  11.291   3.634
48885SOL     OW46678   8.021  12.042   2.891
48885SOL    HW146679   8.065  12.131   2.882
48885SOL    HW246680   7.958  12.042   2.968
48886SOL     OW46681   8.808  12.034   2.907
48886SOL    HW146682   8.733  12.034   2.841
48886SOL    HW246683   8.845  11.942   2.916
48887SOL     OW46684   8.657  11.697   2.137
48887SOL    HW146685   8.670  11.613   2.191
48887SOL    HW246686   8.628  11.771   2.197
48888SOL     OW46687   7.755  11.385   3.093
48888SOL    HW146688   7.732  11.422   3.183
48888SOL    HW246689   7.725  11.290   3.087
48889SOL     OW46690   7.485  12.482   3.144
48889SOL    HW146691   7.538  12.433   3.212
48889SOL    HW246692   7.507  12.580   3.149
48890SOL     OW46693   8.180  11.806   2.926
48890SOL    HW146694   8.239  11.780   2.850
48890SOL    HW246695   8.152  11.902   2.915
48891SOL     OW46696   9.176  12.107   3.716
48891SOL    HW146697   9.130  12.100   3.627
48891SOL    HW246698   9.114  12.151   3.782
48892SOL     OW46699   7.755  11.235   2.480
48892SOL    HW146700   7.744  11.329   2.513
48892SOL    HW246701   7.750  11.172   2.557
48893SOL     OW46702   9.070  11.539   2.236
48893SOL    HW146703   9.072  11.463   2.300
48893SOL    HW246704   9.022  11.616   2.276
48894SOL     OW46705   8.471  11.938   2.828
48894SOL    HW146706   8.486  11.959   2.924
48894SOL    HW246707   8.441  11.843   2.819
48895SOL     OW46708   9.307  12.690   3.467
48895SOL    HW146709   9.321  12.717   3.372
48895SOL    HW246710   9.390  12.712   3.520
48896SOL     OW46711   7.798  12.070   3.666
48896SOL    HW146712   7.874  12.114   3.714
48896SOL    HW246713   7.833  12.023   3.584
48897SOL     OW46714   8.988  11.446   1.987
48897SOL    HW146715   8.927  11.371   2.010
48897SOL    HW246716   9.010  11.498   2.070
48898SOL     OW46717   8.751  12.010   1.904
48898SOL    HW146718   8.785  11.917   1.919
48898SOL    HW246719   8.769  12.037   1.809
48899SOL     OW46720   8.516  12.505   2.711
48899SOL    HW146721   8.523  12.421   2.656
48899SOL    HW246722   8.578  12.574   2.675
48900SOL     OW46723   7.767  11.982   2.811
48900SOL    HW146724   7.860  12.018   2.816
48900SOL    HW246725   7.761  11.897   2.863
48901SOL     OW46726   7.787  11.681   2.868
48901SOL    HW146727   7.735  11.598   2.851
48901SOL    HW246728   7.864  11.686   2.804
48902SOL     OW46729   8.586  11.552   3.540
48902SOL    HW146730   8.541  11.615   3.604
48902SOL    HW246731   8.679  11.583   3.523
48903SOL     OW46732   8.608  11.379   3.339
48903SOL    HW146733   8.608  11.443   3.416
48903SOL    HW246734   8.636  11.427   3.256
48904SOL     OW46735   7.456  12.498   2.062
48904SOL    HW146736   7.363  12.519   2.031
48904SOL    HW246737   7.466  12.399   2.075
48905SOL     OW46738   7.952  12.740   2.772
48905SOL    HW146739   8.018  12.814   2.781
48905SOL    HW246740   7.996  12.661   2.730
48906SOL     OW46741   8.450  11.968   3.100
48906SOL    HW146742   8.491  11.936   3.186
48906SOL    HW246743   8.354  11.941   3.097
48907SOL     OW46744   7.488  11.716   2.976
48907SOL    HW146745   7.573  11.683   2.935
48907SOL    HW246746   7.501  11.731   3.074
48908SOL     OW46747   7.637  11.692   3.584
48908SOL    HW146748   7.696  11.652   3.514
48908SOL    HW246749   7.579  11.763   3.543
48909SOL     OW46750   8.817  12.122   3.522
48909SOL    HW146751   8.856  12.211   3.542
48909SOL    HW246752   8.827  12.102   3.425
48910SOL     OW46753   8.263  11.744   2.187
48910SOL    HW146754   8.270  11.655   2.141
48910SOL    HW246755   8.169  11.778   2.179
48911SOL     OW46756   9.105  11.776   3.068
48911SOL    HW146757   9.067  11.707   3.130
48911SOL    HW246758   9.187  11.740   3.024
48912SOL     OW46759   7.700  12.736   3.606
48912SOL    HW146760   7.670  12.793   3.682
48912SOL    HW246761   7.693  12.639   3.632
48913SOL     OW46762   8.119  11.636   3.131
48913SOL    HW146763   8.085  11.547   3.101
48913SOL    HW246764   8.145  11.690   3.051
48914SOL     OW46765   7.921  11.672   2.053
48914SOL    HW146766   7.982  11.752   2.057
48914SOL    HW246767   7.826  11.703   2.060
48915SOL     OW46768   7.607  12.309   3.328
48915SOL    HW146769   7.629  12.248   3.404
48915SOL    HW246770   7.617  12.260   3.242
48916SOL     OW46771   8.795  12.231   3.096
48916SOL    HW146772   8.819  12.168   3.022
48916SOL    HW246773   8.705  12.271   3.078
48917SOL     OW46774   8.750  12.027   2.171
48917SOL    HW146775   8.664  11.996   2.213
48917SOL    HW246776   8.746  12.013   2.072
48918SOL     OW46777   8.700  12.903   2.990
48918SOL    HW146778   8.784  12.908   2.936
48918SOL    HW246779   8.677  12.807   3.008
48919SOL     OW46780   7.531  12.430   2.884
48919SOL    HW146781   7.526  12.429   2.984
48919SOL    HW246782   7.448  12.389   2.846
48920SOL     OW46783   9.174  11.307   2.385
48920SOL    HW146784   9.247  11.290   2.318
48920SOL    HW246785   9.143  11.220   2.423
48921SOL     OW46786   7.578  12.966   3.713
48921SOL    HW146787   7.537  12.892   3.766
48921SOL    HW246788   7.642  13.017   3.771
48922SOL     OW46789   8.728  12.099   2.534
48922SOL    HW146790   8.788  12.018   2.536
48922SOL    HW246791   8.768  12.168   2.474
48923SOL     OW46792   8.278  12.445   3.284
48923SOL    HW146793   8.273  12.478   3.379
48923SOL    HW246794   8.192  12.464   3.238
48924SOL     OW46795   8.120  12.788   2.016
48924SOL    HW146796   8.129  12.798   1.917
48924SOL    HW246797   8.080  12.699   2.037
48925SOL     OW46798   9.289  11.347   2.825
48925SOL    HW146799   9.328  11.262   2.789
48925SOL    HW246800   9.191  11.349   2.806
48926SOL     OW46801   7.711  11.498   2.582
48926SOL    HW146802   7.632  11.549   2.548
48926SOL    HW246803   7.702  11.483   2.680
48927SOL     OW46804   8.642  12.784   1.893
48927SOL    HW146805   8.648  12.691   1.930
48927SOL    HW246806   8.583  12.784   1.813
48928SOL     OW46807   8.270  12.174   3.234
48928SOL    HW146808   8.310  12.173   3.142
48928SOL    HW246809   8.280  12.266   3.274
48929SOL     OW46810   8.364  12.082   2.153
48929SOL    HW146811   8.427  12.120   2.085
48929SOL    HW246812   8.404  11.999   2.192
48930SOL     OW46813   7.820  12.460   3.352
48930SOL    HW146814   7.807  12.553   3.318
48930SOL    HW246815   7.736  12.408   3.339
48931SOL     OW46816   9.062  12.464   3.151
48931SOL    HW146817   9.122  12.467   3.231
48931SOL    HW246818   8.987  12.528   3.164
48932SOL     OW46819   8.487  12.270   2.558
48932SOL    HW146820   8.417  12.223   2.612
48932SOL    HW246821   8.546  12.202   2.515
48933SOL     OW46822   8.462  11.408   2.833
48933SOL    HW146823   8.454  11.372   2.740
48933SOL    HW246824   8.460  11.332   2.898
48934SOL     OW46825   8.038  12.659   2.353
48934SOL    HW146826   8.080  12.601   2.283
48934SOL    HW246827   7.994  12.738   2.309
48935SOL     OW46828   9.157  11.557   3.243
48935SOL    HW146829   9.230  11.626   3.247
48935SOL    HW246830   9.185  11.482   3.184
48936SOL     OW46831   7.703  12.520   2.152
48936SOL    HW146832   7.607  12.521   2.125
48936SOL    HW246833   7.715  12.573   2.236
48937SOL     OW46834   7.553  12.185   3.588
48937SOL    HW146835   7.476  12.152   3.642
48937SOL    HW246836   7.638  12.155   3.630
48938SOL     OW46837   8.120  11.375   3.351
48938SOL    HW146838   8.210  11.359   3.311
48938SOL    HW246839   8.128  11.380   3.450
48939SOL     OW46840   7.523  11.517   1.895
48939SOL    HW146841   7.431  11.489   1.866
48939SOL    HW246842   7.554  11.594   1.839
48940SOL     OW46843   7.520  11.338   2.180
48940SOL    HW146844   7.503  11.421   2.126
48940SOL    HW246845   7.610  11.301   2.158
48941SOL     OW46846   8.631  12.507   1.981
48941SOL    HW146847   8.532  12.496   1.983
48941SOL    HW246848   8.665  12.522   2.074
48942SOL     OW46849   8.061  12.014   3.293
48942SOL    HW146850   8.117  12.095   3.276
48942SOL    HW246851   8.120  11.934   3.296
48943SOL     OW46852   8.164  11.737   3.570
48943SOL    HW146853   8.183  11.802   3.644
48943SOL    HW246854   8.224  11.657   3.579
48944SOL     OW46855   8.898  12.392   3.495
48944SOL    HW146856   8.889  12.382   3.594
48944SOL    HW246857   8.994  12.385   3.469
48945SOL     OW46858   9.122  12.055   3.116
48945SOL    HW146859   9.095  11.966   3.079
48945SOL    HW246860   9.123  12.123   3.043
48946SOL     OW46861   8.673  11.497   2.311
48946SOL    HW146862   8.738  11.423   2.300
48946SOL    HW246863   8.693  11.547   2.395
48947SOL     OW46864   8.042  11.917   2.514
48947SOL    HW146865   8.092  12.002   2.495
48947SOL    HW246866   7.954  11.919   2.466
48948SOL     OW46867   9.225  11.514   3.504
48948SOL    HW146868   9.208  11.545   3.410
48948SOL    HW246869   9.141  11.477   3.542
48949SOL     OW46870   9.178  12.106   3.379
48949SOL    HW146871   9.216  12.197   3.394
48949SOL    HW246872   9.170  12.089   3.280
48950SOL     OW46873   8.307  12.546   1.878
48950SOL    HW146874   8.261  12.561   1.966
48950SOL    HW246875   8.351  12.631   1.848
48951SOL     OW46876   8.307  12.128   2.723
48951SOL    HW146877   8.361  12.059   2.771
48951SOL    HW246878   8.275  12.197   2.789
48952SOL     OW46879   8.531  12.156   1.949
48952SOL    HW146880   8.508  12.209   1.867
48952SOL    HW246881   8.612  12.100   1.930
48953SOL     OW46882   9.309  12.741   2.713
48953SOL    HW146883   9.238  12.729   2.643
48953SOL    HW246884   9.310  12.662   2.773
48954SOL     OW46885   7.669  12.486   3.706
48954SOL    HW146886   7.604  12.413   3.685
48954SOL    HW246887   7.673  12.500   3.804
48955SOL     OW46888   7.527  12.412   2.515
48955SOL    HW146889   7.526  12.365   2.603
48955SOL    HW246890   7.609  12.384   2.464
48956SOL     OW46891   8.120  12.563   3.486
48956SOL    HW146892   8.042  12.513   3.524
48956SOL    HW246893   8.117  12.658   3.517
48957SOL     OW46894   9.272  11.364   3.089
48957SOL    HW146895   9.268  11.274   3.133
48957SOL    HW246896   9.275  11.353   2.990
48958SOL     OW46897   7.876  11.596   2.382
48958SOL    HW146898   7.906  11.524   2.320
48958SOL    HW246899   7.837  11.556   2.465
48959SOL     OW46900   9.153  12.659   2.966
48959SOL    HW146901   9.060  12.634   2.939
48959SOL    HW246902   9.179  12.609   3.048
48960SOL     OW46903   7.765  11.719   3.142
48960SOL    HW146904   7.803  11.660   3.214
48960SOL    HW246905   7.805  11.693   3.054
48961SOL     OW46906   8.872  11.386   2.974
48961SOL    HW146907   8.924  11.321   3.029
48961SOL    HW246908   8.823  11.449   3.035
48962SOL     OW46909   8.449  11.206   3.016
48962SOL    HW146910   8.386  11.134   2.985
48962SOL    HW246911   8.542  11.170   3.016
48963SOL     OW46912   8.218  12.502   2.163
48963SOL    HW146913   8.172  12.415   2.180
48963SOL    HW246914   8.309  12.499   2.204
48964SOL     OW46915   8.066  12.739   3.146
48964SOL    HW146916   8.061  12.821   3.203
48964SOL    HW246917   8.155  12.736   3.101
48965SOL     OW46918   8.800  11.224   2.030
48965SOL    HW146919   8.835  11.183   1.946
48965SOL    HW246920   8.710  11.186   2.050
48966SOL     OW46921   8.748  11.625   2.553
48966SOL    HW146922   8.689  11.705   2.557
48966SOL    HW246923   8.763  11.590   2.646
48967SOL     OW46924   9.041  11.393   2.744
48967SOL    HW146925   8.957  11.392   2.798
48967SOL    HW246926   9.043  11.476   2.688
48968SOL     OW46927   7.487  12.249   2.162
48968SOL    HW146928   7.586  12.238   2.153
48968SOL    HW246929   7.447  12.163   2.194
48969SOL     OW46930   7.678  11.800   3.837
48969SOL    HW146931   7.585  11.798   3.874
48969SOL    HW246932   7.679  11.761   3.745
48970SOL     OW46933   7.673  11.447   4.720
48970SOL    HW146934   7.708  11.430   4.812
48970SOL    HW246935   7.585  11.402   4.708
48971SOL     OW46936   7.467  11.540   4.371
48971SOL    HW146937   7.385  11.583   4.410
48971SOL    HW246938   7.439  11.467   4.308
48972SOL     OW46939   8.017  12.447   4.889
48972SOL    HW146940   7.924  12.440   4.852
48972SOL    HW246941   8.028  12.536   4.933
48973SOL     OW46942   9.003  12.683   4.427
48973SOL    HW146943   8.946  12.667   4.508
48973SOL    HW246944   8.944  12.693   4.347
48974SOL     OW46945   8.583  11.875   4.441
48974SOL    HW146946   8.640  11.953   4.416
48974SOL    HW246947   8.523  11.901   4.517
48975SOL     OW46948   9.203  11.779   3.955
48975SOL    HW146949   9.191  11.766   3.856
48975SOL    HW246950   9.173  11.698   4.004
48976SOL     OW46951   8.216  12.316   4.747
48976SOL    HW146952   8.138  12.333   4.807
48976SOL    HW246953   8.250  12.403   4.711
48977SOL     OW46954   8.298  11.970   5.547
48977SOL    HW146955   8.294  12.046   5.612
48977SOL    HW246956   8.320  12.006   5.456
48978SOL     OW46957   8.133  12.184   4.389
48978SOL    HW146958   8.202  12.168   4.459
48978SOL    HW246959   8.060  12.241   4.427
48979SOL     OW46960   8.134  12.333   5.527
48979SOL    HW146961   8.194  12.412   5.541
48979SOL    HW246962   8.048  12.364   5.486
48980SOL     OW46963   7.783  12.607   4.785
48980SOL    HW146964   7.705  12.576   4.732
48980SOL    HW246965   7.841  12.665   4.728
48981SOL     OW46966   8.908  12.677   5.063
48981SOL    HW146967   8.932  12.771   5.089
48981SOL    HW246968   8.892  12.623   5.145
48982SOL     OW46969   7.886  11.564   5.223
48982SOL    HW146970   7.968  11.508   5.232
48982SOL    HW246971   7.805  11.506   5.227
48983SOL     OW46972   9.051  11.619   4.461
48983SOL    HW146973   8.977  11.665   4.411
48983SOL    HW246974   9.102  11.687   4.514
48984SOL     OW46975   8.575  12.513   5.414
48984SOL    HW146976   8.622  12.513   5.502
48984SOL    HW246977   8.527  12.426   5.403
48985SOL     OW46978   7.678  12.606   4.262
48985SOL    HW146979   7.652  12.702   4.262
48985SOL    HW246980   7.607  12.552   4.307
48986SOL     OW46981   7.688  12.263   4.610
48986SOL    HW146982   7.702  12.179   4.662
48986SOL    HW246983   7.633  12.327   4.665
48987SOL     OW46984   8.054  12.136   3.847
48987SOL    HW146985   8.061  12.220   3.793
48987SOL    HW246986   8.100  12.149   3.935
48988SOL     OW46987   9.042  11.286   5.204
48988SOL    HW146988   9.024  11.353   5.132
48988SOL    HW246989   9.039  11.332   5.293
48989SOL     OW46990   7.570  11.815   4.287
48989SOL    HW146991   7.525  11.727   4.304
48989SOL    HW246992   7.569  11.869   4.371
48990SOL     OW46993   7.475  12.768   3.841
48990SOL    HW146994   7.456  12.672   3.862
48990SOL    HW246995   7.442  12.826   3.916
48991SOL     OW46996   9.137  12.094   4.336
48991SOL    HW146997   9.232  12.065   4.344
48991SOL    HW246998   9.129  12.159   4.261
48992SOL     OW46999   9.089  12.280   4.156
48992SOL    HW147000   9.175  12.282   4.104
48992SOL    HW247001   9.103  12.327   4.244
48993SOL     OW47002   7.561  11.909   5.321
48993SOL    HW147003   7.649  11.896   5.366
48993SOL    HW247004   7.548  12.006   5.299
48994SOL     OW47005   8.061  12.537   4.450
48994SOL    HW147006   8.012  12.450   4.459
48994SOL    HW247007   8.038  12.580   4.363
48995SOL     OW47008   8.741  12.400   5.147
48995SOL    HW147009   8.778  12.327   5.089
48995SOL    HW247010   8.793  12.405   5.232
48996SOL     OW47011   8.257  11.176   4.226
48996SOL    HW147012   8.297  11.267   4.217
48996SOL    HW247013   8.157  11.184   4.232
48997SOL     OW47014   7.645  12.148   4.988
48997SOL    HW147015   7.734  12.103   4.974
48997SOL    HW247016   7.572  12.083   4.969
48998SOL     OW47017   8.973  12.171   3.914
48998SOL    HW147018   8.910  12.095   3.927
48998SOL    HW247019   9.021  12.189   4.000
48999SOL     OW47020   7.765  11.423   5.525
48999SOL    HW147021   7.836  11.494   5.531
48999SOL    HW247022   7.677  11.462   5.553
49000SOL     OW47023   8.914  12.589   4.677
49000SOL    HW147024   8.855  12.595   4.757
49000SOL    HW247025   8.899  12.501   4.631
49001SOL     OW47026   8.046  11.901   3.994
49001SOL    HW147027   8.070  11.970   3.926
49001SOL    HW247028   7.968  11.934   4.048
49002SOL     OW47029   8.729  11.517   4.668
49002SOL    HW147030   8.643  11.467   4.655
49002SOL    HW247031   8.791  11.463   4.724
49003SOL     OW47032   9.024  12.834   4.031
49003SOL    HW147033   9.113  12.880   4.034
49003SOL    HW247034   9.003  12.810   3.936
49004SOL     OW47035   8.255  11.777   5.189
49004SOL    HW147036   8.208  11.774   5.278
49004SOL    HW247037   8.204  11.722   5.123
49005SOL     OW47038   8.842  11.641   5.398
49005SOL    HW147039   8.822  11.684   5.486
49005SOL    HW247040   8.920  11.579   5.407
49006SOL     OW47041   8.421  12.062   5.296
49006SOL    HW147042   8.467  11.978   5.267
49006SOL    HW247043   8.365  12.096   5.221
49007SOL     OW47044   8.439  11.582   4.966
49007SOL    HW147045   8.362  11.616   5.020
49007SOL    HW247046   8.405  11.531   4.887
49008SOL     OW47047   8.489  11.873   4.153
49008SOL    HW147048   8.515  11.869   4.249
49008SOL    HW247049   8.404  11.822   4.139
49009SOL     OW47050   7.524  11.983   4.513
49009SOL    HW147051   7.623  11.971   4.522
49009SOL    HW247052   7.500  12.078   4.534
49010SOL     OW47053   8.313  11.520   3.919
49010SOL    HW147054   8.372  11.583   3.870
49010SOL    HW247055   8.332  11.426   3.890
49011SOL     OW47056   9.167  11.757   5.555
49011SOL    HW147057   9.141  11.846   5.519
49011SOL    HW247058   9.165  11.689   5.482
49012SOL     OW47059   8.810  12.316   4.269
49012SOL    HW147060   8.893  12.287   4.221
49012SOL    HW247061   8.761  12.383   4.213
49013SOL     OW47062   7.998  11.368   4.609
49013SOL    HW147063   7.993  11.363   4.709
49013SOL    HW247064   8.000  11.464   4.580
49014SOL     OW47065   8.456  12.628   4.201
49014SOL    HW147066   8.410  12.700   4.149
49014SOL    HW247067   8.452  12.648   4.299
49015SOL     OW47068   9.243  12.238   4.597
49015SOL    HW147069   9.181  12.223   4.521
49015SOL    HW247070   9.191  12.249   4.682
49016SOL     OW47071   8.675  12.722   5.230
49016SOL    HW147072   8.681  12.645   5.294
49016SOL    HW247073   8.623  12.696   5.150
49017SOL     OW47074   7.769  12.115   3.966
49017SOL    HW147075   7.851  12.154   3.924
49017SOL    HW247076   7.742  12.033   3.917
49018SOL     OW47077   8.906  11.907   4.452
49018SOL    HW147078   8.901  11.842   4.527
49018SOL    HW247079   8.986  11.966   4.465
49019SOL     OW47080   7.909  12.438   5.451
49019SOL    HW147081   7.859  12.439   5.365
49019SOL    HW247082   7.846  12.420   5.527
49020SOL     OW47083   7.650  11.457   5.222
49020SOL    HW147084   7.570  11.517   5.209
49020SOL    HW247085   7.640  11.408   5.308
49021SOL     OW47086   9.080  12.549   3.805
49021SOL    HW147087   9.048  12.643   3.795
49021SOL    HW247088   9.004  12.486   3.793
49022SOL     OW47089   8.848  11.279   4.150
49022SOL    HW147090   8.824  11.242   4.060
49022SOL    HW247091   8.947  11.295   4.154
49023SOL     OW47092   7.830  11.872   4.204
49023SOL    HW147093   7.875  11.782   4.201
49023SOL    HW247094   7.736  11.861   4.237
49024SOL     OW47095   8.995  11.394   5.453
49024SOL    HW147096   8.990  11.431   5.545
49024SOL    HW247097   8.923  11.325   5.441
49025SOL     OW47098   8.062  11.294   3.841
49025SOL    HW147099   8.160  11.272   3.848
49025SOL    HW247100   8.031  11.277   3.748
49026SOL     OW47101   8.229  11.436   5.473
49026SOL    HW147102   8.296  11.375   5.516
49026SOL    HW247103   8.156  11.455   5.538
49027SOL     OW47104   8.799  11.762   5.157
49027SOL    HW147105   8.827  11.719   5.242
49027SOL    HW247106   8.824  11.858   5.158
49028SOL     OW47107   8.251  12.574   4.648
49028SOL    HW147108   8.341  12.588   4.606
49028SOL    HW247109   8.180  12.576   4.577
49029SOL     OW47110   8.370  11.675   4.623
49029SOL    HW147111   8.345  11.666   4.527
49029SOL    HW247112   8.418  11.593   4.654
49030SOL     OW47113   7.987  11.236   4.236
49030SOL    HW147114   7.906  11.237   4.294
49030SOL    HW247115   7.990  11.319   4.181
49031SOL     OW47116   8.882  12.360   3.765
49031SOL    HW147117   8.914  12.284   3.822
49031SOL    HW247118   8.790  12.387   3.795
49032SOL     OW47119   7.745  11.207   3.895
49032SOL    HW147120   7.794  11.291   3.874
49032SOL    HW247121   7.807  11.142   3.940
49033SOL     OW47122   8.383  11.408   4.204
49033SOL    HW147123   8.335  11.449   4.126
49033SOL    HW247124   8.482  11.406   4.185
49034SOL     OW47125   8.524  11.855   5.188
49034SOL    HW147126   8.444  11.794   5.191
49034SOL    HW247127   8.605  11.802   5.164
49035SOL     OW47128   8.675  12.742   4.517
49035SOL    HW147129   8.696  12.816   4.452
49035SOL    HW247130   8.743  12.742   4.590
49036SOL     OW47131   7.907  12.324   4.465
49036SOL    HW147132   7.836  12.297   4.530
49036SOL    HW247133   7.881  12.296   4.372
49037SOL     OW47134   8.480  11.721   3.740
49037SOL    HW147135   8.439  11.803   3.701
49037SOL    HW247136   8.544  11.747   3.813
49038SOL     OW47137   7.526  11.728   5.110
49038SOL    HW147138   7.618  11.727   5.069
49038SOL    HW247139   7.520  11.802   5.177
49039SOL     OW47140   8.009  11.394   4.871
49039SOL    HW147141   8.047  11.310   4.908
49039SOL    HW247142   7.921  11.413   4.915
49040SOL     OW47143   8.314  11.626   4.366
49040SOL    HW147144   8.282  11.698   4.304
49040SOL    HW247145   8.338  11.545   4.313
49041SOL     OW47146   8.465  11.211   4.477
49041SOL    HW147147   8.393  11.216   4.408
49041SOL    HW247148   8.441  11.142   4.546
49042SOL     OW47149   8.877  12.345   4.591
49042SOL    HW147150   8.822  12.261   4.584
49042SOL    HW247151   8.903  12.374   4.499
49043SOL     OW47152   8.914  11.762   4.716
49043SOL    HW147153   8.884  11.667   4.723
49043SOL    HW247154   8.987  11.778   4.782
49044SOL     OW47155   9.305  12.005   4.101
49044SOL    HW147156   9.347  11.941   4.165
49044SOL    HW247157   9.267  11.954   4.023
49045SOL     OW47158   7.936  12.557   3.898
49045SOL    HW147159   7.849  12.542   3.945
49045SOL    HW247160   7.919  12.583   3.803
49046SOL     OW47161   9.112  12.452   4.381
49046SOL    HW147162   9.211  12.460   4.395
49046SOL    HW247163   9.067  12.536   4.412
49047SOL     OW47164   8.838  11.747   3.802
49047SOL    HW147165   8.784  11.726   3.883
49047SOL    HW247166   8.929  11.706   3.811
49048SOL     OW47167   7.975  11.428   4.052
49048SOL    HW147168   8.002  11.369   3.977
49048SOL    HW247169   7.975  11.523   4.021
49049SOL     OW47170   9.202  12.395   5.312
49049SOL    HW147171   9.293  12.356   5.299
49049SOL    HW247172   9.210  12.491   5.336
49050SOL     OW47173   8.512  12.519   5.064
49050SOL    HW147174   8.432  12.496   5.119
49050SOL    HW247175   8.595  12.493   5.113
49051SOL     OW47176   8.559  12.367   4.824
49051SOL    HW147177   8.519  12.411   4.905
49051SOL    HW247178   8.518  12.404   4.741
49052SOL     OW47179   9.086  12.271   4.803
49052SOL    HW147180   9.091  12.352   4.862
49052SOL    HW247181   9.000  12.273   4.752
49053SOL     OW47182   8.363  11.261   5.126
49053SOL    HW147183   8.388  11.241   5.031
49053SOL    HW247184   8.435  11.317   5.168
49054SOL     OW47185   8.428  12.288   5.443
49054SOL    HW147186   8.329  12.294   5.453
49054SOL    HW247187   8.451  12.208   5.387
49055SOL     OW47188   7.858  11.985   4.975
49055SOL    HW147189   7.944  11.997   5.025
49055SOL    HW247190   7.816  11.898   5.002
49056SOL     OW47191   8.722  11.558   4.986
49056SOL    HW147192   8.743  11.632   5.050
49056SOL    HW247193   8.633  11.575   4.943
49057SOL     OW47194   7.512  12.736   5.055
49057SOL    HW147195   7.466  12.818   5.021
49057SOL    HW247196   7.610  12.755   5.064
49058SOL     OW47197   7.815  12.272   4.225
49058SOL    HW147198   7.808  12.355   4.169
49058SOL    HW247199   7.819  12.192   4.165
49059SOL     OW47200   8.014  11.709   4.589
49059SOL    HW147201   8.026  11.775   4.515
49059SOL    HW247202   8.060  11.743   4.672
49060SOL     OW47203   8.700  12.520   4.112
49060SOL    HW147204   8.750  12.597   4.152
49060SOL    HW247205   8.605  12.522   4.144
49061SOL     OW47206   8.720  12.617   4.866
49061SOL    HW147207   8.767  12.630   4.953
49061SOL    HW247208   8.654  12.543   4.875
49062SOL     OW47209   9.030  11.811   4.196
49062SOL    HW147210   8.999  11.872   4.269
49062SOL    HW247211   9.080  11.863   4.127
49063SOL     OW47212   7.802  12.682   5.053
49063SOL    HW147213   7.781  12.638   4.966
49063SOL    HW247214   7.899  12.708   5.056
49064SOL     OW47215   7.850  11.923   5.322
49064SOL    HW147216   7.918  11.978   5.275
49064SOL    HW247217   7.890  11.835   5.349
49065SOL     OW47218   9.035  11.951   5.394
49065SOL    HW147219   8.943  11.989   5.389
49065SOL    HW247220   9.095  11.998   5.329
49066SOL     OW47221   8.461  11.277   5.494
49066SOL    HW147222   8.467  11.362   5.442
49066SOL    HW247223   8.493  11.201   5.437
49067SOL     OW47224   7.952  11.222   5.464
49067SOL    HW147225   7.910  11.165   5.394
49067SOL    HW247226   7.886  11.291   5.496
49068SOL     OW47227   8.021  12.042   4.753
49068SOL    HW147228   8.065  12.131   4.744
49068SOL    HW247229   7.958  12.042   4.830
49069SOL     OW47230   8.808  12.034   4.769
49069SOL    HW147231   8.733  12.034   4.703
49069SOL    HW247232   8.845  11.942   4.778
49070SOL     OW47233   8.657  11.697   3.999
49070SOL    HW147234   8.670  11.613   4.053
49070SOL    HW247235   8.628  11.771   4.059
49071SOL     OW47236   7.755  11.385   4.955
49071SOL    HW147237   7.732  11.422   5.045
49071SOL    HW247238   7.725  11.290   4.949
49072SOL     OW47239   7.485  12.482   5.006
49072SOL    HW147240   7.538  12.433   5.074
49072SOL    HW247241   7.507  12.580   5.011
49073SOL     OW47242   8.180  11.806   4.788
49073SOL    HW147243   8.239  11.780   4.712
49073SOL    HW247244   8.152  11.902   4.777
49074SOL     OW47245   9.176  12.107   5.578
49074SOL    HW147246   9.130  12.100   5.489
49074SOL    HW247247   9.114  12.151   5.644
49075SOL     OW47248   7.755  11.235   4.342
49075SOL    HW147249   7.744  11.329   4.375
49075SOL    HW247250   7.750  11.172   4.419
49076SOL     OW47251   9.070  11.539   4.098
49076SOL    HW147252   9.072  11.463   4.162
49076SOL    HW247253   9.022  11.616   4.138
49077SOL     OW47254   8.471  11.938   4.690
49077SOL    HW147255   8.486  11.959   4.786
49077SOL    HW247256   8.441  11.843   4.681
49078SOL     OW47257   9.307  12.690   5.329
49078SOL    HW147258   9.321  12.717   5.234
49078SOL    HW247259   9.390  12.712   5.382
49079SOL     OW47260   7.798  12.070   5.528
49079SOL    HW147261   7.874  12.114   5.576
49079SOL    HW247262   7.833  12.023   5.446
49080SOL     OW47263   8.988  11.446   3.849
49080SOL    HW147264   8.927  11.371   3.872
49080SOL    HW247265   9.010  11.498   3.932
49081SOL     OW47266   8.751  12.010   3.766
49081SOL    HW147267   8.785  11.917   3.781
49081SOL    HW247268   8.769  12.037   3.671
49082SOL     OW47269   8.516  12.505   4.573
49082SOL    HW147270   8.523  12.421   4.518
49082SOL    HW247271   8.578  12.574   4.537
49083SOL     OW47272   7.767  11.982   4.673
49083SOL    HW147273   7.860  12.018   4.678
49083SOL    HW247274   7.761  11.897   4.725
49084SOL     OW47275   7.787  11.681   4.730
49084SOL    HW147276   7.735  11.598   4.713
49084SOL    HW247277   7.864  11.686   4.666
49085SOL     OW47278   8.586  11.552   5.402
49085SOL    HW147279   8.541  11.615   5.466
49085SOL    HW247280   8.679  11.583   5.385
49086SOL     OW47281   8.608  11.379   5.201
49086SOL    HW147282   8.608  11.443   5.278
49086SOL    HW247283   8.636  11.427   5.118
49087SOL     OW47284   7.456  12.498   3.924
49087SOL    HW147285   7.363  12.519   3.893
49087SOL    HW247286   7.466  12.399   3.937
49088SOL     OW47287   7.952  12.740   4.634
49088SOL    HW147288   8.018  12.814   4.643
49088SOL    HW247289   7.996  12.661   4.592
49089SOL     OW47290   8.450  11.968   4.962
49089SOL    HW147291   8.491  11.936   5.048
49089SOL    HW247292   8.354  11.941   4.959
49090SOL     OW47293   7.488  11.716   4.838
49090SOL    HW147294   7.573  11.683   4.797
49090SOL    HW247295   7.501  11.731   4.936
49091SOL     OW47296   7.637  11.692   5.446
49091SOL    HW147297   7.696  11.652   5.376
49091SOL    HW247298   7.579  11.763   5.405
49092SOL     OW47299   8.817  12.122   5.384
49092SOL    HW147300   8.856  12.211   5.404
49092SOL    HW247301   8.827  12.102   5.287
49093SOL     OW47302   8.263  11.744   4.049
49093SOL    HW147303   8.270  11.655   4.003
49093SOL    HW247304   8.169  11.778   4.041
49094SOL     OW47305   9.105  11.776   4.930
49094SOL    HW147306   9.067  11.707   4.992
49094SOL    HW247307   9.187  11.740   4.886
49095SOL     OW47308   7.700  12.736   5.468
49095SOL    HW147309   7.670  12.793   5.544
49095SOL    HW247310   7.693  12.639   5.494
49096SOL     OW47311   8.119  11.636   4.993
49096SOL    HW147312   8.085  11.547   4.963
49096SOL    HW247313   8.145  11.690   4.913
49097SOL     OW47314   7.921  11.672   3.915
49097SOL    HW147315   7.982  11.752   3.919
49097SOL    HW247316   7.826  11.703   3.922
49098SOL     OW47317   7.607  12.309   5.190
49098SOL    HW147318   7.629  12.248   5.266
49098SOL    HW247319   7.617  12.260   5.104
49099SOL     OW47320   8.795  12.231   4.958
49099SOL    HW147321   8.819  12.168   4.884
49099SOL    HW247322   8.705  12.271   4.940
49100SOL     OW47323   8.750  12.027   4.033
49100SOL    HW147324   8.664  11.996   4.075
49100SOL    HW247325   8.746  12.013   3.934
49101SOL     OW47326   8.700  12.903   4.852
49101SOL    HW147327   8.784  12.908   4.798
49101SOL    HW247328   8.677  12.807   4.870
49102SOL     OW47329   7.531  12.430   4.746
49102SOL    HW147330   7.526  12.429   4.846
49102SOL    HW247331   7.448  12.389   4.708
49103SOL     OW47332   9.174  11.307   4.247
49103SOL    HW147333   9.247  11.290   4.180
49103SOL    HW247334   9.143  11.220   4.285
49104SOL     OW47335   7.578  12.966   5.575
49104SOL    HW147336   7.537  12.892   5.628
49104SOL    HW247337   7.642  13.017   5.633
49105SOL     OW47338   8.728  12.099   4.396
49105SOL    HW147339   8.788  12.018   4.398
49105SOL    HW247340   8.768  12.168   4.336
49106SOL     OW47341   8.278  12.445   5.146
49106SOL    HW147342   8.273  12.478   5.241
49106SOL    HW247343   8.192  12.464   5.100
49107SOL     OW47344   8.120  12.788   3.878
49107SOL    HW147345   8.129  12.798   3.779
49107SOL    HW247346   8.080  12.699   3.899
49108SOL     OW47347   9.289  11.347   4.687
49108SOL    HW147348   9.328  11.262   4.651
49108SOL    HW247349   9.191  11.349   4.668
49109SOL     OW47350   7.711  11.498   4.444
49109SOL    HW147351   7.632  11.549   4.410
49109SOL    HW247352   7.702  11.483   4.542
49110SOL     OW47353   8.642  12.784   3.755
49110SOL    HW147354   8.648  12.691   3.792
49110SOL    HW247355   8.583  12.784   3.675
49111SOL     OW47356   8.270  12.174   5.096
49111SOL    HW147357   8.310  12.173   5.004
49111SOL    HW247358   8.280  12.266   5.136
49112SOL     OW47359   8.364  12.082   4.015
49112SOL    HW147360   8.427  12.120   3.947
49112SOL    HW247361   8.404  11.999   4.054
49113SOL     OW47362   7.820  12.460   5.214
49113SOL    HW147363   7.807  12.553   5.180
49113SOL    HW247364   7.736  12.408   5.201
49114SOL     OW47365   9.062  12.464   5.013
49114SOL    HW147366   9.122  12.467   5.093
49114SOL    HW247367   8.987  12.528   5.026
49115SOL     OW47368   8.487  12.270   4.420
49115SOL    HW147369   8.417  12.223   4.474
49115SOL    HW247370   8.546  12.202   4.377
49116SOL     OW47371   8.462  11.408   4.695
49116SOL    HW147372   8.454  11.372   4.602
49116SOL    HW247373   8.460  11.332   4.760
49117SOL     OW47374   8.038  12.659   4.215
49117SOL    HW147375   8.080  12.601   4.145
49117SOL    HW247376   7.994  12.738   4.171
49118SOL     OW47377   9.157  11.557   5.105
49118SOL    HW147378   9.230  11.626   5.109
49118SOL    HW247379   9.185  11.482   5.046
49119SOL     OW47380   7.703  12.520   4.014
49119SOL    HW147381   7.607  12.521   3.987
49119SOL    HW247382   7.715  12.573   4.098
49120SOL     OW47383   7.553  12.185   5.450
49120SOL    HW147384   7.476  12.152   5.504
49120SOL    HW247385   7.638  12.155   5.492
49121SOL     OW47386   8.120  11.375   5.213
49121SOL    HW147387   8.210  11.359   5.173
49121SOL    HW247388   8.128  11.380   5.312
49122SOL     OW47389   7.523  11.517   3.757
49122SOL    HW147390   7.431  11.489   3.728
49122SOL    HW247391   7.554  11.594   3.701
49123SOL     OW47392   8.888  12.028   5.122
49123SOL    HW147393   8.831  12.080   5.059
49123SOL    HW247394   8.984  12.040   5.098
49124SOL     OW47395   7.520  11.338   4.042
49124SOL    HW147396   7.503  11.421   3.988
49124SOL    HW247397   7.610  11.301   4.020
49125SOL     OW47398   8.631  12.507   3.843
49125SOL    HW147399   8.532  12.496   3.845
49125SOL    HW247400   8.665  12.522   3.936
49126SOL     OW47401   8.061  12.014   5.155
49126SOL    HW147402   8.117  12.095   5.138
49126SOL    HW247403   8.120  11.934   5.158
49127SOL     OW47404   8.164  11.737   5.432
49127SOL    HW147405   8.183  11.802   5.506
49127SOL    HW247406   8.224  11.657   5.441
49128SOL     OW47407   8.898  12.392   5.357
49128SOL    HW147408   8.889  12.382   5.456
49128SOL    HW247409   8.994  12.385   5.331
49129SOL     OW47410   9.122  12.055   4.978
49129SOL    HW147411   9.095  11.966   4.941
49129SOL    HW247412   9.123  12.123   4.905
49130SOL     OW47413   8.673  11.497   4.173
49130SOL    HW147414   8.738  11.423   4.162
49130SOL    HW247415   8.693  11.547   4.257
49131SOL     OW47416   8.042  11.917   4.376
49131SOL    HW147417   8.092  12.002   4.357
49131SOL    HW247418   7.954  11.919   4.328
49132SOL     OW47419   9.225  11.514   5.366
49132SOL    HW147420   9.208  11.545   5.272
49132SOL    HW247421   9.141  11.477   5.404
49133SOL     OW47422   9.178  12.106   5.241
49133SOL    HW147423   9.216  12.197   5.256
49133SOL    HW247424   9.170  12.089   5.142
49134SOL     OW47425   8.307  12.546   3.740
49134SOL    HW147426   8.261  12.561   3.828
49134SOL    HW247427   8.351  12.631   3.710
49135SOL     OW47428   8.307  12.128   4.585
49135SOL    HW147429   8.361  12.059   4.633
49135SOL    HW247430   8.275  12.197   4.651
49136SOL     OW47431   8.531  12.156   3.811
49136SOL    HW147432   8.508  12.209   3.729
49136SOL    HW247433   8.612  12.100   3.792
49137SOL     OW47434   9.309  12.741   4.575
49137SOL    HW147435   9.238  12.729   4.505
49137SOL    HW247436   9.310  12.662   4.635
49138SOL     OW47437   7.669  12.486   5.568
49138SOL    HW147438   7.604  12.413   5.547
49138SOL    HW247439   7.673  12.500   5.666
49139SOL     OW47440   7.527  12.412   4.377
49139SOL    HW147441   7.526  12.365   4.465
49139SOL    HW247442   7.609  12.384   4.326
49140SOL     OW47443   8.120  12.563   5.348
49140SOL    HW147444   8.042  12.513   5.386
49140SOL    HW247445   8.117  12.658   5.379
49141SOL     OW47446   9.272  11.364   4.951
49141SOL    HW147447   9.268  11.274   4.995
49141SOL    HW247448   9.275  11.353   4.852
49142SOL     OW47449   7.876  11.596   4.244
49142SOL    HW147450   7.906  11.524   4.182
49142SOL    HW247451   7.837  11.556   4.327
49143SOL     OW47452   9.153  12.659   4.828
49143SOL    HW147453   9.060  12.634   4.801
49143SOL    HW247454   9.179  12.609   4.910
49144SOL     OW47455   7.765  11.719   5.004
49144SOL    HW147456   7.803  11.660   5.076
49144SOL    HW247457   7.805  11.693   4.916
49145SOL     OW47458   8.872  11.386   4.836
49145SOL    HW147459   8.924  11.321   4.891
49145SOL    HW247460   8.823  11.449   4.897
49146SOL     OW47461   8.449  11.206   4.878
49146SOL    HW147462   8.386  11.134   4.847
49146SOL    HW247463   8.542  11.170   4.878
49147SOL     OW47464   8.218  12.502   4.025
49147SOL    HW147465   8.172  12.415   4.042
49147SOL    HW247466   8.309  12.499   4.066
49148SOL     OW47467   8.066  12.739   5.008
49148SOL    HW147468   8.061  12.821   5.065
49148SOL    HW247469   8.155  12.736   4.963
49149SOL     OW47470   8.800  11.224   3.892
49149SOL    HW147471   8.835  11.183   3.808
49149SOL    HW247472   8.710  11.186   3.912
49150SOL     OW47473   8.748  11.625   4.415
49150SOL    HW147474   8.689  11.705   4.419
49150SOL    HW247475   8.763  11.590   4.508
49151SOL     OW47476   9.041  11.393   4.606
49151SOL    HW147477   8.957  11.392   4.660
49151SOL    HW247478   9.043  11.476   4.550
49152SOL     OW47479   7.487  12.249   4.024
49152SOL    HW147480   7.586  12.238   4.015
49152SOL    HW247481   7.447  12.163   4.056
49153SOL     OW47482   7.678  11.800   5.699
49153SOL    HW147483   7.585  11.798   5.736
49153SOL    HW247484   7.679  11.761   5.607
49154SOL     OW47485   7.673  11.447   6.582
49154SOL    HW147486   7.708  11.430   6.674
49154SOL    HW247487   7.585  11.402   6.570
49155SOL     OW47488   7.467  11.540   6.233
49155SOL    HW147489   7.385  11.583   6.272
49155SOL    HW247490   7.439  11.467   6.170
49156SOL     OW47491   8.017  12.447   6.751
49156SOL    HW147492   7.924  12.440   6.714
49156SOL    HW247493   8.028  12.536   6.795
49157SOL     OW47494   9.003  12.683   6.289
49157SOL    HW147495   8.946  12.667   6.370
49157SOL    HW247496   8.944  12.693   6.209
49158SOL     OW47497   8.583  11.875   6.303
49158SOL    HW147498   8.640  11.953   6.278
49158SOL    HW247499   8.523  11.901   6.379
49159SOL     OW47500   9.203  11.779   5.817
49159SOL    HW147501   9.191  11.766   5.718
49159SOL    HW247502   9.173  11.698   5.866
49160SOL     OW47503   8.216  12.316   6.609
49160SOL    HW147504   8.138  12.333   6.669
49160SOL    HW247505   8.250  12.403   6.573
49161SOL     OW47506   8.298  11.970   7.409
49161SOL    HW147507   8.294  12.046   7.474
49161SOL    HW247508   8.320  12.006   7.318
49162SOL     OW47509   8.133  12.184   6.251
49162SOL    HW147510   8.202  12.168   6.321
49162SOL    HW247511   8.060  12.241   6.289
49163SOL     OW47512   8.134  12.333   7.389
49163SOL    HW147513   8.194  12.412   7.403
49163SOL    HW247514   8.048  12.364   7.348
49164SOL     OW47515   7.783  12.607   6.647
49164SOL    HW147516   7.705  12.576   6.594
49164SOL    HW247517   7.841  12.665   6.590
49165SOL     OW47518   8.908  12.677   6.925
49165SOL    HW147519   8.932  12.771   6.951
49165SOL    HW247520   8.892  12.623   7.007
49166SOL     OW47521   7.886  11.564   7.085
49166SOL    HW147522   7.968  11.508   7.094
49166SOL    HW247523   7.805  11.506   7.089
49167SOL     OW47524   9.051  11.619   6.323
49167SOL    HW147525   8.977  11.665   6.273
49167SOL    HW247526   9.102  11.687   6.376
49168SOL     OW47527   8.575  12.513   7.276
49168SOL    HW147528   8.622  12.513   7.364
49168SOL    HW247529   8.527  12.426   7.265
49169SOL     OW47530   7.678  12.606   6.124
49169SOL    HW147531   7.652  12.702   6.124
49169SOL    HW247532   7.607  12.552   6.169
49170SOL     OW47533   7.688  12.263   6.472
49170SOL    HW147534   7.702  12.179   6.524
49170SOL    HW247535   7.633  12.327   6.527
49171SOL     OW47536   8.054  12.136   5.709
49171SOL    HW147537   8.061  12.220   5.655
49171SOL    HW247538   8.100  12.149   5.797
49172SOL     OW47539   9.042  11.286   7.066
49172SOL    HW147540   9.024  11.353   6.994
49172SOL    HW247541   9.039  11.332   7.155
49173SOL     OW47542   7.570  11.815   6.149
49173SOL    HW147543   7.525  11.727   6.166
49173SOL    HW247544   7.569  11.869   6.233
49174SOL     OW47545   7.475  12.768   5.703
49174SOL    HW147546   7.456  12.672   5.724
49174SOL    HW247547   7.442  12.826   5.778
49175SOL     OW47548   9.137  12.094   6.198
49175SOL    HW147549   9.232  12.065   6.206
49175SOL    HW247550   9.129  12.159   6.123
49176SOL     OW47551   9.089  12.280   6.018
49176SOL    HW147552   9.175  12.282   5.966
49176SOL    HW247553   9.103  12.327   6.106
49177SOL     OW47554   7.561  11.909   7.183
49177SOL    HW147555   7.649  11.896   7.228
49177SOL    HW247556   7.548  12.006   7.161
49178SOL     OW47557   8.061  12.537   6.312
49178SOL    HW147558   8.012  12.450   6.321
49178SOL    HW247559   8.038  12.580   6.225
49179SOL     OW47560   8.741  12.400   7.009
49179SOL    HW147561   8.778  12.327   6.951
49179SOL    HW247562   8.793  12.405   7.094
49180SOL     OW47563   8.257  11.176   6.088
49180SOL    HW147564   8.297  11.267   6.079
49180SOL    HW247565   8.157  11.184   6.094
49181SOL     OW47566   7.645  12.148   6.850
49181SOL    HW147567   7.734  12.103   6.836
49181SOL    HW247568   7.572  12.083   6.831
49182SOL     OW47569   8.973  12.171   5.776
49182SOL    HW147570   8.910  12.095   5.789
49182SOL    HW247571   9.021  12.189   5.862
49183SOL     OW47572   7.765  11.423   7.387
49183SOL    HW147573   7.836  11.494   7.393
49183SOL    HW247574   7.677  11.462   7.415
49184SOL     OW47575   8.914  12.589   6.539
49184SOL    HW147576   8.855  12.595   6.619
49184SOL    HW247577   8.899  12.501   6.493
49185SOL     OW47578   8.046  11.901   5.856
49185SOL    HW147579   8.070  11.970   5.788
49185SOL    HW247580   7.968  11.934   5.910
49186SOL     OW47581   8.729  11.517   6.530
49186SOL    HW147582   8.643  11.467   6.517
49186SOL    HW247583   8.791  11.463   6.586
49187SOL     OW47584   9.024  12.834   5.893
49187SOL    HW147585   9.113  12.880   5.896
49187SOL    HW247586   9.003  12.810   5.798
49188SOL     OW47587   8.255  11.777   7.051
49188SOL    HW147588   8.208  11.774   7.140
49188SOL    HW247589   8.204  11.722   6.985
49189SOL     OW47590   8.842  11.641   7.260
49189SOL    HW147591   8.822  11.684   7.348
49189SOL    HW247592   8.920  11.579   7.269
49190SOL     OW47593   8.421  12.062   7.158
49190SOL    HW147594   8.467  11.978   7.129
49190SOL    HW247595   8.365  12.096   7.083
49191SOL     OW47596   8.439  11.582   6.828
49191SOL    HW147597   8.362  11.616   6.882
49191SOL    HW247598   8.405  11.531   6.749
49192SOL     OW47599   8.489  11.873   6.015
49192SOL    HW147600   8.515  11.869   6.111
49192SOL    HW247601   8.404  11.822   6.001
49193SOL     OW47602   7.524  11.983   6.375
49193SOL    HW147603   7.623  11.971   6.384
49193SOL    HW247604   7.500  12.078   6.396
49194SOL     OW47605   8.313  11.520   5.781
49194SOL    HW147606   8.372  11.583   5.732
49194SOL    HW247607   8.332  11.426   5.752
49195SOL     OW47608   9.167  11.757   7.417
49195SOL    HW147609   9.141  11.846   7.381
49195SOL    HW247610   9.165  11.689   7.344
49196SOL     OW47611   8.810  12.316   6.131
49196SOL    HW147612   8.893  12.287   6.083
49196SOL    HW247613   8.761  12.383   6.075
49197SOL     OW47614   7.998  11.368   6.471
49197SOL    HW147615   7.993  11.363   6.571
49197SOL    HW247616   8.000  11.464   6.442
49198SOL     OW47617   8.456  12.628   6.063
49198SOL    HW147618   8.410  12.700   6.011
49198SOL    HW247619   8.452  12.648   6.161
49199SOL     OW47620   9.243  12.238   6.459
49199SOL    HW147621   9.181  12.223   6.383
49199SOL    HW247622   9.191  12.249   6.544
49200SOL     OW47623   8.675  12.722   7.092
49200SOL    HW147624   8.681  12.645   7.156
49200SOL    HW247625   8.623  12.696   7.012
49201SOL     OW47626   7.769  12.115   5.828
49201SOL    HW147627   7.851  12.154   5.786
49201SOL    HW247628   7.742  12.033   5.779
49202SOL     OW47629   8.906  11.907   6.314
49202SOL    HW147630   8.901  11.842   6.389
49202SOL    HW247631   8.986  11.966   6.327
49203SOL     OW47632   7.909  12.438   7.313
49203SOL    HW147633   7.859  12.439   7.227
49203SOL    HW247634   7.846  12.420   7.389
49204SOL     OW47635   7.650  11.457   7.084
49204SOL    HW147636   7.570  11.517   7.071
49204SOL    HW247637   7.640  11.408   7.170
49205SOL     OW47638   9.080  12.549   5.667
49205SOL    HW147639   9.048  12.643   5.657
49205SOL    HW247640   9.004  12.486   5.655
49206SOL     OW47641   8.848  11.279   6.012
49206SOL    HW147642   8.824  11.242   5.922
49206SOL    HW247643   8.947  11.295   6.016
49207SOL     OW47644   7.830  11.872   6.066
49207SOL    HW147645   7.875  11.782   6.063
49207SOL    HW247646   7.736  11.861   6.099
49208SOL     OW47647   8.995  11.394   7.315
49208SOL    HW147648   8.990  11.431   7.407
49208SOL    HW247649   8.923  11.325   7.303
49209SOL     OW47650   8.062  11.294   5.703
49209SOL    HW147651   8.160  11.272   5.710
49209SOL    HW247652   8.031  11.277   5.610
49210SOL     OW47653   8.229  11.436   7.335
49210SOL    HW147654   8.296  11.375   7.378
49210SOL    HW247655   8.156  11.455   7.400
49211SOL     OW47656   8.799  11.762   7.019
49211SOL    HW147657   8.827  11.719   7.104
49211SOL    HW247658   8.824  11.858   7.020
49212SOL     OW47659   8.251  12.574   6.510
49212SOL    HW147660   8.341  12.588   6.468
49212SOL    HW247661   8.180  12.576   6.439
49213SOL     OW47662   8.370  11.675   6.485
49213SOL    HW147663   8.345  11.666   6.389
49213SOL    HW247664   8.418  11.593   6.516
49214SOL     OW47665   7.987  11.236   6.098
49214SOL    HW147666   7.906  11.237   6.156
49214SOL    HW247667   7.990  11.319   6.043
49215SOL     OW47668   8.882  12.360   5.627
49215SOL    HW147669   8.914  12.284   5.684
49215SOL    HW247670   8.790  12.387   5.657
49216SOL     OW47671   7.745  11.207   5.757
49216SOL    HW147672   7.794  11.291   5.736
49216SOL    HW247673   7.807  11.142   5.802
49217SOL     OW47674   8.383  11.408   6.066
49217SOL    HW147675   8.335  11.449   5.988
49217SOL    HW247676   8.482  11.406   6.047
49218SOL     OW47677   8.524  11.855   7.050
49218SOL    HW147678   8.444  11.794   7.053
49218SOL    HW247679   8.605  11.802   7.026
49219SOL     OW47680   8.675  12.742   6.379
49219SOL    HW147681   8.696  12.816   6.314
49219SOL    HW247682   8.743  12.742   6.452
49220SOL     OW47683   7.907  12.324   6.327
49220SOL    HW147684   7.836  12.297   6.392
49220SOL    HW247685   7.881  12.296   6.234
49221SOL     OW47686   8.480  11.721   5.602
49221SOL    HW147687   8.439  11.803   5.563
49221SOL    HW247688   8.544  11.747   5.675
49222SOL     OW47689   7.526  11.728   6.972
49222SOL    HW147690   7.618  11.727   6.931
49222SOL    HW247691   7.520  11.802   7.039
49223SOL     OW47692   8.009  11.394   6.733
49223SOL    HW147693   8.047  11.310   6.770
49223SOL    HW247694   7.921  11.413   6.777
49224SOL     OW47695   8.314  11.626   6.228
49224SOL    HW147696   8.282  11.698   6.166
49224SOL    HW247697   8.338  11.545   6.175
49225SOL     OW47698   8.465  11.211   6.339
49225SOL    HW147699   8.393  11.216   6.270
49225SOL    HW247700   8.441  11.142   6.408
49226SOL     OW47701   8.877  12.345   6.453
49226SOL    HW147702   8.822  12.261   6.446
49226SOL    HW247703   8.903  12.374   6.361
49227SOL     OW47704   8.914  11.762   6.578
49227SOL    HW147705   8.884  11.667   6.585
49227SOL    HW247706   8.987  11.778   6.644
49228SOL     OW47707   9.305  12.005   5.963
49228SOL    HW147708   9.347  11.941   6.027
49228SOL    HW247709   9.267  11.954   5.885
49229SOL     OW47710   7.936  12.557   5.760
49229SOL    HW147711   7.849  12.542   5.807
49229SOL    HW247712   7.919  12.583   5.665
49230SOL     OW47713   9.112  12.452   6.243
49230SOL    HW147714   9.211  12.460   6.257
49230SOL    HW247715   9.067  12.536   6.274
49231SOL     OW47716   8.838  11.747   5.664
49231SOL    HW147717   8.784  11.726   5.745
49231SOL    HW247718   8.929  11.706   5.673
49232SOL     OW47719   7.975  11.428   5.914
49232SOL    HW147720   8.002  11.369   5.839
49232SOL    HW247721   7.975  11.523   5.883
49233SOL     OW47722   9.202  12.395   7.174
49233SOL    HW147723   9.293  12.356   7.161
49233SOL    HW247724   9.210  12.491   7.198
49234SOL     OW47725   8.512  12.519   6.926
49234SOL    HW147726   8.432  12.496   6.981
49234SOL    HW247727   8.595  12.493   6.975
49235SOL     OW47728   8.559  12.367   6.686
49235SOL    HW147729   8.519  12.411   6.767
49235SOL    HW247730   8.518  12.404   6.603
49236SOL     OW47731   9.086  12.271   6.665
49236SOL    HW147732   9.091  12.352   6.724
49236SOL    HW247733   9.000  12.273   6.614
49237SOL     OW47734   8.363  11.261   6.988
49237SOL    HW147735   8.388  11.241   6.893
49237SOL    HW247736   8.435  11.317   7.030
49238SOL     OW47737   8.428  12.288   7.305
49238SOL    HW147738   8.329  12.294   7.315
49238SOL    HW247739   8.451  12.208   7.249
49239SOL     OW47740   8.153  12.222   5.954
49239SOL    HW147741   8.139  12.229   6.053
49239SOL    HW247742   8.237  12.171   5.936
49240SOL     OW47743   7.858  11.985   6.837
49240SOL    HW147744   7.944  11.997   6.887
49240SOL    HW247745   7.816  11.898   6.864
49241SOL     OW47746   8.722  11.558   6.848
49241SOL    HW147747   8.743  11.632   6.912
49241SOL    HW247748   8.633  11.575   6.805
49242SOL     OW47749   7.512  12.736   6.917
49242SOL    HW147750   7.466  12.818   6.883
49242SOL    HW247751   7.610  12.755   6.926
49243SOL     OW47752   7.815  12.272   6.087
49243SOL    HW147753   7.808  12.355   6.031
49243SOL    HW247754   7.819  12.192   6.027
49244SOL     OW47755   8.014  11.709   6.451
49244SOL    HW147756   8.026  11.775   6.377
49244SOL    HW247757   8.060  11.743   6.534
49245SOL     OW47758   8.700  12.520   5.974
49245SOL    HW147759   8.750  12.597   6.014
49245SOL    HW247760   8.605  12.522   6.006
49246SOL     OW47761   8.720  12.617   6.728
49246SOL    HW147762   8.767  12.630   6.815
49246SOL    HW247763   8.654  12.543   6.737
49247SOL     OW47764   9.030  11.811   6.058
49247SOL    HW147765   8.999  11.872   6.131
49247SOL    HW247766   9.080  11.863   5.989
49248SOL     OW47767   7.802  12.682   6.915
49248SOL    HW147768   7.781  12.638   6.828
49248SOL    HW247769   7.899  12.708   6.918
49249SOL     OW47770   7.850  11.923   7.184
49249SOL    HW147771   7.918  11.978   7.137
49249SOL    HW247772   7.890  11.835   7.211
49250SOL     OW47773   9.035  11.951   7.256
49250SOL    HW147774   8.943  11.989   7.251
49250SOL    HW247775   9.095  11.998   7.191
49251SOL     OW47776   8.461  11.277   7.356
49251SOL    HW147777   8.467  11.362   7.304
49251SOL    HW247778   8.493  11.201   7.299
49252SOL     OW47779   7.952  11.222   7.326
49252SOL    HW147780   7.910  11.165   7.256
49252SOL    HW247781   7.886  11.291   7.358
49253SOL     OW47782   8.021  12.042   6.615
49253SOL    HW147783   8.065  12.131   6.606
49253SOL    HW247784   7.958  12.042   6.692
49254SOL     OW47785   8.808  12.034   6.631
49254SOL    HW147786   8.733  12.034   6.565
49254SOL    HW247787   8.845  11.942   6.640
49255SOL     OW47788   8.657  11.697   5.861
49255SOL    HW147789   8.670  11.613   5.915
49255SOL    HW247790   8.628  11.771   5.921
49256SOL     OW47791   7.755  11.385   6.817
49256SOL    HW147792   7.732  11.422   6.907
49256SOL    HW247793   7.725  11.290   6.811
49257SOL     OW47794   7.485  12.482   6.868
49257SOL    HW147795   7.538  12.433   6.936
49257SOL    HW247796   7.507  12.580   6.873
49258SOL     OW47797   8.180  11.806   6.650
49258SOL    HW147798   8.239  11.780   6.574
49258SOL    HW247799   8.152  11.902   6.639
49259SOL     OW47800   9.176  12.107   7.440
49259SOL    HW147801   9.130  12.100   7.351
49259SOL    HW247802   9.114  12.151   7.506
49260SOL     OW47803   7.755  11.235   6.204
49260SOL    HW147804   7.744  11.329   6.237
49260SOL    HW247805   7.750  11.172   6.281
49261SOL     OW47806   9.070  11.539   5.960
49261SOL    HW147807   9.072  11.463   6.024
49261SOL    HW247808   9.022  11.616   6.000
49262SOL     OW47809   8.471  11.938   6.552
49262SOL    HW147810   8.486  11.959   6.648
49262SOL    HW247811   8.441  11.843   6.543
49263SOL     OW47812   9.307  12.690   7.191
49263SOL    HW147813   9.321  12.717   7.096
49263SOL    HW247814   9.390  12.712   7.244
49264SOL     OW47815   7.798  12.070   7.390
49264SOL    HW147816   7.874  12.114   7.438
49264SOL    HW247817   7.833  12.023   7.308
49265SOL     OW47818   8.988  11.446   5.711
49265SOL    HW147819   8.927  11.371   5.734
49265SOL    HW247820   9.010  11.498   5.794
49266SOL     OW47821   8.751  12.010   5.628
49266SOL    HW147822   8.785  11.917   5.643
49266SOL    HW247823   8.769  12.037   5.533
49267SOL     OW47824   8.516  12.505   6.435
49267SOL    HW147825   8.523  12.421   6.380
49267SOL    HW247826   8.578  12.574   6.399
49268SOL     OW47827   7.767  11.982   6.535
49268SOL    HW147828   7.860  12.018   6.540
49268SOL    HW247829   7.761  11.897   6.587
49269SOL     OW47830   7.787  11.681   6.592
49269SOL    HW147831   7.735  11.598   6.575
49269SOL    HW247832   7.864  11.686   6.528
49270SOL     OW47833   8.586  11.552   7.264
49270SOL    HW147834   8.541  11.615   7.328
49270SOL    HW247835   8.679  11.583   7.247
49271SOL     OW47836   8.608  11.379   7.063
49271SOL    HW147837   8.608  11.443   7.140
49271SOL    HW247838   8.636  11.427   6.980
49272SOL     OW47839   7.456  12.498   5.786
49272SOL    HW147840   7.363  12.519   5.755
49272SOL    HW247841   7.466  12.399   5.799
49273SOL     OW47842   7.952  12.740   6.496
49273SOL    HW147843   8.018  12.814   6.505
49273SOL    HW247844   7.996  12.661   6.454
49274SOL     OW47845   8.450  11.968   6.824
49274SOL    HW147846   8.491  11.936   6.910
49274SOL    HW247847   8.354  11.941   6.821
49275SOL     OW47848   7.488  11.716   6.700
49275SOL    HW147849   7.573  11.683   6.659
49275SOL    HW247850   7.501  11.731   6.798
49276SOL     OW47851   7.637  11.692   7.308
49276SOL    HW147852   7.696  11.652   7.238
49276SOL    HW247853   7.579  11.763   7.267
49277SOL     OW47854   8.817  12.122   7.246
49277SOL    HW147855   8.856  12.211   7.266
49277SOL    HW247856   8.827  12.102   7.149
49278SOL     OW47857   8.263  11.744   5.911
49278SOL    HW147858   8.270  11.655   5.865
49278SOL    HW247859   8.169  11.778   5.903
49279SOL     OW47860   9.105  11.776   6.792
49279SOL    HW147861   9.067  11.707   6.854
49279SOL    HW247862   9.187  11.740   6.748
49280SOL     OW47863   7.700  12.736   7.330
49280SOL    HW147864   7.670  12.793   7.406
49280SOL    HW247865   7.693  12.639   7.356
49281SOL     OW47866   8.119  11.636   6.855
49281SOL    HW147867   8.085  11.547   6.825
49281SOL    HW247868   8.145  11.690   6.775
49282SOL     OW47869   7.921  11.672   5.777
49282SOL    HW147870   7.982  11.752   5.781
49282SOL    HW247871   7.826  11.703   5.784
49283SOL     OW47872   7.607  12.309   7.052
49283SOL    HW147873   7.629  12.248   7.128
49283SOL    HW247874   7.617  12.260   6.966
49284SOL     OW47875   8.795  12.231   6.820
49284SOL    HW147876   8.819  12.168   6.746
49284SOL    HW247877   8.705  12.271   6.802
49285SOL     OW47878   8.750  12.027   5.895
49285SOL    HW147879   8.664  11.996   5.937
49285SOL    HW247880   8.746  12.013   5.796
49286SOL     OW47881   8.700  12.903   6.714
49286SOL    HW147882   8.784  12.908   6.660
49286SOL    HW247883   8.677  12.807   6.732
49287SOL     OW47884   7.531  12.430   6.608
49287SOL    HW147885   7.526  12.429   6.708
49287SOL    HW247886   7.448  12.389   6.570
49288SOL     OW47887   9.174  11.307   6.109
49288SOL    HW147888   9.247  11.290   6.042
49288SOL    HW247889   9.143  11.220   6.147
49289SOL     OW47890   7.578  12.966   7.437
49289SOL    HW147891   7.537  12.892   7.490
49289SOL    HW247892   7.642  13.017   7.495
49290SOL     OW47893   8.728  12.099   6.258
49290SOL    HW147894   8.788  12.018   6.260
49290SOL    HW247895   8.768  12.168   6.198
49291SOL     OW47896   8.278  12.445   7.008
49291SOL    HW147897   8.273  12.478   7.103
49291SOL    HW247898   8.192  12.464   6.962
49292SOL     OW47899   8.120  12.788   5.740
49292SOL    HW147900   8.129  12.798   5.641
49292SOL    HW247901   8.080  12.699   5.761
49293SOL     OW47902   9.289  11.347   6.549
49293SOL    HW147903   9.328  11.262   6.513
49293SOL    HW247904   9.191  11.349   6.530
49294SOL     OW47905   7.711  11.498   6.306
49294SOL    HW147906   7.632  11.549   6.272
49294SOL    HW247907   7.702  11.483   6.404
49295SOL     OW47908   8.642  12.784   5.617
49295SOL    HW147909   8.648  12.691   5.654
49295SOL    HW247910   8.583  12.784   5.537
49296SOL     OW47911   8.270  12.174   6.958
49296SOL    HW147912   8.310  12.173   6.866
49296SOL    HW247913   8.280  12.266   6.998
49297SOL     OW47914   8.364  12.082   5.877
49297SOL    HW147915   8.427  12.120   5.809
49297SOL    HW247916   8.404  11.999   5.916
49298SOL     OW47917   7.820  12.460   7.076
49298SOL    HW147918   7.807  12.553   7.042
49298SOL    HW247919   7.736  12.408   7.063
49299SOL     OW47920   9.062  12.464   6.875
49299SOL    HW147921   9.122  12.467   6.955
49299SOL    HW247922   8.987  12.528   6.888
49300SOL     OW47923   8.487  12.270   6.282
49300SOL    HW147924   8.417  12.223   6.336
49300SOL    HW247925   8.546  12.202   6.239
49301SOL     OW47926   8.462  11.408   6.557
49301SOL    HW147927   8.454  11.372   6.464
49301SOL    HW247928   8.460  11.332   6.622
49302SOL     OW47929   8.038  12.659   6.077
49302SOL    HW147930   8.080  12.601   6.007
49302SOL    HW247931   7.994  12.738   6.033
49303SOL     OW47932   9.157  11.557   6.967
49303SOL    HW147933   9.230  11.626   6.971
49303SOL    HW247934   9.185  11.482   6.908
49304SOL     OW47935   7.703  12.520   5.876
49304SOL    HW147936   7.607  12.521   5.849
49304SOL    HW247937   7.715  12.573   5.960
49305SOL     OW47938   7.553  12.185   7.312
49305SOL    HW147939   7.476  12.152   7.366
49305SOL    HW247940   7.638  12.155   7.354
49306SOL     OW47941   8.120  11.375   7.075
49306SOL    HW147942   8.210  11.359   7.035
49306SOL    HW247943   8.128  11.380   7.174
49307SOL     OW47944   7.523  11.517   5.619
49307SOL    HW147945   7.431  11.489   5.590
49307SOL    HW247946   7.554  11.594   5.563
49308SOL     OW47947   8.888  12.028   6.984
49308SOL    HW147948   8.831  12.080   6.921
49308SOL    HW247949   8.984  12.040   6.960
49309SOL     OW47950   7.520  11.338   5.904
49309SOL    HW147951   7.503  11.421   5.850
49309SOL    HW247952   7.610  11.301   5.882
49310SOL     OW47953   8.631  12.507   5.705
49310SOL    HW147954   8.532  12.496   5.707
49310SOL    HW247955   8.665  12.522   5.798
49311SOL     OW47956   8.061  12.014   7.017
49311SOL    HW147957   8.117  12.095   7.000
49311SOL    HW247958   8.120  11.934   7.020
49312SOL     OW47959   8.164  11.737   7.294
49312SOL    HW147960   8.183  11.802   7.368
49312SOL    HW247961   8.224  11.657   7.303
49313SOL     OW47962   8.898  12.392   7.219
49313SOL    HW147963   8.889  12.382   7.318
49313SOL    HW247964   8.994  12.385   7.193
49314SOL     OW47965   9.122  12.055   6.840
49314SOL    HW147966   9.095  11.966   6.803
49314SOL    HW247967   9.123  12.123   6.767
49315SOL     OW47968   8.673  11.497   6.035
49315SOL    HW147969   8.738  11.423   6.024
49315SOL    HW247970   8.693  11.547   6.119
49316SOL     OW47971   8.042  11.917   6.238
49316SOL    HW147972   8.092  12.002   6.219
49316SOL    HW247973   7.954  11.919   6.190
49317SOL     OW47974   9.225  11.514   7.228
49317SOL    HW147975   9.208  11.545   7.134
49317SOL    HW247976   9.141  11.477   7.266
49318SOL     OW47977   9.178  12.106   7.103
49318SOL    HW147978   9.216  12.197   7.118
49318SOL    HW247979   9.170  12.089   7.004
49319SOL     OW47980   8.307  12.546   5.602
49319SOL    HW147981   8.261  12.561   5.690
49319SOL    HW247982   8.351  12.631   5.572
49320SOL     OW47983   8.307  12.128   6.447
49320SOL    HW147984   8.361  12.059   6.495
49320SOL    HW247985   8.275  12.197   6.513
49321SOL     OW47986   8.531  12.156   5.673
49321SOL    HW147987   8.508  12.209   5.591
49321SOL    HW247988   8.612  12.100   5.654
49322SOL     OW47989   9.309  12.741   6.437
49322SOL    HW147990   9.238  12.729   6.367
49322SOL    HW247991   9.310  12.662   6.497
49323SOL     OW47992   7.669  12.486   7.430
49323SOL    HW147993   7.604  12.413   7.409
49323SOL    HW247994   7.673  12.500   7.528
49324SOL     OW47995   7.527  12.412   6.239
49324SOL    HW147996   7.526  12.365   6.327
49324SOL    HW247997   7.609  12.384   6.188
49325SOL     OW47998   8.120  12.563   7.210
49325SOL    HW147999   8.042  12.513   7.248
49325SOL    HW248000   8.117  12.658   7.241
49326SOL     OW48001   9.272  11.364   6.813
49326SOL    HW148002   9.268  11.274   6.857
49326SOL    HW248003   9.275  11.353   6.714
49327SOL     OW48004   7.876  11.596   6.106
49327SOL    HW148005   7.906  11.524   6.044
49327SOL    HW248006   7.837  11.556   6.189
49328SOL     OW48007   9.153  12.659   6.690
49328SOL    HW148008   9.060  12.634   6.663
49328SOL    HW248009   9.179  12.609   6.772
49329SOL     OW48010   7.765  11.719   6.866
49329SOL    HW148011   7.803  11.660   6.938
49329SOL    HW248012   7.805  11.693   6.778
49330SOL     OW48013   8.872  11.386   6.698
49330SOL    HW148014   8.924  11.321   6.753
49330SOL    HW248015   8.823  11.449   6.759
49331SOL     OW48016   8.449  11.206   6.740
49331SOL    HW148017   8.386  11.134   6.709
49331SOL    HW248018   8.542  11.170   6.740
49332SOL     OW48019   8.218  12.502   5.887
49332SOL    HW148020   8.172  12.415   5.904
49332SOL    HW248021   8.309  12.499   5.928
49333SOL     OW48022   8.066  12.739   6.870
49333SOL    HW148023   8.061  12.821   6.927
49333SOL    HW248024   8.155  12.736   6.825
49334SOL     OW48025   8.800  11.224   5.754
49334SOL    HW148026   8.835  11.183   5.670
49334SOL    HW248027   8.710  11.186   5.774
49335SOL     OW48028   8.748  11.625   6.277
49335SOL    HW148029   8.689  11.705   6.281
49335SOL    HW248030   8.763  11.590   6.370
49336SOL     OW48031   9.041  11.393   6.468
49336SOL    HW148032   8.957  11.392   6.522
49336SOL    HW248033   9.043  11.476   6.412
49337SOL     OW48034   7.487  12.249   5.886
49337SOL    HW148035   7.586  12.238   5.877
49337SOL    HW248036   7.447  12.163   5.918
49338SOL     OW48037   7.678  11.800   7.561
49338SOL    HW148038   7.585  11.798   7.598
49338SOL    HW248039   7.679  11.761   7.469
49339SOL     OW48040   7.673  11.447   8.444
49339SOL    HW148041   7.708  11.430   8.536
49339SOL    HW248042   7.585  11.402   8.432
49340SOL     OW48043   7.467  11.540   8.095
49340SOL    HW148044   7.385  11.583   8.134
49340SOL    HW248045   7.439  11.467   8.032
49341SOL     OW48046   8.017  12.447   8.613
49341SOL    HW148047   7.924  12.440   8.576
49341SOL    HW248048   8.028  12.536   8.657
49342SOL     OW48049   9.003  12.683   8.151
49342SOL    HW148050   8.946  12.667   8.232
49342SOL    HW248051   8.944  12.693   8.071
49343SOL     OW48052   8.583  11.875   8.165
49343SOL    HW148053   8.640  11.953   8.140
49343SOL    HW248054   8.523  11.901   8.241
49344SOL     OW48055   9.203  11.779   7.679
49344SOL    HW148056   9.191  11.766   7.580
49344SOL    HW248057   9.173  11.698   7.728
49345SOL     OW48058   8.216  12.316   8.471
49345SOL    HW148059   8.138  12.333   8.531
49345SOL    HW248060   8.250  12.403   8.435
49346SOL     OW48061   8.298  11.970   9.271
49346SOL    HW148062   8.294  12.046   9.336
49346SOL    HW248063   8.320  12.006   9.180
49347SOL     OW48064   8.133  12.184   8.113
49347SOL    HW148065   8.202  12.168   8.183
49347SOL    HW248066   8.060  12.241   8.151
49348SOL     OW48067   8.134  12.333   9.251
49348SOL    HW148068   8.194  12.412   9.265
49348SOL    HW248069   8.048  12.364   9.210
49349SOL     OW48070   7.783  12.607   8.509
49349SOL    HW148071   7.705  12.576   8.456
49349SOL    HW248072   7.841  12.665   8.452
49350SOL     OW48073   8.908  12.677   8.787
49350SOL    HW148074   8.932  12.771   8.813
49350SOL    HW248075   8.892  12.623   8.869
49351SOL     OW48076   7.886  11.564   8.947
49351SOL    HW148077   7.968  11.508   8.956
49351SOL    HW248078   7.805  11.506   8.951
49352SOL     OW48079   9.051  11.619   8.185
49352SOL    HW148080   8.977  11.665   8.135
49352SOL    HW248081   9.102  11.687   8.238
49353SOL     OW48082   8.575  12.513   9.138
49353SOL    HW148083   8.622  12.513   9.226
49353SOL    HW248084   8.527  12.426   9.127
49354SOL     OW48085   7.678  12.606   7.986
49354SOL    HW148086   7.652  12.702   7.986
49354SOL    HW248087   7.607  12.552   8.031
49355SOL     OW48088   7.688  12.263   8.334
49355SOL    HW148089   7.702  12.179   8.386
49355SOL    HW248090   7.633  12.327   8.389
49356SOL     OW48091   8.054  12.136   7.571
49356SOL    HW148092   8.061  12.220   7.517
49356SOL    HW248093   8.100  12.149   7.659
49357SOL     OW48094   9.042  11.286   8.928
49357SOL    HW148095   9.024  11.353   8.856
49357SOL    HW248096   9.039  11.332   9.017
49358SOL     OW48097   7.570  11.815   8.011
49358SOL    HW148098   7.525  11.727   8.028
49358SOL    HW248099   7.569  11.869   8.095
49359SOL     OW48100   7.475  12.768   7.565
49359SOL    HW148101   7.456  12.672   7.586
49359SOL    HW248102   7.442  12.826   7.640
49360SOL     OW48103   9.137  12.094   8.060
49360SOL    HW148104   9.232  12.065   8.068
49360SOL    HW248105   9.129  12.159   7.985
49361SOL     OW48106   9.089  12.280   7.880
49361SOL    HW148107   9.175  12.282   7.828
49361SOL    HW248108   9.103  12.327   7.968
49362SOL     OW48109   7.561  11.909   9.045
49362SOL    HW148110   7.649  11.896   9.090
49362SOL    HW248111   7.548  12.006   9.023
49363SOL     OW48112   8.061  12.537   8.174
49363SOL    HW148113   8.012  12.450   8.183
49363SOL    HW248114   8.038  12.580   8.087
49364SOL     OW48115   8.741  12.400   8.871
49364SOL    HW148116   8.778  12.327   8.813
49364SOL    HW248117   8.793  12.405   8.956
49365SOL     OW48118   8.257  11.176   7.950
49365SOL    HW148119   8.297  11.267   7.941
49365SOL    HW248120   8.157  11.184   7.956
49366SOL     OW48121   7.645  12.148   8.712
49366SOL    HW148122   7.734  12.103   8.698
49366SOL    HW248123   7.572  12.083   8.693
49367SOL     OW48124   8.973  12.171   7.638
49367SOL    HW148125   8.910  12.095   7.651
49367SOL    HW248126   9.021  12.189   7.724
49368SOL     OW48127   7.765  11.423   9.249
49368SOL    HW148128   7.836  11.494   9.255
49368SOL    HW248129   7.677  11.462   9.277
49369SOL     OW48130   8.914  12.589   8.401
49369SOL    HW148131   8.855  12.595   8.481
49369SOL    HW248132   8.899  12.501   8.355
49370SOL     OW48133   8.046  11.901   7.718
49370SOL    HW148134   8.070  11.970   7.650
49370SOL    HW248135   7.968  11.934   7.772
49371SOL     OW48136   8.729  11.517   8.392
49371SOL    HW148137   8.643  11.467   8.379
49371SOL    HW248138   8.791  11.463   8.448
49372SOL     OW48139   9.024  12.834   7.755
49372SOL    HW148140   9.113  12.880   7.758
49372SOL    HW248141   9.003  12.810   7.660
49373SOL     OW48142   8.255  11.777   8.913
49373SOL    HW148143   8.208  11.774   9.002
49373SOL    HW248144   8.204  11.722   8.847
49374SOL     OW48145   8.842  11.641   9.122
49374SOL    HW148146   8.822  11.684   9.210
49374SOL    HW248147   8.920  11.579   9.131
49375SOL     OW48148   8.421  12.062   9.020
49375SOL    HW148149   8.467  11.978   8.991
49375SOL    HW248150   8.365  12.096   8.945
49376SOL     OW48151   8.439  11.582   8.690
49376SOL    HW148152   8.362  11.616   8.744
49376SOL    HW248153   8.405  11.531   8.611
49377SOL     OW48154   8.489  11.873   7.877
49377SOL    HW148155   8.515  11.869   7.973
49377SOL    HW248156   8.404  11.822   7.863
49378SOL     OW48157   7.524  11.983   8.237
49378SOL    HW148158   7.623  11.971   8.246
49378SOL    HW248159   7.500  12.078   8.258
49379SOL     OW48160   8.313  11.520   7.643
49379SOL    HW148161   8.372  11.583   7.594
49379SOL    HW248162   8.332  11.426   7.614
49380SOL     OW48163   9.167  11.757   9.279
49380SOL    HW148164   9.141  11.846   9.243
49380SOL    HW248165   9.165  11.689   9.206
49381SOL     OW48166   8.810  12.316   7.993
49381SOL    HW148167   8.893  12.287   7.945
49381SOL    HW248168   8.761  12.383   7.937
49382SOL     OW48169   7.998  11.368   8.333
49382SOL    HW148170   7.993  11.363   8.433
49382SOL    HW248171   8.000  11.464   8.304
49383SOL     OW48172   8.456  12.628   7.925
49383SOL    HW148173   8.410  12.700   7.873
49383SOL    HW248174   8.452  12.648   8.023
49384SOL     OW48175   9.243  12.238   8.321
49384SOL    HW148176   9.181  12.223   8.245
49384SOL    HW248177   9.191  12.249   8.406
49385SOL     OW48178   8.675  12.722   8.954
49385SOL    HW148179   8.681  12.645   9.018
49385SOL    HW248180   8.623  12.696   8.874
49386SOL     OW48181   7.769  12.115   7.690
49386SOL    HW148182   7.851  12.154   7.648
49386SOL    HW248183   7.742  12.033   7.641
49387SOL     OW48184   8.906  11.907   8.176
49387SOL    HW148185   8.901  11.842   8.251
49387SOL    HW248186   8.986  11.966   8.189
49388SOL     OW48187   7.909  12.438   9.175
49388SOL    HW148188   7.859  12.439   9.089
49388SOL    HW248189   7.846  12.420   9.251
49389SOL     OW48190   7.650  11.457   8.946
49389SOL    HW148191   7.570  11.517   8.933
49389SOL    HW248192   7.640  11.408   9.032
49390SOL     OW48193   9.080  12.549   7.529
49390SOL    HW148194   9.048  12.643   7.519
49390SOL    HW248195   9.004  12.486   7.517
49391SOL     OW48196   8.848  11.279   7.874
49391SOL    HW148197   8.824  11.242   7.784
49391SOL    HW248198   8.947  11.295   7.878
49392SOL     OW48199   7.830  11.872   7.928
49392SOL    HW148200   7.875  11.782   7.925
49392SOL    HW248201   7.736  11.861   7.961
49393SOL     OW48202   8.995  11.394   9.177
49393SOL    HW148203   8.990  11.431   9.269
49393SOL    HW248204   8.923  11.325   9.165
49394SOL     OW48205   8.062  11.294   7.565
49394SOL    HW148206   8.160  11.272   7.572
49394SOL    HW248207   8.031  11.277   7.472
49395SOL     OW48208   8.229  11.436   9.197
49395SOL    HW148209   8.296  11.375   9.240
49395SOL    HW248210   8.156  11.455   9.262
49396SOL     OW48211   8.799  11.762   8.881
49396SOL    HW148212   8.827  11.719   8.966
49396SOL    HW248213   8.824  11.858   8.882
49397SOL     OW48214   8.251  12.574   8.372
49397SOL    HW148215   8.341  12.588   8.330
49397SOL    HW248216   8.180  12.576   8.301
49398SOL     OW48217   8.370  11.675   8.347
49398SOL    HW148218   8.345  11.666   8.251
49398SOL    HW248219   8.418  11.593   8.378
49399SOL     OW48220   7.987  11.236   7.960
49399SOL    HW148221   7.906  11.237   8.018
49399SOL    HW248222   7.990  11.319   7.905
49400SOL     OW48223   8.882  12.360   7.489
49400SOL    HW148224   8.914  12.284   7.546
49400SOL    HW248225   8.790  12.387   7.519
49401SOL     OW48226   7.745  11.207   7.619
49401SOL    HW148227   7.794  11.291   7.598
49401SOL    HW248228   7.807  11.142   7.664
49402SOL     OW48229   8.383  11.408   7.928
49402SOL    HW148230   8.335  11.449   7.850
49402SOL    HW248231   8.482  11.406   7.909
49403SOL     OW48232   8.524  11.855   8.912
49403SOL    HW148233   8.444  11.794   8.915
49403SOL    HW248234   8.605  11.802   8.888
49404SOL     OW48235   8.675  12.742   8.241
49404SOL    HW148236   8.696  12.816   8.176
49404SOL    HW248237   8.743  12.742   8.314
49405SOL     OW48238   7.907  12.324   8.189
49405SOL    HW148239   7.836  12.297   8.254
49405SOL    HW248240   7.881  12.296   8.096
49406SOL     OW48241   8.480  11.721   7.464
49406SOL    HW148242   8.439  11.803   7.425
49406SOL    HW248243   8.544  11.747   7.537
49407SOL     OW48244   7.526  11.728   8.834
49407SOL    HW148245   7.618  11.727   8.793
49407SOL    HW248246   7.520  11.802   8.901
49408SOL     OW48247   8.009  11.394   8.595
49408SOL    HW148248   8.047  11.310   8.632
49408SOL    HW248249   7.921  11.413   8.639
49409SOL     OW48250   8.314  11.626   8.090
49409SOL    HW148251   8.282  11.698   8.028
49409SOL    HW248252   8.338  11.545   8.037
49410SOL     OW48253   8.465  11.211   8.201
49410SOL    HW148254   8.393  11.216   8.132
49410SOL    HW248255   8.441  11.142   8.270
49411SOL     OW48256   8.877  12.345   8.315
49411SOL    HW148257   8.822  12.261   8.308
49411SOL    HW248258   8.903  12.374   8.223
49412SOL     OW48259   8.914  11.762   8.440
49412SOL    HW148260   8.884  11.667   8.447
49412SOL    HW248261   8.987  11.778   8.506
49413SOL     OW48262   9.305  12.005   7.825
49413SOL    HW148263   9.347  11.941   7.889
49413SOL    HW248264   9.267  11.954   7.747
49414SOL     OW48265   7.936  12.557   7.622
49414SOL    HW148266   7.849  12.542   7.669
49414SOL    HW248267   7.919  12.583   7.527
49415SOL     OW48268   9.112  12.452   8.105
49415SOL    HW148269   9.211  12.460   8.119
49415SOL    HW248270   9.067  12.536   8.136
49416SOL     OW48271   8.838  11.747   7.526
49416SOL    HW148272   8.784  11.726   7.607
49416SOL    HW248273   8.929  11.706   7.535
49417SOL     OW48274   7.975  11.428   7.776
49417SOL    HW148275   8.002  11.369   7.701
49417SOL    HW248276   7.975  11.523   7.745
49418SOL     OW48277   9.202  12.395   9.036
49418SOL    HW148278   9.293  12.356   9.023
49418SOL    HW248279   9.210  12.491   9.060
49419SOL     OW48280   8.512  12.519   8.788
49419SOL    HW148281   8.432  12.496   8.843
49419SOL    HW248282   8.595  12.493   8.837
49420SOL     OW48283   8.559  12.367   8.548
49420SOL    HW148284   8.519  12.411   8.629
49420SOL    HW248285   8.518  12.404   8.465
49421SOL     OW48286   9.086  12.271   8.527
49421SOL    HW148287   9.091  12.352   8.586
49421SOL    HW248288   9.000  12.273   8.476
49422SOL     OW48289   8.363  11.261   8.850
49422SOL    HW148290   8.388  11.241   8.755
49422SOL    HW248291   8.435  11.317   8.892
49423SOL     OW48292   8.428  12.288   9.167
49423SOL    HW148293   8.329  12.294   9.177
49423SOL    HW248294   8.451  12.208   9.111
49424SOL     OW48295   8.153  12.222   7.816
49424SOL    HW148296   8.139  12.229   7.915
49424SOL    HW248297   8.237  12.171   7.798
49425SOL     OW48298   7.858  11.985   8.699
49425SOL    HW148299   7.944  11.997   8.749
49425SOL    HW248300   7.816  11.898   8.726
49426SOL     OW48301   8.722  11.558   8.710
49426SOL    HW148302   8.743  11.632   8.774
49426SOL    HW248303   8.633  11.575   8.667
49427SOL     OW48304   7.512  12.736   8.779
49427SOL    HW148305   7.466  12.818   8.745
49427SOL    HW248306   7.610  12.755   8.788
49428SOL     OW48307   7.815  12.272   7.949
49428SOL    HW148308   7.808  12.355   7.893
49428SOL    HW248309   7.819  12.192   7.889
49429SOL     OW48310   8.014  11.709   8.313
49429SOL    HW148311   8.026  11.775   8.239
49429SOL    HW248312   8.060  11.743   8.396
49430SOL     OW48313   8.700  12.520   7.836
49430SOL    HW148314   8.750  12.597   7.876
49430SOL    HW248315   8.605  12.522   7.868
49431SOL     OW48316   8.720  12.617   8.590
49431SOL    HW148317   8.767  12.630   8.677
49431SOL    HW248318   8.654  12.543   8.599
49432SOL     OW48319   9.030  11.811   7.920
49432SOL    HW148320   8.999  11.872   7.993
49432SOL    HW248321   9.080  11.863   7.851
49433SOL     OW48322   7.802  12.682   8.777
49433SOL    HW148323   7.781  12.638   8.690
49433SOL    HW248324   7.899  12.708   8.780
49434SOL     OW48325   7.850  11.923   9.046
49434SOL    HW148326   7.918  11.978   8.999
49434SOL    HW248327   7.890  11.835   9.073
49435SOL     OW48328   9.035  11.951   9.118
49435SOL    HW148329   8.943  11.989   9.113
49435SOL    HW248330   9.095  11.998   9.053
49436SOL     OW48331   8.461  11.277   9.218
49436SOL    HW148332   8.467  11.362   9.166
49436SOL    HW248333   8.493  11.201   9.161
49437SOL     OW48334   7.952  11.222   9.188
49437SOL    HW148335   7.910  11.165   9.118
49437SOL    HW248336   7.886  11.291   9.220
49438SOL     OW48337   8.021  12.042   8.477
49438SOL    HW148338   8.065  12.131   8.468
49438SOL    HW248339   7.958  12.042   8.554
49439SOL     OW48340   8.808  12.034   8.493
49439SOL    HW148341   8.733  12.034   8.427
49439SOL    HW248342   8.845  11.942   8.502
49440SOL     OW48343   8.657  11.697   7.723
49440SOL    HW148344   8.670  11.613   7.777
49440SOL    HW248345   8.628  11.771   7.783
49441SOL     OW48346   7.755  11.385   8.679
49441SOL    HW148347   7.732  11.422   8.769
49441SOL    HW248348   7.725  11.290   8.673
49442SOL     OW48349   7.485  12.482   8.730
49442SOL    HW148350   7.538  12.433   8.798
49442SOL    HW248351   7.507  12.580   8.735
49443SOL     OW48352   8.180  11.806   8.512
49443SOL    HW148353   8.239  11.780   8.436
49443SOL    HW248354   8.152  11.902   8.501
49444SOL     OW48355   9.176  12.107   9.302
49444SOL    HW148356   9.130  12.100   9.213
49444SOL    HW248357   9.114  12.151   9.368
49445SOL     OW48358   7.755  11.235   8.066
49445SOL    HW148359   7.744  11.329   8.099
49445SOL    HW248360   7.750  11.172   8.143
49446SOL     OW48361   9.070  11.539   7.822
49446SOL    HW148362   9.072  11.463   7.886
49446SOL    HW248363   9.022  11.616   7.862
49447SOL     OW48364   8.471  11.938   8.414
49447SOL    HW148365   8.486  11.959   8.510
49447SOL    HW248366   8.441  11.843   8.405
49448SOL     OW48367   9.307  12.690   9.053
49448SOL    HW148368   9.321  12.717   8.958
49448SOL    HW248369   9.390  12.712   9.106
49449SOL     OW48370   7.798  12.070   9.252
49449SOL    HW148371   7.874  12.114   9.300
49449SOL    HW248372   7.833  12.023   9.170
49450SOL     OW48373   8.988  11.446   7.573
49450SOL    HW148374   8.927  11.371   7.596
49450SOL    HW248375   9.010  11.498   7.656
49451SOL     OW48376   8.751  12.010   7.490
49451SOL    HW148377   8.785  11.917   7.505
49451SOL    HW248378   8.769  12.037   7.395
49452SOL     OW48379   7.767  11.982   8.397
49452SOL    HW148380   7.860  12.018   8.402
49452SOL    HW248381   7.761  11.897   8.449
49453SOL     OW48382   7.787  11.681   8.454
49453SOL    HW148383   7.735  11.598   8.437
49453SOL    HW248384   7.864  11.686   8.390
49454SOL     OW48385   8.586  11.552   9.126
49454SOL    HW148386   8.541  11.615   9.190
49454SOL    HW248387   8.679  11.583   9.109
49455SOL     OW48388   8.608  11.379   8.925
49455SOL    HW148389   8.608  11.443   9.002
49455SOL    HW248390   8.636  11.427   8.842
49456SOL     OW48391   7.456  12.498   7.648
49456SOL    HW148392   7.363  12.519   7.617
49456SOL    HW248393   7.466  12.399   7.661
49457SOL     OW48394   7.952  12.740   8.358
49457SOL    HW148395   8.018  12.814   8.367
49457SOL    HW248396   7.996  12.661   8.316
49458SOL     OW48397   8.450  11.968   8.686
49458SOL    HW148398   8.491  11.936   8.772
49458SOL    HW248399   8.354  11.941   8.683
49459SOL     OW48400   7.488  11.716   8.562
49459SOL    HW148401   7.573  11.683   8.521
49459SOL    HW248402   7.501  11.731   8.660
49460SOL     OW48403   7.637  11.692   9.170
49460SOL    HW148404   7.696  11.652   9.100
49460SOL    HW248405   7.579  11.763   9.129
49461SOL     OW48406   8.817  12.122   9.108
49461SOL    HW148407   8.856  12.211   9.128
49461SOL    HW248408   8.827  12.102   9.011
49462SOL     OW48409   8.263  11.744   7.773
49462SOL    HW148410   8.270  11.655   7.727
49462SOL    HW248411   8.169  11.778   7.765
49463SOL     OW48412   9.105  11.776   8.654
49463SOL    HW148413   9.067  11.707   8.716
49463SOL    HW248414   9.187  11.740   8.610
49464SOL     OW48415   7.700  12.736   9.192
49464SOL    HW148416   7.670  12.793   9.268
49464SOL    HW248417   7.693  12.639   9.218
49465SOL     OW48418   8.119  11.636   8.717
49465SOL    HW148419   8.085  11.547   8.687
49465SOL    HW248420   8.145  11.690   8.637
49466SOL     OW48421   7.921  11.672   7.639
49466SOL    HW148422   7.982  11.752   7.643
49466SOL    HW248423   7.826  11.703   7.646
49467SOL     OW48424   7.607  12.309   8.914
49467SOL    HW148425   7.629  12.248   8.990
49467SOL    HW248426   7.617  12.260   8.828
49468SOL     OW48427   8.795  12.231   8.682
49468SOL    HW148428   8.819  12.168   8.608
49468SOL    HW248429   8.705  12.271   8.664
49469SOL     OW48430   8.750  12.027   7.757
49469SOL    HW148431   8.664  11.996   7.799
49469SOL    HW248432   8.746  12.013   7.658
49470SOL     OW48433   8.700  12.903   8.576
49470SOL    HW148434   8.784  12.908   8.522
49470SOL    HW248435   8.677  12.807   8.594
49471SOL     OW48436   7.531  12.430   8.470
49471SOL    HW148437   7.526  12.429   8.570
49471SOL    HW248438   7.448  12.389   8.432
49472SOL     OW48439   9.174  11.307   7.971
49472SOL    HW148440   9.247  11.290   7.904
49472SOL    HW248441   9.143  11.220   8.009
49473SOL     OW48442   7.578  12.966   9.299
49473SOL    HW148443   7.537  12.892   9.352
49473SOL    HW248444   7.642  13.017   9.357
49474SOL     OW48445   8.728  12.099   8.120
49474SOL    HW148446   8.788  12.018   8.122
49474SOL    HW248447   8.768  12.168   8.060
49475SOL     OW48448   8.278  12.445   8.870
49475SOL    HW148449   8.273  12.478   8.965
49475SOL    HW248450   8.192  12.464   8.824
49476SOL     OW48451   8.120  12.788   7.602
49476SOL    HW148452   8.129  12.798   7.503
49476SOL    HW248453   8.080  12.699   7.623
49477SOL     OW48454   9.289  11.347   8.411
49477SOL    HW148455   9.328  11.262   8.375
49477SOL    HW248456   9.191  11.349   8.392
49478SOL     OW48457   7.711  11.498   8.168
49478SOL    HW148458   7.632  11.549   8.134
49478SOL    HW248459   7.702  11.483   8.266
49479SOL     OW48460   8.642  12.784   7.479
49479SOL    HW148461   8.648  12.691   7.516
49479SOL    HW248462   8.583  12.784   7.399
49480SOL     OW48463   8.270  12.174   8.820
49480SOL    HW148464   8.310  12.173   8.728
49480SOL    HW248465   8.280  12.266   8.860
49481SOL     OW48466   8.364  12.082   7.739
49481SOL    HW148467   8.427  12.120   7.671
49481SOL    HW248468   8.404  11.999   7.778
49482SOL     OW48469   7.820  12.460   8.938
49482SOL    HW148470   7.807  12.553   8.904
49482SOL    HW248471   7.736  12.408   8.925
49483SOL     OW48472   9.062  12.464   8.737
49483SOL    HW148473   9.122  12.467   8.817
49483SOL    HW248474   8.987  12.528   8.750
49484SOL     OW48475   8.487  12.270   8.144
49484SOL    HW148476   8.417  12.223   8.198
49484SOL    HW248477   8.546  12.202   8.101
49485SOL     OW48478   8.462  11.408   8.419
49485SOL    HW148479   8.454  11.372   8.326
49485SOL    HW248480   8.460  11.332   8.484
49486SOL     OW48481   8.038  12.659   7.939
49486SOL    HW148482   8.080  12.601   7.869
49486SOL    HW248483   7.994  12.738   7.895
49487SOL     OW48484   9.157  11.557   8.829
49487SOL    HW148485   9.230  11.626   8.833
49487SOL    HW248486   9.185  11.482   8.770
49488SOL     OW48487   7.703  12.520   7.738
49488SOL    HW148488   7.607  12.521   7.711
49488SOL    HW248489   7.715  12.573   7.822
49489SOL     OW48490   7.553  12.185   9.174
49489SOL    HW148491   7.476  12.152   9.228
49489SOL    HW248492   7.638  12.155   9.216
49490SOL     OW48493   8.120  11.375   8.937
49490SOL    HW148494   8.210  11.359   8.897
49490SOL    HW248495   8.128  11.380   9.036
49491SOL     OW48496   7.523  11.517   7.481
49491SOL    HW148497   7.431  11.489   7.452
49491SOL    HW248498   7.554  11.594   7.425
49492SOL     OW48499   8.888  12.028   8.846
49492SOL    HW148500   8.831  12.080   8.783
49492SOL    HW248501   8.984  12.040   8.822
49493SOL     OW48502   7.520  11.338   7.766
49493SOL    HW148503   7.503  11.421   7.712
49493SOL    HW248504   7.610  11.301   7.744
49494SOL     OW48505   8.631  12.507   7.567
49494SOL    HW148506   8.532  12.496   7.569
49494SOL    HW248507   8.665  12.522   7.660
49495SOL     OW48508   8.061  12.014   8.879
49495SOL    HW148509   8.117  12.095   8.862
49495SOL    HW248510   8.120  11.934   8.882
49496SOL     OW48511   8.164  11.737   9.156
49496SOL    HW148512   8.183  11.802   9.230
49496SOL    HW248513   8.224  11.657   9.165
49497SOL     OW48514   8.898  12.392   9.081
49497SOL    HW148515   8.889  12.382   9.180
49497SOL    HW248516   8.994  12.385   9.055
49498SOL     OW48517   9.122  12.055   8.702
49498SOL    HW148518   9.095  11.966   8.665
49498SOL    HW248519   9.123  12.123   8.629
49499SOL     OW48520   8.673  11.497   7.897
49499SOL    HW148521   8.738  11.423   7.886
49499SOL    HW248522   8.693  11.547   7.981
49500SOL     OW48523   8.042  11.917   8.100
49500SOL    HW148524   8.092  12.002   8.081
49500SOL    HW248525   7.954  11.919   8.052
49501SOL     OW48526   9.225  11.514   9.090
49501SOL    HW148527   9.208  11.545   8.996
49501SOL    HW248528   9.141  11.477   9.128
49502SOL     OW48529   9.178  12.106   8.965
49502SOL    HW148530   9.216  12.197   8.980
49502SOL    HW248531   9.170  12.089   8.866
49503SOL     OW48532   8.307  12.546   7.464
49503SOL    HW148533   8.261  12.561   7.552
49503SOL    HW248534   8.351  12.631   7.434
49504SOL     OW48535   8.307  12.128   8.309
49504SOL    HW148536   8.361  12.059   8.357
49504SOL    HW248537   8.275  12.197   8.375
49505SOL     OW48538   8.531  12.156   7.535
49505SOL    HW148539   8.508  12.209   7.453
49505SOL    HW248540   8.612  12.100   7.516
49506SOL     OW48541   7.669  12.486   9.292
49506SOL    HW148542   7.604  12.413   9.271
49506SOL    HW248543   7.673  12.500   9.390
49507SOL     OW48544   7.527  12.412   8.101
49507SOL    HW148545   7.526  12.365   8.189
49507SOL    HW248546   7.609  12.384   8.050
49508SOL     OW48547   8.120  12.563   9.072
49508SOL    HW148548   8.042  12.513   9.110
49508SOL    HW248549   8.117  12.658   9.103
49509SOL     OW48550   9.272  11.364   8.675
49509SOL    HW148551   9.268  11.274   8.719
49509SOL    HW248552   9.275  11.353   8.576
49510SOL     OW48553   7.876  11.596   7.968
49510SOL    HW148554   7.906  11.524   7.906
49510SOL    HW248555   7.837  11.556   8.051
49511SOL     OW48556   9.153  12.659   8.552
49511SOL    HW148557   9.060  12.634   8.525
49511SOL    HW248558   9.179  12.609   8.634
49512SOL     OW48559   7.765  11.719   8.728
49512SOL    HW148560   7.803  11.660   8.800
49512SOL    HW248561   7.805  11.693   8.640
49513SOL     OW48562   8.872  11.386   8.560
49513SOL    HW148563   8.924  11.321   8.615
49513SOL    HW248564   8.823  11.449   8.621
49514SOL     OW48565   8.449  11.206   8.602
49514SOL    HW148566   8.386  11.134   8.571
49514SOL    HW248567   8.542  11.170   8.602
49515SOL     OW48568   8.218  12.502   7.749
49515SOL    HW148569   8.172  12.415   7.766
49515SOL    HW248570   8.309  12.499   7.790
49516SOL     OW48571   8.066  12.739   8.732
49516SOL    HW148572   8.061  12.821   8.789
49516SOL    HW248573   8.155  12.736   8.687
49517SOL     OW48574   8.800  11.224   7.616
49517SOL    HW148575   8.835  11.183   7.532
49517SOL    HW248576   8.710  11.186   7.636
49518SOL     OW48577   8.748  11.625   8.139
49518SOL    HW148578   8.689  11.705   8.143
49518SOL    HW248579   8.763  11.590   8.232
49519SOL     OW48580   9.041  11.393   8.330
49519SOL    HW148581   8.957  11.392   8.384
49519SOL    HW248582   9.043  11.476   8.274
49520SOL     OW48583   7.487  12.249   7.748
49520SOL    HW148584   7.586  12.238   7.739
49520SOL    HW248585   7.447  12.163   7.780
49521SOL     OW48586   7.678  11.800   9.423
49521SOL    HW148587   7.585  11.798   9.460
49521SOL    HW248588   7.679  11.761   9.331
49522SOL     OW48589   7.673  11.447  10.306
49522SOL    HW148590   7.708  11.430  10.398
49522SOL    HW248591   7.585  11.402  10.294
49523SOL     OW48592   7.467  11.540   9.957
49523SOL    HW148593   7.385  11.583   9.996
49523SOL    HW248594   7.439  11.467   9.894
49524SOL     OW48595   8.017  12.447  10.475
49524SOL    HW148596   7.924  12.440  10.438
49524SOL    HW248597   8.028  12.536  10.519
49525SOL     OW48598   9.003  12.683  10.013
49525SOL    HW148599   8.946  12.667  10.094
49525SOL    HW248600   8.944  12.693   9.933
49526SOL     OW48601   8.583  11.875  10.027
49526SOL    HW148602   8.640  11.953  10.002
49526SOL    HW248603   8.523  11.901  10.103
49527SOL     OW48604   9.203  11.779   9.541
49527SOL    HW148605   9.191  11.766   9.442
49527SOL    HW248606   9.173  11.698   9.590
49528SOL     OW48607   8.216  12.316  10.333
49528SOL    HW148608   8.138  12.333  10.393
49528SOL    HW248609   8.250  12.403  10.297
49529SOL     OW48610   8.298  11.970  11.133
49529SOL    HW148611   8.294  12.046  11.198
49529SOL    HW248612   8.320  12.006  11.042
49530SOL     OW48613   8.133  12.184   9.975
49530SOL    HW148614   8.202  12.168  10.045
49530SOL    HW248615   8.060  12.241  10.013
49531SOL     OW48616   8.134  12.333  11.113
49531SOL    HW148617   8.194  12.412  11.127
49531SOL    HW248618   8.048  12.364  11.072
49532SOL     OW48619   7.783  12.607  10.371
49532SOL    HW148620   7.705  12.576  10.318
49532SOL    HW248621   7.841  12.665  10.314
49533SOL     OW48622   8.908  12.677  10.649
49533SOL    HW148623   8.932  12.771  10.675
49533SOL    HW248624   8.892  12.623  10.731
49534SOL     OW48625   7.886  11.564  10.809
49534SOL    HW148626   7.968  11.508  10.818
49534SOL    HW248627   7.805  11.506  10.813
49535SOL     OW48628   9.051  11.619  10.047
49535SOL    HW148629   8.977  11.665   9.997
49535SOL    HW248630   9.102  11.687  10.100
49536SOL     OW48631   8.575  12.513  11.000
49536SOL    HW148632   8.622  12.513  11.088
49536SOL    HW248633   8.527  12.426  10.989
49537SOL     OW48634   7.678  12.606   9.848
49537SOL    HW148635   7.652  12.702   9.848
49537SOL    HW248636   7.607  12.552   9.893
49538SOL     OW48637   7.688  12.263  10.196
49538SOL    HW148638   7.702  12.179  10.248
49538SOL    HW248639   7.633  12.327  10.251
49539SOL     OW48640   8.054  12.136   9.433
49539SOL    HW148641   8.061  12.220   9.379
49539SOL    HW248642   8.100  12.149   9.521
49540SOL     OW48643   9.042  11.286  10.790
49540SOL    HW148644   9.024  11.353  10.718
49540SOL    HW248645   9.039  11.332  10.879
49541SOL     OW48646   7.570  11.815   9.873
49541SOL    HW148647   7.525  11.727   9.890
49541SOL    HW248648   7.569  11.869   9.957
49542SOL     OW48649   7.475  12.768   9.427
49542SOL    HW148650   7.456  12.672   9.448
49542SOL    HW248651   7.442  12.826   9.502
49543SOL     OW48652   9.137  12.094   9.922
49543SOL    HW148653   9.232  12.065   9.930
49543SOL    HW248654   9.129  12.159   9.847
49544SOL     OW48655   9.089  12.280   9.742
49544SOL    HW148656   9.175  12.282   9.690
49544SOL    HW248657   9.103  12.327   9.830
49545SOL     OW48658   7.561  11.909  10.907
49545SOL    HW148659   7.649  11.896  10.952
49545SOL    HW248660   7.548  12.006  10.885
49546SOL     OW48661   8.061  12.537  10.036
49546SOL    HW148662   8.012  12.450  10.045
49546SOL    HW248663   8.038  12.580   9.949
49547SOL     OW48664   8.741  12.400  10.733
49547SOL    HW148665   8.778  12.327  10.675
49547SOL    HW248666   8.793  12.405  10.818
49548SOL     OW48667   8.257  11.176   9.812
49548SOL    HW148668   8.297  11.267   9.803
49548SOL    HW248669   8.157  11.184   9.818
49549SOL     OW48670   7.645  12.148  10.574
49549SOL    HW148671   7.734  12.103  10.560
49549SOL    HW248672   7.572  12.083  10.555
49550SOL     OW48673   8.973  12.171   9.500
49550SOL    HW148674   8.910  12.095   9.513
49550SOL    HW248675   9.021  12.189   9.586
49551SOL     OW48676   7.765  11.423  11.111
49551SOL    HW148677   7.836  11.494  11.117
49551SOL    HW248678   7.677  11.462  11.139
49552SOL     OW48679   8.914  12.589  10.263
49552SOL    HW148680   8.855  12.595  10.343
49552SOL    HW248681   8.899  12.501  10.217
49553SOL     OW48682   8.046  11.901   9.580
49553SOL    HW148683   8.070  11.970   9.512
49553SOL    HW248684   7.968  11.934   9.634
49554SOL     OW48685   8.729  11.517  10.254
49554SOL    HW148686   8.643  11.467  10.241
49554SOL    HW248687   8.791  11.463  10.310
49555SOL     OW48688   9.024  12.834   9.617
49555SOL    HW148689   9.113  12.880   9.620
49555SOL    HW248690   9.003  12.810   9.522
49556SOL     OW48691   8.255  11.777  10.775
49556SOL    HW148692   8.208  11.774  10.864
49556SOL    HW248693   8.204  11.722  10.709
49557SOL     OW48694   8.842  11.641  10.984
49557SOL    HW148695   8.822  11.684  11.072
49557SOL    HW248696   8.920  11.579  10.993
49558SOL     OW48697   8.421  12.062  10.882
49558SOL    HW148698   8.467  11.978  10.853
49558SOL    HW248699   8.365  12.096  10.807
49559SOL     OW48700   8.439  11.582  10.552
49559SOL    HW148701   8.362  11.616  10.606
49559SOL    HW248702   8.405  11.531  10.473
49560SOL     OW48703   8.489  11.873   9.739
49560SOL    HW148704   8.515  11.869   9.835
49560SOL    HW248705   8.404  11.822   9.725
49561SOL     OW48706   7.524  11.983  10.099
49561SOL    HW148707   7.623  11.971  10.108
49561SOL    HW248708   7.500  12.078  10.120
49562SOL     OW48709   8.313  11.520   9.505
49562SOL    HW148710   8.372  11.583   9.456
49562SOL    HW248711   8.332  11.426   9.476
49563SOL     OW48712   9.167  11.757  11.141
49563SOL    HW148713   9.141  11.846  11.105
49563SOL    HW248714   9.165  11.689  11.068
49564SOL     OW48715   8.810  12.316   9.855
49564SOL    HW148716   8.893  12.287   9.807
49564SOL    HW248717   8.761  12.383   9.799
49565SOL     OW48718   7.998  11.368  10.195
49565SOL    HW148719   7.993  11.363  10.295
49565SOL    HW248720   8.000  11.464  10.166
49566SOL     OW48721   8.456  12.628   9.787
49566SOL    HW148722   8.410  12.700   9.735
49566SOL    HW248723   8.452  12.648   9.885
49567SOL     OW48724   9.243  12.238  10.183
49567SOL    HW148725   9.181  12.223  10.107
49567SOL    HW248726   9.191  12.249  10.268
49568SOL     OW48727   8.675  12.722  10.816
49568SOL    HW148728   8.681  12.645  10.880
49568SOL    HW248729   8.623  12.696  10.736
49569SOL     OW48730   7.769  12.115   9.552
49569SOL    HW148731   7.851  12.154   9.510
49569SOL    HW248732   7.742  12.033   9.503
49570SOL     OW48733   8.906  11.907  10.038
49570SOL    HW148734   8.901  11.842  10.113
49570SOL    HW248735   8.986  11.966  10.051
49571SOL     OW48736   7.909  12.438  11.037
49571SOL    HW148737   7.859  12.439  10.951
49571SOL    HW248738   7.846  12.420  11.113
49572SOL     OW48739   7.650  11.457  10.808
49572SOL    HW148740   7.570  11.517  10.795
49572SOL    HW248741   7.640  11.408  10.894
49573SOL     OW48742   9.080  12.549   9.391
49573SOL    HW148743   9.048  12.643   9.381
49573SOL    HW248744   9.004  12.486   9.379
49574SOL     OW48745   8.848  11.279   9.736
49574SOL    HW148746   8.824  11.242   9.646
49574SOL    HW248747   8.947  11.295   9.740
49575SOL     OW48748   7.830  11.872   9.790
49575SOL    HW148749   7.875  11.782   9.787
49575SOL    HW248750   7.736  11.861   9.823
49576SOL     OW48751   8.995  11.394  11.039
49576SOL    HW148752   8.990  11.431  11.131
49576SOL    HW248753   8.923  11.325  11.027
49577SOL     OW48754   8.062  11.294   9.427
49577SOL    HW148755   8.160  11.272   9.434
49577SOL    HW248756   8.031  11.277   9.334
49578SOL     OW48757   8.229  11.436  11.059
49578SOL    HW148758   8.296  11.375  11.102
49578SOL    HW248759   8.156  11.455  11.124
49579SOL     OW48760   8.799  11.762  10.743
49579SOL    HW148761   8.827  11.719  10.828
49579SOL    HW248762   8.824  11.858  10.744
49580SOL     OW48763   8.251  12.574  10.234
49580SOL    HW148764   8.341  12.588  10.192
49580SOL    HW248765   8.180  12.576  10.163
49581SOL     OW48766   8.370  11.675  10.209
49581SOL    HW148767   8.345  11.666  10.113
49581SOL    HW248768   8.418  11.593  10.240
49582SOL     OW48769   7.987  11.236   9.822
49582SOL    HW148770   7.906  11.237   9.880
49582SOL    HW248771   7.990  11.319   9.767
49583SOL     OW48772   8.882  12.360   9.351
49583SOL    HW148773   8.914  12.284   9.408
49583SOL    HW248774   8.790  12.387   9.381
49584SOL     OW48775   7.745  11.207   9.481
49584SOL    HW148776   7.794  11.291   9.460
49584SOL    HW248777   7.807  11.142   9.526
49585SOL     OW48778   8.383  11.408   9.790
49585SOL    HW148779   8.335  11.449   9.712
49585SOL    HW248780   8.482  11.406   9.771
49586SOL     OW48781   8.524  11.855  10.774
49586SOL    HW148782   8.444  11.794  10.777
49586SOL    HW248783   8.605  11.802  10.750
49587SOL     OW48784   8.675  12.742  10.103
49587SOL    HW148785   8.696  12.816  10.038
49587SOL    HW248786   8.743  12.742  10.176
49588SOL     OW48787   7.907  12.324  10.051
49588SOL    HW148788   7.836  12.297  10.116
49588SOL    HW248789   7.881  12.296   9.958
49589SOL     OW48790   8.480  11.721   9.326
49589SOL    HW148791   8.439  11.803   9.287
49589SOL    HW248792   8.544  11.747   9.399
49590SOL     OW48793   7.526  11.728  10.696
49590SOL    HW148794   7.618  11.727  10.655
49590SOL    HW248795   7.520  11.802  10.763
49591SOL     OW48796   8.009  11.394  10.457
49591SOL    HW148797   8.047  11.310  10.494
49591SOL    HW248798   7.921  11.413  10.501
49592SOL     OW48799   8.314  11.626   9.952
49592SOL    HW148800   8.282  11.698   9.890
49592SOL    HW248801   8.338  11.545   9.899
49593SOL     OW48802   8.465  11.211  10.063
49593SOL    HW148803   8.393  11.216   9.994
49593SOL    HW248804   8.441  11.142  10.132
49594SOL     OW48805   8.877  12.345  10.177
49594SOL    HW148806   8.822  12.261  10.170
49594SOL    HW248807   8.903  12.374  10.085
49595SOL     OW48808   8.914  11.762  10.302
49595SOL    HW148809   8.884  11.667  10.309
49595SOL    HW248810   8.987  11.778  10.368
49596SOL     OW48811   9.305  12.005   9.687
49596SOL    HW148812   9.347  11.941   9.751
49596SOL    HW248813   9.267  11.954   9.609
49597SOL     OW48814   7.936  12.557   9.484
49597SOL    HW148815   7.849  12.542   9.531
49597SOL    HW248816   7.919  12.583   9.389
49598SOL     OW48817   9.112  12.452   9.967
49598SOL    HW148818   9.211  12.460   9.981
49598SOL    HW248819   9.067  12.536   9.998
49599SOL     OW48820   8.838  11.747   9.388
49599SOL    HW148821   8.784  11.726   9.469
49599SOL    HW248822   8.929  11.706   9.397
49600SOL     OW48823   7.975  11.428   9.638
49600SOL    HW148824   8.002  11.369   9.563
49600SOL    HW248825   7.975  11.523   9.607
49601SOL     OW48826   9.202  12.395  10.898
49601SOL    HW148827   9.293  12.356  10.885
49601SOL    HW248828   9.210  12.491  10.922
49602SOL     OW48829   8.512  12.519  10.650
49602SOL    HW148830   8.432  12.496  10.705
49602SOL    HW248831   8.595  12.493  10.699
49603SOL     OW48832   8.559  12.367  10.410
49603SOL    HW148833   8.519  12.411  10.491
49603SOL    HW248834   8.518  12.404  10.327
49604SOL     OW48835   9.086  12.271  10.389
49604SOL    HW148836   9.091  12.352  10.448
49604SOL    HW248837   9.000  12.273  10.338
49605SOL     OW48838   8.363  11.261  10.712
49605SOL    HW148839   8.388  11.241  10.617
49605SOL    HW248840   8.435  11.317  10.754
49606SOL     OW48841   8.428  12.288  11.029
49606SOL    HW148842   8.329  12.294  11.039
49606SOL    HW248843   8.451  12.208  10.973
49607SOL     OW48844   8.153  12.222   9.678
49607SOL    HW148845   8.139  12.229   9.777
49607SOL    HW248846   8.237  12.171   9.660
49608SOL     OW48847   7.858  11.985  10.561
49608SOL    HW148848   7.944  11.997  10.611
49608SOL    HW248849   7.816  11.898  10.588
49609SOL     OW48850   8.722  11.558  10.572
49609SOL    HW148851   8.743  11.632  10.636
49609SOL    HW248852   8.633  11.575  10.529
49610SOL     OW48853   7.512  12.736  10.641
49610SOL    HW148854   7.466  12.818  10.607
49610SOL    HW248855   7.610  12.755  10.650
49611SOL     OW48856   7.815  12.272   9.811
49611SOL    HW148857   7.808  12.355   9.755
49611SOL    HW248858   7.819  12.192   9.751
49612SOL     OW48859   8.014  11.709  10.175
49612SOL    HW148860   8.026  11.775  10.101
49612SOL    HW248861   8.060  11.743  10.258
49613SOL     OW48862   8.700  12.520   9.698
49613SOL    HW148863   8.750  12.597   9.738
49613SOL    HW248864   8.605  12.522   9.730
49614SOL     OW48865   8.720  12.617  10.452
49614SOL    HW148866   8.767  12.630  10.539
49614SOL    HW248867   8.654  12.543  10.461
49615SOL     OW48868   9.030  11.811   9.782
49615SOL    HW148869   8.999  11.872   9.855
49615SOL    HW248870   9.080  11.863   9.713
49616SOL     OW48871   7.802  12.682  10.639
49616SOL    HW148872   7.781  12.638  10.552
49616SOL    HW248873   7.899  12.708  10.642
49617SOL     OW48874   7.850  11.923  10.908
49617SOL    HW148875   7.918  11.978  10.861
49617SOL    HW248876   7.890  11.835  10.935
49618SOL     OW48877   9.035  11.951  10.980
49618SOL    HW148878   8.943  11.989  10.975
49618SOL    HW248879   9.095  11.998  10.915
49619SOL     OW48880   8.461  11.277  11.080
49619SOL    HW148881   8.467  11.362  11.028
49619SOL    HW248882   8.493  11.201  11.023
49620SOL     OW48883   7.952  11.222  11.050
49620SOL    HW148884   7.910  11.165  10.980
49620SOL    HW248885   7.886  11.291  11.082
49621SOL     OW48886   8.021  12.042  10.339
49621SOL    HW148887   8.065  12.131  10.330
49621SOL    HW248888   7.958  12.042  10.416
49622SOL     OW48889   8.808  12.034  10.355
49622SOL    HW148890   8.733  12.034  10.289
49622SOL    HW248891   8.845  11.942  10.364
49623SOL     OW48892   8.657  11.697   9.585
49623SOL    HW148893   8.670  11.613   9.639
49623SOL    HW248894   8.628  11.771   9.645
49624SOL     OW48895   7.755  11.385  10.541
49624SOL    HW148896   7.732  11.422  10.631
49624SOL    HW248897   7.725  11.290  10.535
49625SOL     OW48898   7.485  12.482  10.592
49625SOL    HW148899   7.538  12.433  10.660
49625SOL    HW248900   7.507  12.580  10.597
49626SOL     OW48901   8.180  11.806  10.374
49626SOL    HW148902   8.239  11.780  10.298
49626SOL    HW248903   8.152  11.902  10.363
49627SOL     OW48904   9.176  12.107  11.164
49627SOL    HW148905   9.130  12.100  11.075
49627SOL    HW248906   9.114  12.151  11.230
49628SOL     OW48907   7.755  11.235   9.928
49628SOL    HW148908   7.744  11.329   9.961
49628SOL    HW248909   7.750  11.172  10.005
49629SOL     OW48910   9.070  11.539   9.684
49629SOL    HW148911   9.072  11.463   9.748
49629SOL    HW248912   9.022  11.616   9.724
49630SOL     OW48913   8.471  11.938  10.276
49630SOL    HW148914   8.486  11.959  10.372
49630SOL    HW248915   8.441  11.843  10.267
49631SOL     OW48916   9.307  12.690  10.915
49631SOL    HW148917   9.321  12.717  10.820
49631SOL    HW248918   9.390  12.712  10.968
49632SOL     OW48919   7.798  12.070  11.114
49632SOL    HW148920   7.874  12.114  11.162
49632SOL    HW248921   7.833  12.023  11.032
49633SOL     OW48922   8.988  11.446   9.435
49633SOL    HW148923   8.927  11.371   9.458
49633SOL    HW248924   9.010  11.498   9.518
49634SOL     OW48925   8.751  12.010   9.352
49634SOL    HW148926   8.785  11.917   9.367
49634SOL    HW248927   8.769  12.037   9.257
49635SOL     OW48928   8.516  12.505  10.159
49635SOL    HW148929   8.523  12.421  10.104
49635SOL    HW248930   8.578  12.574  10.123
49636SOL     OW48931   7.767  11.982  10.259
49636SOL    HW148932   7.860  12.018  10.264
49636SOL    HW248933   7.761  11.897  10.311
49637SOL     OW48934   7.787  11.681  10.316
49637SOL    HW148935   7.735  11.598  10.299
49637SOL    HW248936   7.864  11.686  10.252
49638SOL     OW48937   8.586  11.552  10.988
49638SOL    HW148938   8.541  11.615  11.052
49638SOL    HW248939   8.679  11.583  10.971
49639SOL     OW48940   8.608  11.379  10.787
49639SOL    HW148941   8.608  11.443  10.864
49639SOL    HW248942   8.636  11.427  10.704
49640SOL     OW48943   7.456  12.498   9.510
49640SOL    HW148944   7.363  12.519   9.479
49640SOL    HW248945   7.466  12.399   9.523
49641SOL     OW48946   7.952  12.740  10.220
49641SOL    HW148947   8.018  12.814  10.229
49641SOL    HW248948   7.996  12.661  10.178
49642SOL     OW48949   8.450  11.968  10.548
49642SOL    HW148950   8.491  11.936  10.634
49642SOL    HW248951   8.354  11.941  10.545
49643SOL     OW48952   7.488  11.716  10.424
49643SOL    HW148953   7.573  11.683  10.383
49643SOL    HW248954   7.501  11.731  10.522
49644SOL     OW48955   7.637  11.692  11.032
49644SOL    HW148956   7.696  11.652  10.962
49644SOL    HW248957   7.579  11.763  10.991
49645SOL     OW48958   8.817  12.122  10.970
49645SOL    HW148959   8.856  12.211  10.990
49645SOL    HW248960   8.827  12.102  10.873
49646SOL     OW48961   8.263  11.744   9.635
49646SOL    HW148962   8.270  11.655   9.589
49646SOL    HW248963   8.169  11.778   9.627
49647SOL     OW48964   9.105  11.776  10.516
49647SOL    HW148965   9.067  11.707  10.578
49647SOL    HW248966   9.187  11.740  10.472
49648SOL     OW48967   7.700  12.736  11.054
49648SOL    HW148968   7.670  12.793  11.130
49648SOL    HW248969   7.693  12.639  11.080
49649SOL     OW48970   8.119  11.636  10.579
49649SOL    HW148971   8.085  11.547  10.549
49649SOL    HW248972   8.145  11.690  10.499
49650SOL     OW48973   7.921  11.672   9.501
49650SOL    HW148974   7.982  11.752   9.505
49650SOL    HW248975   7.826  11.703   9.508
49651SOL     OW48976   7.607  12.309  10.776
49651SOL    HW148977   7.629  12.248  10.852
49651SOL    HW248978   7.617  12.260  10.690
49652SOL     OW48979   8.795  12.231  10.544
49652SOL    HW148980   8.819  12.168  10.470
49652SOL    HW248981   8.705  12.271  10.526
49653SOL     OW48982   8.750  12.027   9.619
49653SOL    HW148983   8.664  11.996   9.661
49653SOL    HW248984   8.746  12.013   9.520
49654SOL     OW48985   8.700  12.903  10.438
49654SOL    HW148986   8.784  12.908  10.384
49654SOL    HW248987   8.677  12.807  10.456
49655SOL     OW48988   7.531  12.430  10.332
49655SOL    HW148989   7.526  12.429  10.432
49655SOL    HW248990   7.448  12.389  10.294
49656SOL     OW48991   9.174  11.307   9.833
49656SOL    HW148992   9.247  11.290   9.766
49656SOL    HW248993   9.143  11.220   9.871
49657SOL     OW48994   7.578  12.966  11.161
49657SOL    HW148995   7.537  12.892  11.214
49657SOL    HW248996   7.642  13.017  11.219
49658SOL     OW48997   8.728  12.099   9.982
49658SOL    HW148998   8.788  12.018   9.984
49658SOL    HW248999   8.768  12.168   9.922
49659SOL     OW49000   8.278  12.445  10.732
49659SOL    HW149001   8.273  12.478  10.827
49659SOL    HW249002   8.192  12.464  10.686
49660SOL     OW49003   8.120  12.788   9.464
49660SOL    HW149004   8.129  12.798   9.365
49660SOL    HW249005   8.080  12.699   9.485
49661SOL     OW49006   9.289  11.347  10.273
49661SOL    HW149007   9.328  11.262  10.237
49661SOL    HW249008   9.191  11.349  10.254
49662SOL     OW49009   7.711  11.498  10.030
49662SOL    HW149010   7.632  11.549   9.996
49662SOL    HW249011   7.702  11.483  10.128
49663SOL     OW49012   8.642  12.784   9.341
49663SOL    HW149013   8.648  12.691   9.378
49663SOL    HW249014   8.583  12.784   9.261
49664SOL     OW49015   8.270  12.174  10.682
49664SOL    HW149016   8.310  12.173  10.590
49664SOL    HW249017   8.280  12.266  10.722
49665SOL     OW49018   8.364  12.082   9.601
49665SOL    HW149019   8.427  12.120   9.533
49665SOL    HW249020   8.404  11.999   9.640
49666SOL     OW49021   7.820  12.460  10.800
49666SOL    HW149022   7.807  12.553  10.766
49666SOL    HW249023   7.736  12.408  10.787
49667SOL     OW49024   9.062  12.464  10.599
49667SOL    HW149025   9.122  12.467  10.679
49667SOL    HW249026   8.987  12.528  10.612
49668SOL     OW49027   8.487  12.270  10.006
49668SOL    HW149028   8.417  12.223  10.060
49668SOL    HW249029   8.546  12.202   9.963
49669SOL     OW49030   8.462  11.408  10.281
49669SOL    HW149031   8.454  11.372  10.188
49669SOL    HW249032   8.460  11.332  10.346
49670SOL     OW49033   8.038  12.659   9.801
49670SOL    HW149034   8.080  12.601   9.731
49670SOL    HW249035   7.994  12.738   9.757
49671SOL     OW49036   9.157  11.557  10.691
49671SOL    HW149037   9.230  11.626  10.695
49671SOL    HW249038   9.185  11.482  10.632
49672SOL     OW49039   7.703  12.520   9.600
49672SOL    HW149040   7.607  12.521   9.573
49672SOL    HW249041   7.715  12.573   9.684
49673SOL     OW49042   7.553  12.185  11.036
49673SOL    HW149043   7.476  12.152  11.090
49673SOL    HW249044   7.638  12.155  11.078
49674SOL     OW49045   8.120  11.375  10.799
49674SOL    HW149046   8.210  11.359  10.759
49674SOL    HW249047   8.128  11.380  10.898
49675SOL     OW49048   7.523  11.517   9.343
49675SOL    HW149049   7.431  11.489   9.314
49675SOL    HW249050   7.554  11.594   9.287
49676SOL     OW49051   8.888  12.028  10.708
49676SOL    HW149052   8.831  12.080  10.645
49676SOL    HW249053   8.984  12.040  10.684
49677SOL     OW49054   7.520  11.338   9.628
49677SOL    HW149055   7.503  11.421   9.574
49677SOL    HW249056   7.610  11.301   9.606
49678SOL     OW49057   8.631  12.507   9.429
49678SOL    HW149058   8.532  12.496   9.431
49678SOL    HW249059   8.665  12.522   9.522
49679SOL     OW49060   8.061  12.014  10.741
49679SOL    HW149061   8.117  12.095  10.724
49679SOL    HW249062   8.120  11.934  10.744
49680SOL     OW49063   8.164  11.737  11.018
49680SOL    HW149064   8.183  11.802  11.092
49680SOL    HW249065   8.224  11.657  11.027
49681SOL     OW49066   8.898  12.392  10.943
49681SOL    HW149067   8.889  12.382  11.042
49681SOL    HW249068   8.994  12.385  10.917
49682SOL     OW49069   9.122  12.055  10.564
49682SOL    HW149070   9.095  11.966  10.527
49682SOL    HW249071   9.123  12.123  10.491
49683SOL     OW49072   8.673  11.497   9.759
49683SOL    HW149073   8.738  11.423   9.748
49683SOL    HW249074   8.693  11.547   9.843
49684SOL     OW49075   8.042  11.917   9.962
49684SOL    HW149076   8.092  12.002   9.943
49684SOL    HW249077   7.954  11.919   9.914
49685SOL     OW49078   9.225  11.514  10.952
49685SOL    HW149079   9.208  11.545  10.858
49685SOL    HW249080   9.141  11.477  10.990
49686SOL     OW49081   9.178  12.106  10.827
49686SOL    HW149082   9.216  12.197  10.842
49686SOL    HW249083   9.170  12.089  10.728
49687SOL     OW49084   8.307  12.546   9.326
49687SOL    HW149085   8.261  12.561   9.414
49687SOL    HW249086   8.351  12.631   9.296
49688SOL     OW49087   8.307  12.128  10.171
49688SOL    HW149088   8.361  12.059  10.219
49688SOL    HW249089   8.275  12.197  10.237
49689SOL     OW49090   8.531  12.156   9.397
49689SOL    HW149091   8.508  12.209   9.315
49689SOL    HW249092   8.612  12.100   9.378
49690SOL     OW49093   9.309  12.741  10.161
49690SOL    HW149094   9.238  12.729  10.091
49690SOL    HW249095   9.310  12.662  10.221
49691SOL     OW49096   7.669  12.486  11.154
49691SOL    HW149097   7.604  12.413  11.133
49691SOL    HW249098   7.673  12.500  11.252
49692SOL     OW49099   7.527  12.412   9.963
49692SOL    HW149100   7.526  12.365  10.051
49692SOL    HW249101   7.609  12.384   9.912
49693SOL     OW49102   8.120  12.563  10.934
49693SOL    HW149103   8.042  12.513  10.972
49693SOL    HW249104   8.117  12.658  10.965
49694SOL     OW49105   9.272  11.364  10.537
49694SOL    HW149106   9.268  11.274  10.581
49694SOL    HW249107   9.275  11.353  10.438
49695SOL     OW49108   7.876  11.596   9.830
49695SOL    HW149109   7.906  11.524   9.768
49695SOL    HW249110   7.837  11.556   9.913
49696SOL     OW49111   9.153  12.659  10.414
49696SOL    HW149112   9.060  12.634  10.387
49696SOL    HW249113   9.179  12.609  10.496
49697SOL     OW49114   7.765  11.719  10.590
49697SOL    HW149115   7.803  11.660  10.662
49697SOL    HW249116   7.805  11.693  10.502
49698SOL     OW49117   8.872  11.386  10.422
49698SOL    HW149118   8.924  11.321  10.477
49698SOL    HW249119   8.823  11.449  10.483
49699SOL     OW49120   8.449  11.206  10.464
49699SOL    HW149121   8.386  11.134  10.433
49699SOL    HW249122   8.542  11.170  10.464
49700SOL     OW49123   8.218  12.502   9.611
49700SOL    HW149124   8.172  12.415   9.628
49700SOL    HW249125   8.309  12.499   9.652
49701SOL     OW49126   8.066  12.739  10.594
49701SOL    HW149127   8.061  12.821  10.651
49701SOL    HW249128   8.155  12.736  10.549
49702SOL     OW49129   8.800  11.224   9.478
49702SOL    HW149130   8.835  11.183   9.394
49702SOL    HW249131   8.710  11.186   9.498
49703SOL     OW49132   8.748  11.625  10.001
49703SOL    HW149133   8.689  11.705  10.005
49703SOL    HW249134   8.763  11.590  10.094
49704SOL     OW49135   9.041  11.393  10.192
49704SOL    HW149136   8.957  11.392  10.246
49704SOL    HW249137   9.043  11.476  10.136
49705SOL     OW49138   7.487  12.249   9.610
49705SOL    HW149139   7.586  12.238   9.601
49705SOL    HW249140   7.447  12.163   9.642
49706SOL     OW49141   7.678  11.800  11.285
49706SOL    HW149142   7.585  11.798  11.322
49706SOL    HW249143   7.679  11.761  11.193
49707SOL     OW49144   7.673  11.447  12.168
49707SOL    HW149145   7.708  11.430  12.260
49707SOL    HW249146   7.585  11.402  12.156
49708SOL     OW49147   7.467  11.540  11.819
49708SOL    HW149148   7.385  11.583  11.858
49708SOL    HW249149   7.439  11.467  11.756
49709SOL     OW49150   8.017  12.447  12.337
49709SOL    HW149151   7.924  12.440  12.300
49709SOL    HW249152   8.028  12.536  12.381
49710SOL     OW49153   9.003  12.683  11.875
49710SOL    HW149154   8.946  12.667  11.956
49710SOL    HW249155   8.944  12.693  11.795
49711SOL     OW49156   8.583  11.875  11.889
49711SOL    HW149157   8.640  11.953  11.864
49711SOL    HW249158   8.523  11.901  11.965
49712SOL     OW49159   9.203  11.779  11.403
49712SOL    HW149160   9.191  11.766  11.304
49712SOL    HW249161   9.173  11.698  11.452
49713SOL     OW49162   8.216  12.316  12.195
49713SOL    HW149163   8.138  12.333  12.255
49713SOL    HW249164   8.250  12.403  12.159
49714SOL     OW49165   8.133  12.184  11.837
49714SOL    HW149166   8.202  12.168  11.907
49714SOL    HW249167   8.060  12.241  11.875
49715SOL     OW49168   7.783  12.607  12.233
49715SOL    HW149169   7.705  12.576  12.180
49715SOL    HW249170   7.841  12.665  12.176
49716SOL     OW49171   8.908  12.677  12.511
49716SOL    HW149172   8.932  12.771  12.537
49716SOL    HW249173   8.892  12.623  12.593
49717SOL     OW49174   7.886  11.564  12.671
49717SOL    HW149175   7.968  11.508  12.680
49717SOL    HW249176   7.805  11.506  12.675
49718SOL     OW49177   9.051  11.619  11.909
49718SOL    HW149178   8.977  11.665  11.859
49718SOL    HW249179   9.102  11.687  11.962
49719SOL     OW49180   7.678  12.606  11.710
49719SOL    HW149181   7.652  12.702  11.710
49719SOL    HW249182   7.607  12.552  11.755
49720SOL     OW49183   7.688  12.263  12.058
49720SOL    HW149184   7.702  12.179  12.110
49720SOL    HW249185   7.633  12.327  12.113
49721SOL     OW49186   8.054  12.136  11.295
49721SOL    HW149187   8.061  12.220  11.241
49721SOL    HW249188   8.100  12.149  11.383
49722SOL     OW49189   9.042  11.286  12.652
49722SOL    HW149190   9.024  11.353  12.580
49722SOL    HW249191   9.039  11.332  12.741
49723SOL     OW49192   7.570  11.815  11.735
49723SOL    HW149193   7.525  11.727  11.752
49723SOL    HW249194   7.569  11.869  11.819
49724SOL     OW49195   7.475  12.768  11.289
49724SOL    HW149196   7.456  12.672  11.310
49724SOL    HW249197   7.442  12.826  11.364
49725SOL     OW49198   9.137  12.094  11.784
49725SOL    HW149199   9.232  12.065  11.792
49725SOL    HW249200   9.129  12.159  11.709
49726SOL     OW49201   9.089  12.280  11.604
49726SOL    HW149202   9.175  12.282  11.552
49726SOL    HW249203   9.103  12.327  11.692
49727SOL     OW49204   7.561  11.909  12.769
49727SOL    HW149205   7.649  11.896  12.814
49727SOL    HW249206   7.548  12.006  12.747
49728SOL     OW49207   8.061  12.537  11.898
49728SOL    HW149208   8.012  12.450  11.907
49728SOL    HW249209   8.038  12.580  11.811
49729SOL     OW49210   8.741  12.400  12.595
49729SOL    HW149211   8.778  12.327  12.537
49729SOL    HW249212   8.793  12.405  12.680
49730SOL     OW49213   8.257  11.176  11.674
49730SOL    HW149214   8.297  11.267  11.665
49730SOL    HW249215   8.157  11.184  11.680
49731SOL     OW49216   7.645  12.148  12.436
49731SOL    HW149217   7.734  12.103  12.422
49731SOL    HW249218   7.572  12.083  12.417
49732SOL     OW49219   8.973  12.171  11.362
49732SOL    HW149220   8.910  12.095  11.375
49732SOL    HW249221   9.021  12.189  11.448
49733SOL     OW49222   8.914  12.589  12.125
49733SOL    HW149223   8.855  12.595  12.205
49733SOL    HW249224   8.899  12.501  12.079
49734SOL     OW49225   8.046  11.901  11.442
49734SOL    HW149226   8.070  11.970  11.374
49734SOL    HW249227   7.968  11.934  11.496
49735SOL     OW49228   8.729  11.517  12.116
49735SOL    HW149229   8.643  11.467  12.103
49735SOL    HW249230   8.791  11.463  12.172
49736SOL     OW49231   9.024  12.834  11.479
49736SOL    HW149232   9.113  12.880  11.482
49736SOL    HW249233   9.003  12.810  11.384
49737SOL     OW49234   8.255  11.777  12.637
49737SOL    HW149235   8.208  11.774  12.726
49737SOL    HW249236   8.204  11.722  12.571
49738SOL     OW49237   8.421  12.062  12.744
49738SOL    HW149238   8.467  11.978  12.715
49738SOL    HW249239   8.365  12.096  12.669
49739SOL     OW49240   8.439  11.582  12.414
49739SOL    HW149241   8.362  11.616  12.468
49739SOL    HW249242   8.405  11.531  12.335
49740SOL     OW49243   8.489  11.873  11.601
49740SOL    HW149244   8.515  11.869  11.697
49740SOL    HW249245   8.404  11.822  11.587
49741SOL     OW49246   7.524  11.983  11.961
49741SOL    HW149247   7.623  11.971  11.970
49741SOL    HW249248   7.500  12.078  11.982
49742SOL     OW49249   8.313  11.520  11.367
49742SOL    HW149250   8.372  11.583  11.318
49742SOL    HW249251   8.332  11.426  11.338
49743SOL     OW49252   8.810  12.316  11.717
49743SOL    HW149253   8.893  12.287  11.669
49743SOL    HW249254   8.761  12.383  11.661
49744SOL     OW49255   7.998  11.368  12.057
49744SOL    HW149256   7.993  11.363  12.157
49744SOL    HW249257   8.000  11.464  12.028
49745SOL     OW49258   8.456  12.628  11.649
49745SOL    HW149259   8.410  12.700  11.597
49745SOL    HW249260   8.452  12.648  11.747
49746SOL     OW49261   9.243  12.238  12.045
49746SOL    HW149262   9.181  12.223  11.969
49746SOL    HW249263   9.191  12.249  12.130
49747SOL     OW49264   8.675  12.722  12.678
49747SOL    HW149265   8.681  12.645  12.742
49747SOL    HW249266   8.623  12.696  12.598
49748SOL     OW49267   7.769  12.115  11.414
49748SOL    HW149268   7.851  12.154  11.372
49748SOL    HW249269   7.742  12.033  11.365
49749SOL     OW49270   8.906  11.907  11.900
49749SOL    HW149271   8.901  11.842  11.975
49749SOL    HW249272   8.986  11.966  11.913
49750SOL     OW49273   7.650  11.457  12.670
49750SOL    HW149274   7.570  11.517  12.657
49750SOL    HW249275   7.640  11.408  12.756
49751SOL     OW49276   9.080  12.549  11.253
49751SOL    HW149277   9.048  12.643  11.243
49751SOL    HW249278   9.004  12.486  11.241
49752SOL     OW49279   8.848  11.279  11.598
49752SOL    HW149280   8.824  11.242  11.508
49752SOL    HW249281   8.947  11.295  11.602
49753SOL     OW49282   7.830  11.872  11.652
49753SOL    HW149283   7.875  11.782  11.649
49753SOL    HW249284   7.736  11.861  11.685
49754SOL     OW49285   8.062  11.294  11.289
49754SOL    HW149286   8.160  11.272  11.296
49754SOL    HW249287   8.031  11.277  11.196
49755SOL     OW49288   8.799  11.762  12.605
49755SOL    HW149289   8.827  11.719  12.690
49755SOL    HW249290   8.824  11.858  12.606
49756SOL     OW49291   8.251  12.574  12.096
49756SOL    HW149292   8.341  12.588  12.054
49756SOL    HW249293   8.180  12.576  12.025
49757SOL     OW49294   8.370  11.675  12.071
49757SOL    HW149295   8.345  11.666  11.975
49757SOL    HW249296   8.418  11.593  12.102
49758SOL     OW49297   7.987  11.236  11.684
49758SOL    HW149298   7.906  11.237  11.742
49758SOL    HW249299   7.990  11.319  11.629
49759SOL     OW49300   8.882  12.360  11.213
49759SOL    HW149301   8.914  12.284  11.270
49759SOL    HW249302   8.790  12.387  11.243
49760SOL     OW49303   7.745  11.207  11.343
49760SOL    HW149304   7.794  11.291  11.322
49760SOL    HW249305   7.807  11.142  11.388
49761SOL     OW49306   8.383  11.408  11.652
49761SOL    HW149307   8.335  11.449  11.574
49761SOL    HW249308   8.482  11.406  11.633
49762SOL     OW49309   8.524  11.855  12.636
49762SOL    HW149310   8.444  11.794  12.639
49762SOL    HW249311   8.605  11.802  12.612
49763SOL     OW49312   8.675  12.742  11.965
49763SOL    HW149313   8.696  12.816  11.900
49763SOL    HW249314   8.743  12.742  12.038
49764SOL     OW49315   7.907  12.324  11.913
49764SOL    HW149316   7.836  12.297  11.978
49764SOL    HW249317   7.881  12.296  11.820
49765SOL     OW49318   8.480  11.721  11.188
49765SOL    HW149319   8.439  11.803  11.149
49765SOL    HW249320   8.544  11.747  11.261
49766SOL     OW49321   7.526  11.728  12.558
49766SOL    HW149322   7.618  11.727  12.517
49766SOL    HW249323   7.520  11.802  12.625
49767SOL     OW49324   8.009  11.394  12.319
49767SOL    HW149325   8.047  11.310  12.356
49767SOL    HW249326   7.921  11.413  12.363
49768SOL     OW49327   8.314  11.626  11.814
49768SOL    HW149328   8.282  11.698  11.752
49768SOL    HW249329   8.338  11.545  11.761
49769SOL     OW49330   8.465  11.211  11.925
49769SOL    HW149331   8.393  11.216  11.856
49769SOL    HW249332   8.441  11.142  11.994
49770SOL     OW49333   8.877  12.345  12.039
49770SOL    HW149334   8.822  12.261  12.032
49770SOL    HW249335   8.903  12.374  11.947
49771SOL     OW49336   8.914  11.762  12.164
49771SOL    HW149337   8.884  11.667  12.171
49771SOL    HW249338   8.987  11.778  12.230
49772SOL     OW49339   9.305  12.005  11.549
49772SOL    HW149340   9.347  11.941  11.613
49772SOL    HW249341   9.267  11.954  11.471
49773SOL     OW49342   7.936  12.557  11.346
49773SOL    HW149343   7.849  12.542  11.393
49773SOL    HW249344   7.919  12.583  11.251
49774SOL     OW49345   9.112  12.452  11.829
49774SOL    HW149346   9.211  12.460  11.843
49774SOL    HW249347   9.067  12.536  11.860
49775SOL     OW49348   8.838  11.747  11.250
49775SOL    HW149349   8.784  11.726  11.331
49775SOL    HW249350   8.929  11.706  11.259
49776SOL     OW49351   7.975  11.428  11.500
49776SOL    HW149352   8.002  11.369  11.425
49776SOL    HW249353   7.975  11.523  11.469
49777SOL     OW49354   9.202  12.395  12.760
49777SOL    HW149355   9.293  12.356  12.747
49777SOL    HW249356   9.210  12.491  12.784
49778SOL     OW49357   8.512  12.519  12.512
49778SOL    HW149358   8.432  12.496  12.567
49778SOL    HW249359   8.595  12.493  12.561
49779SOL     OW49360   8.559  12.367  12.272
49779SOL    HW149361   8.519  12.411  12.353
49779SOL    HW249362   8.518  12.404  12.189
49780SOL     OW49363   9.086  12.271  12.251
49780SOL    HW149364   9.091  12.352  12.310
49780SOL    HW249365   9.000  12.273  12.200
49781SOL     OW49366   8.363  11.261  12.574
49781SOL    HW149367   8.388  11.241  12.479
49781SOL    HW249368   8.435  11.317  12.616
49782SOL     OW49369   8.153  12.222  11.540
49782SOL    HW149370   8.139  12.229  11.639
49782SOL    HW249371   8.237  12.171  11.522
49783SOL     OW49372   7.858  11.985  12.423
49783SOL    HW149373   7.944  11.997  12.473
49783SOL    HW249374   7.816  11.898  12.450
49784SOL     OW49375   8.722  11.558  12.434
49784SOL    HW149376   8.743  11.632  12.498
49784SOL    HW249377   8.633  11.575  12.391
49785SOL     OW49378   7.512  12.736  12.503
49785SOL    HW149379   7.466  12.818  12.469
49785SOL    HW249380   7.610  12.755  12.512
49786SOL     OW49381   7.815  12.272  11.673
49786SOL    HW149382   7.808  12.355  11.617
49786SOL    HW249383   7.819  12.192  11.613
49787SOL     OW49384   8.014  11.709  12.037
49787SOL    HW149385   8.026  11.775  11.963
49787SOL    HW249386   8.060  11.743  12.120
49788SOL     OW49387   8.700  12.520  11.560
49788SOL    HW149388   8.750  12.597  11.600
49788SOL    HW249389   8.605  12.522  11.592
49789SOL     OW49390   8.720  12.617  12.314
49789SOL    HW149391   8.767  12.630  12.401
49789SOL    HW249392   8.654  12.543  12.323
49790SOL     OW49393   9.030  11.811  11.644
49790SOL    HW149394   8.999  11.872  11.717
49790SOL    HW249395   9.080  11.863  11.575
49791SOL     OW49396   7.802  12.682  12.501
49791SOL    HW149397   7.781  12.638  12.414
49791SOL    HW249398   7.899  12.708  12.504
49792SOL     OW49399   7.850  11.923  12.770
49792SOL    HW149400   7.918  11.978  12.723
49792SOL    HW249401   7.890  11.835  12.797
49793SOL     OW49402   9.035  11.951  12.842
49793SOL    HW149403   8.943  11.989  12.837
49793SOL    HW249404   9.095  11.998  12.777
49794SOL     OW49405   8.021  12.042  12.201
49794SOL    HW149406   8.065  12.131  12.192
49794SOL    HW249407   7.958  12.042  12.278
49795SOL     OW49408   8.808  12.034  12.217
49795SOL    HW149409   8.733  12.034  12.151
49795SOL    HW249410   8.845  11.942  12.226
49796SOL     OW49411   8.657  11.697  11.447
49796SOL    HW149412   8.670  11.613  11.501
49796SOL    HW249413   8.628  11.771  11.507
49797SOL     OW49414   7.755  11.385  12.403
49797SOL    HW149415   7.732  11.422  12.493
49797SOL    HW249416   7.725  11.290  12.397
49798SOL     OW49417   7.485  12.482  12.454
49798SOL    HW149418   7.538  12.433  12.522
49798SOL    HW249419   7.507  12.580  12.459
49799SOL     OW49420   8.180  11.806  12.236
49799SOL    HW149421   8.239  11.780  12.160
49799SOL    HW249422   8.152  11.902  12.225
49800SOL     OW49423   7.755  11.235  11.790
49800SOL    HW149424   7.744  11.329  11.823
49800SOL    HW249425   7.750  11.172  11.867
49801SOL     OW49426   9.070  11.539  11.546
49801SOL    HW149427   9.072  11.463  11.610
49801SOL    HW249428   9.022  11.616  11.586
49802SOL     OW49429   8.471  11.938  12.138
49802SOL    HW149430   8.486  11.959  12.234
49802SOL    HW249431   8.441  11.843  12.129
49803SOL     OW49432   8.988  11.446  11.297
49803SOL    HW149433   8.927  11.371  11.320
49803SOL    HW249434   9.010  11.498  11.380
49804SOL     OW49435   8.751  12.010  11.214
49804SOL    HW149436   8.785  11.917  11.229
49804SOL    HW249437   8.769  12.037  11.119
49805SOL     OW49438   8.516  12.505  12.021
49805SOL    HW149439   8.523  12.421  11.966
49805SOL    HW249440   8.578  12.574  11.985
49806SOL     OW49441   7.767  11.982  12.121
49806SOL    HW149442   7.860  12.018  12.126
49806SOL    HW249443   7.761  11.897  12.173
49807SOL     OW49444   7.787  11.681  12.178
49807SOL    HW149445   7.735  11.598  12.161
49807SOL    HW249446   7.864  11.686  12.114
49808SOL     OW49447   8.608  11.379  12.649
49808SOL    HW149448   8.608  11.443  12.726
49808SOL    HW249449   8.636  11.427  12.566
49809SOL     OW49450   7.456  12.498  11.372
49809SOL    HW149451   7.363  12.519  11.341
49809SOL    HW249452   7.466  12.399  11.385
49810SOL     OW49453   7.952  12.740  12.082
49810SOL    HW149454   8.018  12.814  12.091
49810SOL    HW249455   7.996  12.661  12.040
49811SOL     OW49456   8.450  11.968  12.410
49811SOL    HW149457   8.491  11.936  12.496
49811SOL    HW249458   8.354  11.941  12.407
49812SOL     OW49459   7.488  11.716  12.286
49812SOL    HW149460   7.573  11.683  12.245
49812SOL    HW249461   7.501  11.731  12.384
49813SOL     OW49462   8.263  11.744  11.497
49813SOL    HW149463   8.270  11.655  11.451
49813SOL    HW249464   8.169  11.778  11.489
49814SOL     OW49465   9.105  11.776  12.378
49814SOL    HW149466   9.067  11.707  12.440
49814SOL    HW249467   9.187  11.740  12.334
49815SOL     OW49468   8.119  11.636  12.441
49815SOL    HW149469   8.085  11.547  12.411
49815SOL    HW249470   8.145  11.690  12.361
49816SOL     OW49471   7.921  11.672  11.363
49816SOL    HW149472   7.982  11.752  11.367
49816SOL    HW249473   7.826  11.703  11.370
49817SOL     OW49474   7.607  12.309  12.638
49817SOL    HW149475   7.629  12.248  12.714
49817SOL    HW249476   7.617  12.260  12.552
49818SOL     OW49477   8.795  12.231  12.406
49818SOL    HW149478   8.819  12.168  12.332
49818SOL    HW249479   8.705  12.271  12.388
49819SOL     OW49480   8.750  12.027  11.481
49819SOL    HW149481   8.664  11.996  11.523
49819SOL    HW249482   8.746  12.013  11.382
49820SOL     OW49483   8.700  12.903  12.300
49820SOL    HW149484   8.784  12.908  12.246
49820SOL    HW249485   8.677  12.807  12.318
49821SOL     OW49486   9.174  11.307  11.695
49821SOL    HW149487   9.247  11.290  11.628
49821SOL    HW249488   9.143  11.220  11.733
49822SOL     OW49489   8.728  12.099  11.844
49822SOL    HW149490   8.788  12.018  11.846
49822SOL    HW249491   8.768  12.168  11.784
49823SOL     OW49492   8.278  12.445  12.594
49823SOL    HW149493   8.273  12.478  12.689
49823SOL    HW249494   8.192  12.464  12.548
49824SOL     OW49495   8.120  12.788  11.326
49824SOL    HW149496   8.129  12.798  11.227
49824SOL    HW249497   8.080  12.699  11.347
49825SOL     OW49498   9.289  11.347  12.135
49825SOL    HW149499   9.328  11.262  12.099
49825SOL    HW249500   9.191  11.349  12.116
49826SOL     OW49501   7.711  11.498  11.892
49826SOL    HW149502   7.632  11.549  11.858
49826SOL    HW249503   7.702  11.483  11.990
49827SOL     OW49504   8.642  12.784  11.203
49827SOL    HW149505   8.648  12.691  11.240
49827SOL    HW249506   8.583  12.784  11.123
49828SOL     OW49507   8.270  12.174  12.544
49828SOL    HW149508   8.310  12.173  12.452
49828SOL    HW249509   8.280  12.266  12.584
49829SOL     OW49510   8.364  12.082  11.463
49829SOL    HW149511   8.427  12.120  11.395
49829SOL    HW249512   8.404  11.999  11.502
49830SOL     OW49513   7.820  12.460  12.662
49830SOL    HW149514   7.807  12.553  12.628
49830SOL    HW249515   7.736  12.408  12.649
49831SOL     OW49516   9.062  12.464  12.461
49831SOL    HW149517   9.122  12.467  12.541
49831SOL    HW249518   8.987  12.528  12.474
49832SOL     OW49519   8.487  12.270  11.868
49832SOL    HW149520   8.417  12.223  11.922
49832SOL    HW249521   8.546  12.202  11.825
49833SOL     OW49522   8.462  11.408  12.143
49833SOL    HW149523   8.454  11.372  12.050
49833SOL    HW249524   8.460  11.332  12.208
49834SOL     OW49525   8.038  12.659  11.663
49834SOL    HW149526   8.080  12.601  11.593
49834SOL    HW249527   7.994  12.738  11.619
49835SOL     OW49528   9.157  11.557  12.553
49835SOL    HW149529   9.230  11.626  12.557
49835SOL    HW249530   9.185  11.482  12.494
49836SOL     OW49531   7.703  12.520  11.462
49836SOL    HW149532   7.607  12.521  11.435
49836SOL    HW249533   7.715  12.573  11.546
49837SOL     OW49534   7.553  12.185  12.898
49837SOL    HW149535   7.476  12.152  12.952
49837SOL    HW249536   7.638  12.155  12.940
49838SOL     OW49537   8.120  11.375  12.661
49838SOL    HW149538   8.210  11.359  12.621
49838SOL    HW249539   8.128  11.380  12.760
49839SOL     OW49540   7.523  11.517  11.205
49839SOL    HW149541   7.431  11.489  11.176
49839SOL    HW249542   7.554  11.594  11.149
49840SOL     OW49543   8.888  12.028  12.570
49840SOL    HW149544   8.831  12.080  12.507
49840SOL    HW249545   8.984  12.040  12.546
49841SOL     OW49546   7.520  11.338  11.490
49841SOL    HW149547   7.503  11.421  11.436
49841SOL    HW249548   7.610  11.301  11.468
49842SOL     OW49549   8.631  12.507  11.291
49842SOL    HW149550   8.532  12.496  11.293
49842SOL    HW249551   8.665  12.522  11.384
49843SOL     OW49552   8.061  12.014  12.603
49843SOL    HW149553   8.117  12.095  12.586
49843SOL    HW249554   8.120  11.934  12.606
49844SOL     OW49555   8.164  11.737  12.880
49844SOL    HW149556   8.183  11.802  12.954
49844SOL    HW249557   8.224  11.657  12.889
49845SOL     OW49558   7.838  12.913  12.732
49845SOL    HW149559   7.747  12.954  12.730
49845SOL    HW249560   7.831  12.819  12.764
49846SOL     OW49561   9.122  12.055  12.426
49846SOL    HW149562   9.095  11.966  12.389
49846SOL    HW249563   9.123  12.123  12.353
49847SOL     OW49564   8.673  11.497  11.621
49847SOL    HW149565   8.738  11.423  11.610
49847SOL    HW249566   8.693  11.547  11.705
49848SOL     OW49567   8.042  11.917  11.824
49848SOL    HW149568   8.092  12.002  11.805
49848SOL    HW249569   7.954  11.919  11.776
49849SOL     OW49570   9.225  11.514  12.814
49849SOL    HW149571   9.208  11.545  12.720
49849SOL    HW249572   9.141  11.477  12.852
49850SOL     OW49573   9.178  12.106  12.689
49850SOL    HW149574   9.216  12.197  12.704
49850SOL    HW249575   9.170  12.089  12.590
49851SOL     OW49576   8.307  12.546  11.188
49851SOL    HW149577   8.261  12.561  11.276
49851SOL    HW249578   8.351  12.631  11.158
49852SOL     OW49579   8.307  12.128  12.033
49852SOL    HW149580   8.361  12.059  12.081
49852SOL    HW249581   8.275  12.197  12.099
49853SOL     OW49582   8.531  12.156  11.259
49853SOL    HW149583   8.508  12.209  11.177
49853SOL    HW249584   8.612  12.100  11.240
49854SOL     OW49585   9.309  12.741  12.023
49854SOL    HW149586   9.238  12.729  11.953
49854SOL    HW249587   9.310  12.662  12.083
49855SOL     OW49588   7.527  12.412  11.825
49855SOL    HW149589   7.526  12.365  11.913
49855SOL    HW249590   7.609  12.384  11.774
49856SOL     OW49591   8.120  12.563  12.796
49856SOL    HW149592   8.042  12.513  12.834
49856SOL    HW249593   8.117  12.658  12.827
49857SOL     OW49594   9.272  11.364  12.399
49857SOL    HW149595   9.268  11.274  12.443
49857SOL    HW249596   9.275  11.353  12.300
49858SOL     OW49597   7.876  11.596  11.692
49858SOL    HW149598   7.906  11.524  11.630
49858SOL    HW249599   7.837  11.556  11.775
49859SOL     OW49600   9.153  12.659  12.276
49859SOL    HW149601   9.060  12.634  12.249
49859SOL    HW249602   9.179  12.609  12.358
49860SOL     OW49603   7.765  11.719  12.452
49860SOL    HW149604   7.803  11.660  12.524
49860SOL    HW249605   7.805  11.693  12.364
49861SOL     OW49606   8.872  11.386  12.284
49861SOL    HW149607   8.924  11.321  12.339
49861SOL    HW249608   8.823  11.449  12.345
49862SOL     OW49609   8.449  11.206  12.326
49862SOL    HW149610   8.386  11.134  12.295
49862SOL    HW249611   8.542  11.170  12.326
49863SOL     OW49612   8.218  12.502  11.473
49863SOL    HW149613   8.172  12.415  11.490
49863SOL    HW249614   8.309  12.499  11.514
49864SOL     OW49615   8.066  12.739  12.456
49864SOL    HW149616   8.061  12.821  12.513
49864SOL    HW249617   8.155  12.736  12.411
49865SOL     OW49618   8.800  11.224  11.340
49865SOL    HW149619   8.835  11.183  11.256
49865SOL    HW249620   8.710  11.186  11.360
49866SOL     OW49621   8.748  11.625  11.863
49866SOL    HW149622   8.689  11.705  11.867
49866SOL    HW249623   8.763  11.590  11.956
49867SOL     OW49624   9.041  11.393  12.054
49867SOL    HW149625   8.957  11.392  12.108
49867SOL    HW249626   9.043  11.476  11.998
49868SOL     OW49627   7.487  12.249  11.472
49868SOL    HW149628   7.586  12.238  11.463
49868SOL    HW249629   7.447  12.163  11.504
49869SOL     OW49630   9.540   0.628   0.113
49869SOL    HW149631   9.447   0.626   0.150
49869SOL    HW249632   9.541   0.589   0.021
49870SOL     OW49633   9.535   0.275   0.996
49870SOL    HW149634   9.570   0.258   1.088
49870SOL    HW249635   9.447   0.230   0.984
49871SOL     OW49636   9.329   0.368   0.647
49871SOL    HW149637   9.247   0.411   0.686
49871SOL    HW249638   9.301   0.295   0.584
49872SOL     OW49639   9.879   1.275   1.165
49872SOL    HW149640   9.786   1.268   1.128
49872SOL    HW249641   9.890   1.364   1.209
49873SOL     OW49642  10.865   1.511   0.703
49873SOL    HW149643  10.808   1.495   0.784
49873SOL    HW249644  10.806   1.521   0.623
49874SOL     OW49645  10.445   0.703   0.717
49874SOL    HW149646  10.502   0.781   0.692
49874SOL    HW249647  10.385   0.729   0.793
49875SOL     OW49648  11.065   0.607   0.231
49875SOL    HW149649  11.053   0.594   0.132
49875SOL    HW249650  11.035   0.526   0.280
49876SOL     OW49651  10.078   1.144   1.023
49876SOL    HW149652  10.000   1.161   1.083
49876SOL    HW249653  10.112   1.231   0.987
49877SOL     OW49654  10.160   0.798   1.823
49877SOL    HW149655  10.156   0.874   1.888
49877SOL    HW249656  10.182   0.834   1.732
49878SOL     OW49657   9.995   1.012   0.665
49878SOL    HW149658  10.064   0.996   0.735
49878SOL    HW249659   9.922   1.069   0.703
49879SOL     OW49660   9.996   1.161   1.803
49879SOL    HW149661  10.056   1.240   1.817
49879SOL    HW249662   9.910   1.192   1.762
49880SOL     OW49663   9.645   1.435   1.061
49880SOL    HW149664   9.567   1.404   1.008
49880SOL    HW249665   9.703   1.493   1.004
49881SOL     OW49666  10.770   1.505   1.339
49881SOL    HW149667  10.794   1.599   1.365
49881SOL    HW249668  10.754   1.451   1.421
49882SOL     OW49669   9.748   0.392   1.499
49882SOL    HW149670   9.830   0.336   1.508
49882SOL    HW249671   9.667   0.334   1.503
49883SOL     OW49672  10.913   0.447   0.737
49883SOL    HW149673  10.839   0.493   0.687
49883SOL    HW249674  10.964   0.515   0.790
49884SOL     OW49675   9.541   1.713   0.483
49884SOL    HW149676   9.575   1.790   0.537
49884SOL    HW249677   9.585   1.713   0.393
49885SOL     OW49678  10.437   1.341   1.690
49885SOL    HW149679  10.484   1.341   1.778
49885SOL    HW249680  10.389   1.254   1.679
49886SOL     OW49681   9.540   1.434   0.538
49886SOL    HW149682   9.514   1.530   0.538
49886SOL    HW249683   9.469   1.380   0.583
49887SOL     OW49684   9.550   1.091   0.886
49887SOL    HW149685   9.564   1.007   0.938
49887SOL    HW249686   9.495   1.155   0.941
49888SOL     OW49687   9.930   1.786   1.439
49888SOL    HW149688   9.838   1.769   1.474
49888SOL    HW249689   9.958   1.878   1.465
49889SOL     OW49690   9.916   0.964   0.123
49889SOL    HW149691   9.923   1.048   0.069
49889SOL    HW249692   9.962   0.977   0.211
49890SOL     OW49693  10.904   0.114   1.480
49890SOL    HW149694  10.886   0.181   1.408
49890SOL    HW249695  10.901   0.160   1.569
49891SOL     OW49696   9.432   0.643   0.563
49891SOL    HW149697   9.387   0.555   0.580
49891SOL    HW249698   9.431   0.697   0.647
49892SOL     OW49699  11.152   1.767   0.359
49892SOL    HW149700  11.206   1.738   0.439
49892SOL    HW249701  11.182   1.857   0.330
49893SOL     OW49702  10.999   0.922   0.612
49893SOL    HW149703  11.094   0.893   0.620
49893SOL    HW249704  10.991   0.987   0.537
49894SOL     OW49705  10.951   1.108   0.432
49894SOL    HW149706  11.037   1.110   0.380
49894SOL    HW249707  10.965   1.155   0.520
49895SOL     OW49708   9.423   0.737   1.597
49895SOL    HW149709   9.511   0.724   1.642
49895SOL    HW249710   9.410   0.834   1.575
49896SOL     OW49711   9.923   1.365   0.726
49896SOL    HW149712   9.874   1.278   0.735
49896SOL    HW249713   9.900   1.408   0.639
49897SOL     OW49714  10.603   1.228   1.423
49897SOL    HW149715  10.640   1.155   1.365
49897SOL    HW249716  10.655   1.233   1.508
49898SOL     OW49717  10.119   0.004   0.502
49898SOL    HW149718  10.159   0.095   0.493
49898SOL    HW249719  10.019   0.012   0.508
49899SOL     OW49720   9.507   0.976   1.264
49899SOL    HW149721   9.596   0.931   1.250
49899SOL    HW249722   9.434   0.911   1.245
49900SOL     OW49723  10.835   0.999   0.190
49900SOL    HW149724  10.772   0.923   0.203
49900SOL    HW249725  10.883   1.017   0.276
49901SOL     OW49726  10.497   1.792   1.616
49901SOL    HW149727  10.521   1.852   1.540
49901SOL    HW249728  10.504   1.697   1.586
49902SOL     OW49729   9.627   0.251   1.801
49902SOL    HW149730   9.698   0.322   1.807
49902SOL    HW249731   9.539   0.290   1.829
49903SOL     OW49732  10.776   1.417   0.953
49903SOL    HW149733  10.717   1.423   1.033
49903SOL    HW249734  10.761   1.329   0.907
49904SOL     OW49735  10.977   1.714   0.572
49904SOL    HW149736  10.936   1.691   0.484
49904SOL    HW249737  10.959   1.640   0.637
49905SOL     OW49738   9.908   0.729   0.270
49905SOL    HW149739   9.932   0.798   0.202
49905SOL    HW249740   9.830   0.762   0.324
49906SOL     OW49741  10.591   0.345   0.944
49906SOL    HW149742  10.505   0.295   0.931
49906SOL    HW249743  10.653   0.291   1.000
49907SOL     OW49744  10.886   1.662   0.307
49907SOL    HW149745  10.975   1.708   0.310
49907SOL    HW249746  10.865   1.638   0.212
49908SOL     OW49747  10.117   0.605   1.465
49908SOL    HW149748  10.070   0.602   1.554
49908SOL    HW249749  10.066   0.550   1.399
49909SOL     OW49750  10.704   0.469   1.674
49909SOL    HW149751  10.684   0.512   1.762
49909SOL    HW249752  10.782   0.407   1.683
49910SOL     OW49753  10.283   0.890   1.572
49910SOL    HW149754  10.329   0.806   1.543
49910SOL    HW249755  10.227   0.924   1.497
49911SOL     OW49756  10.301   0.410   1.242
49911SOL    HW149757  10.224   0.444   1.296
49911SOL    HW249758  10.267   0.359   1.163
49912SOL     OW49759  10.351   0.701   0.429
49912SOL    HW149760  10.377   0.697   0.525
49912SOL    HW249761  10.266   0.650   0.415
49913SOL     OW49762   9.386   0.811   0.789
49913SOL    HW149763   9.485   0.799   0.798
49913SOL    HW249764   9.362   0.906   0.810
49914SOL     OW49765   9.440   1.821   1.571
49914SOL    HW149766   9.430   1.806   1.670
49914SOL    HW249767   9.354   1.857   1.535
49915SOL     OW49768  10.175   0.348   0.195
49915SOL    HW149769  10.234   0.411   0.146
49915SOL    HW249770  10.194   0.254   0.166
49916SOL     OW49771  11.029   0.585   1.831
49916SOL    HW149772  11.003   0.674   1.795
49916SOL    HW249773  11.027   0.517   1.758
49917SOL     OW49774  10.672   1.144   0.545
49917SOL    HW149775  10.755   1.115   0.497
49917SOL    HW249776  10.623   1.211   0.489
49918SOL     OW49777   9.860   0.196   0.885
49918SOL    HW149778   9.855   0.191   0.985
49918SOL    HW249779   9.862   0.292   0.856
49919SOL     OW49780  10.318   1.456   0.477
49919SOL    HW149781  10.272   1.528   0.425
49919SOL    HW249782  10.314   1.476   0.575
49920SOL     OW49783   9.661   1.801   0.853
49920SOL    HW149784   9.711   1.715   0.859
49920SOL    HW249785   9.726   1.878   0.850
49921SOL     OW49786  11.105   1.066   0.873
49921SOL    HW149787  11.043   1.051   0.797
49921SOL    HW249788  11.053   1.077   0.958
49922SOL     OW49789  10.537   1.550   1.506
49922SOL    HW149790  10.543   1.473   1.570
49922SOL    HW249791  10.485   1.524   1.426
49923SOL     OW49792   9.631   0.943   0.242
49923SOL    HW149793   9.713   0.982   0.200
49923SOL    HW249794   9.604   0.861   0.193
49924SOL     OW49795  10.768   0.735   0.728
49924SOL    HW149796  10.763   0.670   0.803
49924SOL    HW249797  10.848   0.794   0.741
49925SOL     OW49798   9.771   1.266   1.727
49925SOL    HW149799   9.721   1.267   1.641
49925SOL    HW249800   9.708   1.248   1.803
49926SOL     OW49801  10.421   1.776   0.237
49926SOL    HW149802  10.361   1.714   0.287
49926SOL    HW249803  10.452   1.732   0.152
49927SOL     OW49804   9.512   0.285   1.498
49927SOL    HW149805   9.432   0.345   1.485
49927SOL    HW249806   9.502   0.236   1.584
49928SOL     OW49807  10.942   1.377   0.081
49928SOL    HW149808  10.910   1.471   0.071
49928SOL    HW249809  10.866   1.314   0.069
49929SOL     OW49810   9.774   1.743   0.323
49929SOL    HW149811   9.807   1.782   0.409
49929SOL    HW249812   9.850   1.736   0.258
49930SOL     OW49813  10.710   0.107   0.426
49930SOL    HW149814  10.686   0.070   0.336
49930SOL    HW249815  10.809   0.123   0.430
49931SOL     OW49816   9.559   1.785   1.241
49931SOL    HW149817   9.616   1.720   1.291
49931SOL    HW249818   9.543   1.752   1.148
49932SOL     OW49819  10.250   1.698   0.904
49932SOL    HW149820  10.330   1.641   0.925
49932SOL    HW249821  10.201   1.658   0.827
49933SOL     OW49822   9.692   0.700   0.480
49933SOL    HW149823   9.737   0.610   0.477
49933SOL    HW249824   9.598   0.689   0.513
49934SOL     OW49825  10.857   0.222   1.729
49934SOL    HW149826  10.852   0.259   1.821
49934SOL    HW249827  10.785   0.153   1.717
49935SOL     OW49828   9.924   0.122   0.117
49935SOL    HW149829  10.022   0.100   0.124
49935SOL    HW249830   9.893   0.105   0.024
49936SOL     OW49831  10.091   0.264   1.749
49936SOL    HW149832  10.158   0.203   1.792
49936SOL    HW249833  10.018   0.283   1.814
49937SOL     OW49834  10.198   1.514   1.195
49937SOL    HW149835  10.175   1.489   1.101
49937SOL    HW249836  10.259   1.445   1.234
49938SOL     OW49837  10.661   0.590   1.433
49938SOL    HW149838  10.689   0.547   1.518
49938SOL    HW249839  10.686   0.686   1.434
49939SOL     OW49840  10.113   1.402   0.924
49939SOL    HW149841  10.203   1.416   0.882
49939SOL    HW249842  10.042   1.404   0.853
49940SOL     OW49843  10.232   0.503   0.899
49940SOL    HW149844  10.207   0.494   0.803
49940SOL    HW249845  10.280   0.421   0.930
49941SOL     OW49846   9.849   0.064   0.512
49941SOL    HW149847   9.768   0.065   0.570
49941SOL    HW249848   9.852   0.147   0.457
49942SOL     OW49849  10.744   1.188   0.041
49942SOL    HW149850  10.776   1.112   0.098
49942SOL    HW249851  10.652   1.215   0.071
49943SOL     OW49852   9.607   0.035   0.171
49943SOL    HW149853   9.656   0.119   0.150
49943SOL    HW249854   9.669  -0.030   0.216
49944SOL     OW49855  10.245   0.236   0.480
49944SOL    HW149856  10.197   0.277   0.402
49944SOL    HW249857  10.344   0.234   0.461
49945SOL     OW49858  10.386   0.683   1.464
49945SOL    HW149859  10.306   0.622   1.467
49945SOL    HW249860  10.467   0.630   1.440
49946SOL     OW49861  10.537   1.570   0.793
49946SOL    HW149862  10.558   1.644   0.728
49946SOL    HW249863  10.605   1.570   0.866
49947SOL     OW49864   9.769   1.152   0.741
49947SOL    HW149865   9.698   1.125   0.806
49947SOL    HW249866   9.743   1.124   0.648
49948SOL     OW49867  10.581   1.797   0.591
49948SOL    HW149868  10.625   1.861   0.527
49948SOL    HW249869  10.531   1.849   0.661
49949SOL     OW49870  10.342   0.549   0.016
49949SOL    HW149871  10.301   0.631  -0.023
49949SOL    HW249872  10.406   0.575   0.089
49950SOL     OW49873   9.388   0.556   1.386
49950SOL    HW149874   9.480   0.555   1.345
49950SOL    HW249875   9.382   0.630   1.453
49951SOL     OW49876   9.871   0.222   1.147
49951SOL    HW149877   9.909   0.138   1.184
49951SOL    HW249878   9.783   0.241   1.191
49952SOL     OW49879  10.176   0.454   0.642
49952SOL    HW149880  10.144   0.526   0.580
49952SOL    HW249881  10.200   0.373   0.589
49953SOL     OW49882  10.327   0.039   0.753
49953SOL    HW149883  10.255   0.044   0.684
49953SOL    HW249884  10.303  -0.030   0.822
49954SOL     OW49885  10.739   1.173   0.867
49954SOL    HW149886  10.684   1.089   0.860
49954SOL    HW249887  10.765   1.202   0.775
49955SOL     OW49888  10.776   0.590   0.992
49955SOL    HW149889  10.746   0.495   0.999
49955SOL    HW249890  10.849   0.606   1.058
49956SOL     OW49891  11.167   0.833   0.377
49956SOL    HW149892  11.209   0.769   0.441
49956SOL    HW249893  11.129   0.782   0.299
49957SOL     OW49894   9.798   1.385   0.174
49957SOL    HW149895   9.711   1.370   0.221
49957SOL    HW249896   9.781   1.411   0.079
49958SOL     OW49897  10.974   1.280   0.657
49958SOL    HW149898  11.073   1.288   0.671
49958SOL    HW249899  10.929   1.364   0.688
49959SOL     OW49900  10.700   0.575   0.078
49959SOL    HW149901  10.646   0.554   0.159
49959SOL    HW249902  10.791   0.534   0.087
49960SOL     OW49903   9.837   0.256   0.328
49960SOL    HW149904   9.864   0.197   0.253
49960SOL    HW249905   9.837   0.351   0.297
49961SOL     OW49906  11.064   1.223   1.588
49961SOL    HW149907  11.155   1.184   1.575
49961SOL    HW249908  11.072   1.319   1.612
49962SOL     OW49909  10.374   1.347   1.340
49962SOL    HW149910  10.294   1.324   1.395
49962SOL    HW249911  10.457   1.321   1.389
49963SOL     OW49912  10.902   1.629   1.625
49963SOL    HW149913  10.929   1.663   1.535
49963SOL    HW249914  10.981   1.591   1.671
49964SOL     OW49915  10.421   1.195   1.100
49964SOL    HW149916  10.381   1.239   1.181
49964SOL    HW249917  10.380   1.232   1.017
49965SOL     OW49918  10.948   1.099   1.079
49965SOL    HW149919  10.953   1.180   1.138
49965SOL    HW249920  10.862   1.101   1.028
49966SOL     OW49921  10.225   0.089   1.402
49966SOL    HW149922  10.250   0.069   1.307
49966SOL    HW249923  10.297   0.145   1.444
49967SOL     OW49924  10.290   1.116   1.719
49967SOL    HW149925  10.191   1.122   1.729
49967SOL    HW249926  10.313   1.036   1.663
49968SOL     OW49927  10.015   1.050   0.368
49968SOL    HW149928  10.001   1.057   0.467
49968SOL    HW249929  10.099   0.999   0.350
49969SOL     OW49930   9.720   0.813   1.251
49969SOL    HW149931   9.806   0.825   1.301
49969SOL    HW249932   9.678   0.726   1.278
49970SOL     OW49933  10.584   0.386   1.262
49970SOL    HW149934  10.605   0.460   1.326
49970SOL    HW249935  10.495   0.403   1.219
49971SOL     OW49936   9.374   1.564   1.331
49971SOL    HW149937   9.328   1.646   1.297
49971SOL    HW249938   9.472   1.583   1.340
49972SOL     OW49939   9.677   1.100   0.501
49972SOL    HW149940   9.670   1.183   0.445
49972SOL    HW249941   9.681   1.020   0.441
49973SOL     OW49942   9.876   0.537   0.865
49973SOL    HW149943   9.888   0.603   0.791
49973SOL    HW249944   9.922   0.571   0.948
49974SOL     OW49945  10.562   1.348   0.388
49974SOL    HW149946  10.612   1.425   0.428
49974SOL    HW249947  10.467   1.350   0.420
49975SOL     OW49948  10.582   1.445   1.142
49975SOL    HW149949  10.629   1.458   1.229
49975SOL    HW249950  10.516   1.371   1.151
49976SOL     OW49951  10.892   0.639   0.472
49976SOL    HW149952  10.861   0.700   0.545
49976SOL    HW249953  10.942   0.691   0.403
49977SOL     OW49954   9.664   1.510   1.329
49977SOL    HW149955   9.643   1.466   1.242
49977SOL    HW249956   9.761   1.536   1.332
49978SOL     OW49957   9.712   0.751   1.598
49978SOL    HW149958   9.780   0.806   1.551
49978SOL    HW249959   9.752   0.663   1.625
49979SOL     OW49960  10.323   0.105   1.770
49979SOL    HW149961  10.329   0.190   1.718
49979SOL    HW249962  10.355   0.029   1.713
49980SOL     OW49963   9.814   0.050   1.740
49980SOL    HW149964   9.772  -0.007   1.670
49980SOL    HW249965   9.748   0.119   1.772
49981SOL     OW49966   9.883   0.870   1.029
49981SOL    HW149967   9.927   0.959   1.020
49981SOL    HW249968   9.820   0.870   1.106
49982SOL     OW49969  10.670   0.862   1.045
49982SOL    HW149970  10.595   0.862   0.979
49982SOL    HW249971  10.707   0.770   1.054
49983SOL     OW49972  10.519   0.525   0.275
49983SOL    HW149973  10.532   0.441   0.329
49983SOL    HW249974  10.490   0.599   0.335
49984SOL     OW49975   9.617   0.213   1.231
49984SOL    HW149976   9.594   0.250   1.321
49984SOL    HW249977   9.587   0.118   1.225
49985SOL     OW49978   9.347   1.310   1.282
49985SOL    HW149979   9.400   1.261   1.350
49985SOL    HW249980   9.369   1.408   1.287
49986SOL     OW49981  10.042   0.634   1.064
49986SOL    HW149982  10.101   0.608   0.988
49986SOL    HW249983  10.014   0.730   1.053
49987SOL     OW49984  11.038   0.935   1.854
49987SOL    HW149985  10.992   0.928   1.765
49987SOL    HW249986  10.976   0.979   1.920
49988SOL     OW49987   9.617   0.063   0.618
49988SOL    HW149988   9.606   0.157   0.651
49988SOL    HW249989   9.612   0.000   0.695
49989SOL     OW49990  10.932   0.367   0.374
49989SOL    HW149991  10.934   0.291   0.438
49989SOL    HW249992  10.884   0.444   0.414
49990SOL     OW49993  10.333   0.766   0.966
49990SOL    HW149994  10.348   0.787   1.062
49990SOL    HW249995  10.303   0.671   0.957
49991SOL     OW49996  10.290   1.573   1.700
49991SOL    HW149997  10.270   1.617   1.612
49991SOL    HW249998  10.329   1.482   1.684
49992SOL     OW49999  11.169   1.518   1.605
49992SOL    HW150000  11.183   1.545   1.510
49992SOL    HW250001  11.252   1.540   1.658
49993SOL     OW50002   9.660   0.898   1.804
49993SOL    HW150003   9.736   0.942   1.852
49993SOL    HW250004   9.695   0.851   1.722
49994SOL     OW50005  10.850   0.274   0.125
49994SOL    HW150006  10.789   0.199   0.148
49994SOL    HW250007  10.872   0.326   0.208
49995SOL     OW50008  10.613   0.838   0.042
49995SOL    HW150009  10.647   0.745   0.057
49995SOL    HW250010  10.631   0.865  -0.053
49996SOL     OW50011  10.378   1.333   0.849
49996SOL    HW150012  10.385   1.249   0.794
49996SOL    HW250013  10.440   1.402   0.813
49997SOL     OW50014   9.629   0.810   0.949
49997SOL    HW150015   9.722   0.846   0.954
49997SOL    HW250016   9.623   0.725   1.001
49998SOL     OW50017   9.649   0.509   1.006
49998SOL    HW150018   9.597   0.426   0.989
49998SOL    HW250019   9.726   0.514   0.942
49999SOL     OW50020  10.448   0.380   1.678
49999SOL    HW150021  10.403   0.443   1.742
49999SOL    HW250022  10.541   0.411   1.661
50000SOL     OW50023  10.470   0.207   1.477
50000SOL    HW150024  10.470   0.271   1.554
50000SOL    HW250025  10.498   0.255   1.394
50001SOL     OW50026   9.318   1.326   0.200
50001SOL    HW150027   9.225   1.347   0.169
50001SOL    HW250028   9.328   1.227   0.213
50002SOL     OW50029   9.398   1.801   0.927
50002SOL    HW150030   9.356   1.715   0.900
50002SOL    HW250031   9.492   1.804   0.893
50003SOL     OW50032   9.814   1.568   0.910
50003SOL    HW150033   9.880   1.642   0.919
50003SOL    HW250034   9.858   1.489   0.868
50004SOL     OW50035  10.312   0.796   1.238
50004SOL    HW150036  10.353   0.764   1.324
50004SOL    HW250037  10.216   0.769   1.235
50005SOL     OW50038   9.350   0.544   1.114
50005SOL    HW150039   9.435   0.511   1.073
50005SOL    HW250040   9.363   0.559   1.212
50006SOL     OW50041   9.499   0.520   1.722
50006SOL    HW150042   9.558   0.480   1.652
50006SOL    HW250043   9.441   0.591   1.681
50007SOL     OW50044  10.679   0.950   1.660
50007SOL    HW150045  10.718   1.039   1.680
50007SOL    HW250046  10.689   0.930   1.563
50008SOL     OW50047  10.125   0.572   0.325
50008SOL    HW150048  10.132   0.483   0.279
50008SOL    HW250049  10.031   0.606   0.317
50009SOL     OW50050  10.967   0.604   1.206
50009SOL    HW150051  10.929   0.535   1.268
50009SOL    HW250052  11.049   0.568   1.162
50010SOL     OW50053   9.562   1.564   1.744
50010SOL    HW150054   9.532   1.621   1.820
50010SOL    HW250055   9.555   1.467   1.770
50011SOL     OW50056   9.981   0.464   1.269
50011SOL    HW150057   9.947   0.375   1.239
50011SOL    HW250058  10.007   0.518   1.189
50012SOL     OW50059  10.240   1.678   1.465
50012SOL    HW150060  10.216   1.660   1.370
50012SOL    HW250061  10.270   1.772   1.475
50013SOL     OW50062   9.783   0.500   0.191
50013SOL    HW150063   9.844   0.580   0.195
50013SOL    HW250064   9.688   0.531   0.198
50014SOL     OW50065   9.469   1.137   1.466
50014SOL    HW150066   9.491   1.076   1.542
50014SOL    HW250067   9.479   1.088   1.380
50015SOL     OW50068  10.657   1.059   1.234
50015SOL    HW150069  10.681   0.996   1.160
50015SOL    HW250070  10.567   1.099   1.216
50016SOL     OW50071  10.612   0.855   0.309
50016SOL    HW150072  10.526   0.824   0.351
50016SOL    HW250073  10.608   0.841   0.210
50017SOL     OW50074  11.069   1.747   1.154
50017SOL    HW150075  11.130   1.777   1.081
50017SOL    HW250076  11.031   1.658   1.132
50018SOL     OW50077  10.562   1.731   1.128
50018SOL    HW150078  10.646   1.736   1.074
50018SOL    HW250079  10.539   1.635   1.146
50019SOL     OW50080   9.393   1.258   1.022
50019SOL    HW150081   9.388   1.257   1.122
50019SOL    HW250082   9.310   1.217   0.984
50020SOL     OW50083   9.998   1.662   1.716
50020SOL    HW150084   9.942   1.743   1.725
50020SOL    HW250085  10.050   1.666   1.630
50021SOL     OW50086  10.213   0.086   0.133
50021SOL    HW150087  10.264   0.087   0.047
50021SOL    HW250088  10.269   0.044   0.204
50022SOL     OW50089  11.036   0.135   0.523
50022SOL    HW150090  11.109   0.118   0.456
50022SOL    HW250091  11.005   0.048   0.561
50023SOL     OW50092  10.698   1.573   0.477
50023SOL    HW150093  10.765   1.585   0.403
50023SOL    HW250094  10.658   1.662   0.500
50024SOL     OW50095   9.440   1.794   1.851
50024SOL    HW150096   9.399   1.720   1.904
50024SOL    HW250097   9.504   1.845   1.909
50025SOL     OW50098  10.590   0.927   0.672
50025SOL    HW150099  10.650   0.846   0.674
50025SOL    HW250100  10.630   0.996   0.612
50026SOL     OW50101  10.140   1.273   1.422
50026SOL    HW150102  10.135   1.306   1.517
50026SOL    HW250103  10.054   1.292   1.376
50027SOL     OW50104   9.982   1.616   0.154
50027SOL    HW150105   9.991   1.626   0.055
50027SOL    HW250106   9.942   1.527   0.175
50028SOL     OW50107  10.960   1.720   1.394
50028SOL    HW150108  11.013   1.730   1.310
50028SOL    HW250109  10.933   1.810   1.428
50029SOL     OW50110  11.151   0.175   0.963
50029SOL    HW150111  11.190   0.090   0.927
50029SOL    HW250112  11.053   0.177   0.944
50030SOL     OW50113   9.573   0.326   0.720
50030SOL    HW150114   9.494   0.377   0.686
50030SOL    HW250115   9.564   0.311   0.818
50031SOL     OW50116  10.504   1.612   0.031
50031SOL    HW150117  10.510   1.519   0.068
50031SOL    HW250118  10.445   1.612  -0.049
50032SOL     OW50119  10.132   1.002   1.372
50032SOL    HW150120  10.172   1.001   1.280
50032SOL    HW250121  10.142   1.094   1.412
50033SOL     OW50122  10.226   0.910   0.291
50033SOL    HW150123  10.289   0.948   0.223
50033SOL    HW250124  10.266   0.827   0.330
50034SOL     OW50125  10.814   1.607   0.044
50034SOL    HW150126  10.722   1.644   0.051
50034SOL    HW250127  10.852   1.627  -0.046
50035SOL     OW50128   9.682   1.288   1.490
50035SOL    HW150129   9.669   1.381   1.456
50035SOL    HW250130   9.598   1.236   1.477
50036SOL     OW50131  10.924   1.292   1.289
50036SOL    HW150132  10.984   1.295   1.369
50036SOL    HW250133  10.849   1.356   1.302
50037SOL     OW50134  10.349   1.098   0.696
50037SOL    HW150135  10.279   1.051   0.750
50037SOL    HW250136  10.408   1.030   0.653
50038SOL     OW50137  10.324   0.236   0.971
50038SOL    HW150138  10.316   0.200   0.878
50038SOL    HW250139  10.322   0.160   1.036
50039SOL     OW50140   9.900   1.487   0.491
50039SOL    HW150141   9.942   1.429   0.421
50039SOL    HW250142   9.856   1.566   0.447
50040SOL     OW50143  11.019   0.385   1.381
50040SOL    HW150144  11.092   0.454   1.385
50040SOL    HW250145  11.047   0.310   1.322
50041SOL     OW50146   9.565   1.348   0.290
50041SOL    HW150147   9.469   1.349   0.263
50041SOL    HW250148   9.577   1.401   0.374
50042SOL     OW50149   9.415   1.013   1.726
50042SOL    HW150150   9.338   0.980   1.780
50042SOL    HW250151   9.500   0.983   1.768
50043SOL     OW50152   9.982   0.203   1.489
50043SOL    HW150153  10.072   0.187   1.449
50043SOL    HW250154   9.990   0.208   1.588
50044SOL     OW50155  10.750   0.856   1.398
50044SOL    HW150156  10.693   0.908   1.335
50044SOL    HW250157  10.846   0.868   1.374
50045SOL     OW50158   9.382   0.166   0.318
50045SOL    HW150159   9.365   0.249   0.264
50045SOL    HW250160   9.472   0.129   0.296
50046SOL     OW50161  10.493   1.335   0.119
50046SOL    HW150162  10.394   1.324   0.121
50046SOL    HW250163  10.527   1.350   0.212
50047SOL     OW50164   9.923   0.842   1.431
50047SOL    HW150165   9.979   0.923   1.414
50047SOL    HW250166   9.982   0.762   1.434
50048SOL     OW50167  10.803   1.767   0.959
50048SOL    HW150168  10.836   1.831   0.890
50048SOL    HW250169  10.869   1.761   1.034
50049SOL     OW50170  10.026   0.565   1.708
50049SOL    HW150171  10.045   0.630   1.782
50049SOL    HW250172  10.086   0.485   1.717
50050SOL     OW50173  10.760   1.220   1.633
50050SOL    HW150174  10.751   1.210   1.732
50050SOL    HW250175  10.856   1.213   1.607
50051SOL     OW50176   9.700   1.741   1.560
50051SOL    HW150177   9.609   1.782   1.558
50051SOL    HW250178   9.693   1.647   1.592
50052SOL     OW50179  10.984   0.883   1.254
50052SOL    HW150180  10.957   0.794   1.217
50052SOL    HW250181  10.985   0.951   1.181
50053SOL     OW50182  10.535   0.325   0.449
50053SOL    HW150183  10.600   0.251   0.438
50053SOL    HW250184  10.555   0.375   0.533
50054SOL     OW50185   9.904   0.745   0.652
50054SOL    HW150186   9.954   0.830   0.633
50054SOL    HW250187   9.816   0.747   0.604
50055SOL     OW50188  11.087   0.342   1.642
50055SOL    HW150189  11.070   0.373   1.548
50055SOL    HW250190  11.003   0.305   1.680
50056SOL     OW50191  11.040   0.934   1.517
50056SOL    HW150192  11.078   1.025   1.532
50056SOL    HW250193  11.032   0.917   1.418
50057SOL     OW50194  10.169   1.374   0.016
50057SOL    HW150195  10.123   1.389   0.104
50057SOL    HW250196  10.213   1.459  -0.014
50058SOL     OW50197   9.971   1.790   0.953
50058SOL    HW150198   9.925   1.878   0.940
50058SOL    HW250199  10.070   1.802   0.946
50059SOL     OW50200  10.169   0.956   0.861
50059SOL    HW150201  10.223   0.887   0.909
50059SOL    HW250202  10.137   1.025   0.927
50060SOL     OW50203  10.393   0.984   0.087
50060SOL    HW150204  10.370   1.037   0.005
50060SOL    HW250205  10.474   0.928   0.068
50061SOL     OW50206  11.171   1.569   0.851
50061SOL    HW150207  11.100   1.557   0.781
50061SOL    HW250208  11.172   1.490   0.911
50062SOL     OW50209   9.531   1.314   1.844
50062SOL    HW150210   9.466   1.241   1.823
50062SOL    HW250211   9.535   1.328   1.942
50063SOL     OW50212   9.389   1.240   0.653
50063SOL    HW150213   9.388   1.193   0.741
50063SOL    HW250214   9.471   1.212   0.602
50064SOL     OW50215   9.982   1.391   1.624
50064SOL    HW150216   9.904   1.341   1.662
50064SOL    HW250217   9.979   1.486   1.655
50065SOL     OW50218  11.134   0.192   1.227
50065SOL    HW150219  11.130   0.102   1.271
50065SOL    HW250220  11.137   0.181   1.128
50066SOL     OW50221   9.738   0.424   0.520
50066SOL    HW150222   9.768   0.352   0.458
50066SOL    HW250223   9.699   0.384   0.603
50067SOL     OW50224  11.015   1.487   1.104
50067SOL    HW150225  10.922   1.462   1.077
50067SOL    HW250226  11.041   1.437   1.186
50068SOL     OW50227   9.627   0.547   1.280
50068SOL    HW150228   9.665   0.488   1.352
50068SOL    HW250229   9.667   0.521   1.192
50069SOL     OW50230  10.122   1.586   0.687
50069SOL    HW150231  10.154   1.596   0.593
50069SOL    HW250232  10.043   1.524   0.689
50070SOL     OW50233  10.311   0.034   1.154
50070SOL    HW150234  10.248  -0.038   1.123
50070SOL    HW250235  10.404  -0.002   1.154
50071SOL     OW50236  10.080   1.330   0.301
50071SOL    HW150237  10.034   1.243   0.318
50071SOL    HW250238  10.171   1.327   0.342
50072SOL     OW50239   9.928   1.567   1.284
50072SOL    HW150240   9.923   1.649   1.341
50072SOL    HW250241  10.017   1.564   1.239
50073SOL     OW50242  10.662   0.052   0.168
50073SOL    HW150243  10.697   0.011   0.084
50073SOL    HW250244  10.572   0.014   0.188
50074SOL     OW50245  10.610   0.453   0.691
50074SOL    HW150246  10.551   0.533   0.695
50074SOL    HW250247  10.625   0.418   0.784
50075SOL     OW50248  10.903   0.221   0.882
50075SOL    HW150249  10.819   0.220   0.936
50075SOL    HW250250  10.905   0.304   0.826
50076SOL     OW50251   9.349   1.077   0.300
50076SOL    HW150252   9.448   1.066   0.291
50076SOL    HW250253   9.309   0.991   0.332
50077SOL     OW50254  10.185   1.646   0.337
50077SOL    HW150255  10.108   1.611   0.283
50077SOL    HW250256  10.153   1.717   0.399
50078SOL     OW50257   9.540   0.628   1.975
50078SOL    HW150258   9.447   0.626   2.012
50078SOL    HW250259   9.541   0.589   1.883
50079SOL     OW50260   9.535   0.275   2.858
50079SOL    HW150261   9.570   0.258   2.950
50079SOL    HW250262   9.447   0.230   2.846
50080SOL     OW50263   9.329   0.368   2.509
50080SOL    HW150264   9.247   0.411   2.548
50080SOL    HW250265   9.301   0.295   2.446
50081SOL     OW50266   9.879   1.275   3.027
50081SOL    HW150267   9.786   1.268   2.990
50081SOL    HW250268   9.890   1.364   3.071
50082SOL     OW50269  10.865   1.511   2.565
50082SOL    HW150270  10.808   1.495   2.646
50082SOL    HW250271  10.806   1.521   2.485
50083SOL     OW50272  10.445   0.703   2.579
50083SOL    HW150273  10.502   0.781   2.554
50083SOL    HW250274  10.385   0.729   2.655
50084SOL     OW50275  11.065   0.607   2.093
50084SOL    HW150276  11.053   0.594   1.994
50084SOL    HW250277  11.035   0.526   2.142
50085SOL     OW50278  10.078   1.144   2.885
50085SOL    HW150279  10.000   1.161   2.945
50085SOL    HW250280  10.112   1.231   2.849
50086SOL     OW50281  10.160   0.798   3.685
50086SOL    HW150282  10.156   0.874   3.750
50086SOL    HW250283  10.182   0.834   3.594
50087SOL     OW50284   9.995   1.012   2.527
50087SOL    HW150285  10.064   0.996   2.597
50087SOL    HW250286   9.922   1.069   2.565
50088SOL     OW50287   9.996   1.161   3.665
50088SOL    HW150288  10.056   1.240   3.679
50088SOL    HW250289   9.910   1.192   3.624
50089SOL     OW50290   9.645   1.435   2.923
50089SOL    HW150291   9.567   1.404   2.870
50089SOL    HW250292   9.703   1.493   2.866
50090SOL     OW50293  10.770   1.505   3.201
50090SOL    HW150294  10.794   1.599   3.227
50090SOL    HW250295  10.754   1.451   3.283
50091SOL     OW50296   9.748   0.392   3.361
50091SOL    HW150297   9.830   0.336   3.370
50091SOL    HW250298   9.667   0.334   3.365
50092SOL     OW50299  10.913   0.447   2.599
50092SOL    HW150300  10.839   0.493   2.549
50092SOL    HW250301  10.964   0.515   2.652
50093SOL     OW50302   9.541   1.713   2.345
50093SOL    HW150303   9.575   1.790   2.399
50093SOL    HW250304   9.585   1.713   2.255
50094SOL     OW50305  10.437   1.341   3.552
50094SOL    HW150306  10.484   1.341   3.640
50094SOL    HW250307  10.389   1.254   3.541
50095SOL     OW50308   9.540   1.434   2.400
50095SOL    HW150309   9.514   1.530   2.400
50095SOL    HW250310   9.469   1.380   2.445
50096SOL     OW50311   9.550   1.091   2.748
50096SOL    HW150312   9.564   1.007   2.800
50096SOL    HW250313   9.495   1.155   2.803
50097SOL     OW50314   9.930   1.786   3.301
50097SOL    HW150315   9.838   1.769   3.336
50097SOL    HW250316   9.958   1.878   3.327
50098SOL     OW50317   9.916   0.964   1.985
50098SOL    HW150318   9.923   1.048   1.931
50098SOL    HW250319   9.962   0.977   2.073
50099SOL     OW50320  10.904   0.114   3.342
50099SOL    HW150321  10.886   0.181   3.270
50099SOL    HW250322  10.901   0.160   3.431
50100SOL     OW50323   9.432   0.643   2.425
50100SOL    HW150324   9.387   0.555   2.442
50100SOL    HW250325   9.431   0.697   2.509
50101SOL     OW50326  11.152   1.767   2.221
50101SOL    HW150327  11.206   1.738   2.301
50101SOL    HW250328  11.182   1.857   2.192
50102SOL     OW50329   9.337   1.596   1.979
50102SOL    HW150330   9.318   1.500   2.000
50102SOL    HW250331   9.304   1.654   2.054
50103SOL     OW50332  10.999   0.922   2.474
50103SOL    HW150333  11.094   0.893   2.482
50103SOL    HW250334  10.991   0.987   2.399
50104SOL     OW50335  10.951   1.108   2.294
50104SOL    HW150336  11.037   1.110   2.242
50104SOL    HW250337  10.965   1.155   2.382
50105SOL     OW50338   9.423   0.737   3.459
50105SOL    HW150339   9.511   0.724   3.504
50105SOL    HW250340   9.410   0.834   3.437
50106SOL     OW50341   9.923   1.365   2.588
50106SOL    HW150342   9.874   1.278   2.597
50106SOL    HW250343   9.900   1.408   2.501
50107SOL     OW50344  10.603   1.228   3.285
50107SOL    HW150345  10.640   1.155   3.227
50107SOL    HW250346  10.655   1.233   3.370
50108SOL     OW50347  10.119   0.004   2.364
50108SOL    HW150348  10.159   0.095   2.355
50108SOL    HW250349  10.019   0.012   2.370
50109SOL     OW50350   9.507   0.976   3.126
50109SOL    HW150351   9.596   0.931   3.112
50109SOL    HW250352   9.434   0.911   3.107
50110SOL     OW50353  10.835   0.999   2.052
50110SOL    HW150354  10.772   0.923   2.065
50110SOL    HW250355  10.883   1.017   2.138
50111SOL     OW50356  10.497   1.792   3.478
50111SOL    HW150357  10.521   1.852   3.402
50111SOL    HW250358  10.504   1.697   3.448
50112SOL     OW50359   9.627   0.251   3.663
50112SOL    HW150360   9.698   0.322   3.669
50112SOL    HW250361   9.539   0.290   3.691
50113SOL     OW50362  10.776   1.417   2.815
50113SOL    HW150363  10.717   1.423   2.895
50113SOL    HW250364  10.761   1.329   2.769
50114SOL     OW50365  10.977   1.714   2.434
50114SOL    HW150366  10.936   1.691   2.346
50114SOL    HW250367  10.959   1.640   2.499
50115SOL     OW50368   9.908   0.729   2.132
50115SOL    HW150369   9.932   0.798   2.064
50115SOL    HW250370   9.830   0.762   2.186
50116SOL     OW50371  10.591   0.345   2.806
50116SOL    HW150372  10.505   0.295   2.793
50116SOL    HW250373  10.653   0.291   2.862
50117SOL     OW50374  10.117   0.605   3.327
50117SOL    HW150375  10.070   0.602   3.416
50117SOL    HW250376  10.066   0.550   3.261
50118SOL     OW50377  10.704   0.469   3.536
50118SOL    HW150378  10.684   0.512   3.624
50118SOL    HW250379  10.782   0.407   3.545
50119SOL     OW50380  10.283   0.890   3.434
50119SOL    HW150381  10.329   0.806   3.405
50119SOL    HW250382  10.227   0.924   3.359
50120SOL     OW50383  10.301   0.410   3.104
50120SOL    HW150384  10.224   0.444   3.158
50120SOL    HW250385  10.267   0.359   3.025
50121SOL     OW50386  10.351   0.701   2.291
50121SOL    HW150387  10.377   0.697   2.387
50121SOL    HW250388  10.266   0.650   2.277
50122SOL     OW50389   9.386   0.811   2.651
50122SOL    HW150390   9.485   0.799   2.660
50122SOL    HW250391   9.362   0.906   2.672
50123SOL     OW50392   9.440   1.821   3.433
50123SOL    HW150393   9.430   1.806   3.532
50123SOL    HW250394   9.354   1.857   3.397
50124SOL     OW50395  10.175   0.348   2.057
50124SOL    HW150396  10.234   0.411   2.008
50124SOL    HW250397  10.194   0.254   2.028
50125SOL     OW50398  11.029   0.585   3.693
50125SOL    HW150399  11.003   0.674   3.657
50125SOL    HW250400  11.027   0.517   3.620
50126SOL     OW50401  10.672   1.144   2.407
50126SOL    HW150402  10.755   1.115   2.359
50126SOL    HW250403  10.623   1.211   2.351
50127SOL     OW50404   9.860   0.196   2.747
50127SOL    HW150405   9.855   0.191   2.847
50127SOL    HW250406   9.862   0.292   2.718
50128SOL     OW50407  10.318   1.456   2.339
50128SOL    HW150408  10.272   1.528   2.287
50128SOL    HW250409  10.314   1.476   2.437
50129SOL     OW50410   9.661   1.801   2.715
50129SOL    HW150411   9.711   1.715   2.721
50129SOL    HW250412   9.726   1.878   2.712
50130SOL     OW50413  11.105   1.066   2.735
50130SOL    HW150414  11.043   1.051   2.659
50130SOL    HW250415  11.053   1.077   2.820
50131SOL     OW50416  10.537   1.550   3.368
50131SOL    HW150417  10.543   1.473   3.432
50131SOL    HW250418  10.485   1.524   3.288
50132SOL     OW50419   9.631   0.943   2.104
50132SOL    HW150420   9.713   0.982   2.062
50132SOL    HW250421   9.604   0.861   2.055
50133SOL     OW50422  10.768   0.735   2.590
50133SOL    HW150423  10.763   0.670   2.665
50133SOL    HW250424  10.848   0.794   2.603
50134SOL     OW50425   9.771   1.266   3.589
50134SOL    HW150426   9.721   1.267   3.503
50134SOL    HW250427   9.708   1.248   3.665
50135SOL     OW50428  10.421   1.776   2.099
50135SOL    HW150429  10.361   1.714   2.149
50135SOL    HW250430  10.452   1.732   2.014
50136SOL     OW50431   9.512   0.285   3.360
50136SOL    HW150432   9.432   0.345   3.347
50136SOL    HW250433   9.502   0.236   3.446
50137SOL     OW50434  10.942   1.377   1.943
50137SOL    HW150435  10.910   1.471   1.933
50137SOL    HW250436  10.866   1.314   1.931
50138SOL     OW50437   9.774   1.743   2.185
50138SOL    HW150438   9.807   1.782   2.271
50138SOL    HW250439   9.850   1.736   2.120
50139SOL     OW50440  10.710   0.107   2.288
50139SOL    HW150441  10.686   0.070   2.198
50139SOL    HW250442  10.809   0.123   2.292
50140SOL     OW50443   9.559   1.785   3.103
50140SOL    HW150444   9.616   1.720   3.153
50140SOL    HW250445   9.543   1.752   3.010
50141SOL     OW50446  10.250   1.698   2.766
50141SOL    HW150447  10.330   1.641   2.787
50141SOL    HW250448  10.201   1.658   2.689
50142SOL     OW50449   9.692   0.700   2.342
50142SOL    HW150450   9.737   0.610   2.339
50142SOL    HW250451   9.598   0.689   2.375
50143SOL     OW50452  10.857   0.222   3.591
50143SOL    HW150453  10.852   0.259   3.683
50143SOL    HW250454  10.785   0.153   3.579
50144SOL     OW50455   9.924   0.122   1.979
50144SOL    HW150456  10.022   0.100   1.986
50144SOL    HW250457   9.893   0.105   1.886
50145SOL     OW50458  10.091   0.264   3.611
50145SOL    HW150459  10.158   0.203   3.654
50145SOL    HW250460  10.018   0.283   3.676
50146SOL     OW50461  10.198   1.514   3.057
50146SOL    HW150462  10.175   1.489   2.963
50146SOL    HW250463  10.259   1.445   3.096
50147SOL     OW50464  10.661   0.590   3.295
50147SOL    HW150465  10.689   0.547   3.380
50147SOL    HW250466  10.686   0.686   3.296
50148SOL     OW50467  10.113   1.402   2.786
50148SOL    HW150468  10.203   1.416   2.744
50148SOL    HW250469  10.042   1.404   2.715
50149SOL     OW50470  10.232   0.503   2.761
50149SOL    HW150471  10.207   0.494   2.665
50149SOL    HW250472  10.280   0.421   2.792
50150SOL     OW50473   9.849   0.064   2.374
50150SOL    HW150474   9.768   0.065   2.432
50150SOL    HW250475   9.852   0.147   2.319
50151SOL     OW50476  10.744   1.188   1.903
50151SOL    HW150477  10.776   1.112   1.960
50151SOL    HW250478  10.652   1.215   1.933
50152SOL     OW50479   9.607   0.035   2.033
50152SOL    HW150480   9.656   0.119   2.012
50152SOL    HW250481   9.669  -0.030   2.078
50153SOL     OW50482  10.245   0.236   2.342
50153SOL    HW150483  10.197   0.277   2.264
50153SOL    HW250484  10.344   0.234   2.323
50154SOL     OW50485  10.386   0.683   3.326
50154SOL    HW150486  10.306   0.622   3.329
50154SOL    HW250487  10.467   0.630   3.302
50155SOL     OW50488  10.537   1.570   2.655
50155SOL    HW150489  10.558   1.644   2.590
50155SOL    HW250490  10.605   1.570   2.728
50156SOL     OW50491   9.769   1.152   2.603
50156SOL    HW150492   9.698   1.125   2.668
50156SOL    HW250493   9.743   1.124   2.510
50157SOL     OW50494  10.581   1.797   2.453
50157SOL    HW150495  10.625   1.861   2.389
50157SOL    HW250496  10.531   1.849   2.523
50158SOL     OW50497  10.342   0.549   1.878
50158SOL    HW150498  10.301   0.631   1.839
50158SOL    HW250499  10.406   0.575   1.951
50159SOL     OW50500   9.388   0.556   3.248
50159SOL    HW150501   9.480   0.555   3.207
50159SOL    HW250502   9.382   0.630   3.315
50160SOL     OW50503   9.871   0.222   3.009
50160SOL    HW150504   9.909   0.138   3.046
50160SOL    HW250505   9.783   0.241   3.053
50161SOL     OW50506  10.176   0.454   2.504
50161SOL    HW150507  10.144   0.526   2.442
50161SOL    HW250508  10.200   0.373   2.451
50162SOL     OW50509  10.327   0.039   2.615
50162SOL    HW150510  10.255   0.044   2.546
50162SOL    HW250511  10.303  -0.030   2.684
50163SOL     OW50512  10.739   1.173   2.729
50163SOL    HW150513  10.684   1.089   2.722
50163SOL    HW250514  10.765   1.202   2.637
50164SOL     OW50515  10.776   0.590   2.854
50164SOL    HW150516  10.746   0.495   2.861
50164SOL    HW250517  10.849   0.606   2.920
50165SOL     OW50518  11.167   0.833   2.239
50165SOL    HW150519  11.209   0.769   2.303
50165SOL    HW250520  11.129   0.782   2.161
50166SOL     OW50521   9.798   1.385   2.036
50166SOL    HW150522   9.711   1.370   2.083
50166SOL    HW250523   9.781   1.411   1.941
50167SOL     OW50524  10.974   1.280   2.519
50167SOL    HW150525  11.073   1.288   2.533
50167SOL    HW250526  10.929   1.364   2.550
50168SOL     OW50527  10.700   0.575   1.940
50168SOL    HW150528  10.646   0.554   2.021
50168SOL    HW250529  10.791   0.534   1.949
50169SOL     OW50530   9.837   0.256   2.190
50169SOL    HW150531   9.864   0.197   2.115
50169SOL    HW250532   9.837   0.351   2.159
50170SOL     OW50533  11.064   1.223   3.450
50170SOL    HW150534  11.155   1.184   3.437
50170SOL    HW250535  11.072   1.319   3.474
50171SOL     OW50536  10.374   1.347   3.202
50171SOL    HW150537  10.294   1.324   3.257
50171SOL    HW250538  10.457   1.321   3.251
50172SOL     OW50539  10.902   1.629   3.487
50172SOL    HW150540  10.929   1.663   3.397
50172SOL    HW250541  10.981   1.591   3.533
50173SOL     OW50542  10.421   1.195   2.962
50173SOL    HW150543  10.381   1.239   3.043
50173SOL    HW250544  10.380   1.232   2.879
50174SOL     OW50545  10.948   1.099   2.941
50174SOL    HW150546  10.953   1.180   3.000
50174SOL    HW250547  10.862   1.101   2.890
50175SOL     OW50548  10.225   0.089   3.264
50175SOL    HW150549  10.250   0.069   3.169
50175SOL    HW250550  10.297   0.145   3.306
50176SOL     OW50551  10.290   1.116   3.581
50176SOL    HW150552  10.191   1.122   3.591
50176SOL    HW250553  10.313   1.036   3.525
50177SOL     OW50554  10.015   1.050   2.230
50177SOL    HW150555  10.001   1.057   2.329
50177SOL    HW250556  10.099   0.999   2.212
50178SOL     OW50557   9.720   0.813   3.113
50178SOL    HW150558   9.806   0.825   3.163
50178SOL    HW250559   9.678   0.726   3.140
50179SOL     OW50560  10.584   0.386   3.124
50179SOL    HW150561  10.605   0.460   3.188
50179SOL    HW250562  10.495   0.403   3.081
50180SOL     OW50563   9.374   1.564   3.193
50180SOL    HW150564   9.328   1.646   3.159
50180SOL    HW250565   9.472   1.583   3.202
50181SOL     OW50566   9.677   1.100   2.363
50181SOL    HW150567   9.670   1.183   2.307
50181SOL    HW250568   9.681   1.020   2.303
50182SOL     OW50569   9.876   0.537   2.727
50182SOL    HW150570   9.888   0.603   2.653
50182SOL    HW250571   9.922   0.571   2.810
50183SOL     OW50572  10.562   1.348   2.250
50183SOL    HW150573  10.612   1.425   2.290
50183SOL    HW250574  10.467   1.350   2.282
50184SOL     OW50575  10.582   1.445   3.004
50184SOL    HW150576  10.629   1.458   3.091
50184SOL    HW250577  10.516   1.371   3.013
50185SOL     OW50578  10.892   0.639   2.334
50185SOL    HW150579  10.861   0.700   2.407
50185SOL    HW250580  10.942   0.691   2.265
50186SOL     OW50581   9.664   1.510   3.191
50186SOL    HW150582   9.643   1.466   3.104
50186SOL    HW250583   9.761   1.536   3.194
50187SOL     OW50584   9.712   0.751   3.460
50187SOL    HW150585   9.780   0.806   3.413
50187SOL    HW250586   9.752   0.663   3.487
50188SOL     OW50587  10.897   0.779   3.532
50188SOL    HW150588  10.805   0.817   3.527
50188SOL    HW250589  10.957   0.826   3.467
50189SOL     OW50590  10.323   0.105   3.632
50189SOL    HW150591  10.329   0.190   3.580
50189SOL    HW250592  10.355   0.029   3.575
50190SOL     OW50593   9.814   0.050   3.602
50190SOL    HW150594   9.772  -0.007   3.532
50190SOL    HW250595   9.748   0.119   3.634
50191SOL     OW50596   9.883   0.870   2.891
50191SOL    HW150597   9.927   0.959   2.882
50191SOL    HW250598   9.820   0.870   2.968
50192SOL     OW50599  10.670   0.862   2.907
50192SOL    HW150600  10.595   0.862   2.841
50192SOL    HW250601  10.707   0.770   2.916
50193SOL     OW50602  10.519   0.525   2.137
50193SOL    HW150603  10.532   0.441   2.191
50193SOL    HW250604  10.490   0.599   2.197
50194SOL     OW50605   9.617   0.213   3.093
50194SOL    HW150606   9.594   0.250   3.183
50194SOL    HW250607   9.587   0.118   3.087
50195SOL     OW50608   9.347   1.310   3.144
50195SOL    HW150609   9.400   1.261   3.212
50195SOL    HW250610   9.369   1.408   3.149
50196SOL     OW50611  10.042   0.634   2.926
50196SOL    HW150612  10.101   0.608   2.850
50196SOL    HW250613  10.014   0.730   2.915
50197SOL     OW50614  11.038   0.935   3.716
50197SOL    HW150615  10.992   0.928   3.627
50197SOL    HW250616  10.976   0.979   3.782
50198SOL     OW50617   9.617   0.063   2.480
50198SOL    HW150618   9.606   0.157   2.513
50198SOL    HW250619   9.612   0.000   2.557
50199SOL     OW50620  10.932   0.367   2.236
50199SOL    HW150621  10.934   0.291   2.300
50199SOL    HW250622  10.884   0.444   2.276
50200SOL     OW50623  10.333   0.766   2.828
50200SOL    HW150624  10.348   0.787   2.924
50200SOL    HW250625  10.303   0.671   2.819
50201SOL     OW50626  10.290   1.573   3.562
50201SOL    HW150627  10.270   1.617   3.474
50201SOL    HW250628  10.329   1.482   3.546
50202SOL     OW50629  11.169   1.518   3.467
50202SOL    HW150630  11.183   1.545   3.372
50202SOL    HW250631  11.252   1.540   3.520
50203SOL     OW50632   9.660   0.898   3.666
50203SOL    HW150633   9.736   0.942   3.714
50203SOL    HW250634   9.695   0.851   3.584
50204SOL     OW50635  10.850   0.274   1.987
50204SOL    HW150636  10.789   0.199   2.010
50204SOL    HW250637  10.872   0.326   2.070
50205SOL     OW50638  10.613   0.838   1.904
50205SOL    HW150639  10.647   0.745   1.919
50205SOL    HW250640  10.631   0.865   1.809
50206SOL     OW50641  10.378   1.333   2.711
50206SOL    HW150642  10.385   1.249   2.656
50206SOL    HW250643  10.440   1.402   2.675
50207SOL     OW50644   9.629   0.810   2.811
50207SOL    HW150645   9.722   0.846   2.816
50207SOL    HW250646   9.623   0.725   2.863
50208SOL     OW50647   9.649   0.509   2.868
50208SOL    HW150648   9.597   0.426   2.851
50208SOL    HW250649   9.726   0.514   2.804
50209SOL     OW50650  10.448   0.380   3.540
50209SOL    HW150651  10.403   0.443   3.604
50209SOL    HW250652  10.541   0.411   3.523
50210SOL     OW50653  10.470   0.207   3.339
50210SOL    HW150654  10.470   0.271   3.416
50210SOL    HW250655  10.498   0.255   3.256
50211SOL     OW50656   9.318   1.326   2.062
50211SOL    HW150657   9.225   1.347   2.031
50211SOL    HW250658   9.328   1.227   2.075
50212SOL     OW50659   9.398   1.801   2.789
50212SOL    HW150660   9.356   1.715   2.762
50212SOL    HW250661   9.492   1.804   2.755
50213SOL     OW50662   9.814   1.568   2.772
50213SOL    HW150663   9.880   1.642   2.781
50213SOL    HW250664   9.858   1.489   2.730
50214SOL     OW50665  10.312   0.796   3.100
50214SOL    HW150666  10.353   0.764   3.186
50214SOL    HW250667  10.216   0.769   3.097
50215SOL     OW50668   9.350   0.544   2.976
50215SOL    HW150669   9.435   0.511   2.935
50215SOL    HW250670   9.363   0.559   3.074
50216SOL     OW50671   9.499   0.520   3.584
50216SOL    HW150672   9.558   0.480   3.514
50216SOL    HW250673   9.441   0.591   3.543
50217SOL     OW50674  10.679   0.950   3.522
50217SOL    HW150675  10.718   1.039   3.542
50217SOL    HW250676  10.689   0.930   3.425
50218SOL     OW50677  10.125   0.572   2.187
50218SOL    HW150678  10.132   0.483   2.141
50218SOL    HW250679  10.031   0.606   2.179
50219SOL     OW50680  10.967   0.604   3.068
50219SOL    HW150681  10.929   0.535   3.130
50219SOL    HW250682  11.049   0.568   3.024
50220SOL     OW50683   9.562   1.564   3.606
50220SOL    HW150684   9.532   1.621   3.682
50220SOL    HW250685   9.555   1.467   3.632
50221SOL     OW50686   9.981   0.464   3.131
50221SOL    HW150687   9.947   0.375   3.101
50221SOL    HW250688  10.007   0.518   3.051
50222SOL     OW50689  10.240   1.678   3.327
50222SOL    HW150690  10.216   1.660   3.232
50222SOL    HW250691  10.270   1.772   3.337
50223SOL     OW50692   9.783   0.500   2.053
50223SOL    HW150693   9.844   0.580   2.057
50223SOL    HW250694   9.688   0.531   2.060
50224SOL     OW50695   9.469   1.137   3.328
50224SOL    HW150696   9.491   1.076   3.404
50224SOL    HW250697   9.479   1.088   3.242
50225SOL     OW50698  10.612   0.855   2.171
50225SOL    HW150699  10.526   0.824   2.213
50225SOL    HW250700  10.608   0.841   2.072
50226SOL     OW50701  11.069   1.747   3.016
50226SOL    HW150702  11.130   1.777   2.943
50226SOL    HW250703  11.031   1.658   2.994
50227SOL     OW50704  10.562   1.731   2.990
50227SOL    HW150705  10.646   1.736   2.936
50227SOL    HW250706  10.539   1.635   3.008
50228SOL     OW50707   9.393   1.258   2.884
50228SOL    HW150708   9.388   1.257   2.984
50228SOL    HW250709   9.310   1.217   2.846
50229SOL     OW50710   9.998   1.662   3.578
50229SOL    HW150711   9.942   1.743   3.587
50229SOL    HW250712  10.050   1.666   3.492
50230SOL     OW50713  11.036   0.135   2.385
50230SOL    HW150714  11.109   0.118   2.318
50230SOL    HW250715  11.005   0.048   2.423
50231SOL     OW50716  10.698   1.573   2.339
50231SOL    HW150717  10.765   1.585   2.265
50231SOL    HW250718  10.658   1.662   2.362
50232SOL     OW50719   9.440   1.794   3.713
50232SOL    HW150720   9.399   1.720   3.766
50232SOL    HW250721   9.504   1.845   3.771
50233SOL     OW50722  10.590   0.927   2.534
50233SOL    HW150723  10.650   0.846   2.536
50233SOL    HW250724  10.630   0.996   2.474
50234SOL     OW50725  10.140   1.273   3.284
50234SOL    HW150726  10.135   1.306   3.379
50234SOL    HW250727  10.054   1.292   3.238
50235SOL     OW50728   9.982   1.616   2.016
50235SOL    HW150729   9.991   1.626   1.917
50235SOL    HW250730   9.942   1.527   2.037
50236SOL     OW50731  10.960   1.720   3.256
50236SOL    HW150732  11.013   1.730   3.172
50236SOL    HW250733  10.933   1.810   3.290
50237SOL     OW50734  11.151   0.175   2.825
50237SOL    HW150735  11.190   0.090   2.789
50237SOL    HW250736  11.053   0.177   2.806
50238SOL     OW50737   9.573   0.326   2.582
50238SOL    HW150738   9.494   0.377   2.548
50238SOL    HW250739   9.564   0.311   2.680
50239SOL     OW50740  10.504   1.612   1.893
50239SOL    HW150741  10.510   1.519   1.930
50239SOL    HW250742  10.445   1.612   1.813
50240SOL     OW50743  10.132   1.002   3.234
50240SOL    HW150744  10.172   1.001   3.142
50240SOL    HW250745  10.142   1.094   3.274
50241SOL     OW50746  10.226   0.910   2.153
50241SOL    HW150747  10.289   0.948   2.085
50241SOL    HW250748  10.266   0.827   2.192
50242SOL     OW50749  10.814   1.607   1.906
50242SOL    HW150750  10.722   1.644   1.913
50242SOL    HW250751  10.852   1.627   1.816
50243SOL     OW50752   9.682   1.288   3.352
50243SOL    HW150753   9.669   1.381   3.318
50243SOL    HW250754   9.598   1.236   3.339
50244SOL     OW50755  10.924   1.292   3.151
50244SOL    HW150756  10.984   1.295   3.231
50244SOL    HW250757  10.849   1.356   3.164
50245SOL     OW50758  10.349   1.098   2.558
50245SOL    HW150759  10.279   1.051   2.612
50245SOL    HW250760  10.408   1.030   2.515
50246SOL     OW50761  10.324   0.236   2.833
50246SOL    HW150762  10.316   0.200   2.740
50246SOL    HW250763  10.322   0.160   2.898
50247SOL     OW50764   9.900   1.487   2.353
50247SOL    HW150765   9.942   1.429   2.283
50247SOL    HW250766   9.856   1.566   2.309
50248SOL     OW50767  11.019   0.385   3.243
50248SOL    HW150768  11.092   0.454   3.247
50248SOL    HW250769  11.047   0.310   3.184
50249SOL     OW50770   9.565   1.348   2.152
50249SOL    HW150771   9.469   1.349   2.125
50249SOL    HW250772   9.577   1.401   2.236
50250SOL     OW50773   9.415   1.013   3.588
50250SOL    HW150774   9.338   0.980   3.642
50250SOL    HW250775   9.500   0.983   3.630
50251SOL     OW50776   9.982   0.203   3.351
50251SOL    HW150777  10.072   0.187   3.311
50251SOL    HW250778   9.990   0.208   3.450
50252SOL     OW50779   9.385   0.345   1.895
50252SOL    HW150780   9.293   0.317   1.866
50252SOL    HW250781   9.416   0.422   1.839
50253SOL     OW50782  10.750   0.856   3.260
50253SOL    HW150783  10.693   0.908   3.197
50253SOL    HW250784  10.846   0.868   3.236
50254SOL     OW50785   9.382   0.166   2.180
50254SOL    HW150786   9.365   0.249   2.126
50254SOL    HW250787   9.472   0.129   2.158
50255SOL     OW50788  10.493   1.335   1.981
50255SOL    HW150789  10.394   1.324   1.983
50255SOL    HW250790  10.527   1.350   2.074
50256SOL     OW50791   9.923   0.842   3.293
50256SOL    HW150792   9.979   0.923   3.276
50256SOL    HW250793   9.982   0.762   3.296
50257SOL     OW50794  10.803   1.767   2.821
50257SOL    HW150795  10.836   1.831   2.752
50257SOL    HW250796  10.869   1.761   2.896
50258SOL     OW50797  10.026   0.565   3.570
50258SOL    HW150798  10.045   0.630   3.644
50258SOL    HW250799  10.086   0.485   3.579
50259SOL     OW50800  10.760   1.220   3.495
50259SOL    HW150801  10.751   1.210   3.594
50259SOL    HW250802  10.856   1.213   3.469
50260SOL     OW50803   9.700   1.741   3.422
50260SOL    HW150804   9.609   1.782   3.420
50260SOL    HW250805   9.693   1.647   3.454
50261SOL     OW50806  10.984   0.883   3.116
50261SOL    HW150807  10.957   0.794   3.079
50261SOL    HW250808  10.985   0.951   3.043
50262SOL     OW50809  10.535   0.325   2.311
50262SOL    HW150810  10.600   0.251   2.300
50262SOL    HW250811  10.555   0.375   2.395
50263SOL     OW50812   9.904   0.745   2.514
50263SOL    HW150813   9.954   0.830   2.495
50263SOL    HW250814   9.816   0.747   2.466
50264SOL     OW50815  11.087   0.342   3.504
50264SOL    HW150816  11.070   0.373   3.410
50264SOL    HW250817  11.003   0.305   3.542
50265SOL     OW50818  11.040   0.934   3.379
50265SOL    HW150819  11.078   1.025   3.394
50265SOL    HW250820  11.032   0.917   3.280
50266SOL     OW50821  10.169   1.374   1.878
50266SOL    HW150822  10.123   1.389   1.966
50266SOL    HW250823  10.213   1.459   1.848
50267SOL     OW50824   9.971   1.790   2.815
50267SOL    HW150825   9.925   1.878   2.802
50267SOL    HW250826  10.070   1.802   2.808
50268SOL     OW50827  10.169   0.956   2.723
50268SOL    HW150828  10.223   0.887   2.771
50268SOL    HW250829  10.137   1.025   2.789
50269SOL     OW50830  10.393   0.984   1.949
50269SOL    HW150831  10.370   1.037   1.867
50269SOL    HW250832  10.474   0.928   1.930
50270SOL     OW50833  11.171   1.569   2.713
50270SOL    HW150834  11.100   1.557   2.643
50270SOL    HW250835  11.172   1.490   2.773
50271SOL     OW50836   9.531   1.314   3.706
50271SOL    HW150837   9.466   1.241   3.685
50271SOL    HW250838   9.535   1.328   3.804
50272SOL     OW50839   9.389   1.240   2.515
50272SOL    HW150840   9.388   1.193   2.603
50272SOL    HW250841   9.471   1.212   2.464
50273SOL     OW50842   9.982   1.391   3.486
50273SOL    HW150843   9.904   1.341   3.524
50273SOL    HW250844   9.979   1.486   3.517
50274SOL     OW50845  11.134   0.192   3.089
50274SOL    HW150846  11.130   0.102   3.133
50274SOL    HW250847  11.137   0.181   2.990
50275SOL     OW50848   9.738   0.424   2.382
50275SOL    HW150849   9.768   0.352   2.320
50275SOL    HW250850   9.699   0.384   2.465
50276SOL     OW50851  11.015   1.487   2.966
50276SOL    HW150852  10.922   1.462   2.939
50276SOL    HW250853  11.041   1.437   3.048
50277SOL     OW50854   9.627   0.547   3.142
50277SOL    HW150855   9.665   0.488   3.214
50277SOL    HW250856   9.667   0.521   3.054
50278SOL     OW50857  10.122   1.586   2.549
50278SOL    HW150858  10.154   1.596   2.455
50278SOL    HW250859  10.043   1.524   2.551
50279SOL     OW50860  10.734   0.214   2.974
50279SOL    HW150861  10.786   0.149   3.029
50279SOL    HW250862  10.685   0.277   3.035
50280SOL     OW50863  10.311   0.034   3.016
50280SOL    HW150864  10.248  -0.038   2.985
50280SOL    HW250865  10.404  -0.002   3.016
50281SOL     OW50866  10.080   1.330   2.163
50281SOL    HW150867  10.034   1.243   2.180
50281SOL    HW250868  10.171   1.327   2.204
50282SOL     OW50869   9.928   1.567   3.146
50282SOL    HW150870   9.923   1.649   3.203
50282SOL    HW250871  10.017   1.564   3.101
50283SOL     OW50872  10.662   0.052   2.030
50283SOL    HW150873  10.697   0.011   1.946
50283SOL    HW250874  10.572   0.014   2.050
50284SOL     OW50875  10.610   0.453   2.553
50284SOL    HW150876  10.551   0.533   2.557
50284SOL    HW250877  10.625   0.418   2.646
50285SOL     OW50878  10.903   0.221   2.744
50285SOL    HW150879  10.819   0.220   2.798
50285SOL    HW250880  10.905   0.304   2.688
50286SOL     OW50881   9.349   1.077   2.162
50286SOL    HW150882   9.448   1.066   2.153
50286SOL    HW250883   9.309   0.991   2.194
50287SOL     OW50884  10.185   1.646   2.199
50287SOL    HW150885  10.108   1.611   2.145
50287SOL    HW250886  10.153   1.717   2.261
50288SOL     OW50887   9.540   0.628   3.837
50288SOL    HW150888   9.447   0.626   3.874
50288SOL    HW250889   9.541   0.589   3.745
50289SOL     OW50890   9.535   0.275   4.720
50289SOL    HW150891   9.570   0.258   4.812
50289SOL    HW250892   9.447   0.230   4.708
50290SOL     OW50893   9.329   0.368   4.371
50290SOL    HW150894   9.247   0.411   4.410
50290SOL    HW250895   9.301   0.295   4.308
50291SOL     OW50896   9.879   1.275   4.889
50291SOL    HW150897   9.786   1.268   4.852
50291SOL    HW250898   9.890   1.364   4.933
50292SOL     OW50899  10.865   1.511   4.427
50292SOL    HW150900  10.808   1.495   4.508
50292SOL    HW250901  10.806   1.521   4.347
50293SOL     OW50902  10.445   0.703   4.441
50293SOL    HW150903  10.502   0.781   4.416
50293SOL    HW250904  10.385   0.729   4.517
50294SOL     OW50905  11.065   0.607   3.955
50294SOL    HW150906  11.053   0.594   3.856
50294SOL    HW250907  11.035   0.526   4.004
50295SOL     OW50908  10.078   1.144   4.747
50295SOL    HW150909  10.000   1.161   4.807
50295SOL    HW250910  10.112   1.231   4.711
50296SOL     OW50911  10.160   0.798   5.547
50296SOL    HW150912  10.156   0.874   5.612
50296SOL    HW250913  10.182   0.834   5.456
50297SOL     OW50914   9.995   1.012   4.389
50297SOL    HW150915  10.064   0.996   4.459
50297SOL    HW250916   9.922   1.069   4.427
50298SOL     OW50917   9.996   1.161   5.527
50298SOL    HW150918  10.056   1.240   5.541
50298SOL    HW250919   9.910   1.192   5.486
50299SOL     OW50920   9.645   1.435   4.785
50299SOL    HW150921   9.567   1.404   4.732
50299SOL    HW250922   9.703   1.493   4.728
50300SOL     OW50923  10.770   1.505   5.063
50300SOL    HW150924  10.794   1.599   5.089
50300SOL    HW250925  10.754   1.451   5.145
50301SOL     OW50926   9.748   0.392   5.223
50301SOL    HW150927   9.830   0.336   5.232
50301SOL    HW250928   9.667   0.334   5.227
50302SOL     OW50929  10.913   0.447   4.461
50302SOL    HW150930  10.839   0.493   4.411
50302SOL    HW250931  10.964   0.515   4.514
50303SOL     OW50932   9.541   1.713   4.207
50303SOL    HW150933   9.575   1.790   4.261
50303SOL    HW250934   9.585   1.713   4.117
50304SOL     OW50935  10.437   1.341   5.414
50304SOL    HW150936  10.484   1.341   5.502
50304SOL    HW250937  10.389   1.254   5.403
50305SOL     OW50938   9.540   1.434   4.262
50305SOL    HW150939   9.514   1.530   4.262
50305SOL    HW250940   9.469   1.380   4.307
50306SOL     OW50941   9.550   1.091   4.610
50306SOL    HW150942   9.564   1.007   4.662
50306SOL    HW250943   9.495   1.155   4.665
50307SOL     OW50944   9.930   1.786   5.163
50307SOL    HW150945   9.838   1.769   5.198
50307SOL    HW250946   9.958   1.878   5.189
50308SOL     OW50947   9.916   0.964   3.847
50308SOL    HW150948   9.923   1.048   3.793
50308SOL    HW250949   9.962   0.977   3.935
50309SOL     OW50950  10.904   0.114   5.204
50309SOL    HW150951  10.886   0.181   5.132
50309SOL    HW250952  10.901   0.160   5.293
50310SOL     OW50953   9.432   0.643   4.287
50310SOL    HW150954   9.387   0.555   4.304
50310SOL    HW250955   9.431   0.697   4.371
50311SOL     OW50956  11.152   1.767   4.083
50311SOL    HW150957  11.206   1.738   4.163
50311SOL    HW250958  11.182   1.857   4.054
50312SOL     OW50959   9.337   1.596   3.841
50312SOL    HW150960   9.318   1.500   3.862
50312SOL    HW250961   9.304   1.654   3.916
50313SOL     OW50962  10.999   0.922   4.336
50313SOL    HW150963  11.094   0.893   4.344
50313SOL    HW250964  10.991   0.987   4.261
50314SOL     OW50965  10.951   1.108   4.156
50314SOL    HW150966  11.037   1.110   4.104
50314SOL    HW250967  10.965   1.155   4.244
50315SOL     OW50968   9.423   0.737   5.321
50315SOL    HW150969   9.511   0.724   5.366
50315SOL    HW250970   9.410   0.834   5.299
50316SOL     OW50971   9.923   1.365   4.450
50316SOL    HW150972   9.874   1.278   4.459
50316SOL    HW250973   9.900   1.408   4.363
50317SOL     OW50974  10.603   1.228   5.147
50317SOL    HW150975  10.640   1.155   5.089
50317SOL    HW250976  10.655   1.233   5.232
50318SOL     OW50977  10.119   0.004   4.226
50318SOL    HW150978  10.159   0.095   4.217
50318SOL    HW250979  10.019   0.012   4.232
50319SOL     OW50980   9.507   0.976   4.988
50319SOL    HW150981   9.596   0.931   4.974
50319SOL    HW250982   9.434   0.911   4.969
50320SOL     OW50983  10.835   0.999   3.914
50320SOL    HW150984  10.772   0.923   3.927
50320SOL    HW250985  10.883   1.017   4.000
50321SOL     OW50986  10.497   1.792   5.340
50321SOL    HW150987  10.521   1.852   5.264
50321SOL    HW250988  10.504   1.697   5.310
50322SOL     OW50989   9.627   0.251   5.525
50322SOL    HW150990   9.698   0.322   5.531
50322SOL    HW250991   9.539   0.290   5.553
50323SOL     OW50992  10.776   1.417   4.677
50323SOL    HW150993  10.717   1.423   4.757
50323SOL    HW250994  10.761   1.329   4.631
50324SOL     OW50995  10.977   1.714   4.296
50324SOL    HW150996  10.936   1.691   4.208
50324SOL    HW250997  10.959   1.640   4.361
50325SOL     OW50998   9.908   0.729   3.994
50325SOL    HW150999   9.932   0.798   3.926
50325SOL    HW251000   9.830   0.762   4.048
50326SOL     OW51001  10.591   0.345   4.668
50326SOL    HW151002  10.505   0.295   4.655
50326SOL    HW251003  10.653   0.291   4.724
50327SOL     OW51004  10.886   1.662   4.031
50327SOL    HW151005  10.975   1.708   4.034
50327SOL    HW251006  10.865   1.638   3.936
50328SOL     OW51007  10.117   0.605   5.189
50328SOL    HW151008  10.070   0.602   5.278
50328SOL    HW251009  10.066   0.550   5.123
50329SOL     OW51010  10.704   0.469   5.398
50329SOL    HW151011  10.684   0.512   5.486
50329SOL    HW251012  10.782   0.407   5.407
50330SOL     OW51013  10.283   0.890   5.296
50330SOL    HW151014  10.329   0.806   5.267
50330SOL    HW251015  10.227   0.924   5.221
50331SOL     OW51016  10.301   0.410   4.966
50331SOL    HW151017  10.224   0.444   5.020
50331SOL    HW251018  10.267   0.359   4.887
50332SOL     OW51019  10.351   0.701   4.153
50332SOL    HW151020  10.377   0.697   4.249
50332SOL    HW251021  10.266   0.650   4.139
50333SOL     OW51022   9.386   0.811   4.513
50333SOL    HW151023   9.485   0.799   4.522
50333SOL    HW251024   9.362   0.906   4.534
50334SOL     OW51025   9.440   1.821   5.295
50334SOL    HW151026   9.430   1.806   5.394
50334SOL    HW251027   9.354   1.857   5.259
50335SOL     OW51028  10.175   0.348   3.919
50335SOL    HW151029  10.234   0.411   3.870
50335SOL    HW251030  10.194   0.254   3.890
50336SOL     OW51031  11.029   0.585   5.555
50336SOL    HW151032  11.003   0.674   5.519
50336SOL    HW251033  11.027   0.517   5.482
50337SOL     OW51034  10.672   1.144   4.269
50337SOL    HW151035  10.755   1.115   4.221
50337SOL    HW251036  10.623   1.211   4.213
50338SOL     OW51037   9.860   0.196   4.609
50338SOL    HW151038   9.855   0.191   4.709
50338SOL    HW251039   9.862   0.292   4.580
50339SOL     OW51040  10.318   1.456   4.201
50339SOL    HW151041  10.272   1.528   4.149
50339SOL    HW251042  10.314   1.476   4.299
50340SOL     OW51043   9.661   1.801   4.577
50340SOL    HW151044   9.711   1.715   4.583
50340SOL    HW251045   9.726   1.878   4.574
50341SOL     OW51046  11.105   1.066   4.597
50341SOL    HW151047  11.043   1.051   4.521
50341SOL    HW251048  11.053   1.077   4.682
50342SOL     OW51049  10.537   1.550   5.230
50342SOL    HW151050  10.543   1.473   5.294
50342SOL    HW251051  10.485   1.524   5.150
50343SOL     OW51052   9.631   0.943   3.966
50343SOL    HW151053   9.713   0.982   3.924
50343SOL    HW251054   9.604   0.861   3.917
50344SOL     OW51055  10.768   0.735   4.452
50344SOL    HW151056  10.763   0.670   4.527
50344SOL    HW251057  10.848   0.794   4.465
50345SOL     OW51058   9.771   1.266   5.451
50345SOL    HW151059   9.721   1.267   5.365
50345SOL    HW251060   9.708   1.248   5.527
50346SOL     OW51061  10.421   1.776   3.961
50346SOL    HW151062  10.361   1.714   4.011
50346SOL    HW251063  10.452   1.732   3.876
50347SOL     OW51064   9.512   0.285   5.222
50347SOL    HW151065   9.432   0.345   5.209
50347SOL    HW251066   9.502   0.236   5.308
50348SOL     OW51067  10.942   1.377   3.805
50348SOL    HW151068  10.910   1.471   3.795
50348SOL    HW251069  10.866   1.314   3.793
50349SOL     OW51070   9.774   1.743   4.047
50349SOL    HW151071   9.807   1.782   4.133
50349SOL    HW251072   9.850   1.736   3.982
50350SOL     OW51073  10.710   0.107   4.150
50350SOL    HW151074  10.686   0.070   4.060
50350SOL    HW251075  10.809   0.123   4.154
50351SOL     OW51076   9.559   1.785   4.965
50351SOL    HW151077   9.616   1.720   5.015
50351SOL    HW251078   9.543   1.752   4.872
50352SOL     OW51079  10.250   1.698   4.628
50352SOL    HW151080  10.330   1.641   4.649
50352SOL    HW251081  10.201   1.658   4.551
50353SOL     OW51082   9.692   0.700   4.204
50353SOL    HW151083   9.737   0.610   4.201
50353SOL    HW251084   9.598   0.689   4.237
50354SOL     OW51085  10.857   0.222   5.453
50354SOL    HW151086  10.852   0.259   5.545
50354SOL    HW251087  10.785   0.153   5.441
50355SOL     OW51088   9.924   0.122   3.841
50355SOL    HW151089  10.022   0.100   3.848
50355SOL    HW251090   9.893   0.105   3.748
50356SOL     OW51091  10.091   0.264   5.473
50356SOL    HW151092  10.158   0.203   5.516
50356SOL    HW251093  10.018   0.283   5.538
50357SOL     OW51094  10.198   1.514   4.919
50357SOL    HW151095  10.175   1.489   4.825
50357SOL    HW251096  10.259   1.445   4.958
50358SOL     OW51097  10.661   0.590   5.157
50358SOL    HW151098  10.689   0.547   5.242
50358SOL    HW251099  10.686   0.686   5.158
50359SOL     OW51100  10.113   1.402   4.648
50359SOL    HW151101  10.203   1.416   4.606
50359SOL    HW251102  10.042   1.404   4.577
50360SOL     OW51103  10.232   0.503   4.623
50360SOL    HW151104  10.207   0.494   4.527
50360SOL    HW251105  10.280   0.421   4.654
50361SOL     OW51106   9.849   0.064   4.236
50361SOL    HW151107   9.768   0.065   4.294
50361SOL    HW251108   9.852   0.147   4.181
50362SOL     OW51109  10.744   1.188   3.765
50362SOL    HW151110  10.776   1.112   3.822
50362SOL    HW251111  10.652   1.215   3.795
50363SOL     OW51112   9.607   0.035   3.895
50363SOL    HW151113   9.656   0.119   3.874
50363SOL    HW251114   9.669  -0.030   3.940
50364SOL     OW51115  10.245   0.236   4.204
50364SOL    HW151116  10.197   0.277   4.126
50364SOL    HW251117  10.344   0.234   4.185
50365SOL     OW51118  10.386   0.683   5.188
50365SOL    HW151119  10.306   0.622   5.191
50365SOL    HW251120  10.467   0.630   5.164
50366SOL     OW51121  10.537   1.570   4.517
50366SOL    HW151122  10.558   1.644   4.452
50366SOL    HW251123  10.605   1.570   4.590
50367SOL     OW51124   9.769   1.152   4.465
50367SOL    HW151125   9.698   1.125   4.530
50367SOL    HW251126   9.743   1.124   4.372
50368SOL     OW51127  10.581   1.797   4.315
50368SOL    HW151128  10.625   1.861   4.251
50368SOL    HW251129  10.531   1.849   4.385
50369SOL     OW51130  10.342   0.549   3.740
50369SOL    HW151131  10.301   0.631   3.701
50369SOL    HW251132  10.406   0.575   3.813
50370SOL     OW51133   9.388   0.556   5.110
50370SOL    HW151134   9.480   0.555   5.069
50370SOL    HW251135   9.382   0.630   5.177
50371SOL     OW51136   9.871   0.222   4.871
50371SOL    HW151137   9.909   0.138   4.908
50371SOL    HW251138   9.783   0.241   4.915
50372SOL     OW51139  10.176   0.454   4.366
50372SOL    HW151140  10.144   0.526   4.304
50372SOL    HW251141  10.200   0.373   4.313
50373SOL     OW51142  10.327   0.039   4.477
50373SOL    HW151143  10.255   0.044   4.408
50373SOL    HW251144  10.303  -0.030   4.546
50374SOL     OW51145  10.739   1.173   4.591
50374SOL    HW151146  10.684   1.089   4.584
50374SOL    HW251147  10.765   1.202   4.499
50375SOL     OW51148  10.776   0.590   4.716
50375SOL    HW151149  10.746   0.495   4.723
50375SOL    HW251150  10.849   0.606   4.782
50376SOL     OW51151  11.167   0.833   4.101
50376SOL    HW151152  11.209   0.769   4.165
50376SOL    HW251153  11.129   0.782   4.023
50377SOL     OW51154   9.798   1.385   3.898
50377SOL    HW151155   9.711   1.370   3.945
50377SOL    HW251156   9.781   1.411   3.803
50378SOL     OW51157  10.974   1.280   4.381
50378SOL    HW151158  11.073   1.288   4.395
50378SOL    HW251159  10.929   1.364   4.412
50379SOL     OW51160  10.700   0.575   3.802
50379SOL    HW151161  10.646   0.554   3.883
50379SOL    HW251162  10.791   0.534   3.811
50380SOL     OW51163   9.837   0.256   4.052
50380SOL    HW151164   9.864   0.197   3.977
50380SOL    HW251165   9.837   0.351   4.021
50381SOL     OW51166  11.064   1.223   5.312
50381SOL    HW151167  11.155   1.184   5.299
50381SOL    HW251168  11.072   1.319   5.336
50382SOL     OW51169  10.374   1.347   5.064
50382SOL    HW151170  10.294   1.324   5.119
50382SOL    HW251171  10.457   1.321   5.113
50383SOL     OW51172  10.902   1.629   5.349
50383SOL    HW151173  10.929   1.663   5.259
50383SOL    HW251174  10.981   1.591   5.395
50384SOL     OW51175  10.421   1.195   4.824
50384SOL    HW151176  10.381   1.239   4.905
50384SOL    HW251177  10.380   1.232   4.741
50385SOL     OW51178  10.948   1.099   4.803
50385SOL    HW151179  10.953   1.180   4.862
50385SOL    HW251180  10.862   1.101   4.752
50386SOL     OW51181  10.290   1.116   5.443
50386SOL    HW151182  10.191   1.122   5.453
50386SOL    HW251183  10.313   1.036   5.387
50387SOL     OW51184  10.015   1.050   4.092
50387SOL    HW151185  10.001   1.057   4.191
50387SOL    HW251186  10.099   0.999   4.074
50388SOL     OW51187   9.720   0.813   4.975
50388SOL    HW151188   9.806   0.825   5.025
50388SOL    HW251189   9.678   0.726   5.002
50389SOL     OW51190  10.584   0.386   4.986
50389SOL    HW151191  10.605   0.460   5.050
50389SOL    HW251192  10.495   0.403   4.943
50390SOL     OW51193   9.374   1.564   5.055
50390SOL    HW151194   9.328   1.646   5.021
50390SOL    HW251195   9.472   1.583   5.064
50391SOL     OW51196   9.677   1.100   4.225
50391SOL    HW151197   9.670   1.183   4.169
50391SOL    HW251198   9.681   1.020   4.165
50392SOL     OW51199   9.876   0.537   4.589
50392SOL    HW151200   9.888   0.603   4.515
50392SOL    HW251201   9.922   0.571   4.672
50393SOL     OW51202  10.562   1.348   4.112
50393SOL    HW151203  10.612   1.425   4.152
50393SOL    HW251204  10.467   1.350   4.144
50394SOL     OW51205  10.582   1.445   4.866
50394SOL    HW151206  10.629   1.458   4.953
50394SOL    HW251207  10.516   1.371   4.875
50395SOL     OW51208  10.892   0.639   4.196
50395SOL    HW151209  10.861   0.700   4.269
50395SOL    HW251210  10.942   0.691   4.127
50396SOL     OW51211   9.664   1.510   5.053
50396SOL    HW151212   9.643   1.466   4.966
50396SOL    HW251213   9.761   1.536   5.056
50397SOL     OW51214   9.712   0.751   5.322
50397SOL    HW151215   9.780   0.806   5.275
50397SOL    HW251216   9.752   0.663   5.349
50398SOL     OW51217  10.897   0.779   5.394
50398SOL    HW151218  10.805   0.817   5.389
50398SOL    HW251219  10.957   0.826   5.329
50399SOL     OW51220  10.323   0.105   5.494
50399SOL    HW151221  10.329   0.190   5.442
50399SOL    HW251222  10.355   0.029   5.437
50400SOL     OW51223   9.814   0.050   5.464
50400SOL    HW151224   9.772  -0.007   5.394
50400SOL    HW251225   9.748   0.119   5.496
50401SOL     OW51226   9.883   0.870   4.753
50401SOL    HW151227   9.927   0.959   4.744
50401SOL    HW251228   9.820   0.870   4.830
50402SOL     OW51229  10.670   0.862   4.769
50402SOL    HW151230  10.595   0.862   4.703
50402SOL    HW251231  10.707   0.770   4.778
50403SOL     OW51232  10.519   0.525   3.999
50403SOL    HW151233  10.532   0.441   4.053
50403SOL    HW251234  10.490   0.599   4.059
50404SOL     OW51235   9.617   0.213   4.955
50404SOL    HW151236   9.594   0.250   5.045
50404SOL    HW251237   9.587   0.118   4.949
50405SOL     OW51238   9.347   1.310   5.006
50405SOL    HW151239   9.400   1.261   5.074
50405SOL    HW251240   9.369   1.408   5.011
50406SOL     OW51241  10.042   0.634   4.788
50406SOL    HW151242  10.101   0.608   4.712
50406SOL    HW251243  10.014   0.730   4.777
50407SOL     OW51244  11.038   0.935   5.578
50407SOL    HW151245  10.992   0.928   5.489
50407SOL    HW251246  10.976   0.979   5.644
50408SOL     OW51247   9.617   0.063   4.342
50408SOL    HW151248   9.606   0.157   4.375
50408SOL    HW251249   9.612   0.000   4.419
50409SOL     OW51250  10.932   0.367   4.098
50409SOL    HW151251  10.934   0.291   4.162
50409SOL    HW251252  10.884   0.444   4.138
50410SOL     OW51253  10.333   0.766   4.690
50410SOL    HW151254  10.348   0.787   4.786
50410SOL    HW251255  10.303   0.671   4.681
50411SOL     OW51256  10.290   1.573   5.424
50411SOL    HW151257  10.270   1.617   5.336
50411SOL    HW251258  10.329   1.482   5.408
50412SOL     OW51259  11.169   1.518   5.329
50412SOL    HW151260  11.183   1.545   5.234
50412SOL    HW251261  11.252   1.540   5.382
50413SOL     OW51262   9.660   0.898   5.528
50413SOL    HW151263   9.736   0.942   5.576
50413SOL    HW251264   9.695   0.851   5.446
50414SOL     OW51265  10.850   0.274   3.849
50414SOL    HW151266  10.789   0.199   3.872
50414SOL    HW251267  10.872   0.326   3.932
50415SOL     OW51268  10.613   0.838   3.766
50415SOL    HW151269  10.647   0.745   3.781
50415SOL    HW251270  10.631   0.865   3.671
50416SOL     OW51271  10.378   1.333   4.573
50416SOL    HW151272  10.385   1.249   4.518
50416SOL    HW251273  10.440   1.402   4.537
50417SOL     OW51274   9.629   0.810   4.673
50417SOL    HW151275   9.722   0.846   4.678
50417SOL    HW251276   9.623   0.725   4.725
50418SOL     OW51277   9.649   0.509   4.730
50418SOL    HW151278   9.597   0.426   4.713
50418SOL    HW251279   9.726   0.514   4.666
50419SOL     OW51280  10.448   0.380   5.402
50419SOL    HW151281  10.403   0.443   5.466
50419SOL    HW251282  10.541   0.411   5.385
50420SOL     OW51283  10.470   0.207   5.201
50420SOL    HW151284  10.470   0.271   5.278
50420SOL    HW251285  10.498   0.255   5.118
50421SOL     OW51286   9.318   1.326   3.924
50421SOL    HW151287   9.225   1.347   3.893
50421SOL    HW251288   9.328   1.227   3.937
50422SOL     OW51289   9.398   1.801   4.651
50422SOL    HW151290   9.356   1.715   4.624
50422SOL    HW251291   9.492   1.804   4.617
50423SOL     OW51292   9.814   1.568   4.634
50423SOL    HW151293   9.880   1.642   4.643
50423SOL    HW251294   9.858   1.489   4.592
50424SOL     OW51295  10.312   0.796   4.962
50424SOL    HW151296  10.353   0.764   5.048
50424SOL    HW251297  10.216   0.769   4.959
50425SOL     OW51298   9.350   0.544   4.838
50425SOL    HW151299   9.435   0.511   4.797
50425SOL    HW251300   9.363   0.559   4.936
50426SOL     OW51301   9.499   0.520   5.446
50426SOL    HW151302   9.558   0.480   5.376
50426SOL    HW251303   9.441   0.591   5.405
50427SOL     OW51304  10.679   0.950   5.384
50427SOL    HW151305  10.718   1.039   5.404
50427SOL    HW251306  10.689   0.930   5.287
50428SOL     OW51307  10.125   0.572   4.049
50428SOL    HW151308  10.132   0.483   4.003
50428SOL    HW251309  10.031   0.606   4.041
50429SOL     OW51310  10.967   0.604   4.930
50429SOL    HW151311  10.929   0.535   4.992
50429SOL    HW251312  11.049   0.568   4.886
50430SOL     OW51313   9.562   1.564   5.468
50430SOL    HW151314   9.532   1.621   5.544
50430SOL    HW251315   9.555   1.467   5.494
50431SOL     OW51316   9.981   0.464   4.993
50431SOL    HW151317   9.947   0.375   4.963
50431SOL    HW251318  10.007   0.518   4.913
50432SOL     OW51319  10.240   1.678   5.189
50432SOL    HW151320  10.216   1.660   5.094
50432SOL    HW251321  10.270   1.772   5.199
50433SOL     OW51322   9.783   0.500   3.915
50433SOL    HW151323   9.844   0.580   3.919
50433SOL    HW251324   9.688   0.531   3.922
50434SOL     OW51325   9.469   1.137   5.190
50434SOL    HW151326   9.491   1.076   5.266
50434SOL    HW251327   9.479   1.088   5.104
50435SOL     OW51328  10.657   1.059   4.958
50435SOL    HW151329  10.681   0.996   4.884
50435SOL    HW251330  10.567   1.099   4.940
50436SOL     OW51331  10.612   0.855   4.033
50436SOL    HW151332  10.526   0.824   4.075
50436SOL    HW251333  10.608   0.841   3.934
50437SOL     OW51334  11.069   1.747   4.878
50437SOL    HW151335  11.130   1.777   4.805
50437SOL    HW251336  11.031   1.658   4.856
50438SOL     OW51337  10.562   1.731   4.852
50438SOL    HW151338  10.646   1.736   4.798
50438SOL    HW251339  10.539   1.635   4.870
50439SOL     OW51340   9.393   1.258   4.746
50439SOL    HW151341   9.388   1.257   4.846
50439SOL    HW251342   9.310   1.217   4.708
50440SOL     OW51343  11.036   0.135   4.247
50440SOL    HW151344  11.109   0.118   4.180
50440SOL    HW251345  11.005   0.048   4.285
50441SOL     OW51346  10.698   1.573   4.201
50441SOL    HW151347  10.765   1.585   4.127
50441SOL    HW251348  10.658   1.662   4.224
50442SOL     OW51349   9.440   1.794   5.575
50442SOL    HW151350   9.399   1.720   5.628
50442SOL    HW251351   9.504   1.845   5.633
50443SOL     OW51352  10.590   0.927   4.396
50443SOL    HW151353  10.650   0.846   4.398
50443SOL    HW251354  10.630   0.996   4.336
50444SOL     OW51355  10.140   1.273   5.146
50444SOL    HW151356  10.135   1.306   5.241
50444SOL    HW251357  10.054   1.292   5.100
50445SOL     OW51358   9.982   1.616   3.878
50445SOL    HW151359   9.991   1.626   3.779
50445SOL    HW251360   9.942   1.527   3.899
50446SOL     OW51361  10.960   1.720   5.118
50446SOL    HW151362  11.013   1.730   5.034
50446SOL    HW251363  10.933   1.810   5.152
50447SOL     OW51364  11.151   0.175   4.687
50447SOL    HW151365  11.190   0.090   4.651
50447SOL    HW251366  11.053   0.177   4.668
50448SOL     OW51367   9.573   0.326   4.444
50448SOL    HW151368   9.494   0.377   4.410
50448SOL    HW251369   9.564   0.311   4.542
50449SOL     OW51370  10.504   1.612   3.755
50449SOL    HW151371  10.510   1.519   3.792
50449SOL    HW251372  10.445   1.612   3.675
50450SOL     OW51373  10.132   1.002   5.096
50450SOL    HW151374  10.172   1.001   5.004
50450SOL    HW251375  10.142   1.094   5.136
50451SOL     OW51376  10.226   0.910   4.015
50451SOL    HW151377  10.289   0.948   3.947
50451SOL    HW251378  10.266   0.827   4.054
50452SOL     OW51379  10.814   1.607   3.768
50452SOL    HW151380  10.722   1.644   3.775
50452SOL    HW251381  10.852   1.627   3.678
50453SOL     OW51382   9.682   1.288   5.214
50453SOL    HW151383   9.669   1.381   5.180
50453SOL    HW251384   9.598   1.236   5.201
50454SOL     OW51385  10.924   1.292   5.013
50454SOL    HW151386  10.984   1.295   5.093
50454SOL    HW251387  10.849   1.356   5.026
50455SOL     OW51388  10.349   1.098   4.420
50455SOL    HW151389  10.279   1.051   4.474
50455SOL    HW251390  10.408   1.030   4.377
50456SOL     OW51391  10.324   0.236   4.695
50456SOL    HW151392  10.316   0.200   4.602
50456SOL    HW251393  10.322   0.160   4.760
50457SOL     OW51394   9.900   1.487   4.215
50457SOL    HW151395   9.942   1.429   4.145
50457SOL    HW251396   9.856   1.566   4.171
50458SOL     OW51397  11.019   0.385   5.105
50458SOL    HW151398  11.092   0.454   5.109
50458SOL    HW251399  11.047   0.310   5.046
50459SOL     OW51400   9.565   1.348   4.014
50459SOL    HW151401   9.469   1.349   3.987
50459SOL    HW251402   9.577   1.401   4.098
50460SOL     OW51403   9.415   1.013   5.450
50460SOL    HW151404   9.338   0.980   5.504
50460SOL    HW251405   9.500   0.983   5.492
50461SOL     OW51406   9.982   0.203   5.213
50461SOL    HW151407  10.072   0.187   5.173
50461SOL    HW251408   9.990   0.208   5.312
50462SOL     OW51409   9.385   0.345   3.757
50462SOL    HW151410   9.293   0.317   3.728
50462SOL    HW251411   9.416   0.422   3.701
50463SOL     OW51412  10.750   0.856   5.122
50463SOL    HW151413  10.693   0.908   5.059
50463SOL    HW251414  10.846   0.868   5.098
50464SOL     OW51415   9.382   0.166   4.042
50464SOL    HW151416   9.365   0.249   3.988
50464SOL    HW251417   9.472   0.129   4.020
50465SOL     OW51418  10.493   1.335   3.843
50465SOL    HW151419  10.394   1.324   3.845
50465SOL    HW251420  10.527   1.350   3.936
50466SOL     OW51421   9.923   0.842   5.155
50466SOL    HW151422   9.979   0.923   5.138
50466SOL    HW251423   9.982   0.762   5.158
50467SOL     OW51424  10.803   1.767   4.683
50467SOL    HW151425  10.836   1.831   4.614
50467SOL    HW251426  10.869   1.761   4.758
50468SOL     OW51427  10.026   0.565   5.432
50468SOL    HW151428  10.045   0.630   5.506
50468SOL    HW251429  10.086   0.485   5.441
50469SOL     OW51430  10.760   1.220   5.357
50469SOL    HW151431  10.751   1.210   5.456
50469SOL    HW251432  10.856   1.213   5.331
50470SOL     OW51433   9.700   1.741   5.284
50470SOL    HW151434   9.609   1.782   5.282
50470SOL    HW251435   9.693   1.647   5.316
50471SOL     OW51436  10.984   0.883   4.978
50471SOL    HW151437  10.957   0.794   4.941
50471SOL    HW251438  10.985   0.951   4.905
50472SOL     OW51439  10.535   0.325   4.173
50472SOL    HW151440  10.600   0.251   4.162
50472SOL    HW251441  10.555   0.375   4.257
50473SOL     OW51442   9.904   0.745   4.376
50473SOL    HW151443   9.954   0.830   4.357
50473SOL    HW251444   9.816   0.747   4.328
50474SOL     OW51445  11.087   0.342   5.366
50474SOL    HW151446  11.070   0.373   5.272
50474SOL    HW251447  11.003   0.305   5.404
50475SOL     OW51448  11.040   0.934   5.241
50475SOL    HW151449  11.078   1.025   5.256
50475SOL    HW251450  11.032   0.917   5.142
50476SOL     OW51451  10.169   1.374   3.740
50476SOL    HW151452  10.123   1.389   3.828
50476SOL    HW251453  10.213   1.459   3.710
50477SOL     OW51454   9.971   1.790   4.677
50477SOL    HW151455   9.925   1.878   4.664
50477SOL    HW251456  10.070   1.802   4.670
50478SOL     OW51457  10.169   0.956   4.585
50478SOL    HW151458  10.223   0.887   4.633
50478SOL    HW251459  10.137   1.025   4.651
50479SOL     OW51460  10.393   0.984   3.811
50479SOL    HW151461  10.370   1.037   3.729
50479SOL    HW251462  10.474   0.928   3.792
50480SOL     OW51463  11.171   1.569   4.575
50480SOL    HW151464  11.100   1.557   4.505
50480SOL    HW251465  11.172   1.490   4.635
50481SOL     OW51466   9.531   1.314   5.568
50481SOL    HW151467   9.466   1.241   5.547
50481SOL    HW251468   9.535   1.328   5.666
50482SOL     OW51469   9.389   1.240   4.377
50482SOL    HW151470   9.388   1.193   4.465
50482SOL    HW251471   9.471   1.212   4.326
50483SOL     OW51472   9.982   1.391   5.348
50483SOL    HW151473   9.904   1.341   5.386
50483SOL    HW251474   9.979   1.486   5.379
50484SOL     OW51475  11.134   0.192   4.951
50484SOL    HW151476  11.130   0.102   4.995
50484SOL    HW251477  11.137   0.181   4.852
50485SOL     OW51478   9.738   0.424   4.244
50485SOL    HW151479   9.768   0.352   4.182
50485SOL    HW251480   9.699   0.384   4.327
50486SOL     OW51481  11.015   1.487   4.828
50486SOL    HW151482  10.922   1.462   4.801
50486SOL    HW251483  11.041   1.437   4.910
50487SOL     OW51484   9.627   0.547   5.004
50487SOL    HW151485   9.665   0.488   5.076
50487SOL    HW251486   9.667   0.521   4.916
50488SOL     OW51487  10.122   1.586   4.411
50488SOL    HW151488  10.154   1.596   4.317
50488SOL    HW251489  10.043   1.524   4.413
50489SOL     OW51490  10.734   0.214   4.836
50489SOL    HW151491  10.786   0.149   4.891
50489SOL    HW251492  10.685   0.277   4.897
50490SOL     OW51493  10.311   0.034   4.878
50490SOL    HW151494  10.248  -0.038   4.847
50490SOL    HW251495  10.404  -0.002   4.878
50491SOL     OW51496  10.080   1.330   4.025
50491SOL    HW151497  10.034   1.243   4.042
50491SOL    HW251498  10.171   1.327   4.066
50492SOL     OW51499   9.928   1.567   5.008
50492SOL    HW151500   9.923   1.649   5.065
50492SOL    HW251501  10.017   1.564   4.963
50493SOL     OW51502  10.662   0.052   3.892
50493SOL    HW151503  10.697   0.011   3.808
50493SOL    HW251504  10.572   0.014   3.912
50494SOL     OW51505  10.610   0.453   4.415
50494SOL    HW151506  10.551   0.533   4.419
50494SOL    HW251507  10.625   0.418   4.508
50495SOL     OW51508  10.903   0.221   4.606
50495SOL    HW151509  10.819   0.220   4.660
50495SOL    HW251510  10.905   0.304   4.550
50496SOL     OW51511   9.349   1.077   4.024
50496SOL    HW151512   9.448   1.066   4.015
50496SOL    HW251513   9.309   0.991   4.056
50497SOL     OW51514  10.185   1.646   4.061
50497SOL    HW151515  10.108   1.611   4.007
50497SOL    HW251516  10.153   1.717   4.123
50498SOL     OW51517   9.540   0.628   5.699
50498SOL    HW151518   9.447   0.626   5.736
50498SOL    HW251519   9.541   0.589   5.607
50499SOL     OW51520   9.535   0.275   6.582
50499SOL    HW151521   9.570   0.258   6.674
50499SOL    HW251522   9.447   0.230   6.570
50500SOL     OW51523   9.329   0.368   6.233
50500SOL    HW151524   9.247   0.411   6.272
50500SOL    HW251525   9.301   0.295   6.170
50501SOL     OW51526   9.879   1.275   6.751
50501SOL    HW151527   9.786   1.268   6.714
50501SOL    HW251528   9.890   1.364   6.795
50502SOL     OW51529  10.865   1.511   6.289
50502SOL    HW151530  10.808   1.495   6.370
50502SOL    HW251531  10.806   1.521   6.209
50503SOL     OW51532  10.445   0.703   6.303
50503SOL    HW151533  10.502   0.781   6.278
50503SOL    HW251534  10.385   0.729   6.379
50504SOL     OW51535  11.065   0.607   5.817
50504SOL    HW151536  11.053   0.594   5.718
50504SOL    HW251537  11.035   0.526   5.866
50505SOL     OW51538  10.078   1.144   6.609
50505SOL    HW151539  10.000   1.161   6.669
50505SOL    HW251540  10.112   1.231   6.573
50506SOL     OW51541  10.160   0.798   7.409
50506SOL    HW151542  10.156   0.874   7.474
50506SOL    HW251543  10.182   0.834   7.318
50507SOL     OW51544   9.995   1.012   6.251
50507SOL    HW151545  10.064   0.996   6.321
50507SOL    HW251546   9.922   1.069   6.289
50508SOL     OW51547   9.996   1.161   7.389
50508SOL    HW151548  10.056   1.240   7.403
50508SOL    HW251549   9.910   1.192   7.348
50509SOL     OW51550   9.645   1.435   6.647
50509SOL    HW151551   9.567   1.404   6.594
50509SOL    HW251552   9.703   1.493   6.590
50510SOL     OW51553  10.770   1.505   6.925
50510SOL    HW151554  10.794   1.599   6.951
50510SOL    HW251555  10.754   1.451   7.007
50511SOL     OW51556   9.748   0.392   7.085
50511SOL    HW151557   9.830   0.336   7.094
50511SOL    HW251558   9.667   0.334   7.089
50512SOL     OW51559  10.913   0.447   6.323
50512SOL    HW151560  10.839   0.493   6.273
50512SOL    HW251561  10.964   0.515   6.376
50513SOL     OW51562   9.541   1.713   6.069
50513SOL    HW151563   9.575   1.790   6.123
50513SOL    HW251564   9.585   1.713   5.979
50514SOL     OW51565  10.437   1.341   7.276
50514SOL    HW151566  10.484   1.341   7.364
50514SOL    HW251567  10.389   1.254   7.265
50515SOL     OW51568   9.540   1.434   6.124
50515SOL    HW151569   9.514   1.530   6.124
50515SOL    HW251570   9.469   1.380   6.169
50516SOL     OW51571   9.550   1.091   6.472
50516SOL    HW151572   9.564   1.007   6.524
50516SOL    HW251573   9.495   1.155   6.527
50517SOL     OW51574   9.930   1.786   7.025
50517SOL    HW151575   9.838   1.769   7.060
50517SOL    HW251576   9.958   1.878   7.051
50518SOL     OW51577   9.916   0.964   5.709
50518SOL    HW151578   9.923   1.048   5.655
50518SOL    HW251579   9.962   0.977   5.797
50519SOL     OW51580  10.904   0.114   7.066
50519SOL    HW151581  10.886   0.181   6.994
50519SOL    HW251582  10.901   0.160   7.155
50520SOL     OW51583   9.432   0.643   6.149
50520SOL    HW151584   9.387   0.555   6.166
50520SOL    HW251585   9.431   0.697   6.233
50521SOL     OW51586  11.152   1.767   5.945
50521SOL    HW151587  11.206   1.738   6.025
50521SOL    HW251588  11.182   1.857   5.916
50522SOL     OW51589   9.337   1.596   5.703
50522SOL    HW151590   9.318   1.500   5.724
50522SOL    HW251591   9.304   1.654   5.778
50523SOL     OW51592  10.999   0.922   6.198
50523SOL    HW151593  11.094   0.893   6.206
50523SOL    HW251594  10.991   0.987   6.123
50524SOL     OW51595  10.951   1.108   6.018
50524SOL    HW151596  11.037   1.110   5.966
50524SOL    HW251597  10.965   1.155   6.106
50525SOL     OW51598   9.423   0.737   7.183
50525SOL    HW151599   9.511   0.724   7.228
50525SOL    HW251600   9.410   0.834   7.161
50526SOL     OW51601   9.923   1.365   6.312
50526SOL    HW151602   9.874   1.278   6.321
50526SOL    HW251603   9.900   1.408   6.225
50527SOL     OW51604  10.603   1.228   7.009
50527SOL    HW151605  10.640   1.155   6.951
50527SOL    HW251606  10.655   1.233   7.094
50528SOL     OW51607  10.119   0.004   6.088
50528SOL    HW151608  10.159   0.095   6.079
50528SOL    HW251609  10.019   0.012   6.094
50529SOL     OW51610   9.507   0.976   6.850
50529SOL    HW151611   9.596   0.931   6.836
50529SOL    HW251612   9.434   0.911   6.831
50530SOL     OW51613  10.835   0.999   5.776
50530SOL    HW151614  10.772   0.923   5.789
50530SOL    HW251615  10.883   1.017   5.862
50531SOL     OW51616  10.497   1.792   7.202
50531SOL    HW151617  10.521   1.852   7.126
50531SOL    HW251618  10.504   1.697   7.172
50532SOL     OW51619   9.627   0.251   7.387
50532SOL    HW151620   9.698   0.322   7.393
50532SOL    HW251621   9.539   0.290   7.415
50533SOL     OW51622  10.776   1.417   6.539
50533SOL    HW151623  10.717   1.423   6.619
50533SOL    HW251624  10.761   1.329   6.493
50534SOL     OW51625  10.977   1.714   6.158
50534SOL    HW151626  10.936   1.691   6.070
50534SOL    HW251627  10.959   1.640   6.223
50535SOL     OW51628   9.908   0.729   5.856
50535SOL    HW151629   9.932   0.798   5.788
50535SOL    HW251630   9.830   0.762   5.910
50536SOL     OW51631  10.591   0.345   6.530
50536SOL    HW151632  10.505   0.295   6.517
50536SOL    HW251633  10.653   0.291   6.586
50537SOL     OW51634  10.886   1.662   5.893
50537SOL    HW151635  10.975   1.708   5.896
50537SOL    HW251636  10.865   1.638   5.798
50538SOL     OW51637  10.117   0.605   7.051
50538SOL    HW151638  10.070   0.602   7.140
50538SOL    HW251639  10.066   0.550   6.985
50539SOL     OW51640  10.704   0.469   7.260
50539SOL    HW151641  10.684   0.512   7.348
50539SOL    HW251642  10.782   0.407   7.269
50540SOL     OW51643  10.283   0.890   7.158
50540SOL    HW151644  10.329   0.806   7.129
50540SOL    HW251645  10.227   0.924   7.083
50541SOL     OW51646  10.301   0.410   6.828
50541SOL    HW151647  10.224   0.444   6.882
50541SOL    HW251648  10.267   0.359   6.749
50542SOL     OW51649  10.351   0.701   6.015
50542SOL    HW151650  10.377   0.697   6.111
50542SOL    HW251651  10.266   0.650   6.001
50543SOL     OW51652   9.386   0.811   6.375
50543SOL    HW151653   9.485   0.799   6.384
50543SOL    HW251654   9.362   0.906   6.396
50544SOL     OW51655   9.440   1.821   7.157
50544SOL    HW151656   9.430   1.806   7.256
50544SOL    HW251657   9.354   1.857   7.121
50545SOL     OW51658  10.175   0.348   5.781
50545SOL    HW151659  10.234   0.411   5.732
50545SOL    HW251660  10.194   0.254   5.752
50546SOL     OW51661  11.029   0.585   7.417
50546SOL    HW151662  11.003   0.674   7.381
50546SOL    HW251663  11.027   0.517   7.344
50547SOL     OW51664  10.672   1.144   6.131
50547SOL    HW151665  10.755   1.115   6.083
50547SOL    HW251666  10.623   1.211   6.075
50548SOL     OW51667   9.860   0.196   6.471
50548SOL    HW151668   9.855   0.191   6.571
50548SOL    HW251669   9.862   0.292   6.442
50549SOL     OW51670  10.318   1.456   6.063
50549SOL    HW151671  10.272   1.528   6.011
50549SOL    HW251672  10.314   1.476   6.161
50550SOL     OW51673   9.661   1.801   6.439
50550SOL    HW151674   9.711   1.715   6.445
50550SOL    HW251675   9.726   1.878   6.436
50551SOL     OW51676  11.105   1.066   6.459
50551SOL    HW151677  11.043   1.051   6.383
50551SOL    HW251678  11.053   1.077   6.544
50552SOL     OW51679  10.537   1.550   7.092
50552SOL    HW151680  10.543   1.473   7.156
50552SOL    HW251681  10.485   1.524   7.012
50553SOL     OW51682   9.631   0.943   5.828
50553SOL    HW151683   9.713   0.982   5.786
50553SOL    HW251684   9.604   0.861   5.779
50554SOL     OW51685  10.768   0.735   6.314
50554SOL    HW151686  10.763   0.670   6.389
50554SOL    HW251687  10.848   0.794   6.327
50555SOL     OW51688   9.771   1.266   7.313
50555SOL    HW151689   9.721   1.267   7.227
50555SOL    HW251690   9.708   1.248   7.389
50556SOL     OW51691  10.421   1.776   5.823
50556SOL    HW151692  10.361   1.714   5.873
50556SOL    HW251693  10.452   1.732   5.738
50557SOL     OW51694   9.512   0.285   7.084
50557SOL    HW151695   9.432   0.345   7.071
50557SOL    HW251696   9.502   0.236   7.170
50558SOL     OW51697  10.942   1.377   5.667
50558SOL    HW151698  10.910   1.471   5.657
50558SOL    HW251699  10.866   1.314   5.655
50559SOL     OW51700   9.774   1.743   5.909
50559SOL    HW151701   9.807   1.782   5.995
50559SOL    HW251702   9.850   1.736   5.844
50560SOL     OW51703  10.710   0.107   6.012
50560SOL    HW151704  10.686   0.070   5.922
50560SOL    HW251705  10.809   0.123   6.016
50561SOL     OW51706   9.559   1.785   6.827
50561SOL    HW151707   9.616   1.720   6.877
50561SOL    HW251708   9.543   1.752   6.734
50562SOL     OW51709  10.250   1.698   6.490
50562SOL    HW151710  10.330   1.641   6.511
50562SOL    HW251711  10.201   1.658   6.413
50563SOL     OW51712   9.692   0.700   6.066
50563SOL    HW151713   9.737   0.610   6.063
50563SOL    HW251714   9.598   0.689   6.099
50564SOL     OW51715  10.857   0.222   7.315
50564SOL    HW151716  10.852   0.259   7.407
50564SOL    HW251717  10.785   0.153   7.303
50565SOL     OW51718   9.924   0.122   5.703
50565SOL    HW151719  10.022   0.100   5.710
50565SOL    HW251720   9.893   0.105   5.610
50566SOL     OW51721  10.091   0.264   7.335
50566SOL    HW151722  10.158   0.203   7.378
50566SOL    HW251723  10.018   0.283   7.400
50567SOL     OW51724  10.198   1.514   6.781
50567SOL    HW151725  10.175   1.489   6.687
50567SOL    HW251726  10.259   1.445   6.820
50568SOL     OW51727  10.661   0.590   7.019
50568SOL    HW151728  10.689   0.547   7.104
50568SOL    HW251729  10.686   0.686   7.020
50569SOL     OW51730  10.113   1.402   6.510
50569SOL    HW151731  10.203   1.416   6.468
50569SOL    HW251732  10.042   1.404   6.439
50570SOL     OW51733  10.232   0.503   6.485
50570SOL    HW151734  10.207   0.494   6.389
50570SOL    HW251735  10.280   0.421   6.516
50571SOL     OW51736   9.849   0.064   6.098
50571SOL    HW151737   9.768   0.065   6.156
50571SOL    HW251738   9.852   0.147   6.043
50572SOL     OW51739  10.744   1.188   5.627
50572SOL    HW151740  10.776   1.112   5.684
50572SOL    HW251741  10.652   1.215   5.657
50573SOL     OW51742   9.607   0.035   5.757
50573SOL    HW151743   9.656   0.119   5.736
50573SOL    HW251744   9.669  -0.030   5.802
50574SOL     OW51745  10.245   0.236   6.066
50574SOL    HW151746  10.197   0.277   5.988
50574SOL    HW251747  10.344   0.234   6.047
50575SOL     OW51748  10.386   0.683   7.050
50575SOL    HW151749  10.306   0.622   7.053
50575SOL    HW251750  10.467   0.630   7.026
50576SOL     OW51751  10.537   1.570   6.379
50576SOL    HW151752  10.558   1.644   6.314
50576SOL    HW251753  10.605   1.570   6.452
50577SOL     OW51754   9.769   1.152   6.327
50577SOL    HW151755   9.698   1.125   6.392
50577SOL    HW251756   9.743   1.124   6.234
50578SOL     OW51757  10.581   1.797   6.177
50578SOL    HW151758  10.625   1.861   6.113
50578SOL    HW251759  10.531   1.849   6.247
50579SOL     OW51760  10.342   0.549   5.602
50579SOL    HW151761  10.301   0.631   5.563
50579SOL    HW251762  10.406   0.575   5.675
50580SOL     OW51763   9.388   0.556   6.972
50580SOL    HW151764   9.480   0.555   6.931
50580SOL    HW251765   9.382   0.630   7.039
50581SOL     OW51766   9.871   0.222   6.733
50581SOL    HW151767   9.909   0.138   6.770
50581SOL    HW251768   9.783   0.241   6.777
50582SOL     OW51769  10.176   0.454   6.228
50582SOL    HW151770  10.144   0.526   6.166
50582SOL    HW251771  10.200   0.373   6.175
50583SOL     OW51772  10.327   0.039   6.339
50583SOL    HW151773  10.255   0.044   6.270
50583SOL    HW251774  10.303  -0.030   6.408
50584SOL     OW51775  10.739   1.173   6.453
50584SOL    HW151776  10.684   1.089   6.446
50584SOL    HW251777  10.765   1.202   6.361
50585SOL     OW51778  10.776   0.590   6.578
50585SOL    HW151779  10.746   0.495   6.585
50585SOL    HW251780  10.849   0.606   6.644
50586SOL     OW51781  11.167   0.833   5.963
50586SOL    HW151782  11.209   0.769   6.027
50586SOL    HW251783  11.129   0.782   5.885
50587SOL     OW51784   9.798   1.385   5.760
50587SOL    HW151785   9.711   1.370   5.807
50587SOL    HW251786   9.781   1.411   5.665
50588SOL     OW51787  10.974   1.280   6.243
50588SOL    HW151788  11.073   1.288   6.257
50588SOL    HW251789  10.929   1.364   6.274
50589SOL     OW51790  10.700   0.575   5.664
50589SOL    HW151791  10.646   0.554   5.745
50589SOL    HW251792  10.791   0.534   5.673
50590SOL     OW51793   9.837   0.256   5.914
50590SOL    HW151794   9.864   0.197   5.839
50590SOL    HW251795   9.837   0.351   5.883
50591SOL     OW51796  11.064   1.223   7.174
50591SOL    HW151797  11.155   1.184   7.161
50591SOL    HW251798  11.072   1.319   7.198
50592SOL     OW51799  10.374   1.347   6.926
50592SOL    HW151800  10.294   1.324   6.981
50592SOL    HW251801  10.457   1.321   6.975
50593SOL     OW51802  10.902   1.629   7.211
50593SOL    HW151803  10.929   1.663   7.121
50593SOL    HW251804  10.981   1.591   7.257
50594SOL     OW51805  10.421   1.195   6.686
50594SOL    HW151806  10.381   1.239   6.767
50594SOL    HW251807  10.380   1.232   6.603
50595SOL     OW51808  10.948   1.099   6.665
50595SOL    HW151809  10.953   1.180   6.724
50595SOL    HW251810  10.862   1.101   6.614
50596SOL     OW51811  10.225   0.089   6.988
50596SOL    HW151812  10.250   0.069   6.893
50596SOL    HW251813  10.297   0.145   7.030
50597SOL     OW51814  10.290   1.116   7.305
50597SOL    HW151815  10.191   1.122   7.315
50597SOL    HW251816  10.313   1.036   7.249
50598SOL     OW51817  10.015   1.050   5.954
50598SOL    HW151818  10.001   1.057   6.053
50598SOL    HW251819  10.099   0.999   5.936
50599SOL     OW51820   9.720   0.813   6.837
50599SOL    HW151821   9.806   0.825   6.887
50599SOL    HW251822   9.678   0.726   6.864
50600SOL     OW51823  10.584   0.386   6.848
50600SOL    HW151824  10.605   0.460   6.912
50600SOL    HW251825  10.495   0.403   6.805
50601SOL     OW51826   9.374   1.564   6.917
50601SOL    HW151827   9.328   1.646   6.883
50601SOL    HW251828   9.472   1.583   6.926
50602SOL     OW51829   9.677   1.100   6.087
50602SOL    HW151830   9.670   1.183   6.031
50602SOL    HW251831   9.681   1.020   6.027
50603SOL     OW51832   9.876   0.537   6.451
50603SOL    HW151833   9.888   0.603   6.377
50603SOL    HW251834   9.922   0.571   6.534
50604SOL     OW51835  10.562   1.348   5.974
50604SOL    HW151836  10.612   1.425   6.014
50604SOL    HW251837  10.467   1.350   6.006
50605SOL     OW51838  10.582   1.445   6.728
50605SOL    HW151839  10.629   1.458   6.815
50605SOL    HW251840  10.516   1.371   6.737
50606SOL     OW51841  10.892   0.639   6.058
50606SOL    HW151842  10.861   0.700   6.131
50606SOL    HW251843  10.942   0.691   5.989
50607SOL     OW51844   9.664   1.510   6.915
50607SOL    HW151845   9.643   1.466   6.828
50607SOL    HW251846   9.761   1.536   6.918
50608SOL     OW51847  10.897   0.779   7.256
50608SOL    HW151848  10.805   0.817   7.251
50608SOL    HW251849  10.957   0.826   7.191
50609SOL     OW51850  10.323   0.105   7.356
50609SOL    HW151851  10.329   0.190   7.304
50609SOL    HW251852  10.355   0.029   7.299
50610SOL     OW51853   9.814   0.050   7.326
50610SOL    HW151854   9.772  -0.007   7.256
50610SOL    HW251855   9.748   0.119   7.358
50611SOL     OW51856   9.883   0.870   6.615
50611SOL    HW151857   9.927   0.959   6.606
50611SOL    HW251858   9.820   0.870   6.692
50612SOL     OW51859  10.670   0.862   6.631
50612SOL    HW151860  10.595   0.862   6.565
50612SOL    HW251861  10.707   0.770   6.640
50613SOL     OW51862  10.519   0.525   5.861
50613SOL    HW151863  10.532   0.441   5.915
50613SOL    HW251864  10.490   0.599   5.921
50614SOL     OW51865   9.617   0.213   6.817
50614SOL    HW151866   9.594   0.250   6.907
50614SOL    HW251867   9.587   0.118   6.811
50615SOL     OW51868   9.347   1.310   6.868
50615SOL    HW151869   9.400   1.261   6.936
50615SOL    HW251870   9.369   1.408   6.873
50616SOL     OW51871  10.042   0.634   6.650
50616SOL    HW151872  10.101   0.608   6.574
50616SOL    HW251873  10.014   0.730   6.639
50617SOL     OW51874  11.038   0.935   7.440
50617SOL    HW151875  10.992   0.928   7.351
50617SOL    HW251876  10.976   0.979   7.506
50618SOL     OW51877   9.617   0.063   6.204
50618SOL    HW151878   9.606   0.157   6.237
50618SOL    HW251879   9.612   0.000   6.281
50619SOL     OW51880  10.932   0.367   5.960
50619SOL    HW151881  10.934   0.291   6.024
50619SOL    HW251882  10.884   0.444   6.000
50620SOL     OW51883  10.333   0.766   6.552
50620SOL    HW151884  10.348   0.787   6.648
50620SOL    HW251885  10.303   0.671   6.543
50621SOL     OW51886  10.290   1.573   7.286
50621SOL    HW151887  10.270   1.617   7.198
50621SOL    HW251888  10.329   1.482   7.270
50622SOL     OW51889  11.169   1.518   7.191
50622SOL    HW151890  11.183   1.545   7.096
50622SOL    HW251891  11.252   1.540   7.244
50623SOL     OW51892   9.660   0.898   7.390
50623SOL    HW151893   9.736   0.942   7.438
50623SOL    HW251894   9.695   0.851   7.308
50624SOL     OW51895  10.850   0.274   5.711
50624SOL    HW151896  10.789   0.199   5.734
50624SOL    HW251897  10.872   0.326   5.794
50625SOL     OW51898  10.613   0.838   5.628
50625SOL    HW151899  10.647   0.745   5.643
50625SOL    HW251900  10.631   0.865   5.533
50626SOL     OW51901  10.378   1.333   6.435
50626SOL    HW151902  10.385   1.249   6.380
50626SOL    HW251903  10.440   1.402   6.399
50627SOL     OW51904   9.629   0.810   6.535
50627SOL    HW151905   9.722   0.846   6.540
50627SOL    HW251906   9.623   0.725   6.587
50628SOL     OW51907   9.649   0.509   6.592
50628SOL    HW151908   9.597   0.426   6.575
50628SOL    HW251909   9.726   0.514   6.528
50629SOL     OW51910  10.448   0.380   7.264
50629SOL    HW151911  10.403   0.443   7.328
50629SOL    HW251912  10.541   0.411   7.247
50630SOL     OW51913  10.470   0.207   7.063
50630SOL    HW151914  10.470   0.271   7.140
50630SOL    HW251915  10.498   0.255   6.980
50631SOL     OW51916   9.318   1.326   5.786
50631SOL    HW151917   9.225   1.347   5.755
50631SOL    HW251918   9.328   1.227   5.799
50632SOL     OW51919   9.398   1.801   6.513
50632SOL    HW151920   9.356   1.715   6.486
50632SOL    HW251921   9.492   1.804   6.479
50633SOL     OW51922   9.814   1.568   6.496
50633SOL    HW151923   9.880   1.642   6.505
50633SOL    HW251924   9.858   1.489   6.454
50634SOL     OW51925  10.312   0.796   6.824
50634SOL    HW151926  10.353   0.764   6.910
50634SOL    HW251927  10.216   0.769   6.821
50635SOL     OW51928   9.350   0.544   6.700
50635SOL    HW151929   9.435   0.511   6.659
50635SOL    HW251930   9.363   0.559   6.798
50636SOL     OW51931   9.499   0.520   7.308
50636SOL    HW151932   9.558   0.480   7.238
50636SOL    HW251933   9.441   0.591   7.267
50637SOL     OW51934  10.679   0.950   7.246
50637SOL    HW151935  10.718   1.039   7.266
50637SOL    HW251936  10.689   0.930   7.149
50638SOL     OW51937  10.125   0.572   5.911
50638SOL    HW151938  10.132   0.483   5.865
50638SOL    HW251939  10.031   0.606   5.903
50639SOL     OW51940  10.967   0.604   6.792
50639SOL    HW151941  10.929   0.535   6.854
50639SOL    HW251942  11.049   0.568   6.748
50640SOL     OW51943   9.562   1.564   7.330
50640SOL    HW151944   9.532   1.621   7.406
50640SOL    HW251945   9.555   1.467   7.356
50641SOL     OW51946   9.981   0.464   6.855
50641SOL    HW151947   9.947   0.375   6.825
50641SOL    HW251948  10.007   0.518   6.775
50642SOL     OW51949  10.240   1.678   7.051
50642SOL    HW151950  10.216   1.660   6.956
50642SOL    HW251951  10.270   1.772   7.061
50643SOL     OW51952   9.783   0.500   5.777
50643SOL    HW151953   9.844   0.580   5.781
50643SOL    HW251954   9.688   0.531   5.784
50644SOL     OW51955   9.469   1.137   7.052
50644SOL    HW151956   9.491   1.076   7.128
50644SOL    HW251957   9.479   1.088   6.966
50645SOL     OW51958  10.657   1.059   6.820
50645SOL    HW151959  10.681   0.996   6.746
50645SOL    HW251960  10.567   1.099   6.802
50646SOL     OW51961  10.612   0.855   5.895
50646SOL    HW151962  10.526   0.824   5.937
50646SOL    HW251963  10.608   0.841   5.796
50647SOL     OW51964  11.069   1.747   6.740
50647SOL    HW151965  11.130   1.777   6.667
50647SOL    HW251966  11.031   1.658   6.718
50648SOL     OW51967  10.562   1.731   6.714
50648SOL    HW151968  10.646   1.736   6.660
50648SOL    HW251969  10.539   1.635   6.732
50649SOL     OW51970   9.393   1.258   6.608
50649SOL    HW151971   9.388   1.257   6.708
50649SOL    HW251972   9.310   1.217   6.570
50650SOL     OW51973   9.998   1.662   7.302
50650SOL    HW151974   9.942   1.743   7.311
50650SOL    HW251975  10.050   1.666   7.216
50651SOL     OW51976  11.036   0.135   6.109
50651SOL    HW151977  11.109   0.118   6.042
50651SOL    HW251978  11.005   0.048   6.147
50652SOL     OW51979  10.698   1.573   6.063
50652SOL    HW151980  10.765   1.585   5.989
50652SOL    HW251981  10.658   1.662   6.086
50653SOL     OW51982   9.440   1.794   7.437
50653SOL    HW151983   9.399   1.720   7.490
50653SOL    HW251984   9.504   1.845   7.495
50654SOL     OW51985  10.590   0.927   6.258
50654SOL    HW151986  10.650   0.846   6.260
50654SOL    HW251987  10.630   0.996   6.198
50655SOL     OW51988  10.140   1.273   7.008
50655SOL    HW151989  10.135   1.306   7.103
50655SOL    HW251990  10.054   1.292   6.962
50656SOL     OW51991   9.982   1.616   5.740
50656SOL    HW151992   9.991   1.626   5.641
50656SOL    HW251993   9.942   1.527   5.761
50657SOL     OW51994  10.960   1.720   6.980
50657SOL    HW151995  11.013   1.730   6.896
50657SOL    HW251996  10.933   1.810   7.014
50658SOL     OW51997  11.151   0.175   6.549
50658SOL    HW151998  11.190   0.090   6.513
50658SOL    HW251999  11.053   0.177   6.530
50659SOL     OW52000   9.573   0.326   6.306
50659SOL    HW152001   9.494   0.377   6.272
50659SOL    HW252002   9.564   0.311   6.404
50660SOL     OW52003  10.504   1.612   5.617
50660SOL    HW152004  10.510   1.519   5.654
50660SOL    HW252005  10.445   1.612   5.537
50661SOL     OW52006  10.132   1.002   6.958
50661SOL    HW152007  10.172   1.001   6.866
50661SOL    HW252008  10.142   1.094   6.998
50662SOL     OW52009  10.814   1.607   5.630
50662SOL    HW152010  10.722   1.644   5.637
50662SOL    HW252011  10.852   1.627   5.540
50663SOL     OW52012   9.682   1.288   7.076
50663SOL    HW152013   9.669   1.381   7.042
50663SOL    HW252014   9.598   1.236   7.063
50664SOL     OW52015  10.924   1.292   6.875
50664SOL    HW152016  10.984   1.295   6.955
50664SOL    HW252017  10.849   1.356   6.888
50665SOL     OW52018  10.349   1.098   6.282
50665SOL    HW152019  10.279   1.051   6.336
50665SOL    HW252020  10.408   1.030   6.239
50666SOL     OW52021  10.324   0.236   6.557
50666SOL    HW152022  10.316   0.200   6.464
50666SOL    HW252023  10.322   0.160   6.622
50667SOL     OW52024   9.900   1.487   6.077
50667SOL    HW152025   9.942   1.429   6.007
50667SOL    HW252026   9.856   1.566   6.033
50668SOL     OW52027  11.019   0.385   6.967
50668SOL    HW152028  11.092   0.454   6.971
50668SOL    HW252029  11.047   0.310   6.908
50669SOL     OW52030   9.565   1.348   5.876
50669SOL    HW152031   9.469   1.349   5.849
50669SOL    HW252032   9.577   1.401   5.960
50670SOL     OW52033   9.415   1.013   7.312
50670SOL    HW152034   9.338   0.980   7.366
50670SOL    HW252035   9.500   0.983   7.354
50671SOL     OW52036   9.982   0.203   7.075
50671SOL    HW152037  10.072   0.187   7.035
50671SOL    HW252038   9.990   0.208   7.174
50672SOL     OW52039   9.385   0.345   5.619
50672SOL    HW152040   9.293   0.317   5.590
50672SOL    HW252041   9.416   0.422   5.563
50673SOL     OW52042  10.750   0.856   6.984
50673SOL    HW152043  10.693   0.908   6.921
50673SOL    HW252044  10.846   0.868   6.960
50674SOL     OW52045   9.382   0.166   5.904
50674SOL    HW152046   9.365   0.249   5.850
50674SOL    HW252047   9.472   0.129   5.882
50675SOL     OW52048  10.493   1.335   5.705
50675SOL    HW152049  10.394   1.324   5.707
50675SOL    HW252050  10.527   1.350   5.798
50676SOL     OW52051   9.923   0.842   7.017
50676SOL    HW152052   9.979   0.923   7.000
50676SOL    HW252053   9.982   0.762   7.020
50677SOL     OW52054  10.803   1.767   6.545
50677SOL    HW152055  10.836   1.831   6.476
50677SOL    HW252056  10.869   1.761   6.620
50678SOL     OW52057  10.026   0.565   7.294
50678SOL    HW152058  10.045   0.630   7.368
50678SOL    HW252059  10.086   0.485   7.303
50679SOL     OW52060  10.760   1.220   7.219
50679SOL    HW152061  10.751   1.210   7.318
50679SOL    HW252062  10.856   1.213   7.193
50680SOL     OW52063   9.700   1.741   7.146
50680SOL    HW152064   9.609   1.782   7.144
50680SOL    HW252065   9.693   1.647   7.178
50681SOL     OW52066  10.984   0.883   6.840
50681SOL    HW152067  10.957   0.794   6.803
50681SOL    HW252068  10.985   0.951   6.767
50682SOL     OW52069  10.535   0.325   6.035
50682SOL    HW152070  10.600   0.251   6.024
50682SOL    HW252071  10.555   0.375   6.119
50683SOL     OW52072   9.904   0.745   6.238
50683SOL    HW152073   9.954   0.830   6.219
50683SOL    HW252074   9.816   0.747   6.190
50684SOL     OW52075  11.087   0.342   7.228
50684SOL    HW152076  11.070   0.373   7.134
50684SOL    HW252077  11.003   0.305   7.266
50685SOL     OW52078  11.040   0.934   7.103
50685SOL    HW152079  11.078   1.025   7.118
50685SOL    HW252080  11.032   0.917   7.004
50686SOL     OW52081  10.169   1.374   5.602
50686SOL    HW152082  10.123   1.389   5.690
50686SOL    HW252083  10.213   1.459   5.572
50687SOL     OW52084   9.971   1.790   6.539
50687SOL    HW152085   9.925   1.878   6.526
50687SOL    HW252086  10.070   1.802   6.532
50688SOL     OW52087  10.169   0.956   6.447
50688SOL    HW152088  10.223   0.887   6.495
50688SOL    HW252089  10.137   1.025   6.513
50689SOL     OW52090  10.393   0.984   5.673
50689SOL    HW152091  10.370   1.037   5.591
50689SOL    HW252092  10.474   0.928   5.654
50690SOL     OW52093  11.171   1.569   6.437
50690SOL    HW152094  11.100   1.557   6.367
50690SOL    HW252095  11.172   1.490   6.497
50691SOL     OW52096   9.531   1.314   7.430
50691SOL    HW152097   9.466   1.241   7.409
50691SOL    HW252098   9.535   1.328   7.528
50692SOL     OW52099   9.389   1.240   6.239
50692SOL    HW152100   9.388   1.193   6.327
50692SOL    HW252101   9.471   1.212   6.188
50693SOL     OW52102   9.982   1.391   7.210
50693SOL    HW152103   9.904   1.341   7.248
50693SOL    HW252104   9.979   1.486   7.241
50694SOL     OW52105  11.134   0.192   6.813
50694SOL    HW152106  11.130   0.102   6.857
50694SOL    HW252107  11.137   0.181   6.714
50695SOL     OW52108   9.738   0.424   6.106
50695SOL    HW152109   9.768   0.352   6.044
50695SOL    HW252110   9.699   0.384   6.189
50696SOL     OW52111  11.015   1.487   6.690
50696SOL    HW152112  10.922   1.462   6.663
50696SOL    HW252113  11.041   1.437   6.772
50697SOL     OW52114   9.627   0.547   6.866
50697SOL    HW152115   9.665   0.488   6.938
50697SOL    HW252116   9.667   0.521   6.778
50698SOL     OW52117  10.122   1.586   6.273
50698SOL    HW152118  10.154   1.596   6.179
50698SOL    HW252119  10.043   1.524   6.275
50699SOL     OW52120  10.734   0.214   6.698
50699SOL    HW152121  10.786   0.149   6.753
50699SOL    HW252122  10.685   0.277   6.759
50700SOL     OW52123  10.311   0.034   6.740
50700SOL    HW152124  10.248  -0.038   6.709
50700SOL    HW252125  10.404  -0.002   6.740
50701SOL     OW52126  10.080   1.330   5.887
50701SOL    HW152127  10.034   1.243   5.904
50701SOL    HW252128  10.171   1.327   5.928
50702SOL     OW52129   9.928   1.567   6.870
50702SOL    HW152130   9.923   1.649   6.927
50702SOL    HW252131  10.017   1.564   6.825
50703SOL     OW52132  10.662   0.052   5.754
50703SOL    HW152133  10.697   0.011   5.670
50703SOL    HW252134  10.572   0.014   5.774
50704SOL     OW52135  10.610   0.453   6.277
50704SOL    HW152136  10.551   0.533   6.281
50704SOL    HW252137  10.625   0.418   6.370
50705SOL     OW52138  10.903   0.221   6.468
50705SOL    HW152139  10.819   0.220   6.522
50705SOL    HW252140  10.905   0.304   6.412
50706SOL     OW52141   9.349   1.077   5.886
50706SOL    HW152142   9.448   1.066   5.877
50706SOL    HW252143   9.309   0.991   5.918
50707SOL     OW52144  10.185   1.646   5.923
50707SOL    HW152145  10.108   1.611   5.869
50707SOL    HW252146  10.153   1.717   5.985
50708SOL     OW52147   9.540   0.628   7.561
50708SOL    HW152148   9.447   0.626   7.598
50708SOL    HW252149   9.541   0.589   7.469
50709SOL     OW52150   9.535   0.275   8.444
50709SOL    HW152151   9.570   0.258   8.536
50709SOL    HW252152   9.447   0.230   8.432
50710SOL     OW52153   9.329   0.368   8.095
50710SOL    HW152154   9.247   0.411   8.134
50710SOL    HW252155   9.301   0.295   8.032
50711SOL     OW52156   9.879   1.275   8.613
50711SOL    HW152157   9.786   1.268   8.576
50711SOL    HW252158   9.890   1.364   8.657
50712SOL     OW52159  10.865   1.511   8.151
50712SOL    HW152160  10.808   1.495   8.232
50712SOL    HW252161  10.806   1.521   8.071
50713SOL     OW52162  10.445   0.703   8.165
50713SOL    HW152163  10.502   0.781   8.140
50713SOL    HW252164  10.385   0.729   8.241
50714SOL     OW52165  11.065   0.607   7.679
50714SOL    HW152166  11.053   0.594   7.580
50714SOL    HW252167  11.035   0.526   7.728
50715SOL     OW52168  10.078   1.144   8.471
50715SOL    HW152169  10.000   1.161   8.531
50715SOL    HW252170  10.112   1.231   8.435
50716SOL     OW52171  10.160   0.798   9.271
50716SOL    HW152172  10.156   0.874   9.336
50716SOL    HW252173  10.182   0.834   9.180
50717SOL     OW52174   9.995   1.012   8.113
50717SOL    HW152175  10.064   0.996   8.183
50717SOL    HW252176   9.922   1.069   8.151
50718SOL     OW52177   9.996   1.161   9.251
50718SOL    HW152178  10.056   1.240   9.265
50718SOL    HW252179   9.910   1.192   9.210
50719SOL     OW52180   9.645   1.435   8.509
50719SOL    HW152181   9.567   1.404   8.456
50719SOL    HW252182   9.703   1.493   8.452
50720SOL     OW52183  10.770   1.505   8.787
50720SOL    HW152184  10.794   1.599   8.813
50720SOL    HW252185  10.754   1.451   8.869
50721SOL     OW52186   9.748   0.392   8.947
50721SOL    HW152187   9.830   0.336   8.956
50721SOL    HW252188   9.667   0.334   8.951
50722SOL     OW52189  10.913   0.447   8.185
50722SOL    HW152190  10.839   0.493   8.135
50722SOL    HW252191  10.964   0.515   8.238
50723SOL     OW52192   9.541   1.713   7.931
50723SOL    HW152193   9.575   1.790   7.985
50723SOL    HW252194   9.585   1.713   7.841
50724SOL     OW52195  10.437   1.341   9.138
50724SOL    HW152196  10.484   1.341   9.226
50724SOL    HW252197  10.389   1.254   9.127
50725SOL     OW52198   9.540   1.434   7.986
50725SOL    HW152199   9.514   1.530   7.986
50725SOL    HW252200   9.469   1.380   8.031
50726SOL     OW52201   9.550   1.091   8.334
50726SOL    HW152202   9.564   1.007   8.386
50726SOL    HW252203   9.495   1.155   8.389
50727SOL     OW52204   9.930   1.786   8.887
50727SOL    HW152205   9.838   1.769   8.922
50727SOL    HW252206   9.958   1.878   8.913
50728SOL     OW52207   9.916   0.964   7.571
50728SOL    HW152208   9.923   1.048   7.517
50728SOL    HW252209   9.962   0.977   7.659
50729SOL     OW52210  10.904   0.114   8.928
50729SOL    HW152211  10.886   0.181   8.856
50729SOL    HW252212  10.901   0.160   9.017
50730SOL     OW52213   9.432   0.643   8.011
50730SOL    HW152214   9.387   0.555   8.028
50730SOL    HW252215   9.431   0.697   8.095
50731SOL     OW52216  11.152   1.767   7.807
50731SOL    HW152217  11.206   1.738   7.887
50731SOL    HW252218  11.182   1.857   7.778
50732SOL     OW52219   9.337   1.596   7.565
50732SOL    HW152220   9.318   1.500   7.586
50732SOL    HW252221   9.304   1.654   7.640
50733SOL     OW52222  10.999   0.922   8.060
50733SOL    HW152223  11.094   0.893   8.068
50733SOL    HW252224  10.991   0.987   7.985
50734SOL     OW52225  10.951   1.108   7.880
50734SOL    HW152226  11.037   1.110   7.828
50734SOL    HW252227  10.965   1.155   7.968
50735SOL     OW52228   9.423   0.737   9.045
50735SOL    HW152229   9.511   0.724   9.090
50735SOL    HW252230   9.410   0.834   9.023
50736SOL     OW52231   9.923   1.365   8.174
50736SOL    HW152232   9.874   1.278   8.183
50736SOL    HW252233   9.900   1.408   8.087
50737SOL     OW52234  10.603   1.228   8.871
50737SOL    HW152235  10.640   1.155   8.813
50737SOL    HW252236  10.655   1.233   8.956
50738SOL     OW52237  10.119   0.004   7.950
50738SOL    HW152238  10.159   0.095   7.941
50738SOL    HW252239  10.019   0.012   7.956
50739SOL     OW52240   9.507   0.976   8.712
50739SOL    HW152241   9.596   0.931   8.698
50739SOL    HW252242   9.434   0.911   8.693
50740SOL     OW52243  10.835   0.999   7.638
50740SOL    HW152244  10.772   0.923   7.651
50740SOL    HW252245  10.883   1.017   7.724
50741SOL     OW52246  10.497   1.792   9.064
50741SOL    HW152247  10.521   1.852   8.988
50741SOL    HW252248  10.504   1.697   9.034
50742SOL     OW52249   9.627   0.251   9.249
50742SOL    HW152250   9.698   0.322   9.255
50742SOL    HW252251   9.539   0.290   9.277
50743SOL     OW52252  10.776   1.417   8.401
50743SOL    HW152253  10.717   1.423   8.481
50743SOL    HW252254  10.761   1.329   8.355
50744SOL     OW52255  10.977   1.714   8.020
50744SOL    HW152256  10.936   1.691   7.932
50744SOL    HW252257  10.959   1.640   8.085
50745SOL     OW52258   9.908   0.729   7.718
50745SOL    HW152259   9.932   0.798   7.650
50745SOL    HW252260   9.830   0.762   7.772
50746SOL     OW52261  10.591   0.345   8.392
50746SOL    HW152262  10.505   0.295   8.379
50746SOL    HW252263  10.653   0.291   8.448
50747SOL     OW52264  10.886   1.662   7.755
50747SOL    HW152265  10.975   1.708   7.758
50747SOL    HW252266  10.865   1.638   7.660
50748SOL     OW52267  10.117   0.605   8.913
50748SOL    HW152268  10.070   0.602   9.002
50748SOL    HW252269  10.066   0.550   8.847
50749SOL     OW52270  10.704   0.469   9.122
50749SOL    HW152271  10.684   0.512   9.210
50749SOL    HW252272  10.782   0.407   9.131
50750SOL     OW52273  10.283   0.890   9.020
50750SOL    HW152274  10.329   0.806   8.991
50750SOL    HW252275  10.227   0.924   8.945
50751SOL     OW52276  10.301   0.410   8.690
50751SOL    HW152277  10.224   0.444   8.744
50751SOL    HW252278  10.267   0.359   8.611
50752SOL     OW52279  10.351   0.701   7.877
50752SOL    HW152280  10.377   0.697   7.973
50752SOL    HW252281  10.266   0.650   7.863
50753SOL     OW52282   9.386   0.811   8.237
50753SOL    HW152283   9.485   0.799   8.246
50753SOL    HW252284   9.362   0.906   8.258
50754SOL     OW52285   9.440   1.821   9.019
50754SOL    HW152286   9.430   1.806   9.118
50754SOL    HW252287   9.354   1.857   8.983
50755SOL     OW52288  10.175   0.348   7.643
50755SOL    HW152289  10.234   0.411   7.594
50755SOL    HW252290  10.194   0.254   7.614
50756SOL     OW52291  11.029   0.585   9.279
50756SOL    HW152292  11.003   0.674   9.243
50756SOL    HW252293  11.027   0.517   9.206
50757SOL     OW52294  10.672   1.144   7.993
50757SOL    HW152295  10.755   1.115   7.945
50757SOL    HW252296  10.623   1.211   7.937
50758SOL     OW52297   9.860   0.196   8.333
50758SOL    HW152298   9.855   0.191   8.433
50758SOL    HW252299   9.862   0.292   8.304
50759SOL     OW52300  10.318   1.456   7.925
50759SOL    HW152301  10.272   1.528   7.873
50759SOL    HW252302  10.314   1.476   8.023
50760SOL     OW52303   9.661   1.801   8.301
50760SOL    HW152304   9.711   1.715   8.307
50760SOL    HW252305   9.726   1.878   8.298
50761SOL     OW52306  11.105   1.066   8.321
50761SOL    HW152307  11.043   1.051   8.245
50761SOL    HW252308  11.053   1.077   8.406
50762SOL     OW52309  10.537   1.550   8.954
50762SOL    HW152310  10.543   1.473   9.018
50762SOL    HW252311  10.485   1.524   8.874
50763SOL     OW52312   9.631   0.943   7.690
50763SOL    HW152313   9.713   0.982   7.648
50763SOL    HW252314   9.604   0.861   7.641
50764SOL     OW52315  10.768   0.735   8.176
50764SOL    HW152316  10.763   0.670   8.251
50764SOL    HW252317  10.848   0.794   8.189
50765SOL     OW52318   9.771   1.266   9.175
50765SOL    HW152319   9.721   1.267   9.089
50765SOL    HW252320   9.708   1.248   9.251
50766SOL     OW52321  10.421   1.776   7.685
50766SOL    HW152322  10.361   1.714   7.735
50766SOL    HW252323  10.452   1.732   7.600
50767SOL     OW52324   9.512   0.285   8.946
50767SOL    HW152325   9.432   0.345   8.933
50767SOL    HW252326   9.502   0.236   9.032
50768SOL     OW52327  10.942   1.377   7.529
50768SOL    HW152328  10.910   1.471   7.519
50768SOL    HW252329  10.866   1.314   7.517
50769SOL     OW52330   9.774   1.743   7.771
50769SOL    HW152331   9.807   1.782   7.857
50769SOL    HW252332   9.850   1.736   7.706
50770SOL     OW52333  10.710   0.107   7.874
50770SOL    HW152334  10.686   0.070   7.784
50770SOL    HW252335  10.809   0.123   7.878
50771SOL     OW52336   9.559   1.785   8.689
50771SOL    HW152337   9.616   1.720   8.739
50771SOL    HW252338   9.543   1.752   8.596
50772SOL     OW52339  10.250   1.698   8.352
50772SOL    HW152340  10.330   1.641   8.373
50772SOL    HW252341  10.201   1.658   8.275
50773SOL     OW52342   9.692   0.700   7.928
50773SOL    HW152343   9.737   0.610   7.925
50773SOL    HW252344   9.598   0.689   7.961
50774SOL     OW52345  10.857   0.222   9.177
50774SOL    HW152346  10.852   0.259   9.269
50774SOL    HW252347  10.785   0.153   9.165
50775SOL     OW52348   9.924   0.122   7.565
50775SOL    HW152349  10.022   0.100   7.572
50775SOL    HW252350   9.893   0.105   7.472
50776SOL     OW52351  10.091   0.264   9.197
50776SOL    HW152352  10.158   0.203   9.240
50776SOL    HW252353  10.018   0.283   9.262
50777SOL     OW52354  10.198   1.514   8.643
50777SOL    HW152355  10.175   1.489   8.549
50777SOL    HW252356  10.259   1.445   8.682
50778SOL     OW52357  10.661   0.590   8.881
50778SOL    HW152358  10.689   0.547   8.966
50778SOL    HW252359  10.686   0.686   8.882
50779SOL     OW52360  10.113   1.402   8.372
50779SOL    HW152361  10.203   1.416   8.330
50779SOL    HW252362  10.042   1.404   8.301
50780SOL     OW52363  10.232   0.503   8.347
50780SOL    HW152364  10.207   0.494   8.251
50780SOL    HW252365  10.280   0.421   8.378
50781SOL     OW52366   9.849   0.064   7.960
50781SOL    HW152367   9.768   0.065   8.018
50781SOL    HW252368   9.852   0.147   7.905
50782SOL     OW52369  10.744   1.188   7.489
50782SOL    HW152370  10.776   1.112   7.546
50782SOL    HW252371  10.652   1.215   7.519
50783SOL     OW52372   9.607   0.035   7.619
50783SOL    HW152373   9.656   0.119   7.598
50783SOL    HW252374   9.669  -0.030   7.664
50784SOL     OW52375  10.245   0.236   7.928
50784SOL    HW152376  10.197   0.277   7.850
50784SOL    HW252377  10.344   0.234   7.909
50785SOL     OW52378  10.386   0.683   8.912
50785SOL    HW152379  10.306   0.622   8.915
50785SOL    HW252380  10.467   0.630   8.888
50786SOL     OW52381  10.537   1.570   8.241
50786SOL    HW152382  10.558   1.644   8.176
50786SOL    HW252383  10.605   1.570   8.314
50787SOL     OW52384   9.769   1.152   8.189
50787SOL    HW152385   9.698   1.125   8.254
50787SOL    HW252386   9.743   1.124   8.096
50788SOL     OW52387  10.581   1.797   8.039
50788SOL    HW152388  10.625   1.861   7.975
50788SOL    HW252389  10.531   1.849   8.109
50789SOL     OW52390  10.342   0.549   7.464
50789SOL    HW152391  10.301   0.631   7.425
50789SOL    HW252392  10.406   0.575   7.537
50790SOL     OW52393   9.388   0.556   8.834
50790SOL    HW152394   9.480   0.555   8.793
50790SOL    HW252395   9.382   0.630   8.901
50791SOL     OW52396   9.871   0.222   8.595
50791SOL    HW152397   9.909   0.138   8.632
50791SOL    HW252398   9.783   0.241   8.639
50792SOL     OW52399  10.176   0.454   8.090
50792SOL    HW152400  10.144   0.526   8.028
50792SOL    HW252401  10.200   0.373   8.037
50793SOL     OW52402  10.327   0.039   8.201
50793SOL    HW152403  10.255   0.044   8.132
50793SOL    HW252404  10.303  -0.030   8.270
50794SOL     OW52405  10.739   1.173   8.315
50794SOL    HW152406  10.684   1.089   8.308
50794SOL    HW252407  10.765   1.202   8.223
50795SOL     OW52408  10.776   0.590   8.440
50795SOL    HW152409  10.746   0.495   8.447
50795SOL    HW252410  10.849   0.606   8.506
50796SOL     OW52411  11.167   0.833   7.825
50796SOL    HW152412  11.209   0.769   7.889
50796SOL    HW252413  11.129   0.782   7.747
50797SOL     OW52414   9.798   1.385   7.622
50797SOL    HW152415   9.711   1.370   7.669
50797SOL    HW252416   9.781   1.411   7.527
50798SOL     OW52417  10.974   1.280   8.105
50798SOL    HW152418  11.073   1.288   8.119
50798SOL    HW252419  10.929   1.364   8.136
50799SOL     OW52420  10.700   0.575   7.526
50799SOL    HW152421  10.646   0.554   7.607
50799SOL    HW252422  10.791   0.534   7.535
50800SOL     OW52423   9.837   0.256   7.776
50800SOL    HW152424   9.864   0.197   7.701
50800SOL    HW252425   9.837   0.351   7.745
50801SOL     OW52426  11.064   1.223   9.036
50801SOL    HW152427  11.155   1.184   9.023
50801SOL    HW252428  11.072   1.319   9.060
50802SOL     OW52429  10.374   1.347   8.788
50802SOL    HW152430  10.294   1.324   8.843
50802SOL    HW252431  10.457   1.321   8.837
50803SOL     OW52432  10.902   1.629   9.073
50803SOL    HW152433  10.929   1.663   8.983
50803SOL    HW252434  10.981   1.591   9.119
50804SOL     OW52435  10.421   1.195   8.548
50804SOL    HW152436  10.381   1.239   8.629
50804SOL    HW252437  10.380   1.232   8.465
50805SOL     OW52438  10.948   1.099   8.527
50805SOL    HW152439  10.953   1.180   8.586
50805SOL    HW252440  10.862   1.101   8.476
50806SOL     OW52441  10.225   0.089   8.850
50806SOL    HW152442  10.250   0.069   8.755
50806SOL    HW252443  10.297   0.145   8.892
50807SOL     OW52444  10.290   1.116   9.167
50807SOL    HW152445  10.191   1.122   9.177
50807SOL    HW252446  10.313   1.036   9.111
50808SOL     OW52447  10.015   1.050   7.816
50808SOL    HW152448  10.001   1.057   7.915
50808SOL    HW252449  10.099   0.999   7.798
50809SOL     OW52450   9.720   0.813   8.699
50809SOL    HW152451   9.806   0.825   8.749
50809SOL    HW252452   9.678   0.726   8.726
50810SOL     OW52453  10.584   0.386   8.710
50810SOL    HW152454  10.605   0.460   8.774
50810SOL    HW252455  10.495   0.403   8.667
50811SOL     OW52456   9.374   1.564   8.779
50811SOL    HW152457   9.328   1.646   8.745
50811SOL    HW252458   9.472   1.583   8.788
50812SOL     OW52459   9.677   1.100   7.949
50812SOL    HW152460   9.670   1.183   7.893
50812SOL    HW252461   9.681   1.020   7.889
50813SOL     OW52462   9.876   0.537   8.313
50813SOL    HW152463   9.888   0.603   8.239
50813SOL    HW252464   9.922   0.571   8.396
50814SOL     OW52465  10.562   1.348   7.836
50814SOL    HW152466  10.612   1.425   7.876
50814SOL    HW252467  10.467   1.350   7.868
50815SOL     OW52468  10.582   1.445   8.590
50815SOL    HW152469  10.629   1.458   8.677
50815SOL    HW252470  10.516   1.371   8.599
50816SOL     OW52471  10.892   0.639   7.920
50816SOL    HW152472  10.861   0.700   7.993
50816SOL    HW252473  10.942   0.691   7.851
50817SOL     OW52474   9.664   1.510   8.777
50817SOL    HW152475   9.643   1.466   8.690
50817SOL    HW252476   9.761   1.536   8.780
50818SOL     OW52477   9.712   0.751   9.046
50818SOL    HW152478   9.780   0.806   8.999
50818SOL    HW252479   9.752   0.663   9.073
50819SOL     OW52480  10.897   0.779   9.118
50819SOL    HW152481  10.805   0.817   9.113
50819SOL    HW252482  10.957   0.826   9.053
50820SOL     OW52483  10.323   0.105   9.218
50820SOL    HW152484  10.329   0.190   9.166
50820SOL    HW252485  10.355   0.029   9.161
50821SOL     OW52486   9.814   0.050   9.188
50821SOL    HW152487   9.772  -0.007   9.118
50821SOL    HW252488   9.748   0.119   9.220
50822SOL     OW52489   9.883   0.870   8.477
50822SOL    HW152490   9.927   0.959   8.468
50822SOL    HW252491   9.820   0.870   8.554
50823SOL     OW52492  10.670   0.862   8.493
50823SOL    HW152493  10.595   0.862   8.427
50823SOL    HW252494  10.707   0.770   8.502
50824SOL     OW52495  10.519   0.525   7.723
50824SOL    HW152496  10.532   0.441   7.777
50824SOL    HW252497  10.490   0.599   7.783
50825SOL     OW52498   9.617   0.213   8.679
50825SOL    HW152499   9.594   0.250   8.769
50825SOL    HW252500   9.587   0.118   8.673
50826SOL     OW52501   9.347   1.310   8.730
50826SOL    HW152502   9.400   1.261   8.798
50826SOL    HW252503   9.369   1.408   8.735
50827SOL     OW52504  10.042   0.634   8.512
50827SOL    HW152505  10.101   0.608   8.436
50827SOL    HW252506  10.014   0.730   8.501
50828SOL     OW52507  11.038   0.935   9.302
50828SOL    HW152508  10.992   0.928   9.213
50828SOL    HW252509  10.976   0.979   9.368
50829SOL     OW52510   9.617   0.063   8.066
50829SOL    HW152511   9.606   0.157   8.099
50829SOL    HW252512   9.612   0.000   8.143
50830SOL     OW52513  10.932   0.367   7.822
50830SOL    HW152514  10.934   0.291   7.886
50830SOL    HW252515  10.884   0.444   7.862
50831SOL     OW52516  10.333   0.766   8.414
50831SOL    HW152517  10.348   0.787   8.510
50831SOL    HW252518  10.303   0.671   8.405
50832SOL     OW52519  10.290   1.573   9.148
50832SOL    HW152520  10.270   1.617   9.060
50832SOL    HW252521  10.329   1.482   9.132
50833SOL     OW52522  11.169   1.518   9.053
50833SOL    HW152523  11.183   1.545   8.958
50833SOL    HW252524  11.252   1.540   9.106
50834SOL     OW52525   9.660   0.898   9.252
50834SOL    HW152526   9.736   0.942   9.300
50834SOL    HW252527   9.695   0.851   9.170
50835SOL     OW52528  10.850   0.274   7.573
50835SOL    HW152529  10.789   0.199   7.596
50835SOL    HW252530  10.872   0.326   7.656
50836SOL     OW52531  10.613   0.838   7.490
50836SOL    HW152532  10.647   0.745   7.505
50836SOL    HW252533  10.631   0.865   7.395
50837SOL     OW52534  10.378   1.333   8.297
50837SOL    HW152535  10.385   1.249   8.242
50837SOL    HW252536  10.440   1.402   8.261
50838SOL     OW52537   9.629   0.810   8.397
50838SOL    HW152538   9.722   0.846   8.402
50838SOL    HW252539   9.623   0.725   8.449
50839SOL     OW52540   9.649   0.509   8.454
50839SOL    HW152541   9.597   0.426   8.437
50839SOL    HW252542   9.726   0.514   8.390
50840SOL     OW52543  10.448   0.380   9.126
50840SOL    HW152544  10.403   0.443   9.190
50840SOL    HW252545  10.541   0.411   9.109
50841SOL     OW52546  10.470   0.207   8.925
50841SOL    HW152547  10.470   0.271   9.002
50841SOL    HW252548  10.498   0.255   8.842
50842SOL     OW52549   9.318   1.326   7.648
50842SOL    HW152550   9.225   1.347   7.617
50842SOL    HW252551   9.328   1.227   7.661
50843SOL     OW52552   9.398   1.801   8.375
50843SOL    HW152553   9.356   1.715   8.348
50843SOL    HW252554   9.492   1.804   8.341
50844SOL     OW52555   9.814   1.568   8.358
50844SOL    HW152556   9.880   1.642   8.367
50844SOL    HW252557   9.858   1.489   8.316
50845SOL     OW52558  10.312   0.796   8.686
50845SOL    HW152559  10.353   0.764   8.772
50845SOL    HW252560  10.216   0.769   8.683
50846SOL     OW52561   9.350   0.544   8.562
50846SOL    HW152562   9.435   0.511   8.521
50846SOL    HW252563   9.363   0.559   8.660
50847SOL     OW52564  10.679   0.950   9.108
50847SOL    HW152565  10.718   1.039   9.128
50847SOL    HW252566  10.689   0.930   9.011
50848SOL     OW52567  10.125   0.572   7.773
50848SOL    HW152568  10.132   0.483   7.727
50848SOL    HW252569  10.031   0.606   7.765
50849SOL     OW52570  10.967   0.604   8.654
50849SOL    HW152571  10.929   0.535   8.716
50849SOL    HW252572  11.049   0.568   8.610
50850SOL     OW52573   9.562   1.564   9.192
50850SOL    HW152574   9.532   1.621   9.268
50850SOL    HW252575   9.555   1.467   9.218
50851SOL     OW52576   9.981   0.464   8.717
50851SOL    HW152577   9.947   0.375   8.687
50851SOL    HW252578  10.007   0.518   8.637
50852SOL     OW52579  10.240   1.678   8.913
50852SOL    HW152580  10.216   1.660   8.818
50852SOL    HW252581  10.270   1.772   8.923
50853SOL     OW52582   9.783   0.500   7.639
50853SOL    HW152583   9.844   0.580   7.643
50853SOL    HW252584   9.688   0.531   7.646
50854SOL     OW52585   9.469   1.137   8.914
50854SOL    HW152586   9.491   1.076   8.990
50854SOL    HW252587   9.479   1.088   8.828
50855SOL     OW52588  10.657   1.059   8.682
50855SOL    HW152589  10.681   0.996   8.608
50855SOL    HW252590  10.567   1.099   8.664
50856SOL     OW52591  10.612   0.855   7.757
50856SOL    HW152592  10.526   0.824   7.799
50856SOL    HW252593  10.608   0.841   7.658
50857SOL     OW52594  11.069   1.747   8.602
50857SOL    HW152595  11.130   1.777   8.529
50857SOL    HW252596  11.031   1.658   8.580
50858SOL     OW52597  10.562   1.731   8.576
50858SOL    HW152598  10.646   1.736   8.522
50858SOL    HW252599  10.539   1.635   8.594
50859SOL     OW52600   9.393   1.258   8.470
50859SOL    HW152601   9.388   1.257   8.570
50859SOL    HW252602   9.310   1.217   8.432
50860SOL     OW52603   9.998   1.662   9.164
50860SOL    HW152604   9.942   1.743   9.173
50860SOL    HW252605  10.050   1.666   9.078
50861SOL     OW52606  11.036   0.135   7.971
50861SOL    HW152607  11.109   0.118   7.904
50861SOL    HW252608  11.005   0.048   8.009
50862SOL     OW52609  10.698   1.573   7.925
50862SOL    HW152610  10.765   1.585   7.851
50862SOL    HW252611  10.658   1.662   7.948
50863SOL     OW52612   9.440   1.794   9.299
50863SOL    HW152613   9.399   1.720   9.352
50863SOL    HW252614   9.504   1.845   9.357
50864SOL     OW52615  10.590   0.927   8.120
50864SOL    HW152616  10.650   0.846   8.122
50864SOL    HW252617  10.630   0.996   8.060
50865SOL     OW52618  10.140   1.273   8.870
50865SOL    HW152619  10.135   1.306   8.965
50865SOL    HW252620  10.054   1.292   8.824
50866SOL     OW52621   9.982   1.616   7.602
50866SOL    HW152622   9.991   1.626   7.503
50866SOL    HW252623   9.942   1.527   7.623
50867SOL     OW52624  10.960   1.720   8.842
50867SOL    HW152625  11.013   1.730   8.758
50867SOL    HW252626  10.933   1.810   8.876
50868SOL     OW52627  11.151   0.175   8.411
50868SOL    HW152628  11.190   0.090   8.375
50868SOL    HW252629  11.053   0.177   8.392
50869SOL     OW52630   9.573   0.326   8.168
50869SOL    HW152631   9.494   0.377   8.134
50869SOL    HW252632   9.564   0.311   8.266
50870SOL     OW52633  10.504   1.612   7.479
50870SOL    HW152634  10.510   1.519   7.516
50870SOL    HW252635  10.445   1.612   7.399
50871SOL     OW52636  10.132   1.002   8.820
50871SOL    HW152637  10.172   1.001   8.728
50871SOL    HW252638  10.142   1.094   8.860
50872SOL     OW52639  10.226   0.910   7.739
50872SOL    HW152640  10.289   0.948   7.671
50872SOL    HW252641  10.266   0.827   7.778
50873SOL     OW52642  10.814   1.607   7.492
50873SOL    HW152643  10.722   1.644   7.499
50873SOL    HW252644  10.852   1.627   7.402
50874SOL     OW52645   9.682   1.288   8.938
50874SOL    HW152646   9.669   1.381   8.904
50874SOL    HW252647   9.598   1.236   8.925
50875SOL     OW52648  10.924   1.292   8.737
50875SOL    HW152649  10.984   1.295   8.817
50875SOL    HW252650  10.849   1.356   8.750
50876SOL     OW52651  10.349   1.098   8.144
50876SOL    HW152652  10.279   1.051   8.198
50876SOL    HW252653  10.408   1.030   8.101
50877SOL     OW52654  10.324   0.236   8.419
50877SOL    HW152655  10.316   0.200   8.326
50877SOL    HW252656  10.322   0.160   8.484
50878SOL     OW52657   9.900   1.487   7.939
50878SOL    HW152658   9.942   1.429   7.869
50878SOL    HW252659   9.856   1.566   7.895
50879SOL     OW52660  11.019   0.385   8.829
50879SOL    HW152661  11.092   0.454   8.833
50879SOL    HW252662  11.047   0.310   8.770
50880SOL     OW52663   9.565   1.348   7.738
50880SOL    HW152664   9.469   1.349   7.711
50880SOL    HW252665   9.577   1.401   7.822
50881SOL     OW52666   9.415   1.013   9.174
50881SOL    HW152667   9.338   0.980   9.228
50881SOL    HW252668   9.500   0.983   9.216
50882SOL     OW52669   9.982   0.203   8.937
50882SOL    HW152670  10.072   0.187   8.897
50882SOL    HW252671   9.990   0.208   9.036
50883SOL     OW52672   9.385   0.345   7.481
50883SOL    HW152673   9.293   0.317   7.452
50883SOL    HW252674   9.416   0.422   7.425
50884SOL     OW52675  10.750   0.856   8.846
50884SOL    HW152676  10.693   0.908   8.783
50884SOL    HW252677  10.846   0.868   8.822
50885SOL     OW52678   9.382   0.166   7.766
50885SOL    HW152679   9.365   0.249   7.712
50885SOL    HW252680   9.472   0.129   7.744
50886SOL     OW52681  10.493   1.335   7.567
50886SOL    HW152682  10.394   1.324   7.569
50886SOL    HW252683  10.527   1.350   7.660
50887SOL     OW52684   9.923   0.842   8.879
50887SOL    HW152685   9.979   0.923   8.862
50887SOL    HW252686   9.982   0.762   8.882
50888SOL     OW52687  10.803   1.767   8.407
50888SOL    HW152688  10.836   1.831   8.338
50888SOL    HW252689  10.869   1.761   8.482
50889SOL     OW52690  10.026   0.565   9.156
50889SOL    HW152691  10.045   0.630   9.230
50889SOL    HW252692  10.086   0.485   9.165
50890SOL     OW52693  10.760   1.220   9.081
50890SOL    HW152694  10.751   1.210   9.180
50890SOL    HW252695  10.856   1.213   9.055
50891SOL     OW52696   9.700   1.741   9.008
50891SOL    HW152697   9.609   1.782   9.006
50891SOL    HW252698   9.693   1.647   9.040
50892SOL     OW52699  10.984   0.883   8.702
50892SOL    HW152700  10.957   0.794   8.665
50892SOL    HW252701  10.985   0.951   8.629
50893SOL     OW52702  10.535   0.325   7.897
50893SOL    HW152703  10.600   0.251   7.886
50893SOL    HW252704  10.555   0.375   7.981
50894SOL     OW52705   9.904   0.745   8.100
50894SOL    HW152706   9.954   0.830   8.081
50894SOL    HW252707   9.816   0.747   8.052
50895SOL     OW52708  11.087   0.342   9.090
50895SOL    HW152709  11.070   0.373   8.996
50895SOL    HW252710  11.003   0.305   9.128
50896SOL     OW52711  11.040   0.934   8.965
50896SOL    HW152712  11.078   1.025   8.980
50896SOL    HW252713  11.032   0.917   8.866
50897SOL     OW52714  10.169   1.374   7.464
50897SOL    HW152715  10.123   1.389   7.552
50897SOL    HW252716  10.213   1.459   7.434
50898SOL     OW52717   9.971   1.790   8.401
50898SOL    HW152718   9.925   1.878   8.388
50898SOL    HW252719  10.070   1.802   8.394
50899SOL     OW52720  10.169   0.956   8.309
50899SOL    HW152721  10.223   0.887   8.357
50899SOL    HW252722  10.137   1.025   8.375
50900SOL     OW52723  10.393   0.984   7.535
50900SOL    HW152724  10.370   1.037   7.453
50900SOL    HW252725  10.474   0.928   7.516
50901SOL     OW52726  11.171   1.569   8.299
50901SOL    HW152727  11.100   1.557   8.229
50901SOL    HW252728  11.172   1.490   8.359
50902SOL     OW52729   9.531   1.314   9.292
50902SOL    HW152730   9.466   1.241   9.271
50902SOL    HW252731   9.535   1.328   9.390
50903SOL     OW52732   9.389   1.240   8.101
50903SOL    HW152733   9.388   1.193   8.189
50903SOL    HW252734   9.471   1.212   8.050
50904SOL     OW52735   9.982   1.391   9.072
50904SOL    HW152736   9.904   1.341   9.110
50904SOL    HW252737   9.979   1.486   9.103
50905SOL     OW52738  11.134   0.192   8.675
50905SOL    HW152739  11.130   0.102   8.719
50905SOL    HW252740  11.137   0.181   8.576
50906SOL     OW52741   9.738   0.424   7.968
50906SOL    HW152742   9.768   0.352   7.906
50906SOL    HW252743   9.699   0.384   8.051
50907SOL     OW52744  11.015   1.487   8.552
50907SOL    HW152745  10.922   1.462   8.525
50907SOL    HW252746  11.041   1.437   8.634
50908SOL     OW52747   9.627   0.547   8.728
50908SOL    HW152748   9.665   0.488   8.800
50908SOL    HW252749   9.667   0.521   8.640
50909SOL     OW52750  10.122   1.586   8.135
50909SOL    HW152751  10.154   1.596   8.041
50909SOL    HW252752  10.043   1.524   8.137
50910SOL     OW52753  10.734   0.214   8.560
50910SOL    HW152754  10.786   0.149   8.615
50910SOL    HW252755  10.685   0.277   8.621
50911SOL     OW52756  10.311   0.034   8.602
50911SOL    HW152757  10.248  -0.038   8.571
50911SOL    HW252758  10.404  -0.002   8.602
50912SOL     OW52759  10.080   1.330   7.749
50912SOL    HW152760  10.034   1.243   7.766
50912SOL    HW252761  10.171   1.327   7.790
50913SOL     OW52762   9.928   1.567   8.732
50913SOL    HW152763   9.923   1.649   8.789
50913SOL    HW252764  10.017   1.564   8.687
50914SOL     OW52765  10.662   0.052   7.616
50914SOL    HW152766  10.697   0.011   7.532
50914SOL    HW252767  10.572   0.014   7.636
50915SOL     OW52768  10.610   0.453   8.139
50915SOL    HW152769  10.551   0.533   8.143
50915SOL    HW252770  10.625   0.418   8.232
50916SOL     OW52771  10.903   0.221   8.330
50916SOL    HW152772  10.819   0.220   8.384
50916SOL    HW252773  10.905   0.304   8.274
50917SOL     OW52774   9.349   1.077   7.748
50917SOL    HW152775   9.448   1.066   7.739
50917SOL    HW252776   9.309   0.991   7.780
50918SOL     OW52777  10.185   1.646   7.785
50918SOL    HW152778  10.108   1.611   7.731
50918SOL    HW252779  10.153   1.717   7.847
50919SOL     OW52780   9.540   0.628   9.423
50919SOL    HW152781   9.447   0.626   9.460
50919SOL    HW252782   9.541   0.589   9.331
50920SOL     OW52783   9.535   0.275  10.306
50920SOL    HW152784   9.570   0.258  10.398
50920SOL    HW252785   9.447   0.230  10.294
50921SOL     OW52786   9.329   0.368   9.957
50921SOL    HW152787   9.247   0.411   9.996
50921SOL    HW252788   9.301   0.295   9.894
50922SOL     OW52789   9.879   1.275  10.475
50922SOL    HW152790   9.786   1.268  10.438
50922SOL    HW252791   9.890   1.364  10.519
50923SOL     OW52792  10.865   1.511  10.013
50923SOL    HW152793  10.808   1.495  10.094
50923SOL    HW252794  10.806   1.521   9.933
50924SOL     OW52795  10.445   0.703  10.027
50924SOL    HW152796  10.502   0.781  10.002
50924SOL    HW252797  10.385   0.729  10.103
50925SOL     OW52798  11.065   0.607   9.541
50925SOL    HW152799  11.053   0.594   9.442
50925SOL    HW252800  11.035   0.526   9.590
50926SOL     OW52801  10.078   1.144  10.333
50926SOL    HW152802  10.000   1.161  10.393
50926SOL    HW252803  10.112   1.231  10.297
50927SOL     OW52804  10.160   0.798  11.133
50927SOL    HW152805  10.156   0.874  11.198
50927SOL    HW252806  10.182   0.834  11.042
50928SOL     OW52807   9.995   1.012   9.975
50928SOL    HW152808  10.064   0.996  10.045
50928SOL    HW252809   9.922   1.069  10.013
50929SOL     OW52810   9.996   1.161  11.113
50929SOL    HW152811  10.056   1.240  11.127
50929SOL    HW252812   9.910   1.192  11.072
50930SOL     OW52813   9.645   1.435  10.371
50930SOL    HW152814   9.567   1.404  10.318
50930SOL    HW252815   9.703   1.493  10.314
50931SOL     OW52816  10.770   1.505  10.649
50931SOL    HW152817  10.794   1.599  10.675
50931SOL    HW252818  10.754   1.451  10.731
50932SOL     OW52819   9.748   0.392  10.809
50932SOL    HW152820   9.830   0.336  10.818
50932SOL    HW252821   9.667   0.334  10.813
50933SOL     OW52822  10.913   0.447  10.047
50933SOL    HW152823  10.839   0.493   9.997
50933SOL    HW252824  10.964   0.515  10.100
50934SOL     OW52825  10.437   1.341  11.000
50934SOL    HW152826  10.484   1.341  11.088
50934SOL    HW252827  10.389   1.254  10.989
50935SOL     OW52828   9.540   1.434   9.848
50935SOL    HW152829   9.514   1.530   9.848
50935SOL    HW252830   9.469   1.380   9.893
50936SOL     OW52831   9.550   1.091  10.196
50936SOL    HW152832   9.564   1.007  10.248
50936SOL    HW252833   9.495   1.155  10.251
50937SOL     OW52834   9.930   1.786  10.749
50937SOL    HW152835   9.838   1.769  10.784
50937SOL    HW252836   9.958   1.878  10.775
50938SOL     OW52837   9.916   0.964   9.433
50938SOL    HW152838   9.923   1.048   9.379
50938SOL    HW252839   9.962   0.977   9.521
50939SOL     OW52840  10.904   0.114  10.790
50939SOL    HW152841  10.886   0.181  10.718
50939SOL    HW252842  10.901   0.160  10.879
50940SOL     OW52843   9.432   0.643   9.873
50940SOL    HW152844   9.387   0.555   9.890
50940SOL    HW252845   9.431   0.697   9.957
50941SOL     OW52846  11.152   1.767   9.669
50941SOL    HW152847  11.206   1.738   9.749
50941SOL    HW252848  11.182   1.857   9.640
50942SOL     OW52849   9.337   1.596   9.427
50942SOL    HW152850   9.318   1.500   9.448
50942SOL    HW252851   9.304   1.654   9.502
50943SOL     OW52852  10.999   0.922   9.922
50943SOL    HW152853  11.094   0.893   9.930
50943SOL    HW252854  10.991   0.987   9.847
50944SOL     OW52855  10.951   1.108   9.742
50944SOL    HW152856  11.037   1.110   9.690
50944SOL    HW252857  10.965   1.155   9.830
50945SOL     OW52858   9.423   0.737  10.907
50945SOL    HW152859   9.511   0.724  10.952
50945SOL    HW252860   9.410   0.834  10.885
50946SOL     OW52861   9.923   1.365  10.036
50946SOL    HW152862   9.874   1.278  10.045
50946SOL    HW252863   9.900   1.408   9.949
50947SOL     OW52864  10.603   1.228  10.733
50947SOL    HW152865  10.640   1.155  10.675
50947SOL    HW252866  10.655   1.233  10.818
50948SOL     OW52867  10.119   0.004   9.812
50948SOL    HW152868  10.159   0.095   9.803
50948SOL    HW252869  10.019   0.012   9.818
50949SOL     OW52870   9.507   0.976  10.574
50949SOL    HW152871   9.596   0.931  10.560
50949SOL    HW252872   9.434   0.911  10.555
50950SOL     OW52873  10.835   0.999   9.500
50950SOL    HW152874  10.772   0.923   9.513
50950SOL    HW252875  10.883   1.017   9.586
50951SOL     OW52876  10.497   1.792  10.926
50951SOL    HW152877  10.521   1.852  10.850
50951SOL    HW252878  10.504   1.697  10.896
50952SOL     OW52879   9.627   0.251  11.111
50952SOL    HW152880   9.698   0.322  11.117
50952SOL    HW252881   9.539   0.290  11.139
50953SOL     OW52882  10.776   1.417  10.263
50953SOL    HW152883  10.717   1.423  10.343
50953SOL    HW252884  10.761   1.329  10.217
50954SOL     OW52885  10.977   1.714   9.882
50954SOL    HW152886  10.936   1.691   9.794
50954SOL    HW252887  10.959   1.640   9.947
50955SOL     OW52888   9.908   0.729   9.580
50955SOL    HW152889   9.932   0.798   9.512
50955SOL    HW252890   9.830   0.762   9.634
50956SOL     OW52891  10.591   0.345  10.254
50956SOL    HW152892  10.505   0.295  10.241
50956SOL    HW252893  10.653   0.291  10.310
50957SOL     OW52894  10.886   1.662   9.617
50957SOL    HW152895  10.975   1.708   9.620
50957SOL    HW252896  10.865   1.638   9.522
50958SOL     OW52897  10.117   0.605  10.775
50958SOL    HW152898  10.070   0.602  10.864
50958SOL    HW252899  10.066   0.550  10.709
50959SOL     OW52900  10.704   0.469  10.984
50959SOL    HW152901  10.684   0.512  11.072
50959SOL    HW252902  10.782   0.407  10.993
50960SOL     OW52903  10.283   0.890  10.882
50960SOL    HW152904  10.329   0.806  10.853
50960SOL    HW252905  10.227   0.924  10.807
50961SOL     OW52906  10.301   0.410  10.552
50961SOL    HW152907  10.224   0.444  10.606
50961SOL    HW252908  10.267   0.359  10.473
50962SOL     OW52909  10.351   0.701   9.739
50962SOL    HW152910  10.377   0.697   9.835
50962SOL    HW252911  10.266   0.650   9.725
50963SOL     OW52912   9.386   0.811  10.099
50963SOL    HW152913   9.485   0.799  10.108
50963SOL    HW252914   9.362   0.906  10.120
50964SOL     OW52915   9.440   1.821  10.881
50964SOL    HW152916   9.430   1.806  10.980
50964SOL    HW252917   9.354   1.857  10.845
50965SOL     OW52918  10.175   0.348   9.505
50965SOL    HW152919  10.234   0.411   9.456
50965SOL    HW252920  10.194   0.254   9.476
50966SOL     OW52921  11.029   0.585  11.141
50966SOL    HW152922  11.003   0.674  11.105
50966SOL    HW252923  11.027   0.517  11.068
50967SOL     OW52924  10.672   1.144   9.855
50967SOL    HW152925  10.755   1.115   9.807
50967SOL    HW252926  10.623   1.211   9.799
50968SOL     OW52927   9.860   0.196  10.195
50968SOL    HW152928   9.855   0.191  10.295
50968SOL    HW252929   9.862   0.292  10.166
50969SOL     OW52930  10.318   1.456   9.787
50969SOL    HW152931  10.272   1.528   9.735
50969SOL    HW252932  10.314   1.476   9.885
50970SOL     OW52933   9.661   1.801  10.163
50970SOL    HW152934   9.711   1.715  10.169
50970SOL    HW252935   9.726   1.878  10.160
50971SOL     OW52936  11.105   1.066  10.183
50971SOL    HW152937  11.043   1.051  10.107
50971SOL    HW252938  11.053   1.077  10.268
50972SOL     OW52939  10.537   1.550  10.816
50972SOL    HW152940  10.543   1.473  10.880
50972SOL    HW252941  10.485   1.524  10.736
50973SOL     OW52942   9.631   0.943   9.552
50973SOL    HW152943   9.713   0.982   9.510
50973SOL    HW252944   9.604   0.861   9.503
50974SOL     OW52945  10.768   0.735  10.038
50974SOL    HW152946  10.763   0.670  10.113
50974SOL    HW252947  10.848   0.794  10.051
50975SOL     OW52948   9.771   1.266  11.037
50975SOL    HW152949   9.721   1.267  10.951
50975SOL    HW252950   9.708   1.248  11.113
50976SOL     OW52951  10.421   1.776   9.547
50976SOL    HW152952  10.361   1.714   9.597
50976SOL    HW252953  10.452   1.732   9.462
50977SOL     OW52954   9.512   0.285  10.808
50977SOL    HW152955   9.432   0.345  10.795
50977SOL    HW252956   9.502   0.236  10.894
50978SOL     OW52957  10.942   1.377   9.391
50978SOL    HW152958  10.910   1.471   9.381
50978SOL    HW252959  10.866   1.314   9.379
50979SOL     OW52960   9.774   1.743   9.633
50979SOL    HW152961   9.807   1.782   9.719
50979SOL    HW252962   9.850   1.736   9.568
50980SOL     OW52963  10.710   0.107   9.736
50980SOL    HW152964  10.686   0.070   9.646
50980SOL    HW252965  10.809   0.123   9.740
50981SOL     OW52966   9.559   1.785  10.551
50981SOL    HW152967   9.616   1.720  10.601
50981SOL    HW252968   9.543   1.752  10.458
50982SOL     OW52969  10.250   1.698  10.214
50982SOL    HW152970  10.330   1.641  10.235
50982SOL    HW252971  10.201   1.658  10.137
50983SOL     OW52972   9.692   0.700   9.790
50983SOL    HW152973   9.737   0.610   9.787
50983SOL    HW252974   9.598   0.689   9.823
50984SOL     OW52975  10.857   0.222  11.039
50984SOL    HW152976  10.852   0.259  11.131
50984SOL    HW252977  10.785   0.153  11.027
50985SOL     OW52978   9.924   0.122   9.427
50985SOL    HW152979  10.022   0.100   9.434
50985SOL    HW252980   9.893   0.105   9.334
50986SOL     OW52981  10.091   0.264  11.059
50986SOL    HW152982  10.158   0.203  11.102
50986SOL    HW252983  10.018   0.283  11.124
50987SOL     OW52984  10.198   1.514  10.505
50987SOL    HW152985  10.175   1.489  10.411
50987SOL    HW252986  10.259   1.445  10.544
50988SOL     OW52987  10.661   0.590  10.743
50988SOL    HW152988  10.689   0.547  10.828
50988SOL    HW252989  10.686   0.686  10.744
50989SOL     OW52990  10.113   1.402  10.234
50989SOL    HW152991  10.203   1.416  10.192
50989SOL    HW252992  10.042   1.404  10.163
50990SOL     OW52993  10.232   0.503  10.209
50990SOL    HW152994  10.207   0.494  10.113
50990SOL    HW252995  10.280   0.421  10.240
50991SOL     OW52996   9.849   0.064   9.822
50991SOL    HW152997   9.768   0.065   9.880
50991SOL    HW252998   9.852   0.147   9.767
50992SOL     OW52999  10.744   1.188   9.351
50992SOL    HW153000  10.776   1.112   9.408
50992SOL    HW253001  10.652   1.215   9.381
50993SOL     OW53002   9.607   0.035   9.481
50993SOL    HW153003   9.656   0.119   9.460
50993SOL    HW253004   9.669  -0.030   9.526
50994SOL     OW53005  10.245   0.236   9.790
50994SOL    HW153006  10.197   0.277   9.712
50994SOL    HW253007  10.344   0.234   9.771
50995SOL     OW53008  10.386   0.683  10.774
50995SOL    HW153009  10.306   0.622  10.777
50995SOL    HW253010  10.467   0.630  10.750
50996SOL     OW53011  10.537   1.570  10.103
50996SOL    HW153012  10.558   1.644  10.038
50996SOL    HW253013  10.605   1.570  10.176
50997SOL     OW53014  10.581   1.797   9.901
50997SOL    HW153015  10.625   1.861   9.837
50997SOL    HW253016  10.531   1.849   9.971
50998SOL     OW53017  10.342   0.549   9.326
50998SOL    HW153018  10.301   0.631   9.287
50998SOL    HW253019  10.406   0.575   9.399
50999SOL     OW53020   9.388   0.556  10.696
50999SOL    HW153021   9.480   0.555  10.655
50999SOL    HW253022   9.382   0.630  10.763
51000SOL     OW53023   9.871   0.222  10.457
51000SOL    HW153024   9.909   0.138  10.494
51000SOL    HW253025   9.783   0.241  10.501
51001SOL     OW53026  10.176   0.454   9.952
51001SOL    HW153027  10.144   0.526   9.890
51001SOL    HW253028  10.200   0.373   9.899
51002SOL     OW53029  10.327   0.039  10.063
51002SOL    HW153030  10.255   0.044   9.994
51002SOL    HW253031  10.303  -0.030  10.132
51003SOL     OW53032  10.739   1.173  10.177
51003SOL    HW153033  10.684   1.089  10.170
51003SOL    HW253034  10.765   1.202  10.085
51004SOL     OW53035  10.776   0.590  10.302
51004SOL    HW153036  10.746   0.495  10.309
51004SOL    HW253037  10.849   0.606  10.368
51005SOL     OW53038  11.167   0.833   9.687
51005SOL    HW153039  11.209   0.769   9.751
51005SOL    HW253040  11.129   0.782   9.609
51006SOL     OW53041   9.798   1.385   9.484
51006SOL    HW153042   9.711   1.370   9.531
51006SOL    HW253043   9.781   1.411   9.389
51007SOL     OW53044  10.974   1.280   9.967
51007SOL    HW153045  11.073   1.288   9.981
51007SOL    HW253046  10.929   1.364   9.998
51008SOL     OW53047  10.700   0.575   9.388
51008SOL    HW153048  10.646   0.554   9.469
51008SOL    HW253049  10.791   0.534   9.397
51009SOL     OW53050   9.837   0.256   9.638
51009SOL    HW153051   9.864   0.197   9.563
51009SOL    HW253052   9.837   0.351   9.607
51010SOL     OW53053  11.064   1.223  10.898
51010SOL    HW153054  11.155   1.184  10.885
51010SOL    HW253055  11.072   1.319  10.922
51011SOL     OW53056  10.374   1.347  10.650
51011SOL    HW153057  10.294   1.324  10.705
51011SOL    HW253058  10.457   1.321  10.699
51012SOL     OW53059  10.902   1.629  10.935
51012SOL    HW153060  10.929   1.663  10.845
51012SOL    HW253061  10.981   1.591  10.981
51013SOL     OW53062  10.421   1.195  10.410
51013SOL    HW153063  10.381   1.239  10.491
51013SOL    HW253064  10.380   1.232  10.327
51014SOL     OW53065  10.948   1.099  10.389
51014SOL    HW153066  10.953   1.180  10.448
51014SOL    HW253067  10.862   1.101  10.338
51015SOL     OW53068  10.225   0.089  10.712
51015SOL    HW153069  10.250   0.069  10.617
51015SOL    HW253070  10.297   0.145  10.754
51016SOL     OW53071  10.290   1.116  11.029
51016SOL    HW153072  10.191   1.122  11.039
51016SOL    HW253073  10.313   1.036  10.973
51017SOL     OW53074  10.015   1.050   9.678
51017SOL    HW153075  10.001   1.057   9.777
51017SOL    HW253076  10.099   0.999   9.660
51018SOL     OW53077   9.720   0.813  10.561
51018SOL    HW153078   9.806   0.825  10.611
51018SOL    HW253079   9.678   0.726  10.588
51019SOL     OW53080  10.584   0.386  10.572
51019SOL    HW153081  10.605   0.460  10.636
51019SOL    HW253082  10.495   0.403  10.529
51020SOL     OW53083   9.374   1.564  10.641
51020SOL    HW153084   9.328   1.646  10.607
51020SOL    HW253085   9.472   1.583  10.650
51021SOL     OW53086   9.677   1.100   9.811
51021SOL    HW153087   9.670   1.183   9.755
51021SOL    HW253088   9.681   1.020   9.751
51022SOL     OW53089   9.876   0.537  10.175
51022SOL    HW153090   9.888   0.603  10.101
51022SOL    HW253091   9.922   0.571  10.258
51023SOL     OW53092  10.562   1.348   9.698
51023SOL    HW153093  10.612   1.425   9.738
51023SOL    HW253094  10.467   1.350   9.730
51024SOL     OW53095  10.582   1.445  10.452
51024SOL    HW153096  10.629   1.458  10.539
51024SOL    HW253097  10.516   1.371  10.461
51025SOL     OW53098  10.892   0.639   9.782
51025SOL    HW153099  10.861   0.700   9.855
51025SOL    HW253100  10.942   0.691   9.713
51026SOL     OW53101   9.664   1.510  10.639
51026SOL    HW153102   9.643   1.466  10.552
51026SOL    HW253103   9.761   1.536  10.642
51027SOL     OW53104   9.712   0.751  10.908
51027SOL    HW153105   9.780   0.806  10.861
51027SOL    HW253106   9.752   0.663  10.935
51028SOL     OW53107  10.897   0.779  10.980
51028SOL    HW153108  10.805   0.817  10.975
51028SOL    HW253109  10.957   0.826  10.915
51029SOL     OW53110  10.323   0.105  11.080
51029SOL    HW153111  10.329   0.190  11.028
51029SOL    HW253112  10.355   0.029  11.023
51030SOL     OW53113   9.814   0.050  11.050
51030SOL    HW153114   9.772  -0.007  10.980
51030SOL    HW253115   9.748   0.119  11.082
51031SOL     OW53116   9.883   0.870  10.339
51031SOL    HW153117   9.927   0.959  10.330
51031SOL    HW253118   9.820   0.870  10.416
51032SOL     OW53119  10.670   0.862  10.355
51032SOL    HW153120  10.595   0.862  10.289
51032SOL    HW253121  10.707   0.770  10.364
51033SOL     OW53122  10.519   0.525   9.585
51033SOL    HW153123  10.532   0.441   9.639
51033SOL    HW253124  10.490   0.599   9.645
51034SOL     OW53125   9.617   0.213  10.541
51034SOL    HW153126   9.594   0.250  10.631
51034SOL    HW253127   9.587   0.118  10.535
51035SOL     OW53128   9.347   1.310  10.592
51035SOL    HW153129   9.400   1.261  10.660
51035SOL    HW253130   9.369   1.408  10.597
51036SOL     OW53131  10.042   0.634  10.374
51036SOL    HW153132  10.101   0.608  10.298
51036SOL    HW253133  10.014   0.730  10.363
51037SOL     OW53134  11.038   0.935  11.164
51037SOL    HW153135  10.992   0.928  11.075
51037SOL    HW253136  10.976   0.979  11.230
51038SOL     OW53137   9.617   0.063   9.928
51038SOL    HW153138   9.606   0.157   9.961
51038SOL    HW253139   9.612   0.000  10.005
51039SOL     OW53140  10.932   0.367   9.684
51039SOL    HW153141  10.934   0.291   9.748
51039SOL    HW253142  10.884   0.444   9.724
51040SOL     OW53143  10.333   0.766  10.276
51040SOL    HW153144  10.348   0.787  10.372
51040SOL    HW253145  10.303   0.671  10.267
51041SOL     OW53146  10.290   1.573  11.010
51041SOL    HW153147  10.270   1.617  10.922
51041SOL    HW253148  10.329   1.482  10.994
51042SOL     OW53149  11.169   1.518  10.915
51042SOL    HW153150  11.183   1.545  10.820
51042SOL    HW253151  11.252   1.540  10.968
51043SOL     OW53152   9.660   0.898  11.114
51043SOL    HW153153   9.736   0.942  11.162
51043SOL    HW253154   9.695   0.851  11.032
51044SOL     OW53155  10.850   0.274   9.435
51044SOL    HW153156  10.789   0.199   9.458
51044SOL    HW253157  10.872   0.326   9.518
51045SOL     OW53158  10.613   0.838   9.352
51045SOL    HW153159  10.647   0.745   9.367
51045SOL    HW253160  10.631   0.865   9.257
51046SOL     OW53161  10.378   1.333  10.159
51046SOL    HW153162  10.385   1.249  10.104
51046SOL    HW253163  10.440   1.402  10.123
51047SOL     OW53164   9.629   0.810  10.259
51047SOL    HW153165   9.722   0.846  10.264
51047SOL    HW253166   9.623   0.725  10.311
51048SOL     OW53167   9.649   0.509  10.316
51048SOL    HW153168   9.597   0.426  10.299
51048SOL    HW253169   9.726   0.514  10.252
51049SOL     OW53170  10.448   0.380  10.988
51049SOL    HW153171  10.403   0.443  11.052
51049SOL    HW253172  10.541   0.411  10.971
51050SOL     OW53173  10.470   0.207  10.787
51050SOL    HW153174  10.470   0.271  10.864
51050SOL    HW253175  10.498   0.255  10.704
51051SOL     OW53176   9.318   1.326   9.510
51051SOL    HW153177   9.225   1.347   9.479
51051SOL    HW253178   9.328   1.227   9.523
51052SOL     OW53179   9.398   1.801  10.237
51052SOL    HW153180   9.356   1.715  10.210
51052SOL    HW253181   9.492   1.804  10.203
51053SOL     OW53182   9.814   1.568  10.220
51053SOL    HW153183   9.880   1.642  10.229
51053SOL    HW253184   9.858   1.489  10.178
51054SOL     OW53185  10.312   0.796  10.548
51054SOL    HW153186  10.353   0.764  10.634
51054SOL    HW253187  10.216   0.769  10.545
51055SOL     OW53188   9.499   0.520  11.032
51055SOL    HW153189   9.558   0.480  10.962
51055SOL    HW253190   9.441   0.591  10.991
51056SOL     OW53191  10.679   0.950  10.970
51056SOL    HW153192  10.718   1.039  10.990
51056SOL    HW253193  10.689   0.930  10.873
51057SOL     OW53194  10.125   0.572   9.635
51057SOL    HW153195  10.132   0.483   9.589
51057SOL    HW253196  10.031   0.606   9.627
51058SOL     OW53197  10.967   0.604  10.516
51058SOL    HW153198  10.929   0.535  10.578
51058SOL    HW253199  11.049   0.568  10.472
51059SOL     OW53200   9.562   1.564  11.054
51059SOL    HW153201   9.532   1.621  11.130
51059SOL    HW253202   9.555   1.467  11.080
51060SOL     OW53203   9.981   0.464  10.579
51060SOL    HW153204   9.947   0.375  10.549
51060SOL    HW253205  10.007   0.518  10.499
51061SOL     OW53206  10.240   1.678  10.775
51061SOL    HW153207  10.216   1.660  10.680
51061SOL    HW253208  10.270   1.772  10.785
51062SOL     OW53209   9.783   0.500   9.501
51062SOL    HW153210   9.844   0.580   9.505
51062SOL    HW253211   9.688   0.531   9.508
51063SOL     OW53212   9.469   1.137  10.776
51063SOL    HW153213   9.491   1.076  10.852
51063SOL    HW253214   9.479   1.088  10.690
51064SOL     OW53215  10.657   1.059  10.544
51064SOL    HW153216  10.681   0.996  10.470
51064SOL    HW253217  10.567   1.099  10.526
51065SOL     OW53218  10.612   0.855   9.619
51065SOL    HW153219  10.526   0.824   9.661
51065SOL    HW253220  10.608   0.841   9.520
51066SOL     OW53221  11.069   1.747  10.464
51066SOL    HW153222  11.130   1.777  10.391
51066SOL    HW253223  11.031   1.658  10.442
51067SOL     OW53224  10.562   1.731  10.438
51067SOL    HW153225  10.646   1.736  10.384
51067SOL    HW253226  10.539   1.635  10.456
51068SOL     OW53227   9.393   1.258  10.332
51068SOL    HW153228   9.388   1.257  10.432
51068SOL    HW253229   9.310   1.217  10.294
51069SOL     OW53230   9.998   1.662  11.026
51069SOL    HW153231   9.942   1.743  11.035
51069SOL    HW253232  10.050   1.666  10.940
51070SOL     OW53233  11.036   0.135   9.833
51070SOL    HW153234  11.109   0.118   9.766
51070SOL    HW253235  11.005   0.048   9.871
51071SOL     OW53236  10.698   1.573   9.787
51071SOL    HW153237  10.765   1.585   9.713
51071SOL    HW253238  10.658   1.662   9.810
51072SOL     OW53239   9.440   1.794  11.161
51072SOL    HW153240   9.399   1.720  11.214
51072SOL    HW253241   9.504   1.845  11.219
51073SOL     OW53242  10.590   0.927   9.982
51073SOL    HW153243  10.650   0.846   9.984
51073SOL    HW253244  10.630   0.996   9.922
51074SOL     OW53245  10.140   1.273  10.732
51074SOL    HW153246  10.135   1.306  10.827
51074SOL    HW253247  10.054   1.292  10.686
51075SOL     OW53248   9.982   1.616   9.464
51075SOL    HW153249   9.991   1.626   9.365
51075SOL    HW253250   9.942   1.527   9.485
51076SOL     OW53251  10.960   1.720  10.704
51076SOL    HW153252  11.013   1.730  10.620
51076SOL    HW253253  10.933   1.810  10.738
51077SOL     OW53254  11.151   0.175  10.273
51077SOL    HW153255  11.190   0.090  10.237
51077SOL    HW253256  11.053   0.177  10.254
51078SOL     OW53257   9.573   0.326  10.030
51078SOL    HW153258   9.494   0.377   9.996
51078SOL    HW253259   9.564   0.311  10.128
51079SOL     OW53260  10.504   1.612   9.341
51079SOL    HW153261  10.510   1.519   9.378
51079SOL    HW253262  10.445   1.612   9.261
51080SOL     OW53263  10.132   1.002  10.682
51080SOL    HW153264  10.172   1.001  10.590
51080SOL    HW253265  10.142   1.094  10.722
51081SOL     OW53266  10.226   0.910   9.601
51081SOL    HW153267  10.289   0.948   9.533
51081SOL    HW253268  10.266   0.827   9.640
51082SOL     OW53269  10.814   1.607   9.354
51082SOL    HW153270  10.722   1.644   9.361
51082SOL    HW253271  10.852   1.627   9.264
51083SOL     OW53272   9.682   1.288  10.800
51083SOL    HW153273   9.669   1.381  10.766
51083SOL    HW253274   9.598   1.236  10.787
51084SOL     OW53275  10.924   1.292  10.599
51084SOL    HW153276  10.984   1.295  10.679
51084SOL    HW253277  10.849   1.356  10.612
51085SOL     OW53278  10.349   1.098  10.006
51085SOL    HW153279  10.279   1.051  10.060
51085SOL    HW253280  10.408   1.030   9.963
51086SOL     OW53281  10.324   0.236  10.281
51086SOL    HW153282  10.316   0.200  10.188
51086SOL    HW253283  10.322   0.160  10.346
51087SOL     OW53284   9.900   1.487   9.801
51087SOL    HW153285   9.942   1.429   9.731
51087SOL    HW253286   9.856   1.566   9.757
51088SOL     OW53287  11.019   0.385  10.691
51088SOL    HW153288  11.092   0.454  10.695
51088SOL    HW253289  11.047   0.310  10.632
51089SOL     OW53290   9.565   1.348   9.600
51089SOL    HW153291   9.469   1.349   9.573
51089SOL    HW253292   9.577   1.401   9.684
51090SOL     OW53293   9.415   1.013  11.036
51090SOL    HW153294   9.338   0.980  11.090
51090SOL    HW253295   9.500   0.983  11.078
51091SOL     OW53296   9.982   0.203  10.799
51091SOL    HW153297  10.072   0.187  10.759
51091SOL    HW253298   9.990   0.208  10.898
51092SOL     OW53299   9.385   0.345   9.343
51092SOL    HW153300   9.293   0.317   9.314
51092SOL    HW253301   9.416   0.422   9.287
51093SOL     OW53302  10.750   0.856  10.708
51093SOL    HW153303  10.693   0.908  10.645
51093SOL    HW253304  10.846   0.868  10.684
51094SOL     OW53305   9.382   0.166   9.628
51094SOL    HW153306   9.365   0.249   9.574
51094SOL    HW253307   9.472   0.129   9.606
51095SOL     OW53308  10.493   1.335   9.429
51095SOL    HW153309  10.394   1.324   9.431
51095SOL    HW253310  10.527   1.350   9.522
51096SOL     OW53311   9.923   0.842  10.741
51096SOL    HW153312   9.979   0.923  10.724
51096SOL    HW253313   9.982   0.762  10.744
51097SOL     OW53314  10.803   1.767  10.269
51097SOL    HW153315  10.836   1.831  10.200
51097SOL    HW253316  10.869   1.761  10.344
51098SOL     OW53317  10.026   0.565  11.018
51098SOL    HW153318  10.045   0.630  11.092
51098SOL    HW253319  10.086   0.485  11.027
51099SOL     OW53320  10.760   1.220  10.943
51099SOL    HW153321  10.751   1.210  11.042
51099SOL    HW253322  10.856   1.213  10.917
51100SOL     OW53323   9.700   1.741  10.870
51100SOL    HW153324   9.609   1.782  10.868
51100SOL    HW253325   9.693   1.647  10.902
51101SOL     OW53326  10.984   0.883  10.564
51101SOL    HW153327  10.957   0.794  10.527
51101SOL    HW253328  10.985   0.951  10.491
51102SOL     OW53329  10.535   0.325   9.759
51102SOL    HW153330  10.600   0.251   9.748
51102SOL    HW253331  10.555   0.375   9.843
51103SOL     OW53332   9.904   0.745   9.962
51103SOL    HW153333   9.954   0.830   9.943
51103SOL    HW253334   9.816   0.747   9.914
51104SOL     OW53335  11.087   0.342  10.952
51104SOL    HW153336  11.070   0.373  10.858
51104SOL    HW253337  11.003   0.305  10.990
51105SOL     OW53338  11.040   0.934  10.827
51105SOL    HW153339  11.078   1.025  10.842
51105SOL    HW253340  11.032   0.917  10.728
51106SOL     OW53341  10.169   1.374   9.326
51106SOL    HW153342  10.123   1.389   9.414
51106SOL    HW253343  10.213   1.459   9.296
51107SOL     OW53344   9.971   1.790  10.263
51107SOL    HW153345   9.925   1.878  10.250
51107SOL    HW253346  10.070   1.802  10.256
51108SOL     OW53347  10.169   0.956  10.171
51108SOL    HW153348  10.223   0.887  10.219
51108SOL    HW253349  10.137   1.025  10.237
51109SOL     OW53350  10.393   0.984   9.397
51109SOL    HW153351  10.370   1.037   9.315
51109SOL    HW253352  10.474   0.928   9.378
51110SOL     OW53353  11.171   1.569  10.161
51110SOL    HW153354  11.100   1.557  10.091
51110SOL    HW253355  11.172   1.490  10.221
51111SOL     OW53356   9.531   1.314  11.154
51111SOL    HW153357   9.466   1.241  11.133
51111SOL    HW253358   9.535   1.328  11.252
51112SOL     OW53359   9.389   1.240   9.963
51112SOL    HW153360   9.388   1.193  10.051
51112SOL    HW253361   9.471   1.212   9.912
51113SOL     OW53362   9.982   1.391  10.934
51113SOL    HW153363   9.904   1.341  10.972
51113SOL    HW253364   9.979   1.486  10.965
51114SOL     OW53365  11.134   0.192  10.537
51114SOL    HW153366  11.130   0.102  10.581
51114SOL    HW253367  11.137   0.181  10.438
51115SOL     OW53368   9.738   0.424   9.830
51115SOL    HW153369   9.768   0.352   9.768
51115SOL    HW253370   9.699   0.384   9.913
51116SOL     OW53371  11.015   1.487  10.414
51116SOL    HW153372  10.922   1.462  10.387
51116SOL    HW253373  11.041   1.437  10.496
51117SOL     OW53374   9.627   0.547  10.590
51117SOL    HW153375   9.665   0.488  10.662
51117SOL    HW253376   9.667   0.521  10.502
51118SOL     OW53377  10.122   1.586   9.997
51118SOL    HW153378  10.154   1.596   9.903
51118SOL    HW253379  10.043   1.524   9.999
51119SOL     OW53380  10.734   0.214  10.422
51119SOL    HW153381  10.786   0.149  10.477
51119SOL    HW253382  10.685   0.277  10.483
51120SOL     OW53383  10.311   0.034  10.464
51120SOL    HW153384  10.248  -0.038  10.433
51120SOL    HW253385  10.404  -0.002  10.464
51121SOL     OW53386  10.080   1.330   9.611
51121SOL    HW153387  10.034   1.243   9.628
51121SOL    HW253388  10.171   1.327   9.652
51122SOL     OW53389   9.928   1.567  10.594
51122SOL    HW153390   9.923   1.649  10.651
51122SOL    HW253391  10.017   1.564  10.549
51123SOL     OW53392  10.662   0.052   9.478
51123SOL    HW153393  10.697   0.011   9.394
51123SOL    HW253394  10.572   0.014   9.498
51124SOL     OW53395  10.610   0.453  10.001
51124SOL    HW153396  10.551   0.533  10.005
51124SOL    HW253397  10.625   0.418  10.094
51125SOL     OW53398  10.903   0.221  10.192
51125SOL    HW153399  10.819   0.220  10.246
51125SOL    HW253400  10.905   0.304  10.136
51126SOL     OW53401   9.349   1.077   9.610
51126SOL    HW153402   9.448   1.066   9.601
51126SOL    HW253403   9.309   0.991   9.642
51127SOL     OW53404  10.185   1.646   9.647
51127SOL    HW153405  10.108   1.611   9.593
51127SOL    HW253406  10.153   1.717   9.709
51128SOL     OW53407   9.540   0.628  11.285
51128SOL    HW153408   9.447   0.626  11.322
51128SOL    HW253409   9.541   0.589  11.193
51129SOL     OW53410   9.535   0.275  12.168
51129SOL    HW153411   9.570   0.258  12.260
51129SOL    HW253412   9.447   0.230  12.156
51130SOL     OW53413   9.329   0.368  11.819
51130SOL    HW153414   9.247   0.411  11.858
51130SOL    HW253415   9.301   0.295  11.756
51131SOL     OW53416   9.879   1.275  12.337
51131SOL    HW153417   9.786   1.268  12.300
51131SOL    HW253418   9.890   1.364  12.381
51132SOL     OW53419  10.865   1.511  11.875
51132SOL    HW153420  10.808   1.495  11.956
51132SOL    HW253421  10.806   1.521  11.795
51133SOL     OW53422  10.445   0.703  11.889
51133SOL    HW153423  10.502   0.781  11.864
51133SOL    HW253424  10.385   0.729  11.965
51134SOL     OW53425  11.065   0.607  11.403
51134SOL    HW153426  11.053   0.594  11.304
51134SOL    HW253427  11.035   0.526  11.452
51135SOL     OW53428  10.078   1.144  12.195
51135SOL    HW153429  10.000   1.161  12.255
51135SOL    HW253430  10.112   1.231  12.159
51136SOL     OW53431   9.995   1.012  11.837
51136SOL    HW153432  10.064   0.996  11.907
51136SOL    HW253433   9.922   1.069  11.875
51137SOL     OW53434   9.645   1.435  12.233
51137SOL    HW153435   9.567   1.404  12.180
51137SOL    HW253436   9.703   1.493  12.176
51138SOL     OW53437  10.770   1.505  12.511
51138SOL    HW153438  10.794   1.599  12.537
51138SOL    HW253439  10.754   1.451  12.593
51139SOL     OW53440   9.748   0.392  12.671
51139SOL    HW153441   9.830   0.336  12.680
51139SOL    HW253442   9.667   0.334  12.675
51140SOL     OW53443  10.913   0.447  11.909
51140SOL    HW153444  10.839   0.493  11.859
51140SOL    HW253445  10.964   0.515  11.962
51141SOL     OW53446   9.541   1.713  11.655
51141SOL    HW153447   9.575   1.790  11.709
51141SOL    HW253448   9.585   1.713  11.565
51142SOL     OW53449   9.540   1.434  11.710
51142SOL    HW153450   9.514   1.530  11.710
51142SOL    HW253451   9.469   1.380  11.755
51143SOL     OW53452   9.550   1.091  12.058
51143SOL    HW153453   9.564   1.007  12.110
51143SOL    HW253454   9.495   1.155  12.113
51144SOL     OW53455   9.930   1.786  12.611
51144SOL    HW153456   9.838   1.769  12.646
51144SOL    HW253457   9.958   1.878  12.637
51145SOL     OW53458   9.916   0.964  11.295
51145SOL    HW153459   9.923   1.048  11.241
51145SOL    HW253460   9.962   0.977  11.383
51146SOL     OW53461  10.904   0.114  12.652
51146SOL    HW153462  10.886   0.181  12.580
51146SOL    HW253463  10.901   0.160  12.741
51147SOL     OW53464   9.432   0.643  11.735
51147SOL    HW153465   9.387   0.555  11.752
51147SOL    HW253466   9.431   0.697  11.819
51148SOL     OW53467  11.152   1.767  11.531
51148SOL    HW153468  11.206   1.738  11.611
51148SOL    HW253469  11.182   1.857  11.502
51149SOL     OW53470   9.337   1.596  11.289
51149SOL    HW153471   9.318   1.500  11.310
51149SOL    HW253472   9.304   1.654  11.364
51150SOL     OW53473  10.999   0.922  11.784
51150SOL    HW153474  11.094   0.893  11.792
51150SOL    HW253475  10.991   0.987  11.709
51151SOL     OW53476  10.951   1.108  11.604
51151SOL    HW153477  11.037   1.110  11.552
51151SOL    HW253478  10.965   1.155  11.692
51152SOL     OW53479   9.423   0.737  12.769
51152SOL    HW153480   9.511   0.724  12.814
51152SOL    HW253481   9.410   0.834  12.747
51153SOL     OW53482   9.923   1.365  11.898
51153SOL    HW153483   9.874   1.278  11.907
51153SOL    HW253484   9.900   1.408  11.811
51154SOL     OW53485  10.603   1.228  12.595
51154SOL    HW153486  10.640   1.155  12.537
51154SOL    HW253487  10.655   1.233  12.680
51155SOL     OW53488  10.119   0.004  11.674
51155SOL    HW153489  10.159   0.095  11.665
51155SOL    HW253490  10.019   0.012  11.680
51156SOL     OW53491   9.507   0.976  12.436
51156SOL    HW153492   9.596   0.931  12.422
51156SOL    HW253493   9.434   0.911  12.417
51157SOL     OW53494  10.835   0.999  11.362
51157SOL    HW153495  10.772   0.923  11.375
51157SOL    HW253496  10.883   1.017  11.448
51158SOL     OW53497  10.776   1.417  12.125
51158SOL    HW153498  10.717   1.423  12.205
51158SOL    HW253499  10.761   1.329  12.079
51159SOL     OW53500  10.977   1.714  11.744
51159SOL    HW153501  10.936   1.691  11.656
51159SOL    HW253502  10.959   1.640  11.809
51160SOL     OW53503   9.908   0.729  11.442
51160SOL    HW153504   9.932   0.798  11.374
51160SOL    HW253505   9.830   0.762  11.496
51161SOL     OW53506  10.591   0.345  12.116
51161SOL    HW153507  10.505   0.295  12.103
51161SOL    HW253508  10.653   0.291  12.172
51162SOL     OW53509  10.886   1.662  11.479
51162SOL    HW153510  10.975   1.708  11.482
51162SOL    HW253511  10.865   1.638  11.384
51163SOL     OW53512  10.117   0.605  12.637
51163SOL    HW153513  10.070   0.602  12.726
51163SOL    HW253514  10.066   0.550  12.571
51164SOL     OW53515  10.283   0.890  12.744
51164SOL    HW153516  10.329   0.806  12.715
51164SOL    HW253517  10.227   0.924  12.669
51165SOL     OW53518  10.301   0.410  12.414
51165SOL    HW153519  10.224   0.444  12.468
51165SOL    HW253520  10.267   0.359  12.335
51166SOL     OW53521  10.351   0.701  11.601
51166SOL    HW153522  10.377   0.697  11.697
51166SOL    HW253523  10.266   0.650  11.587
51167SOL     OW53524   9.386   0.811  11.961
51167SOL    HW153525   9.485   0.799  11.970
51167SOL    HW253526   9.362   0.906  11.982
51168SOL     OW53527   9.440   1.821  12.743
51168SOL    HW153528   9.430   1.806  12.842
51168SOL    HW253529   9.354   1.857  12.707
51169SOL     OW53530  10.175   0.348  11.367
51169SOL    HW153531  10.234   0.411  11.318
51169SOL    HW253532  10.194   0.254  11.338
51170SOL     OW53533  10.672   1.144  11.717
51170SOL    HW153534  10.755   1.115  11.669
51170SOL    HW253535  10.623   1.211  11.661
51171SOL     OW53536   9.860   0.196  12.057
51171SOL    HW153537   9.855   0.191  12.157
51171SOL    HW253538   9.862   0.292  12.028
51172SOL     OW53539   9.661   1.801  12.025
51172SOL    HW153540   9.711   1.715  12.031
51172SOL    HW253541   9.726   1.878  12.022
51173SOL     OW53542  11.105   1.066  12.045
51173SOL    HW153543  11.043   1.051  11.969
51173SOL    HW253544  11.053   1.077  12.130
51174SOL     OW53545  10.537   1.550  12.678
51174SOL    HW153546  10.543   1.473  12.742
51174SOL    HW253547  10.485   1.524  12.598
51175SOL     OW53548   9.631   0.943  11.414
51175SOL    HW153549   9.713   0.982  11.372
51175SOL    HW253550   9.604   0.861  11.365
51176SOL     OW53551  10.768   0.735  11.900
51176SOL    HW153552  10.763   0.670  11.975
51176SOL    HW253553  10.848   0.794  11.913
51177SOL     OW53554  10.421   1.776  11.409
51177SOL    HW153555  10.361   1.714  11.459
51177SOL    HW253556  10.452   1.732  11.324
51178SOL     OW53557   9.512   0.285  12.670
51178SOL    HW153558   9.432   0.345  12.657
51178SOL    HW253559   9.502   0.236  12.756
51179SOL     OW53560  10.942   1.377  11.253
51179SOL    HW153561  10.910   1.471  11.243
51179SOL    HW253562  10.866   1.314  11.241
51180SOL     OW53563   9.774   1.743  11.495
51180SOL    HW153564   9.807   1.782  11.581
51180SOL    HW253565   9.850   1.736  11.430
51181SOL     OW53566  10.710   0.107  11.598
51181SOL    HW153567  10.686   0.070  11.508
51181SOL    HW253568  10.809   0.123  11.602
51182SOL     OW53569   9.559   1.785  12.413
51182SOL    HW153570   9.616   1.720  12.463
51182SOL    HW253571   9.543   1.752  12.320
51183SOL     OW53572  10.250   1.698  12.076
51183SOL    HW153573  10.330   1.641  12.097
51183SOL    HW253574  10.201   1.658  11.999
51184SOL     OW53575   9.692   0.700  11.652
51184SOL    HW153576   9.737   0.610  11.649
51184SOL    HW253577   9.598   0.689  11.685
51185SOL     OW53578   9.924   0.122  11.289
51185SOL    HW153579  10.022   0.100  11.296
51185SOL    HW253580   9.893   0.105  11.196
51186SOL     OW53581  10.198   1.514  12.367
51186SOL    HW153582  10.175   1.489  12.273
51186SOL    HW253583  10.259   1.445  12.406
51187SOL     OW53584  10.661   0.590  12.605
51187SOL    HW153585  10.689   0.547  12.690
51187SOL    HW253586  10.686   0.686  12.606
51188SOL     OW53587  10.113   1.402  12.096
51188SOL    HW153588  10.203   1.416  12.054
51188SOL    HW253589  10.042   1.404  12.025
51189SOL     OW53590  10.232   0.503  12.071
51189SOL    HW153591  10.207   0.494  11.975
51189SOL    HW253592  10.280   0.421  12.102
51190SOL     OW53593   9.849   0.064  11.684
51190SOL    HW153594   9.768   0.065  11.742
51190SOL    HW253595   9.852   0.147  11.629
51191SOL     OW53596  10.744   1.188  11.213
51191SOL    HW153597  10.776   1.112  11.270
51191SOL    HW253598  10.652   1.215  11.243
51192SOL     OW53599   9.607   0.035  11.343
51192SOL    HW153600   9.656   0.119  11.322
51192SOL    HW253601   9.669  -0.030  11.388
51193SOL     OW53602  10.245   0.236  11.652
51193SOL    HW153603  10.197   0.277  11.574
51193SOL    HW253604  10.344   0.234  11.633
51194SOL     OW53605  10.386   0.683  12.636
51194SOL    HW153606  10.306   0.622  12.639
51194SOL    HW253607  10.467   0.630  12.612
51195SOL     OW53608  10.537   1.570  11.965
51195SOL    HW153609  10.558   1.644  11.900
51195SOL    HW253610  10.605   1.570  12.038
51196SOL     OW53611   9.769   1.152  11.913
51196SOL    HW153612   9.698   1.125  11.978
51196SOL    HW253613   9.743   1.124  11.820
51197SOL     OW53614  10.581   1.797  11.763
51197SOL    HW153615  10.625   1.861  11.699
51197SOL    HW253616  10.531   1.849  11.833
51198SOL     OW53617  10.342   0.549  11.188
51198SOL    HW153618  10.301   0.631  11.149
51198SOL    HW253619  10.406   0.575  11.261
51199SOL     OW53620   9.388   0.556  12.558
51199SOL    HW153621   9.480   0.555  12.517
51199SOL    HW253622   9.382   0.630  12.625
51200SOL     OW53623   9.871   0.222  12.319
51200SOL    HW153624   9.909   0.138  12.356
51200SOL    HW253625   9.783   0.241  12.363
51201SOL     OW53626  10.176   0.454  11.814
51201SOL    HW153627  10.144   0.526  11.752
51201SOL    HW253628  10.200   0.373  11.761
51202SOL     OW53629  10.327   0.039  11.925
51202SOL    HW153630  10.255   0.044  11.856
51202SOL    HW253631  10.303  -0.030  11.994
51203SOL     OW53632  10.739   1.173  12.039
51203SOL    HW153633  10.684   1.089  12.032
51203SOL    HW253634  10.765   1.202  11.947
51204SOL     OW53635  10.776   0.590  12.164
51204SOL    HW153636  10.746   0.495  12.171
51204SOL    HW253637  10.849   0.606  12.230
51205SOL     OW53638  11.167   0.833  11.549
51205SOL    HW153639  11.209   0.769  11.613
51205SOL    HW253640  11.129   0.782  11.471
51206SOL     OW53641   9.798   1.385  11.346
51206SOL    HW153642   9.711   1.370  11.393
51206SOL    HW253643   9.781   1.411  11.251
51207SOL     OW53644  10.974   1.280  11.829
51207SOL    HW153645  11.073   1.288  11.843
51207SOL    HW253646  10.929   1.364  11.860
51208SOL     OW53647  10.700   0.575  11.250
51208SOL    HW153648  10.646   0.554  11.331
51208SOL    HW253649  10.791   0.534  11.259
51209SOL     OW53650  11.064   1.223  12.760
51209SOL    HW153651  11.155   1.184  12.747
51209SOL    HW253652  11.072   1.319  12.784
51210SOL     OW53653  10.374   1.347  12.512
51210SOL    HW153654  10.294   1.324  12.567
51210SOL    HW253655  10.457   1.321  12.561
51211SOL     OW53656  10.421   1.195  12.272
51211SOL    HW153657  10.381   1.239  12.353
51211SOL    HW253658  10.380   1.232  12.189
51212SOL     OW53659  10.948   1.099  12.251
51212SOL    HW153660  10.953   1.180  12.310
51212SOL    HW253661  10.862   1.101  12.200
51213SOL     OW53662  10.225   0.089  12.574
51213SOL    HW153663  10.250   0.069  12.479
51213SOL    HW253664  10.297   0.145  12.616
51214SOL     OW53665  10.015   1.050  11.540
51214SOL    HW153666  10.001   1.057  11.639
51214SOL    HW253667  10.099   0.999  11.522
51215SOL     OW53668   9.720   0.813  12.423
51215SOL    HW153669   9.806   0.825  12.473
51215SOL    HW253670   9.678   0.726  12.450
51216SOL     OW53671  10.584   0.386  12.434
51216SOL    HW153672  10.605   0.460  12.498
51216SOL    HW253673  10.495   0.403  12.391
51217SOL     OW53674   9.374   1.564  12.503
51217SOL    HW153675   9.328   1.646  12.469
51217SOL    HW253676   9.472   1.583  12.512
51218SOL     OW53677   9.677   1.100  11.673
51218SOL    HW153678   9.670   1.183  11.617
51218SOL    HW253679   9.681   1.020  11.613
51219SOL     OW53680   9.876   0.537  12.037
51219SOL    HW153681   9.888   0.603  11.963
51219SOL    HW253682   9.922   0.571  12.120
51220SOL     OW53683  10.562   1.348  11.560
51220SOL    HW153684  10.612   1.425  11.600
51220SOL    HW253685  10.467   1.350  11.592
51221SOL     OW53686  10.582   1.445  12.314
51221SOL    HW153687  10.629   1.458  12.401
51221SOL    HW253688  10.516   1.371  12.323
51222SOL     OW53689  10.892   0.639  11.644
51222SOL    HW153690  10.861   0.700  11.717
51222SOL    HW253691  10.942   0.691  11.575
51223SOL     OW53692   9.664   1.510  12.501
51223SOL    HW153693   9.643   1.466  12.414
51223SOL    HW253694   9.761   1.536  12.504
51224SOL     OW53695   9.712   0.751  12.770
51224SOL    HW153696   9.780   0.806  12.723
51224SOL    HW253697   9.752   0.663  12.797
51225SOL     OW53698  10.897   0.779  12.842
51225SOL    HW153699  10.805   0.817  12.837
51225SOL    HW253700  10.957   0.826  12.777
51226SOL     OW53701   9.883   0.870  12.201
51226SOL    HW153702   9.927   0.959  12.192
51226SOL    HW253703   9.820   0.870  12.278
51227SOL     OW53704  10.670   0.862  12.217
51227SOL    HW153705  10.595   0.862  12.151
51227SOL    HW253706  10.707   0.770  12.226
51228SOL     OW53707  10.519   0.525  11.447
51228SOL    HW153708  10.532   0.441  11.501
51228SOL    HW253709  10.490   0.599  11.507
51229SOL     OW53710   9.617   0.213  12.403
51229SOL    HW153711   9.594   0.250  12.493
51229SOL    HW253712   9.587   0.118  12.397
51230SOL     OW53713   9.347   1.310  12.454
51230SOL    HW153714   9.400   1.261  12.522
51230SOL    HW253715   9.369   1.408  12.459
51231SOL     OW53716  10.042   0.634  12.236
51231SOL    HW153717  10.101   0.608  12.160
51231SOL    HW253718  10.014   0.730  12.225
51232SOL     OW53719   9.617   0.063  11.790
51232SOL    HW153720   9.606   0.157  11.823
51232SOL    HW253721   9.612   0.000  11.867
51233SOL     OW53722  10.932   0.367  11.546
51233SOL    HW153723  10.934   0.291  11.610
51233SOL    HW253724  10.884   0.444  11.586
51234SOL     OW53725  10.333   0.766  12.138
51234SOL    HW153726  10.348   0.787  12.234
51234SOL    HW253727  10.303   0.671  12.129
51235SOL     OW53728  10.850   0.274  11.297
51235SOL    HW153729  10.789   0.199  11.320
51235SOL    HW253730  10.872   0.326  11.380
51236SOL     OW53731  10.613   0.838  11.214
51236SOL    HW153732  10.647   0.745  11.229
51236SOL    HW253733  10.631   0.865  11.119
51237SOL     OW53734  10.378   1.333  12.021
51237SOL    HW153735  10.385   1.249  11.966
51237SOL    HW253736  10.440   1.402  11.985
51238SOL     OW53737   9.629   0.810  12.121
51238SOL    HW153738   9.722   0.846  12.126
51238SOL    HW253739   9.623   0.725  12.173
51239SOL     OW53740   9.649   0.509  12.178
51239SOL    HW153741   9.597   0.426  12.161
51239SOL    HW253742   9.726   0.514  12.114
51240SOL     OW53743  10.470   0.207  12.649
51240SOL    HW153744  10.470   0.271  12.726
51240SOL    HW253745  10.498   0.255  12.566
51241SOL     OW53746   9.318   1.326  11.372
51241SOL    HW153747   9.225   1.347  11.341
51241SOL    HW253748   9.328   1.227  11.385
51242SOL     OW53749   9.398   1.801  12.099
51242SOL    HW153750   9.356   1.715  12.072
51242SOL    HW253751   9.492   1.804  12.065
51243SOL     OW53752   9.814   1.568  12.082
51243SOL    HW153753   9.880   1.642  12.091
51243SOL    HW253754   9.858   1.489  12.040
51244SOL     OW53755  10.312   0.796  12.410
51244SOL    HW153756  10.353   0.764  12.496
51244SOL    HW253757  10.216   0.769  12.407
51245SOL     OW53758   9.350   0.544  12.286
51245SOL    HW153759   9.435   0.511  12.245
51245SOL    HW253760   9.363   0.559  12.384
51246SOL     OW53761  10.125   0.572  11.497
51246SOL    HW153762  10.132   0.483  11.451
51246SOL    HW253763  10.031   0.606  11.489
51247SOL     OW53764  10.967   0.604  12.378
51247SOL    HW153765  10.929   0.535  12.440
51247SOL    HW253766  11.049   0.568  12.334
51248SOL     OW53767   9.562   1.564  12.916
51248SOL    HW153768   9.532   1.621  12.992
51248SOL    HW253769   9.555   1.467  12.942
51249SOL     OW53770   9.981   0.464  12.441
51249SOL    HW153771   9.947   0.375  12.411
51249SOL    HW253772  10.007   0.518  12.361
51250SOL     OW53773  10.240   1.678  12.637
51250SOL    HW153774  10.216   1.660  12.542
51250SOL    HW253775  10.270   1.772  12.647
51251SOL     OW53776   9.783   0.500  11.363
51251SOL    HW153777   9.844   0.580  11.367
51251SOL    HW253778   9.688   0.531  11.370
51252SOL     OW53779   9.469   1.137  12.638
51252SOL    HW153780   9.491   1.076  12.714
51252SOL    HW253781   9.479   1.088  12.552
51253SOL     OW53782  10.657   1.059  12.406
51253SOL    HW153783  10.681   0.996  12.332
51253SOL    HW253784  10.567   1.099  12.388
51254SOL     OW53785  10.612   0.855  11.481
51254SOL    HW153786  10.526   0.824  11.523
51254SOL    HW253787  10.608   0.841  11.382
51255SOL     OW53788  11.069   1.747  12.326
51255SOL    HW153789  11.130   1.777  12.253
51255SOL    HW253790  11.031   1.658  12.304
51256SOL     OW53791  10.562   1.731  12.300
51256SOL    HW153792  10.646   1.736  12.246
51256SOL    HW253793  10.539   1.635  12.318
51257SOL     OW53794   9.393   1.258  12.194
51257SOL    HW153795   9.388   1.257  12.294
51257SOL    HW253796   9.310   1.217  12.156
51258SOL     OW53797  11.036   0.135  11.695
51258SOL    HW153798  11.109   0.118  11.628
51258SOL    HW253799  11.005   0.048  11.733
51259SOL     OW53800  10.698   1.573  11.649
51259SOL    HW153801  10.765   1.585  11.575
51259SOL    HW253802  10.658   1.662  11.672
51260SOL     OW53803  10.590   0.927  11.844
51260SOL    HW153804  10.650   0.846  11.846
51260SOL    HW253805  10.630   0.996  11.784
51261SOL     OW53806  10.140   1.273  12.594
51261SOL    HW153807  10.135   1.306  12.689
51261SOL    HW253808  10.054   1.292  12.548
51262SOL     OW53809   9.982   1.616  11.326
51262SOL    HW153810   9.991   1.626  11.227
51262SOL    HW253811   9.942   1.527  11.347
51263SOL     OW53812  10.960   1.720  12.566
51263SOL    HW153813  11.013   1.730  12.482
51263SOL    HW253814  10.933   1.810  12.600
51264SOL     OW53815  11.151   0.175  12.135
51264SOL    HW153816  11.190   0.090  12.099
51264SOL    HW253817  11.053   0.177  12.116
51265SOL     OW53818   9.573   0.326  11.892
51265SOL    HW153819   9.494   0.377  11.858
51265SOL    HW253820   9.564   0.311  11.990
51266SOL     OW53821  10.504   1.612  11.203
51266SOL    HW153822  10.510   1.519  11.240
51266SOL    HW253823  10.445   1.612  11.123
51267SOL     OW53824  10.132   1.002  12.544
51267SOL    HW153825  10.172   1.001  12.452
51267SOL    HW253826  10.142   1.094  12.584
51268SOL     OW53827  10.226   0.910  11.463
51268SOL    HW153828  10.289   0.948  11.395
51268SOL    HW253829  10.266   0.827  11.502
51269SOL     OW53830  10.814   1.607  11.216
51269SOL    HW153831  10.722   1.644  11.223
51269SOL    HW253832  10.852   1.627  11.126
51270SOL     OW53833   9.682   1.288  12.662
51270SOL    HW153834   9.669   1.381  12.628
51270SOL    HW253835   9.598   1.236  12.649
51271SOL     OW53836  10.924   1.292  12.461
51271SOL    HW153837  10.984   1.295  12.541
51271SOL    HW253838  10.849   1.356  12.474
51272SOL     OW53839  10.349   1.098  11.868
51272SOL    HW153840  10.279   1.051  11.922
51272SOL    HW253841  10.408   1.030  11.825
51273SOL     OW53842  10.324   0.236  12.143
51273SOL    HW153843  10.316   0.200  12.050
51273SOL    HW253844  10.322   0.160  12.208
51274SOL     OW53845   9.900   1.487  11.663
51274SOL    HW153846   9.942   1.429  11.593
51274SOL    HW253847   9.856   1.566  11.619
51275SOL     OW53848  11.019   0.385  12.553
51275SOL    HW153849  11.092   0.454  12.557
51275SOL    HW253850  11.047   0.310  12.494
51276SOL     OW53851   9.565   1.348  11.462
51276SOL    HW153852   9.469   1.349  11.435
51276SOL    HW253853   9.577   1.401  11.546
51277SOL     OW53854   9.415   1.013  12.898
51277SOL    HW153855   9.338   0.980  12.952
51277SOL    HW253856   9.500   0.983  12.940
51278SOL     OW53857   9.982   0.203  12.661
51278SOL    HW153858  10.072   0.187  12.621
51278SOL    HW253859   9.990   0.208  12.760
51279SOL     OW53860   9.385   0.345  11.205
51279SOL    HW153861   9.293   0.317  11.176
51279SOL    HW253862   9.416   0.422  11.149
51280SOL     OW53863  10.750   0.856  12.570
51280SOL    HW153864  10.693   0.908  12.507
51280SOL    HW253865  10.846   0.868  12.546
51281SOL     OW53866   9.382   0.166  11.490
51281SOL    HW153867   9.365   0.249  11.436
51281SOL    HW253868   9.472   0.129  11.468
51282SOL     OW53869  10.493   1.335  11.291
51282SOL    HW153870  10.394   1.324  11.293
51282SOL    HW253871  10.527   1.350  11.384
51283SOL     OW53872   9.923   0.842  12.603
51283SOL    HW153873   9.979   0.923  12.586
51283SOL    HW253874   9.982   0.762  12.606
51284SOL     OW53875  10.803   1.767  12.131
51284SOL    HW153876  10.836   1.831  12.062
51284SOL    HW253877  10.869   1.761  12.206
51285SOL     OW53878  10.026   0.565  12.880
51285SOL    HW153879  10.045   0.630  12.954
51285SOL    HW253880  10.086   0.485  12.889
51286SOL     OW53881   9.700   1.741  12.732
51286SOL    HW153882   9.609   1.782  12.730
51286SOL    HW253883   9.693   1.647  12.764
51287SOL     OW53884  10.984   0.883  12.426
51287SOL    HW153885  10.957   0.794  12.389
51287SOL    HW253886  10.985   0.951  12.353
51288SOL     OW53887  10.535   0.325  11.621
51288SOL    HW153888  10.600   0.251  11.610
51288SOL    HW253889  10.555   0.375  11.705
51289SOL     OW53890   9.904   0.745  11.824
51289SOL    HW153891   9.954   0.830  11.805
51289SOL    HW253892   9.816   0.747  11.776
51290SOL     OW53893  11.087   0.342  12.814
51290SOL    HW153894  11.070   0.373  12.720
51290SOL    HW253895  11.003   0.305  12.852
51291SOL     OW53896  11.040   0.934  12.689
51291SOL    HW153897  11.078   1.025  12.704
51291SOL    HW253898  11.032   0.917  12.590
51292SOL     OW53899  10.169   1.374  11.188
51292SOL    HW153900  10.123   1.389  11.276
51292SOL    HW253901  10.213   1.459  11.158
51293SOL     OW53902   9.971   1.790  12.125
51293SOL    HW153903   9.925   1.878  12.112
51293SOL    HW253904  10.070   1.802  12.118
51294SOL     OW53905  10.169   0.956  12.033
51294SOL    HW153906  10.223   0.887  12.081
51294SOL    HW253907  10.137   1.025  12.099
51295SOL     OW53908  10.393   0.984  11.259
51295SOL    HW153909  10.370   1.037  11.177
51295SOL    HW253910  10.474   0.928  11.240
51296SOL     OW53911  11.171   1.569  12.023
51296SOL    HW153912  11.100   1.557  11.953
51296SOL    HW253913  11.172   1.490  12.083
51297SOL     OW53914   9.389   1.240  11.825
51297SOL    HW153915   9.388   1.193  11.913
51297SOL    HW253916   9.471   1.212  11.774
51298SOL     OW53917   9.982   1.391  12.796
51298SOL    HW153918   9.904   1.341  12.834
51298SOL    HW253919   9.979   1.486  12.827
51299SOL     OW53920  11.134   0.192  12.399
51299SOL    HW153921  11.130   0.102  12.443
51299SOL    HW253922  11.137   0.181  12.300
51300SOL     OW53923   9.738   0.424  11.692
51300SOL    HW153924   9.768   0.352  11.630
51300SOL    HW253925   9.699   0.384  11.775
51301SOL     OW53926  11.015   1.487  12.276
51301SOL    HW153927  10.922   1.462  12.249
51301SOL    HW253928  11.041   1.437  12.358
51302SOL     OW53929   9.627   0.547  12.452
51302SOL    HW153930   9.665   0.488  12.524
51302SOL    HW253931   9.667   0.521  12.364
51303SOL     OW53932  10.122   1.586  11.859
51303SOL    HW153933  10.154   1.596  11.765
51303SOL    HW253934  10.043   1.524  11.861
51304SOL     OW53935  10.734   0.214  12.284
51304SOL    HW153936  10.786   0.149  12.339
51304SOL    HW253937  10.685   0.277  12.345
51305SOL     OW53938  10.311   0.034  12.326
51305SOL    HW153939  10.248  -0.038  12.295
51305SOL    HW253940  10.404  -0.002  12.326
51306SOL     OW53941  10.080   1.330  11.473
51306SOL    HW153942  10.034   1.243  11.490
51306SOL    HW253943  10.171   1.327  11.514
51307SOL     OW53944   9.928   1.567  12.456
51307SOL    HW153945   9.923   1.649  12.513
51307SOL    HW253946  10.017   1.564  12.411
51308SOL     OW53947  10.662   0.052  11.340
51308SOL    HW153948  10.697   0.011  11.256
51308SOL    HW253949  10.572   0.014  11.360
51309SOL     OW53950  10.610   0.453  11.863
51309SOL    HW153951  10.551   0.533  11.867
51309SOL    HW253952  10.625   0.418  11.956
51310SOL     OW53953  10.903   0.221  12.054
51310SOL    HW153954  10.819   0.220  12.108
51310SOL    HW253955  10.905   0.304  11.998
51311SOL     OW53956   9.349   1.077  11.472
51311SOL    HW153957   9.448   1.066  11.463
51311SOL    HW253958   9.309   0.991  11.504
51312SOL     OW53959  10.185   1.646  11.509
51312SOL    HW153960  10.108   1.611  11.455
51312SOL    HW253961  10.153   1.717  11.571
51313SOL     OW53962   9.540   2.490   0.113
51313SOL    HW153963   9.447   2.488   0.150
51313SOL    HW253964   9.541   2.451   0.021
51314SOL     OW53965   9.535   2.137   0.996
51314SOL    HW153966   9.570   2.120   1.088
51314SOL    HW253967   9.447   2.092   0.984
51315SOL     OW53968   9.329   2.230   0.647
51315SOL    HW153969   9.247   2.273   0.686
51315SOL    HW253970   9.301   2.157   0.584
51316SOL     OW53971   9.879   3.137   1.165
51316SOL    HW153972   9.786   3.130   1.128
51316SOL    HW253973   9.890   3.226   1.209
51317SOL     OW53974  10.865   3.373   0.703
51317SOL    HW153975  10.808   3.357   0.784
51317SOL    HW253976  10.806   3.383   0.623
51318SOL     OW53977  10.445   2.565   0.717
51318SOL    HW153978  10.502   2.643   0.692
51318SOL    HW253979  10.385   2.591   0.793
51319SOL     OW53980  11.065   2.469   0.231
51319SOL    HW153981  11.053   2.456   0.132
51319SOL    HW253982  11.035   2.388   0.280
51320SOL     OW53983  10.078   3.006   1.023
51320SOL    HW153984  10.000   3.023   1.083
51320SOL    HW253985  10.112   3.093   0.987
51321SOL     OW53986  10.160   2.660   1.823
51321SOL    HW153987  10.156   2.736   1.888
51321SOL    HW253988  10.182   2.696   1.732
51322SOL     OW53989   9.995   2.874   0.665
51322SOL    HW153990  10.064   2.858   0.735
51322SOL    HW253991   9.922   2.931   0.703
51323SOL     OW53992   9.996   3.023   1.803
51323SOL    HW153993  10.056   3.102   1.817
51323SOL    HW253994   9.910   3.054   1.762
51324SOL     OW53995   9.645   3.297   1.061
51324SOL    HW153996   9.567   3.266   1.008
51324SOL    HW253997   9.703   3.355   1.004
51325SOL     OW53998  10.770   3.367   1.339
51325SOL    HW153999  10.794   3.461   1.365
51325SOL    HW254000  10.754   3.313   1.421
51326SOL     OW54001   9.748   2.254   1.499
51326SOL    HW154002   9.830   2.198   1.508
51326SOL    HW254003   9.667   2.196   1.503
51327SOL     OW54004  10.913   2.309   0.737
51327SOL    HW154005  10.839   2.355   0.687
51327SOL    HW254006  10.964   2.377   0.790
51328SOL     OW54007   9.541   3.575   0.483
51328SOL    HW154008   9.575   3.652   0.537
51328SOL    HW254009   9.585   3.575   0.393
51329SOL     OW54010  10.437   3.203   1.690
51329SOL    HW154011  10.484   3.203   1.778
51329SOL    HW254012  10.389   3.116   1.679
51330SOL     OW54013   9.540   3.296   0.538
51330SOL    HW154014   9.514   3.392   0.538
51330SOL    HW254015   9.469   3.242   0.583
51331SOL     OW54016   9.550   2.953   0.886
51331SOL    HW154017   9.564   2.869   0.938
51331SOL    HW254018   9.495   3.017   0.941
51332SOL     OW54019   9.930   3.648   1.439
51332SOL    HW154020   9.838   3.631   1.474
51332SOL    HW254021   9.958   3.740   1.465
51333SOL     OW54022   9.916   2.826   0.123
51333SOL    HW154023   9.923   2.910   0.069
51333SOL    HW254024   9.962   2.839   0.211
51334SOL     OW54025  10.904   1.976   1.480
51334SOL    HW154026  10.886   2.043   1.408
51334SOL    HW254027  10.901   2.022   1.569
51335SOL     OW54028   9.432   2.505   0.563
51335SOL    HW154029   9.387   2.417   0.580
51335SOL    HW254030   9.431   2.559   0.647
51336SOL     OW54031  11.152   3.629   0.359
51336SOL    HW154032  11.206   3.600   0.439
51336SOL    HW254033  11.182   3.719   0.330
51337SOL     OW54034   9.337   3.458   0.117
51337SOL    HW154035   9.318   3.362   0.138
51337SOL    HW254036   9.304   3.516   0.192
51338SOL     OW54037  10.999   2.784   0.612
51338SOL    HW154038  11.094   2.755   0.620
51338SOL    HW254039  10.991   2.849   0.537
51339SOL     OW54040  10.951   2.970   0.432
51339SOL    HW154041  11.037   2.972   0.380
51339SOL    HW254042  10.965   3.017   0.520
51340SOL     OW54043   9.423   2.599   1.597
51340SOL    HW154044   9.511   2.586   1.642
51340SOL    HW254045   9.410   2.696   1.575
51341SOL     OW54046   9.923   3.227   0.726
51341SOL    HW154047   9.874   3.140   0.735
51341SOL    HW254048   9.900   3.270   0.639
51342SOL     OW54049  10.603   3.090   1.423
51342SOL    HW154050  10.640   3.017   1.365
51342SOL    HW254051  10.655   3.095   1.508
51343SOL     OW54052  10.119   1.866   0.502
51343SOL    HW154053  10.159   1.957   0.493
51343SOL    HW254054  10.019   1.874   0.508
51344SOL     OW54055   9.507   2.838   1.264
51344SOL    HW154056   9.596   2.793   1.250
51344SOL    HW254057   9.434   2.773   1.245
51345SOL     OW54058  10.835   2.861   0.190
51345SOL    HW154059  10.772   2.785   0.203
51345SOL    HW254060  10.883   2.879   0.276
51346SOL     OW54061  10.497   3.654   1.616
51346SOL    HW154062  10.521   3.714   1.540
51346SOL    HW254063  10.504   3.559   1.586
51347SOL     OW54064   9.627   2.113   1.801
51347SOL    HW154065   9.698   2.184   1.807
51347SOL    HW254066   9.539   2.152   1.829
51348SOL     OW54067  10.776   3.279   0.953
51348SOL    HW154068  10.717   3.285   1.033
51348SOL    HW254069  10.761   3.191   0.907
51349SOL     OW54070  10.977   3.576   0.572
51349SOL    HW154071  10.936   3.553   0.484
51349SOL    HW254072  10.959   3.502   0.637
51350SOL     OW54073   9.908   2.591   0.270
51350SOL    HW154074   9.932   2.660   0.202
51350SOL    HW254075   9.830   2.624   0.324
51351SOL     OW54076  10.591   2.207   0.944
51351SOL    HW154077  10.505   2.157   0.931
51351SOL    HW254078  10.653   2.153   1.000
51352SOL     OW54079  10.886   3.524   0.307
51352SOL    HW154080  10.975   3.570   0.310
51352SOL    HW254081  10.865   3.500   0.212
51353SOL     OW54082  10.117   2.467   1.465
51353SOL    HW154083  10.070   2.464   1.554
51353SOL    HW254084  10.066   2.412   1.399
51354SOL     OW54085  10.704   2.331   1.674
51354SOL    HW154086  10.684   2.374   1.762
51354SOL    HW254087  10.782   2.269   1.683
51355SOL     OW54088  10.283   2.752   1.572
51355SOL    HW154089  10.329   2.668   1.543
51355SOL    HW254090  10.227   2.786   1.497
51356SOL     OW54091  10.301   2.272   1.242
51356SOL    HW154092  10.224   2.306   1.296
51356SOL    HW254093  10.267   2.221   1.163
51357SOL     OW54094  10.351   2.563   0.429
51357SOL    HW154095  10.377   2.559   0.525
51357SOL    HW254096  10.266   2.512   0.415
51358SOL     OW54097   9.386   2.673   0.789
51358SOL    HW154098   9.485   2.661   0.798
51358SOL    HW254099   9.362   2.768   0.810
51359SOL     OW54100   9.440   3.683   1.571
51359SOL    HW154101   9.430   3.668   1.670
51359SOL    HW254102   9.354   3.719   1.535
51360SOL     OW54103  10.175   2.210   0.195
51360SOL    HW154104  10.234   2.273   0.146
51360SOL    HW254105  10.194   2.116   0.166
51361SOL     OW54106  11.029   2.447   1.831
51361SOL    HW154107  11.003   2.536   1.795
51361SOL    HW254108  11.027   2.379   1.758
51362SOL     OW54109  10.672   3.006   0.545
51362SOL    HW154110  10.755   2.977   0.497
51362SOL    HW254111  10.623   3.073   0.489
51363SOL     OW54112   9.860   2.058   0.885
51363SOL    HW154113   9.855   2.053   0.985
51363SOL    HW254114   9.862   2.154   0.856
51364SOL     OW54115  10.318   3.318   0.477
51364SOL    HW154116  10.272   3.390   0.425
51364SOL    HW254117  10.314   3.338   0.575
51365SOL     OW54118   9.661   3.663   0.853
51365SOL    HW154119   9.711   3.577   0.859
51365SOL    HW254120   9.726   3.740   0.850
51366SOL     OW54121  11.105   2.928   0.873
51366SOL    HW154122  11.043   2.913   0.797
51366SOL    HW254123  11.053   2.939   0.958
51367SOL     OW54124  10.537   3.412   1.506
51367SOL    HW154125  10.543   3.335   1.570
51367SOL    HW254126  10.485   3.386   1.426
51368SOL     OW54127   9.631   2.805   0.242
51368SOL    HW154128   9.713   2.844   0.200
51368SOL    HW254129   9.604   2.723   0.193
51369SOL     OW54130  10.768   2.597   0.728
51369SOL    HW154131  10.763   2.532   0.803
51369SOL    HW254132  10.848   2.656   0.741
51370SOL     OW54133   9.771   3.128   1.727
51370SOL    HW154134   9.721   3.129   1.641
51370SOL    HW254135   9.708   3.110   1.803
51371SOL     OW54136  10.421   3.638   0.237
51371SOL    HW154137  10.361   3.576   0.287
51371SOL    HW254138  10.452   3.594   0.152
51372SOL     OW54139   9.512   2.147   1.498
51372SOL    HW154140   9.432   2.207   1.485
51372SOL    HW254141   9.502   2.098   1.584
51373SOL     OW54142  10.942   3.239   0.081
51373SOL    HW154143  10.910   3.333   0.071
51373SOL    HW254144  10.866   3.176   0.069
51374SOL     OW54145   9.774   3.605   0.323
51374SOL    HW154146   9.807   3.644   0.409
51374SOL    HW254147   9.850   3.598   0.258
51375SOL     OW54148  10.710   1.969   0.426
51375SOL    HW154149  10.686   1.932   0.336
51375SOL    HW254150  10.809   1.985   0.430
51376SOL     OW54151   9.559   3.647   1.241
51376SOL    HW154152   9.616   3.582   1.291
51376SOL    HW254153   9.543   3.614   1.148
51377SOL     OW54154  10.250   3.560   0.904
51377SOL    HW154155  10.330   3.503   0.925
51377SOL    HW254156  10.201   3.520   0.827
51378SOL     OW54157   9.692   2.562   0.480
51378SOL    HW154158   9.737   2.472   0.477
51378SOL    HW254159   9.598   2.551   0.513
51379SOL     OW54160  10.857   2.084   1.729
51379SOL    HW154161  10.852   2.121   1.821
51379SOL    HW254162  10.785   2.015   1.717
51380SOL     OW54163   9.924   1.984   0.117
51380SOL    HW154164  10.022   1.962   0.124
51380SOL    HW254165   9.893   1.967   0.024
51381SOL     OW54166  10.091   2.126   1.749
51381SOL    HW154167  10.158   2.065   1.792
51381SOL    HW254168  10.018   2.145   1.814
51382SOL     OW54169  10.198   3.376   1.195
51382SOL    HW154170  10.175   3.351   1.101
51382SOL    HW254171  10.259   3.307   1.234
51383SOL     OW54172  10.661   2.452   1.433
51383SOL    HW154173  10.689   2.409   1.518
51383SOL    HW254174  10.686   2.548   1.434
51384SOL     OW54175  10.113   3.264   0.924
51384SOL    HW154176  10.203   3.278   0.882
51384SOL    HW254177  10.042   3.266   0.853
51385SOL     OW54178  10.232   2.365   0.899
51385SOL    HW154179  10.207   2.356   0.803
51385SOL    HW254180  10.280   2.283   0.930
51386SOL     OW54181   9.849   1.926   0.512
51386SOL    HW154182   9.768   1.927   0.570
51386SOL    HW254183   9.852   2.009   0.457
51387SOL     OW54184  10.744   3.050   0.041
51387SOL    HW154185  10.776   2.974   0.098
51387SOL    HW254186  10.652   3.077   0.071
51388SOL     OW54187   9.607   1.897   0.171
51388SOL    HW154188   9.656   1.981   0.150
51388SOL    HW254189   9.669   1.832   0.216
51389SOL     OW54190  10.245   2.098   0.480
51389SOL    HW154191  10.197   2.139   0.402
51389SOL    HW254192  10.344   2.096   0.461
51390SOL     OW54193  10.386   2.545   1.464
51390SOL    HW154194  10.306   2.484   1.467
51390SOL    HW254195  10.467   2.492   1.440
51391SOL     OW54196  10.537   3.432   0.793
51391SOL    HW154197  10.558   3.506   0.728
51391SOL    HW254198  10.605   3.432   0.866
51392SOL     OW54199   9.769   3.014   0.741
51392SOL    HW154200   9.698   2.987   0.806
51392SOL    HW254201   9.743   2.986   0.648
51393SOL     OW54202  10.581   3.659   0.591
51393SOL    HW154203  10.625   3.723   0.527
51393SOL    HW254204  10.531   3.711   0.661
51394SOL     OW54205  10.342   2.411   0.016
51394SOL    HW154206  10.301   2.493  -0.023
51394SOL    HW254207  10.406   2.437   0.089
51395SOL     OW54208   9.388   2.418   1.386
51395SOL    HW154209   9.480   2.417   1.345
51395SOL    HW254210   9.382   2.492   1.453
51396SOL     OW54211   9.871   2.084   1.147
51396SOL    HW154212   9.909   2.000   1.184
51396SOL    HW254213   9.783   2.103   1.191
51397SOL     OW54214  10.176   2.316   0.642
51397SOL    HW154215  10.144   2.388   0.580
51397SOL    HW254216  10.200   2.235   0.589
51398SOL     OW54217  10.327   1.901   0.753
51398SOL    HW154218  10.255   1.906   0.684
51398SOL    HW254219  10.303   1.832   0.822
51399SOL     OW54220  10.739   3.035   0.867
51399SOL    HW154221  10.684   2.951   0.860
51399SOL    HW254222  10.765   3.064   0.775
51400SOL     OW54223  10.776   2.452   0.992
51400SOL    HW154224  10.746   2.357   0.999
51400SOL    HW254225  10.849   2.468   1.058
51401SOL     OW54226  11.167   2.695   0.377
51401SOL    HW154227  11.209   2.631   0.441
51401SOL    HW254228  11.129   2.644   0.299
51402SOL     OW54229   9.798   3.247   0.174
51402SOL    HW154230   9.711   3.232   0.221
51402SOL    HW254231   9.781   3.273   0.079
51403SOL     OW54232  10.974   3.142   0.657
51403SOL    HW154233  11.073   3.150   0.671
51403SOL    HW254234  10.929   3.226   0.688
51404SOL     OW54235  10.700   2.437   0.078
51404SOL    HW154236  10.646   2.416   0.159
51404SOL    HW254237  10.791   2.396   0.087
51405SOL     OW54238   9.837   2.118   0.328
51405SOL    HW154239   9.864   2.059   0.253
51405SOL    HW254240   9.837   2.213   0.297
51406SOL     OW54241  11.064   3.085   1.588
51406SOL    HW154242  11.155   3.046   1.575
51406SOL    HW254243  11.072   3.181   1.612
51407SOL     OW54244  10.374   3.209   1.340
51407SOL    HW154245  10.294   3.186   1.395
51407SOL    HW254246  10.457   3.183   1.389
51408SOL     OW54247  10.902   3.491   1.625
51408SOL    HW154248  10.929   3.525   1.535
51408SOL    HW254249  10.981   3.453   1.671
51409SOL     OW54250  10.421   3.057   1.100
51409SOL    HW154251  10.381   3.101   1.181
51409SOL    HW254252  10.380   3.094   1.017
51410SOL     OW54253  10.948   2.961   1.079
51410SOL    HW154254  10.953   3.042   1.138
51410SOL    HW254255  10.862   2.963   1.028
51411SOL     OW54256  10.225   1.951   1.402
51411SOL    HW154257  10.250   1.931   1.307
51411SOL    HW254258  10.297   2.007   1.444
51412SOL     OW54259  10.290   2.978   1.719
51412SOL    HW154260  10.191   2.984   1.729
51412SOL    HW254261  10.313   2.898   1.663
51413SOL     OW54262  10.015   2.912   0.368
51413SOL    HW154263  10.001   2.919   0.467
51413SOL    HW254264  10.099   2.861   0.350
51414SOL     OW54265   9.720   2.675   1.251
51414SOL    HW154266   9.806   2.687   1.301
51414SOL    HW254267   9.678   2.588   1.278
51415SOL     OW54268  10.584   2.248   1.262
51415SOL    HW154269  10.605   2.322   1.326
51415SOL    HW254270  10.495   2.265   1.219
51416SOL     OW54271   9.374   3.426   1.331
51416SOL    HW154272   9.328   3.508   1.297
51416SOL    HW254273   9.472   3.445   1.340
51417SOL     OW54274   9.677   2.962   0.501
51417SOL    HW154275   9.670   3.045   0.445
51417SOL    HW254276   9.681   2.882   0.441
51418SOL     OW54277   9.876   2.399   0.865
51418SOL    HW154278   9.888   2.465   0.791
51418SOL    HW254279   9.922   2.433   0.948
51419SOL     OW54280  10.562   3.210   0.388
51419SOL    HW154281  10.612   3.287   0.428
51419SOL    HW254282  10.467   3.212   0.420
51420SOL     OW54283  10.582   3.307   1.142
51420SOL    HW154284  10.629   3.320   1.229
51420SOL    HW254285  10.516   3.233   1.151
51421SOL     OW54286  10.892   2.501   0.472
51421SOL    HW154287  10.861   2.562   0.545
51421SOL    HW254288  10.942   2.553   0.403
51422SOL     OW54289   9.664   3.372   1.329
51422SOL    HW154290   9.643   3.328   1.242
51422SOL    HW254291   9.761   3.398   1.332
51423SOL     OW54292   9.712   2.613   1.598
51423SOL    HW154293   9.780   2.668   1.551
51423SOL    HW254294   9.752   2.525   1.625
51424SOL     OW54295  10.897   2.641   1.670
51424SOL    HW154296  10.805   2.679   1.665
51424SOL    HW254297  10.957   2.688   1.605
51425SOL     OW54298  10.323   1.967   1.770
51425SOL    HW154299  10.329   2.052   1.718
51425SOL    HW254300  10.355   1.891   1.713
51426SOL     OW54301   9.814   1.912   1.740
51426SOL    HW154302   9.772   1.855   1.670
51426SOL    HW254303   9.748   1.981   1.772
51427SOL     OW54304   9.883   2.732   1.029
51427SOL    HW154305   9.927   2.821   1.020
51427SOL    HW254306   9.820   2.732   1.106
51428SOL     OW54307  10.670   2.724   1.045
51428SOL    HW154308  10.595   2.724   0.979
51428SOL    HW254309  10.707   2.632   1.054
51429SOL     OW54310  10.519   2.387   0.275
51429SOL    HW154311  10.532   2.303   0.329
51429SOL    HW254312  10.490   2.461   0.335
51430SOL     OW54313   9.617   2.075   1.231
51430SOL    HW154314   9.594   2.112   1.321
51430SOL    HW254315   9.587   1.980   1.225
51431SOL     OW54316   9.347   3.172   1.282
51431SOL    HW154317   9.400   3.123   1.350
51431SOL    HW254318   9.369   3.270   1.287
51432SOL     OW54319  10.042   2.496   1.064
51432SOL    HW154320  10.101   2.470   0.988
51432SOL    HW254321  10.014   2.592   1.053
51433SOL     OW54322  11.038   2.797   1.854
51433SOL    HW154323  10.992   2.790   1.765
51433SOL    HW254324  10.976   2.841   1.920
51434SOL     OW54325   9.617   1.925   0.618
51434SOL    HW154326   9.606   2.019   0.651
51434SOL    HW254327   9.612   1.862   0.695
51435SOL     OW54328  10.932   2.229   0.374
51435SOL    HW154329  10.934   2.153   0.438
51435SOL    HW254330  10.884   2.306   0.414
51436SOL     OW54331  10.333   2.628   0.966
51436SOL    HW154332  10.348   2.649   1.062
51436SOL    HW254333  10.303   2.533   0.957
51437SOL     OW54334  10.290   3.435   1.700
51437SOL    HW154335  10.270   3.479   1.612
51437SOL    HW254336  10.329   3.344   1.684
51438SOL     OW54337  11.169   3.380   1.605
51438SOL    HW154338  11.183   3.407   1.510
51438SOL    HW254339  11.252   3.402   1.658
51439SOL     OW54340   9.660   2.760   1.804
51439SOL    HW154341   9.736   2.804   1.852
51439SOL    HW254342   9.695   2.713   1.722
51440SOL     OW54343  10.850   2.136   0.125
51440SOL    HW154344  10.789   2.061   0.148
51440SOL    HW254345  10.872   2.188   0.208
51441SOL     OW54346  10.613   2.700   0.042
51441SOL    HW154347  10.647   2.607   0.057
51441SOL    HW254348  10.631   2.727  -0.053
51442SOL     OW54349  10.378   3.195   0.849
51442SOL    HW154350  10.385   3.111   0.794
51442SOL    HW254351  10.440   3.264   0.813
51443SOL     OW54352   9.629   2.672   0.949
51443SOL    HW154353   9.722   2.708   0.954
51443SOL    HW254354   9.623   2.587   1.001
51444SOL     OW54355   9.649   2.371   1.006
51444SOL    HW154356   9.597   2.288   0.989
51444SOL    HW254357   9.726   2.376   0.942
51445SOL     OW54358  10.448   2.242   1.678
51445SOL    HW154359  10.403   2.305   1.742
51445SOL    HW254360  10.541   2.273   1.661
51446SOL     OW54361  10.470   2.069   1.477
51446SOL    HW154362  10.470   2.133   1.554
51446SOL    HW254363  10.498   2.117   1.394
51447SOL     OW54364   9.318   3.188   0.200
51447SOL    HW154365   9.225   3.209   0.169
51447SOL    HW254366   9.328   3.089   0.213
51448SOL     OW54367   9.398   3.663   0.927
51448SOL    HW154368   9.356   3.577   0.900
51448SOL    HW254369   9.492   3.666   0.893
51449SOL     OW54370   9.814   3.430   0.910
51449SOL    HW154371   9.880   3.504   0.919
51449SOL    HW254372   9.858   3.351   0.868
51450SOL     OW54373  10.312   2.658   1.238
51450SOL    HW154374  10.353   2.626   1.324
51450SOL    HW254375  10.216   2.631   1.235
51451SOL     OW54376   9.350   2.406   1.114
51451SOL    HW154377   9.435   2.373   1.073
51451SOL    HW254378   9.363   2.421   1.212
51452SOL     OW54379   9.499   2.382   1.722
51452SOL    HW154380   9.558   2.342   1.652
51452SOL    HW254381   9.441   2.453   1.681
51453SOL     OW54382  10.679   2.812   1.660
51453SOL    HW154383  10.718   2.901   1.680
51453SOL    HW254384  10.689   2.792   1.563
51454SOL     OW54385  10.125   2.434   0.325
51454SOL    HW154386  10.132   2.345   0.279
51454SOL    HW254387  10.031   2.468   0.317
51455SOL     OW54388  10.967   2.466   1.206
51455SOL    HW154389  10.929   2.397   1.268
51455SOL    HW254390  11.049   2.430   1.162
51456SOL     OW54391   9.562   3.426   1.744
51456SOL    HW154392   9.532   3.483   1.820
51456SOL    HW254393   9.555   3.329   1.770
51457SOL     OW54394   9.981   2.326   1.269
51457SOL    HW154395   9.947   2.237   1.239
51457SOL    HW254396  10.007   2.380   1.189
51458SOL     OW54397  10.240   3.540   1.465
51458SOL    HW154398  10.216   3.522   1.370
51458SOL    HW254399  10.270   3.634   1.475
51459SOL     OW54400   9.783   2.362   0.191
51459SOL    HW154401   9.844   2.442   0.195
51459SOL    HW254402   9.688   2.393   0.198
51460SOL     OW54403   9.469   2.999   1.466
51460SOL    HW154404   9.491   2.938   1.542
51460SOL    HW254405   9.479   2.950   1.380
51461SOL     OW54406  10.657   2.921   1.234
51461SOL    HW154407  10.681   2.858   1.160
51461SOL    HW254408  10.567   2.961   1.216
51462SOL     OW54409  10.612   2.717   0.309
51462SOL    HW154410  10.526   2.686   0.351
51462SOL    HW254411  10.608   2.703   0.210
51463SOL     OW54412  11.069   3.609   1.154
51463SOL    HW154413  11.130   3.639   1.081
51463SOL    HW254414  11.031   3.520   1.132
51464SOL     OW54415  10.562   3.593   1.128
51464SOL    HW154416  10.646   3.598   1.074
51464SOL    HW254417  10.539   3.497   1.146
51465SOL     OW54418   9.393   3.120   1.022
51465SOL    HW154419   9.388   3.119   1.122
51465SOL    HW254420   9.310   3.079   0.984
51466SOL     OW54421   9.998   3.524   1.716
51466SOL    HW154422   9.942   3.605   1.725
51466SOL    HW254423  10.050   3.528   1.630
51467SOL     OW54424  10.213   1.948   0.133
51467SOL    HW154425  10.264   1.949   0.047
51467SOL    HW254426  10.269   1.906   0.204
51468SOL     OW54427  11.036   1.997   0.523
51468SOL    HW154428  11.109   1.980   0.456
51468SOL    HW254429  11.005   1.910   0.561
51469SOL     OW54430  10.698   3.435   0.477
51469SOL    HW154431  10.765   3.447   0.403
51469SOL    HW254432  10.658   3.524   0.500
51470SOL     OW54433   9.440   3.656   1.851
51470SOL    HW154434   9.399   3.582   1.904
51470SOL    HW254435   9.504   3.707   1.909
51471SOL     OW54436  10.590   2.789   0.672
51471SOL    HW154437  10.650   2.708   0.674
51471SOL    HW254438  10.630   2.858   0.612
51472SOL     OW54439  10.140   3.135   1.422
51472SOL    HW154440  10.135   3.168   1.517
51472SOL    HW254441  10.054   3.154   1.376
51473SOL     OW54442   9.982   3.478   0.154
51473SOL    HW154443   9.991   3.488   0.055
51473SOL    HW254444   9.942   3.389   0.175
51474SOL     OW54445  10.960   3.582   1.394
51474SOL    HW154446  11.013   3.592   1.310
51474SOL    HW254447  10.933   3.672   1.428
51475SOL     OW54448  11.151   2.037   0.963
51475SOL    HW154449  11.190   1.952   0.927
51475SOL    HW254450  11.053   2.039   0.944
51476SOL     OW54451   9.573   2.188   0.720
51476SOL    HW154452   9.494   2.239   0.686
51476SOL    HW254453   9.564   2.173   0.818
51477SOL     OW54454  10.504   3.474   0.031
51477SOL    HW154455  10.510   3.381   0.068
51477SOL    HW254456  10.445   3.474  -0.049
51478SOL     OW54457  10.132   2.864   1.372
51478SOL    HW154458  10.172   2.863   1.280
51478SOL    HW254459  10.142   2.956   1.412
51479SOL     OW54460  10.226   2.772   0.291
51479SOL    HW154461  10.289   2.810   0.223
51479SOL    HW254462  10.266   2.689   0.330
51480SOL     OW54463  10.814   3.469   0.044
51480SOL    HW154464  10.722   3.506   0.051
51480SOL    HW254465  10.852   3.489  -0.046
51481SOL     OW54466   9.682   3.150   1.490
51481SOL    HW154467   9.669   3.243   1.456
51481SOL    HW254468   9.598   3.098   1.477
51482SOL     OW54469  10.924   3.154   1.289
51482SOL    HW154470  10.984   3.157   1.369
51482SOL    HW254471  10.849   3.218   1.302
51483SOL     OW54472  10.349   2.960   0.696
51483SOL    HW154473  10.279   2.913   0.750
51483SOL    HW254474  10.408   2.892   0.653
51484SOL     OW54475  10.324   2.098   0.971
51484SOL    HW154476  10.316   2.062   0.878
51484SOL    HW254477  10.322   2.022   1.036
51485SOL     OW54478   9.900   3.349   0.491
51485SOL    HW154479   9.942   3.291   0.421
51485SOL    HW254480   9.856   3.428   0.447
51486SOL     OW54481  11.019   2.247   1.381
51486SOL    HW154482  11.092   2.316   1.385
51486SOL    HW254483  11.047   2.172   1.322
51487SOL     OW54484   9.565   3.210   0.290
51487SOL    HW154485   9.469   3.211   0.263
51487SOL    HW254486   9.577   3.263   0.374
51488SOL     OW54487   9.415   2.875   1.726
51488SOL    HW154488   9.338   2.842   1.780
51488SOL    HW254489   9.500   2.845   1.768
51489SOL     OW54490   9.982   2.065   1.489
51489SOL    HW154491  10.072   2.049   1.449
51489SOL    HW254492   9.990   2.070   1.588
51490SOL     OW54493  10.750   2.718   1.398
51490SOL    HW154494  10.693   2.770   1.335
51490SOL    HW254495  10.846   2.730   1.374
51491SOL     OW54496   9.382   2.028   0.318
51491SOL    HW154497   9.365   2.111   0.264
51491SOL    HW254498   9.472   1.991   0.296
51492SOL     OW54499  10.493   3.197   0.119
51492SOL    HW154500  10.394   3.186   0.121
51492SOL    HW254501  10.527   3.212   0.212
51493SOL     OW54502   9.923   2.704   1.431
51493SOL    HW154503   9.979   2.785   1.414
51493SOL    HW254504   9.982   2.624   1.434
51494SOL     OW54505  10.803   3.629   0.959
51494SOL    HW154506  10.836   3.693   0.890
51494SOL    HW254507  10.869   3.623   1.034
51495SOL     OW54508  10.026   2.427   1.708
51495SOL    HW154509  10.045   2.492   1.782
51495SOL    HW254510  10.086   2.347   1.717
51496SOL     OW54511  10.760   3.082   1.633
51496SOL    HW154512  10.751   3.072   1.732
51496SOL    HW254513  10.856   3.075   1.607
51497SOL     OW54514   9.700   3.603   1.560
51497SOL    HW154515   9.609   3.644   1.558
51497SOL    HW254516   9.693   3.509   1.592
51498SOL     OW54517  10.984   2.745   1.254
51498SOL    HW154518  10.957   2.656   1.217
51498SOL    HW254519  10.985   2.813   1.181
51499SOL     OW54520  10.535   2.187   0.449
51499SOL    HW154521  10.600   2.113   0.438
51499SOL    HW254522  10.555   2.237   0.533
51500SOL     OW54523   9.904   2.607   0.652
51500SOL    HW154524   9.954   2.692   0.633
51500SOL    HW254525   9.816   2.609   0.604
51501SOL     OW54526  11.087   2.204   1.642
51501SOL    HW154527  11.070   2.235   1.548
51501SOL    HW254528  11.003   2.167   1.680
51502SOL     OW54529  11.040   2.796   1.517
51502SOL    HW154530  11.078   2.887   1.532
51502SOL    HW254531  11.032   2.779   1.418
51503SOL     OW54532  10.169   3.236   0.016
51503SOL    HW154533  10.123   3.251   0.104
51503SOL    HW254534  10.213   3.321  -0.014
51504SOL     OW54535   9.971   3.652   0.953
51504SOL    HW154536   9.925   3.740   0.940
51504SOL    HW254537  10.070   3.664   0.946
51505SOL     OW54538  10.169   2.818   0.861
51505SOL    HW154539  10.223   2.749   0.909
51505SOL    HW254540  10.137   2.887   0.927
51506SOL     OW54541  10.393   2.846   0.087
51506SOL    HW154542  10.370   2.899   0.005
51506SOL    HW254543  10.474   2.790   0.068
51507SOL     OW54544  11.171   3.431   0.851
51507SOL    HW154545  11.100   3.419   0.781
51507SOL    HW254546  11.172   3.352   0.911
51508SOL     OW54547   9.531   3.176   1.844
51508SOL    HW154548   9.466   3.103   1.823
51508SOL    HW254549   9.535   3.190   1.942
51509SOL     OW54550   9.389   3.102   0.653
51509SOL    HW154551   9.388   3.055   0.741
51509SOL    HW254552   9.471   3.074   0.602
51510SOL     OW54553   9.982   3.253   1.624
51510SOL    HW154554   9.904   3.203   1.662
51510SOL    HW254555   9.979   3.348   1.655
51511SOL     OW54556  11.134   2.054   1.227
51511SOL    HW154557  11.130   1.964   1.271
51511SOL    HW254558  11.137   2.043   1.128
51512SOL     OW54559   9.738   2.286   0.520
51512SOL    HW154560   9.768   2.214   0.458
51512SOL    HW254561   9.699   2.246   0.603
51513SOL     OW54562  11.015   3.349   1.104
51513SOL    HW154563  10.922   3.324   1.077
51513SOL    HW254564  11.041   3.299   1.186
51514SOL     OW54565   9.627   2.409   1.280
51514SOL    HW154566   9.665   2.350   1.352
51514SOL    HW254567   9.667   2.383   1.192
51515SOL     OW54568  10.122   3.448   0.687
51515SOL    HW154569  10.154   3.458   0.593
51515SOL    HW254570  10.043   3.386   0.689
51516SOL     OW54571  10.734   2.076   1.112
51516SOL    HW154572  10.786   2.011   1.167
51516SOL    HW254573  10.685   2.139   1.173
51517SOL     OW54574  10.311   1.896   1.154
51517SOL    HW154575  10.248   1.824   1.123
51517SOL    HW254576  10.404   1.860   1.154
51518SOL     OW54577  10.080   3.192   0.301
51518SOL    HW154578  10.034   3.105   0.318
51518SOL    HW254579  10.171   3.189   0.342
51519SOL     OW54580   9.928   3.429   1.284
51519SOL    HW154581   9.923   3.511   1.341
51519SOL    HW254582  10.017   3.426   1.239
51520SOL     OW54583  10.662   1.914   0.168
51520SOL    HW154584  10.697   1.873   0.084
51520SOL    HW254585  10.572   1.876   0.188
51521SOL     OW54586  10.610   2.315   0.691
51521SOL    HW154587  10.551   2.395   0.695
51521SOL    HW254588  10.625   2.280   0.784
51522SOL     OW54589  10.903   2.083   0.882
51522SOL    HW154590  10.819   2.082   0.936
51522SOL    HW254591  10.905   2.166   0.826
51523SOL     OW54592   9.349   2.939   0.300
51523SOL    HW154593   9.448   2.928   0.291
51523SOL    HW254594   9.309   2.853   0.332
51524SOL     OW54595  10.185   3.508   0.337
51524SOL    HW154596  10.108   3.473   0.283
51524SOL    HW254597  10.153   3.579   0.399
51525SOL     OW54598   9.535   2.137   2.858
51525SOL    HW154599   9.570   2.120   2.950
51525SOL    HW254600   9.447   2.092   2.846
51526SOL     OW54601   9.329   2.230   2.509
51526SOL    HW154602   9.247   2.273   2.548
51526SOL    HW254603   9.301   2.157   2.446
51527SOL     OW54604   9.879   3.137   3.027
51527SOL    HW154605   9.786   3.130   2.990
51527SOL    HW254606   9.890   3.226   3.071
51528SOL     OW54607  10.865   3.373   2.565
51528SOL    HW154608  10.808   3.357   2.646
51528SOL    HW254609  10.806   3.383   2.485
51529SOL     OW54610  10.445   2.565   2.579
51529SOL    HW154611  10.502   2.643   2.554
51529SOL    HW254612  10.385   2.591   2.655
51530SOL     OW54613  10.078   3.006   2.885
51530SOL    HW154614  10.000   3.023   2.945
51530SOL    HW254615  10.112   3.093   2.849
51531SOL     OW54616  10.160   2.660   3.685
51531SOL    HW154617  10.156   2.736   3.750
51531SOL    HW254618  10.182   2.696   3.594
51532SOL     OW54619   9.995   2.874   2.527
51532SOL    HW154620  10.064   2.858   2.597
51532SOL    HW254621   9.922   2.931   2.565
51533SOL     OW54622   9.996   3.023   3.665
51533SOL    HW154623  10.056   3.102   3.679
51533SOL    HW254624   9.910   3.054   3.624
51534SOL     OW54625   9.645   3.297   2.923
51534SOL    HW154626   9.567   3.266   2.870
51534SOL    HW254627   9.703   3.355   2.866
51535SOL     OW54628  10.770   3.367   3.201
51535SOL    HW154629  10.794   3.461   3.227
51535SOL    HW254630  10.754   3.313   3.283
51536SOL     OW54631   9.748   2.254   3.361
51536SOL    HW154632   9.830   2.198   3.370
51536SOL    HW254633   9.667   2.196   3.365
51537SOL     OW54634  10.913   2.309   2.599
51537SOL    HW154635  10.839   2.355   2.549
51537SOL    HW254636  10.964   2.377   2.652
51538SOL     OW54637   9.541   3.575   2.345
51538SOL    HW154638   9.575   3.652   2.399
51538SOL    HW254639   9.585   3.575   2.255
51539SOL     OW54640  10.437   3.203   3.552
51539SOL    HW154641  10.484   3.203   3.640
51539SOL    HW254642  10.389   3.116   3.541
51540SOL     OW54643   9.540   3.296   2.400
51540SOL    HW154644   9.514   3.392   2.400
51540SOL    HW254645   9.469   3.242   2.445
51541SOL     OW54646   9.550   2.953   2.748
51541SOL    HW154647   9.564   2.869   2.800
51541SOL    HW254648   9.495   3.017   2.803
51542SOL     OW54649   9.930   3.648   3.301
51542SOL    HW154650   9.838   3.631   3.336
51542SOL    HW254651   9.958   3.740   3.327
51543SOL     OW54652   9.916   2.826   1.985
51543SOL    HW154653   9.923   2.910   1.931
51543SOL    HW254654   9.962   2.839   2.073
51544SOL     OW54655  10.904   1.976   3.342
51544SOL    HW154656  10.886   2.043   3.270
51544SOL    HW254657  10.901   2.022   3.431
51545SOL     OW54658   9.432   2.505   2.425
51545SOL    HW154659   9.387   2.417   2.442
51545SOL    HW254660   9.431   2.559   2.509
51546SOL     OW54661  11.152   3.629   2.221
51546SOL    HW154662  11.206   3.600   2.301
51546SOL    HW254663  11.182   3.719   2.192
51547SOL     OW54664   9.337   3.458   1.979
51547SOL    HW154665   9.318   3.362   2.000
51547SOL    HW254666   9.304   3.516   2.054
51548SOL     OW54667  10.999   2.784   2.474
51548SOL    HW154668  11.094   2.755   2.482
51548SOL    HW254669  10.991   2.849   2.399
51549SOL     OW54670  10.951   2.970   2.294
51549SOL    HW154671  11.037   2.972   2.242
51549SOL    HW254672  10.965   3.017   2.382
51550SOL     OW54673   9.423   2.599   3.459
51550SOL    HW154674   9.511   2.586   3.504
51550SOL    HW254675   9.410   2.696   3.437
51551SOL     OW54676   9.923   3.227   2.588
51551SOL    HW154677   9.874   3.140   2.597
51551SOL    HW254678   9.900   3.270   2.501
51552SOL     OW54679  10.603   3.090   3.285
51552SOL    HW154680  10.640   3.017   3.227
51552SOL    HW254681  10.655   3.095   3.370
51553SOL     OW54682  10.119   1.866   2.364
51553SOL    HW154683  10.159   1.957   2.355
51553SOL    HW254684  10.019   1.874   2.370
51554SOL     OW54685   9.507   2.838   3.126
51554SOL    HW154686   9.596   2.793   3.112
51554SOL    HW254687   9.434   2.773   3.107
51555SOL     OW54688  10.835   2.861   2.052
51555SOL    HW154689  10.772   2.785   2.065
51555SOL    HW254690  10.883   2.879   2.138
51556SOL     OW54691  10.497   3.654   3.478
51556SOL    HW154692  10.521   3.714   3.402
51556SOL    HW254693  10.504   3.559   3.448
51557SOL     OW54694   9.627   2.113   3.663
51557SOL    HW154695   9.698   2.184   3.669
51557SOL    HW254696   9.539   2.152   3.691
51558SOL     OW54697  10.776   3.279   2.815
51558SOL    HW154698  10.717   3.285   2.895
51558SOL    HW254699  10.761   3.191   2.769
51559SOL     OW54700  10.977   3.576   2.434
51559SOL    HW154701  10.936   3.553   2.346
51559SOL    HW254702  10.959   3.502   2.499
51560SOL     OW54703   9.908   2.591   2.132
51560SOL    HW154704   9.932   2.660   2.064
51560SOL    HW254705   9.830   2.624   2.186
51561SOL     OW54706  10.591   2.207   2.806
51561SOL    HW154707  10.505   2.157   2.793
51561SOL    HW254708  10.653   2.153   2.862
51562SOL     OW54709  10.886   3.524   2.169
51562SOL    HW154710  10.975   3.570   2.172
51562SOL    HW254711  10.865   3.500   2.074
51563SOL     OW54712  10.117   2.467   3.327
51563SOL    HW154713  10.070   2.464   3.416
51563SOL    HW254714  10.066   2.412   3.261
51564SOL     OW54715  10.704   2.331   3.536
51564SOL    HW154716  10.684   2.374   3.624
51564SOL    HW254717  10.782   2.269   3.545
51565SOL     OW54718  10.283   2.752   3.434
51565SOL    HW154719  10.329   2.668   3.405
51565SOL    HW254720  10.227   2.786   3.359
51566SOL     OW54721  10.301   2.272   3.104
51566SOL    HW154722  10.224   2.306   3.158
51566SOL    HW254723  10.267   2.221   3.025
51567SOL     OW54724  10.351   2.563   2.291
51567SOL    HW154725  10.377   2.559   2.387
51567SOL    HW254726  10.266   2.512   2.277
51568SOL     OW54727   9.386   2.673   2.651
51568SOL    HW154728   9.485   2.661   2.660
51568SOL    HW254729   9.362   2.768   2.672
51569SOL     OW54730   9.440   3.683   3.433
51569SOL    HW154731   9.430   3.668   3.532
51569SOL    HW254732   9.354   3.719   3.397
51570SOL     OW54733  10.175   2.210   2.057
51570SOL    HW154734  10.234   2.273   2.008
51570SOL    HW254735  10.194   2.116   2.028
51571SOL     OW54736  11.029   2.447   3.693
51571SOL    HW154737  11.003   2.536   3.657
51571SOL    HW254738  11.027   2.379   3.620
51572SOL     OW54739  10.672   3.006   2.407
51572SOL    HW154740  10.755   2.977   2.359
51572SOL    HW254741  10.623   3.073   2.351
51573SOL     OW54742   9.860   2.058   2.747
51573SOL    HW154743   9.855   2.053   2.847
51573SOL    HW254744   9.862   2.154   2.718
51574SOL     OW54745  10.318   3.318   2.339
51574SOL    HW154746  10.272   3.390   2.287
51574SOL    HW254747  10.314   3.338   2.437
51575SOL     OW54748   9.661   3.663   2.715
51575SOL    HW154749   9.711   3.577   2.721
51575SOL    HW254750   9.726   3.740   2.712
51576SOL     OW54751  11.105   2.928   2.735
51576SOL    HW154752  11.043   2.913   2.659
51576SOL    HW254753  11.053   2.939   2.820
51577SOL     OW54754  10.537   3.412   3.368
51577SOL    HW154755  10.543   3.335   3.432
51577SOL    HW254756  10.485   3.386   3.288
51578SOL     OW54757   9.631   2.805   2.104
51578SOL    HW154758   9.713   2.844   2.062
51578SOL    HW254759   9.604   2.723   2.055
51579SOL     OW54760  10.768   2.597   2.590
51579SOL    HW154761  10.763   2.532   2.665
51579SOL    HW254762  10.848   2.656   2.603
51580SOL     OW54763   9.771   3.128   3.589
51580SOL    HW154764   9.721   3.129   3.503
51580SOL    HW254765   9.708   3.110   3.665
51581SOL     OW54766  10.421   3.638   2.099
51581SOL    HW154767  10.361   3.576   2.149
51581SOL    HW254768  10.452   3.594   2.014
51582SOL     OW54769   9.512   2.147   3.360
51582SOL    HW154770   9.432   2.207   3.347
51582SOL    HW254771   9.502   2.098   3.446
51583SOL     OW54772  10.942   3.239   1.943
51583SOL    HW154773  10.910   3.333   1.933
51583SOL    HW254774  10.866   3.176   1.931
51584SOL     OW54775   9.774   3.605   2.185
51584SOL    HW154776   9.807   3.644   2.271
51584SOL    HW254777   9.850   3.598   2.120
51585SOL     OW54778  10.710   1.969   2.288
51585SOL    HW154779  10.686   1.932   2.198
51585SOL    HW254780  10.809   1.985   2.292
51586SOL     OW54781   9.559   3.647   3.103
51586SOL    HW154782   9.616   3.582   3.153
51586SOL    HW254783   9.543   3.614   3.010
51587SOL     OW54784  10.250   3.560   2.766
51587SOL    HW154785  10.330   3.503   2.787
51587SOL    HW254786  10.201   3.520   2.689
51588SOL     OW54787   9.692   2.562   2.342
51588SOL    HW154788   9.737   2.472   2.339
51588SOL    HW254789   9.598   2.551   2.375
51589SOL     OW54790  10.857   2.084   3.591
51589SOL    HW154791  10.852   2.121   3.683
51589SOL    HW254792  10.785   2.015   3.579
51590SOL     OW54793   9.924   1.984   1.979
51590SOL    HW154794  10.022   1.962   1.986
51590SOL    HW254795   9.893   1.967   1.886
51591SOL     OW54796  10.091   2.126   3.611
51591SOL    HW154797  10.158   2.065   3.654
51591SOL    HW254798  10.018   2.145   3.676
51592SOL     OW54799  10.198   3.376   3.057
51592SOL    HW154800  10.175   3.351   2.963
51592SOL    HW254801  10.259   3.307   3.096
51593SOL     OW54802  10.661   2.452   3.295
51593SOL    HW154803  10.689   2.409   3.380
51593SOL    HW254804  10.686   2.548   3.296
51594SOL     OW54805  10.113   3.264   2.786
51594SOL    HW154806  10.203   3.278   2.744
51594SOL    HW254807  10.042   3.266   2.715
51595SOL     OW54808  10.232   2.365   2.761
51595SOL    HW154809  10.207   2.356   2.665
51595SOL    HW254810  10.280   2.283   2.792
51596SOL     OW54811   9.849   1.926   2.374
51596SOL    HW154812   9.768   1.927   2.432
51596SOL    HW254813   9.852   2.009   2.319
51597SOL     OW54814  10.744   3.050   1.903
51597SOL    HW154815  10.776   2.974   1.960
51597SOL    HW254816  10.652   3.077   1.933
51598SOL     OW54817   9.607   1.897   2.033
51598SOL    HW154818   9.656   1.981   2.012
51598SOL    HW254819   9.669   1.832   2.078
51599SOL     OW54820  10.245   2.098   2.342
51599SOL    HW154821  10.197   2.139   2.264
51599SOL    HW254822  10.344   2.096   2.323
51600SOL     OW54823  10.386   2.545   3.326
51600SOL    HW154824  10.306   2.484   3.329
51600SOL    HW254825  10.467   2.492   3.302
51601SOL     OW54826  10.537   3.432   2.655
51601SOL    HW154827  10.558   3.506   2.590
51601SOL    HW254828  10.605   3.432   2.728
51602SOL     OW54829   9.769   3.014   2.603
51602SOL    HW154830   9.698   2.987   2.668
51602SOL    HW254831   9.743   2.986   2.510
51603SOL     OW54832  10.581   3.659   2.453
51603SOL    HW154833  10.625   3.723   2.389
51603SOL    HW254834  10.531   3.711   2.523
51604SOL     OW54835  10.342   2.411   1.878
51604SOL    HW154836  10.301   2.493   1.839
51604SOL    HW254837  10.406   2.437   1.951
51605SOL     OW54838   9.388   2.418   3.248
51605SOL    HW154839   9.480   2.417   3.207
51605SOL    HW254840   9.382   2.492   3.315
51606SOL     OW54841   9.871   2.084   3.009
51606SOL    HW154842   9.909   2.000   3.046
51606SOL    HW254843   9.783   2.103   3.053
51607SOL     OW54844  10.176   2.316   2.504
51607SOL    HW154845  10.144   2.388   2.442
51607SOL    HW254846  10.200   2.235   2.451
51608SOL     OW54847  10.327   1.901   2.615
51608SOL    HW154848  10.255   1.906   2.546
51608SOL    HW254849  10.303   1.832   2.684
51609SOL     OW54850  10.739   3.035   2.729
51609SOL    HW154851  10.684   2.951   2.722
51609SOL    HW254852  10.765   3.064   2.637
51610SOL     OW54853  10.776   2.452   2.854
51610SOL    HW154854  10.746   2.357   2.861
51610SOL    HW254855  10.849   2.468   2.920
51611SOL     OW54856  11.167   2.695   2.239
51611SOL    HW154857  11.209   2.631   2.303
51611SOL    HW254858  11.129   2.644   2.161
51612SOL     OW54859   9.798   3.247   2.036
51612SOL    HW154860   9.711   3.232   2.083
51612SOL    HW254861   9.781   3.273   1.941
51613SOL     OW54862  10.974   3.142   2.519
51613SOL    HW154863  11.073   3.150   2.533
51613SOL    HW254864  10.929   3.226   2.550
51614SOL     OW54865  10.700   2.437   1.940
51614SOL    HW154866  10.646   2.416   2.021
51614SOL    HW254867  10.791   2.396   1.949
51615SOL     OW54868   9.837   2.118   2.190
51615SOL    HW154869   9.864   2.059   2.115
51615SOL    HW254870   9.837   2.213   2.159
51616SOL     OW54871  11.064   3.085   3.450
51616SOL    HW154872  11.155   3.046   3.437
51616SOL    HW254873  11.072   3.181   3.474
51617SOL     OW54874  10.374   3.209   3.202
51617SOL    HW154875  10.294   3.186   3.257
51617SOL    HW254876  10.457   3.183   3.251
51618SOL     OW54877  10.421   3.057   2.962
51618SOL    HW154878  10.381   3.101   3.043
51618SOL    HW254879  10.380   3.094   2.879
51619SOL     OW54880  10.948   2.961   2.941
51619SOL    HW154881  10.953   3.042   3.000
51619SOL    HW254882  10.862   2.963   2.890
51620SOL     OW54883  10.225   1.951   3.264
51620SOL    HW154884  10.250   1.931   3.169
51620SOL    HW254885  10.297   2.007   3.306
51621SOL     OW54886  10.290   2.978   3.581
51621SOL    HW154887  10.191   2.984   3.591
51621SOL    HW254888  10.313   2.898   3.525
51622SOL     OW54889  10.015   2.912   2.230
51622SOL    HW154890  10.001   2.919   2.329
51622SOL    HW254891  10.099   2.861   2.212
51623SOL     OW54892   9.720   2.675   3.113
51623SOL    HW154893   9.806   2.687   3.163
51623SOL    HW254894   9.678   2.588   3.140
51624SOL     OW54895  10.584   2.248   3.124
51624SOL    HW154896  10.605   2.322   3.188
51624SOL    HW254897  10.495   2.265   3.081
51625SOL     OW54898   9.374   3.426   3.193
51625SOL    HW154899   9.328   3.508   3.159
51625SOL    HW254900   9.472   3.445   3.202
51626SOL     OW54901   9.677   2.962   2.363
51626SOL    HW154902   9.670   3.045   2.307
51626SOL    HW254903   9.681   2.882   2.303
51627SOL     OW54904   9.876   2.399   2.727
51627SOL    HW154905   9.888   2.465   2.653
51627SOL    HW254906   9.922   2.433   2.810
51628SOL     OW54907  10.562   3.210   2.250
51628SOL    HW154908  10.612   3.287   2.290
51628SOL    HW254909  10.467   3.212   2.282
51629SOL     OW54910  10.582   3.307   3.004
51629SOL    HW154911  10.629   3.320   3.091
51629SOL    HW254912  10.516   3.233   3.013
51630SOL     OW54913  10.892   2.501   2.334
51630SOL    HW154914  10.861   2.562   2.407
51630SOL    HW254915  10.942   2.553   2.265
51631SOL     OW54916   9.664   3.372   3.191
51631SOL    HW154917   9.643   3.328   3.104
51631SOL    HW254918   9.761   3.398   3.194
51632SOL     OW54919   9.712   2.613   3.460
51632SOL    HW154920   9.780   2.668   3.413
51632SOL    HW254921   9.752   2.525   3.487
51633SOL     OW54922  10.897   2.641   3.532
51633SOL    HW154923  10.805   2.679   3.527
51633SOL    HW254924  10.957   2.688   3.467
51634SOL     OW54925  10.323   1.967   3.632
51634SOL    HW154926  10.329   2.052   3.580
51634SOL    HW254927  10.355   1.891   3.575
51635SOL     OW54928   9.814   1.912   3.602
51635SOL    HW154929   9.772   1.855   3.532
51635SOL    HW254930   9.748   1.981   3.634
51636SOL     OW54931   9.883   2.732   2.891
51636SOL    HW154932   9.927   2.821   2.882
51636SOL    HW254933   9.820   2.732   2.968
51637SOL     OW54934  10.670   2.724   2.907
51637SOL    HW154935  10.595   2.724   2.841
51637SOL    HW254936  10.707   2.632   2.916
51638SOL     OW54937  10.519   2.387   2.137
51638SOL    HW154938  10.532   2.303   2.191
51638SOL    HW254939  10.490   2.461   2.197
51639SOL     OW54940   9.617   2.075   3.093
51639SOL    HW154941   9.594   2.112   3.183
51639SOL    HW254942   9.587   1.980   3.087
51640SOL     OW54943   9.347   3.172   3.144
51640SOL    HW154944   9.400   3.123   3.212
51640SOL    HW254945   9.369   3.270   3.149
51641SOL     OW54946  10.042   2.496   2.926
51641SOL    HW154947  10.101   2.470   2.850
51641SOL    HW254948  10.014   2.592   2.915
51642SOL     OW54949  11.038   2.797   3.716
51642SOL    HW154950  10.992   2.790   3.627
51642SOL    HW254951  10.976   2.841   3.782
51643SOL     OW54952   9.617   1.925   2.480
51643SOL    HW154953   9.606   2.019   2.513
51643SOL    HW254954   9.612   1.862   2.557
51644SOL     OW54955  10.932   2.229   2.236
51644SOL    HW154956  10.934   2.153   2.300
51644SOL    HW254957  10.884   2.306   2.276
51645SOL     OW54958  10.333   2.628   2.828
51645SOL    HW154959  10.348   2.649   2.924
51645SOL    HW254960  10.303   2.533   2.819
51646SOL     OW54961  10.290   3.435   3.562
51646SOL    HW154962  10.270   3.479   3.474
51646SOL    HW254963  10.329   3.344   3.546
51647SOL     OW54964  11.169   3.380   3.467
51647SOL    HW154965  11.183   3.407   3.372
51647SOL    HW254966  11.252   3.402   3.520
51648SOL     OW54967   9.660   2.760   3.666
51648SOL    HW154968   9.736   2.804   3.714
51648SOL    HW254969   9.695   2.713   3.584
51649SOL     OW54970  10.850   2.136   1.987
51649SOL    HW154971  10.789   2.061   2.010
51649SOL    HW254972  10.872   2.188   2.070
51650SOL     OW54973  10.613   2.700   1.904
51650SOL    HW154974  10.647   2.607   1.919
51650SOL    HW254975  10.631   2.727   1.809
51651SOL     OW54976  10.378   3.195   2.711
51651SOL    HW154977  10.385   3.111   2.656
51651SOL    HW254978  10.440   3.264   2.675
51652SOL     OW54979   9.629   2.672   2.811
51652SOL    HW154980   9.722   2.708   2.816
51652SOL    HW254981   9.623   2.587   2.863
51653SOL     OW54982   9.649   2.371   2.868
51653SOL    HW154983   9.597   2.288   2.851
51653SOL    HW254984   9.726   2.376   2.804
51654SOL     OW54985  10.448   2.242   3.540
51654SOL    HW154986  10.403   2.305   3.604
51654SOL    HW254987  10.541   2.273   3.523
51655SOL     OW54988  10.470   2.069   3.339
51655SOL    HW154989  10.470   2.133   3.416
51655SOL    HW254990  10.498   2.117   3.256
51656SOL     OW54991   9.318   3.188   2.062
51656SOL    HW154992   9.225   3.209   2.031
51656SOL    HW254993   9.328   3.089   2.075
51657SOL     OW54994   9.398   3.663   2.789
51657SOL    HW154995   9.356   3.577   2.762
51657SOL    HW254996   9.492   3.666   2.755
51658SOL     OW54997   9.814   3.430   2.772
51658SOL    HW154998   9.880   3.504   2.781
51658SOL    HW254999   9.858   3.351   2.730
51659SOL     OW55000  10.312   2.658   3.100
51659SOL    HW155001  10.353   2.626   3.186
51659SOL    HW255002  10.216   2.631   3.097
51660SOL     OW55003   9.350   2.406   2.976
51660SOL    HW155004   9.435   2.373   2.935
51660SOL    HW255005   9.363   2.421   3.074
51661SOL     OW55006   9.499   2.382   3.584
51661SOL    HW155007   9.558   2.342   3.514
51661SOL    HW255008   9.441   2.453   3.543
51662SOL     OW55009  10.679   2.812   3.522
51662SOL    HW155010  10.718   2.901   3.542
51662SOL    HW255011  10.689   2.792   3.425
51663SOL     OW55012  10.125   2.434   2.187
51663SOL    HW155013  10.132   2.345   2.141
51663SOL    HW255014  10.031   2.468   2.179
51664SOL     OW55015  10.967   2.466   3.068
51664SOL    HW155016  10.929   2.397   3.130
51664SOL    HW255017  11.049   2.430   3.024
51665SOL     OW55018   9.562   3.426   3.606
51665SOL    HW155019   9.532   3.483   3.682
51665SOL    HW255020   9.555   3.329   3.632
51666SOL     OW55021   9.981   2.326   3.131
51666SOL    HW155022   9.947   2.237   3.101
51666SOL    HW255023  10.007   2.380   3.051
51667SOL     OW55024  10.240   3.540   3.327
51667SOL    HW155025  10.216   3.522   3.232
51667SOL    HW255026  10.270   3.634   3.337
51668SOL     OW55027   9.783   2.362   2.053
51668SOL    HW155028   9.844   2.442   2.057
51668SOL    HW255029   9.688   2.393   2.060
51669SOL     OW55030   9.469   2.999   3.328
51669SOL    HW155031   9.491   2.938   3.404
51669SOL    HW255032   9.479   2.950   3.242
51670SOL     OW55033  10.657   2.921   3.096
51670SOL    HW155034  10.681   2.858   3.022
51670SOL    HW255035  10.567   2.961   3.078
51671SOL     OW55036  10.612   2.717   2.171
51671SOL    HW155037  10.526   2.686   2.213
51671SOL    HW255038  10.608   2.703   2.072
51672SOL     OW55039  11.069   3.609   3.016
51672SOL    HW155040  11.130   3.639   2.943
51672SOL    HW255041  11.031   3.520   2.994
51673SOL     OW55042  10.562   3.593   2.990
51673SOL    HW155043  10.646   3.598   2.936
51673SOL    HW255044  10.539   3.497   3.008
51674SOL     OW55045   9.393   3.120   2.884
51674SOL    HW155046   9.388   3.119   2.984
51674SOL    HW255047   9.310   3.079   2.846
51675SOL     OW55048   9.998   3.524   3.578
51675SOL    HW155049   9.942   3.605   3.587
51675SOL    HW255050  10.050   3.528   3.492
51676SOL     OW55051  11.036   1.997   2.385
51676SOL    HW155052  11.109   1.980   2.318
51676SOL    HW255053  11.005   1.910   2.423
51677SOL     OW55054  10.698   3.435   2.339
51677SOL    HW155055  10.765   3.447   2.265
51677SOL    HW255056  10.658   3.524   2.362
51678SOL     OW55057   9.440   3.656   3.713
51678SOL    HW155058   9.399   3.582   3.766
51678SOL    HW255059   9.504   3.707   3.771
51679SOL     OW55060  10.590   2.789   2.534
51679SOL    HW155061  10.650   2.708   2.536
51679SOL    HW255062  10.630   2.858   2.474
51680SOL     OW55063  10.140   3.135   3.284
51680SOL    HW155064  10.135   3.168   3.379
51680SOL    HW255065  10.054   3.154   3.238
51681SOL     OW55066   9.982   3.478   2.016
51681SOL    HW155067   9.991   3.488   1.917
51681SOL    HW255068   9.942   3.389   2.037
51682SOL     OW55069  10.960   3.582   3.256
51682SOL    HW155070  11.013   3.592   3.172
51682SOL    HW255071  10.933   3.672   3.290
51683SOL     OW55072  11.151   2.037   2.825
51683SOL    HW155073  11.190   1.952   2.789
51683SOL    HW255074  11.053   2.039   2.806
51684SOL     OW55075   9.573   2.188   2.582
51684SOL    HW155076   9.494   2.239   2.548
51684SOL    HW255077   9.564   2.173   2.680
51685SOL     OW55078  10.504   3.474   1.893
51685SOL    HW155079  10.510   3.381   1.930
51685SOL    HW255080  10.445   3.474   1.813
51686SOL     OW55081  10.132   2.864   3.234
51686SOL    HW155082  10.172   2.863   3.142
51686SOL    HW255083  10.142   2.956   3.274
51687SOL     OW55084  10.226   2.772   2.153
51687SOL    HW155085  10.289   2.810   2.085
51687SOL    HW255086  10.266   2.689   2.192
51688SOL     OW55087  10.814   3.469   1.906
51688SOL    HW155088  10.722   3.506   1.913
51688SOL    HW255089  10.852   3.489   1.816
51689SOL     OW55090   9.682   3.150   3.352
51689SOL    HW155091   9.669   3.243   3.318
51689SOL    HW255092   9.598   3.098   3.339
51690SOL     OW55093  10.924   3.154   3.151
51690SOL    HW155094  10.984   3.157   3.231
51690SOL    HW255095  10.849   3.218   3.164
51691SOL     OW55096  10.349   2.960   2.558
51691SOL    HW155097  10.279   2.913   2.612
51691SOL    HW255098  10.408   2.892   2.515
51692SOL     OW55099  10.324   2.098   2.833
51692SOL    HW155100  10.316   2.062   2.740
51692SOL    HW255101  10.322   2.022   2.898
51693SOL     OW55102   9.900   3.349   2.353
51693SOL    HW155103   9.942   3.291   2.283
51693SOL    HW255104   9.856   3.428   2.309
51694SOL     OW55105  11.019   2.247   3.243
51694SOL    HW155106  11.092   2.316   3.247
51694SOL    HW255107  11.047   2.172   3.184
51695SOL     OW55108   9.565   3.210   2.152
51695SOL    HW155109   9.469   3.211   2.125
51695SOL    HW255110   9.577   3.263   2.236
51696SOL     OW55111   9.415   2.875   3.588
51696SOL    HW155112   9.338   2.842   3.642
51696SOL    HW255113   9.500   2.845   3.630
51697SOL     OW55114   9.982   2.065   3.351
51697SOL    HW155115  10.072   2.049   3.311
51697SOL    HW255116   9.990   2.070   3.450
51698SOL     OW55117   9.385   2.207   1.895
51698SOL    HW155118   9.293   2.179   1.866
51698SOL    HW255119   9.416   2.284   1.839
51699SOL     OW55120  10.750   2.718   3.260
51699SOL    HW155121  10.693   2.770   3.197
51699SOL    HW255122  10.846   2.730   3.236
51700SOL     OW55123   9.382   2.028   2.180
51700SOL    HW155124   9.365   2.111   2.126
51700SOL    HW255125   9.472   1.991   2.158
51701SOL     OW55126  10.493   3.197   1.981
51701SOL    HW155127  10.394   3.186   1.983
51701SOL    HW255128  10.527   3.212   2.074
51702SOL     OW55129   9.923   2.704   3.293
51702SOL    HW155130   9.979   2.785   3.276
51702SOL    HW255131   9.982   2.624   3.296
51703SOL     OW55132  10.803   3.629   2.821
51703SOL    HW155133  10.836   3.693   2.752
51703SOL    HW255134  10.869   3.623   2.896
51704SOL     OW55135  10.026   2.427   3.570
51704SOL    HW155136  10.045   2.492   3.644
51704SOL    HW255137  10.086   2.347   3.579
51705SOL     OW55138  10.760   3.082   3.495
51705SOL    HW155139  10.751   3.072   3.594
51705SOL    HW255140  10.856   3.075   3.469
51706SOL     OW55141   9.700   3.603   3.422
51706SOL    HW155142   9.609   3.644   3.420
51706SOL    HW255143   9.693   3.509   3.454
51707SOL     OW55144  10.984   2.745   3.116
51707SOL    HW155145  10.957   2.656   3.079
51707SOL    HW255146  10.985   2.813   3.043
51708SOL     OW55147  10.535   2.187   2.311
51708SOL    HW155148  10.600   2.113   2.300
51708SOL    HW255149  10.555   2.237   2.395
51709SOL     OW55150   9.904   2.607   2.514
51709SOL    HW155151   9.954   2.692   2.495
51709SOL    HW255152   9.816   2.609   2.466
51710SOL     OW55153  11.087   2.204   3.504
51710SOL    HW155154  11.070   2.235   3.410
51710SOL    HW255155  11.003   2.167   3.542
51711SOL     OW55156  11.040   2.796   3.379
51711SOL    HW155157  11.078   2.887   3.394
51711SOL    HW255158  11.032   2.779   3.280
51712SOL     OW55159  10.169   3.236   1.878
51712SOL    HW155160  10.123   3.251   1.966
51712SOL    HW255161  10.213   3.321   1.848
51713SOL     OW55162   9.971   3.652   2.815
51713SOL    HW155163   9.925   3.740   2.802
51713SOL    HW255164  10.070   3.664   2.808
51714SOL     OW55165  10.169   2.818   2.723
51714SOL    HW155166  10.223   2.749   2.771
51714SOL    HW255167  10.137   2.887   2.789
51715SOL     OW55168  10.393   2.846   1.949
51715SOL    HW155169  10.370   2.899   1.867
51715SOL    HW255170  10.474   2.790   1.930
51716SOL     OW55171  11.171   3.431   2.713
51716SOL    HW155172  11.100   3.419   2.643
51716SOL    HW255173  11.172   3.352   2.773
51717SOL     OW55174   9.531   3.176   3.706
51717SOL    HW155175   9.466   3.103   3.685
51717SOL    HW255176   9.535   3.190   3.804
51718SOL     OW55177   9.389   3.102   2.515
51718SOL    HW155178   9.388   3.055   2.603
51718SOL    HW255179   9.471   3.074   2.464
51719SOL     OW55180   9.982   3.253   3.486
51719SOL    HW155181   9.904   3.203   3.524
51719SOL    HW255182   9.979   3.348   3.517
51720SOL     OW55183  11.134   2.054   3.089
51720SOL    HW155184  11.130   1.964   3.133
51720SOL    HW255185  11.137   2.043   2.990
51721SOL     OW55186   9.738   2.286   2.382
51721SOL    HW155187   9.768   2.214   2.320
51721SOL    HW255188   9.699   2.246   2.465
51722SOL     OW55189  11.015   3.349   2.966
51722SOL    HW155190  10.922   3.324   2.939
51722SOL    HW255191  11.041   3.299   3.048
51723SOL     OW55192   9.627   2.409   3.142
51723SOL    HW155193   9.665   2.350   3.214
51723SOL    HW255194   9.667   2.383   3.054
51724SOL     OW55195  10.122   3.448   2.549
51724SOL    HW155196  10.154   3.458   2.455
51724SOL    HW255197  10.043   3.386   2.551
51725SOL     OW55198  10.734   2.076   2.974
51725SOL    HW155199  10.786   2.011   3.029
51725SOL    HW255200  10.685   2.139   3.035
51726SOL     OW55201  10.311   1.896   3.016
51726SOL    HW155202  10.248   1.824   2.985
51726SOL    HW255203  10.404   1.860   3.016
51727SOL     OW55204  10.080   3.192   2.163
51727SOL    HW155205  10.034   3.105   2.180
51727SOL    HW255206  10.171   3.189   2.204
51728SOL     OW55207   9.928   3.429   3.146
51728SOL    HW155208   9.923   3.511   3.203
51728SOL    HW255209  10.017   3.426   3.101
51729SOL     OW55210  10.662   1.914   2.030
51729SOL    HW155211  10.697   1.873   1.946
51729SOL    HW255212  10.572   1.876   2.050
51730SOL     OW55213  10.610   2.315   2.553
51730SOL    HW155214  10.551   2.395   2.557
51730SOL    HW255215  10.625   2.280   2.646
51731SOL     OW55216  10.903   2.083   2.744
51731SOL    HW155217  10.819   2.082   2.798
51731SOL    HW255218  10.905   2.166   2.688
51732SOL     OW55219   9.349   2.939   2.162
51732SOL    HW155220   9.448   2.928   2.153
51732SOL    HW255221   9.309   2.853   2.194
51733SOL     OW55222  10.185   3.508   2.199
51733SOL    HW155223  10.108   3.473   2.145
51733SOL    HW255224  10.153   3.579   2.261
51734SOL     OW55225   9.540   2.490   3.837
51734SOL    HW155226   9.447   2.488   3.874
51734SOL    HW255227   9.541   2.451   3.745
51735SOL     OW55228   9.535   2.137   4.720
51735SOL    HW155229   9.570   2.120   4.812
51735SOL    HW255230   9.447   2.092   4.708
51736SOL     OW55231   9.329   2.230   4.371
51736SOL    HW155232   9.247   2.273   4.410
51736SOL    HW255233   9.301   2.157   4.308
51737SOL     OW55234   9.879   3.137   4.889
51737SOL    HW155235   9.786   3.130   4.852
51737SOL    HW255236   9.890   3.226   4.933
51738SOL     OW55237  10.865   3.373   4.427
51738SOL    HW155238  10.808   3.357   4.508
51738SOL    HW255239  10.806   3.383   4.347
51739SOL     OW55240  10.445   2.565   4.441
51739SOL    HW155241  10.502   2.643   4.416
51739SOL    HW255242  10.385   2.591   4.517
51740SOL     OW55243  11.065   2.469   3.955
51740SOL    HW155244  11.053   2.456   3.856
51740SOL    HW255245  11.035   2.388   4.004
51741SOL     OW55246  10.078   3.006   4.747
51741SOL    HW155247  10.000   3.023   4.807
51741SOL    HW255248  10.112   3.093   4.711
51742SOL     OW55249  10.160   2.660   5.547
51742SOL    HW155250  10.156   2.736   5.612
51742SOL    HW255251  10.182   2.696   5.456
51743SOL     OW55252   9.995   2.874   4.389
51743SOL    HW155253  10.064   2.858   4.459
51743SOL    HW255254   9.922   2.931   4.427
51744SOL     OW55255   9.996   3.023   5.527
51744SOL    HW155256  10.056   3.102   5.541
51744SOL    HW255257   9.910   3.054   5.486
51745SOL     OW55258   9.645   3.297   4.785
51745SOL    HW155259   9.567   3.266   4.732
51745SOL    HW255260   9.703   3.355   4.728
51746SOL     OW55261  10.770   3.367   5.063
51746SOL    HW155262  10.794   3.461   5.089
51746SOL    HW255263  10.754   3.313   5.145
51747SOL     OW55264   9.748   2.254   5.223
51747SOL    HW155265   9.830   2.198   5.232
51747SOL    HW255266   9.667   2.196   5.227
51748SOL     OW55267  10.913   2.309   4.461
51748SOL    HW155268  10.839   2.355   4.411
51748SOL    HW255269  10.964   2.377   4.514
51749SOL     OW55270   9.541   3.575   4.207
51749SOL    HW155271   9.575   3.652   4.261
51749SOL    HW255272   9.585   3.575   4.117
51750SOL     OW55273  10.437   3.203   5.414
51750SOL    HW155274  10.484   3.203   5.502
51750SOL    HW255275  10.389   3.116   5.403
51751SOL     OW55276   9.540   3.296   4.262
51751SOL    HW155277   9.514   3.392   4.262
51751SOL    HW255278   9.469   3.242   4.307
51752SOL     OW55279   9.550   2.953   4.610
51752SOL    HW155280   9.564   2.869   4.662
51752SOL    HW255281   9.495   3.017   4.665
51753SOL     OW55282   9.930   3.648   5.163
51753SOL    HW155283   9.838   3.631   5.198
51753SOL    HW255284   9.958   3.740   5.189
51754SOL     OW55285   9.916   2.826   3.847
51754SOL    HW155286   9.923   2.910   3.793
51754SOL    HW255287   9.962   2.839   3.935
51755SOL     OW55288  10.904   1.976   5.204
51755SOL    HW155289  10.886   2.043   5.132
51755SOL    HW255290  10.901   2.022   5.293
51756SOL     OW55291   9.432   2.505   4.287
51756SOL    HW155292   9.387   2.417   4.304
51756SOL    HW255293   9.431   2.559   4.371
51757SOL     OW55294  11.152   3.629   4.083
51757SOL    HW155295  11.206   3.600   4.163
51757SOL    HW255296  11.182   3.719   4.054
51758SOL     OW55297   9.337   3.458   3.841
51758SOL    HW155298   9.318   3.362   3.862
51758SOL    HW255299   9.304   3.516   3.916
51759SOL     OW55300  10.999   2.784   4.336
51759SOL    HW155301  11.094   2.755   4.344
51759SOL    HW255302  10.991   2.849   4.261
51760SOL     OW55303  10.951   2.970   4.156
51760SOL    HW155304  11.037   2.972   4.104
51760SOL    HW255305  10.965   3.017   4.244
51761SOL     OW55306   9.423   2.599   5.321
51761SOL    HW155307   9.511   2.586   5.366
51761SOL    HW255308   9.410   2.696   5.299
51762SOL     OW55309   9.923   3.227   4.450
51762SOL    HW155310   9.874   3.140   4.459
51762SOL    HW255311   9.900   3.270   4.363
51763SOL     OW55312  10.603   3.090   5.147
51763SOL    HW155313  10.640   3.017   5.089
51763SOL    HW255314  10.655   3.095   5.232
51764SOL     OW55315  10.119   1.866   4.226
51764SOL    HW155316  10.159   1.957   4.217
51764SOL    HW255317  10.019   1.874   4.232
51765SOL     OW55318   9.507   2.838   4.988
51765SOL    HW155319   9.596   2.793   4.974
51765SOL    HW255320   9.434   2.773   4.969
51766SOL     OW55321  10.835   2.861   3.914
51766SOL    HW155322  10.772   2.785   3.927
51766SOL    HW255323  10.883   2.879   4.000
51767SOL     OW55324  10.497   3.654   5.340
51767SOL    HW155325  10.521   3.714   5.264
51767SOL    HW255326  10.504   3.559   5.310
51768SOL     OW55327   9.627   2.113   5.525
51768SOL    HW155328   9.698   2.184   5.531
51768SOL    HW255329   9.539   2.152   5.553
51769SOL     OW55330  10.776   3.279   4.677
51769SOL    HW155331  10.717   3.285   4.757
51769SOL    HW255332  10.761   3.191   4.631
51770SOL     OW55333  10.977   3.576   4.296
51770SOL    HW155334  10.936   3.553   4.208
51770SOL    HW255335  10.959   3.502   4.361
51771SOL     OW55336   9.908   2.591   3.994
51771SOL    HW155337   9.932   2.660   3.926
51771SOL    HW255338   9.830   2.624   4.048
51772SOL     OW55339  10.591   2.207   4.668
51772SOL    HW155340  10.505   2.157   4.655
51772SOL    HW255341  10.653   2.153   4.724
51773SOL     OW55342  10.886   3.524   4.031
51773SOL    HW155343  10.975   3.570   4.034
51773SOL    HW255344  10.865   3.500   3.936
51774SOL     OW55345  10.117   2.467   5.189
51774SOL    HW155346  10.070   2.464   5.278
51774SOL    HW255347  10.066   2.412   5.123
51775SOL     OW55348  10.704   2.331   5.398
51775SOL    HW155349  10.684   2.374   5.486
51775SOL    HW255350  10.782   2.269   5.407
51776SOL     OW55351  10.283   2.752   5.296
51776SOL    HW155352  10.329   2.668   5.267
51776SOL    HW255353  10.227   2.786   5.221
51777SOL     OW55354  10.301   2.272   4.966
51777SOL    HW155355  10.224   2.306   5.020
51777SOL    HW255356  10.267   2.221   4.887
51778SOL     OW55357  10.351   2.563   4.153
51778SOL    HW155358  10.377   2.559   4.249
51778SOL    HW255359  10.266   2.512   4.139
51779SOL     OW55360   9.386   2.673   4.513
51779SOL    HW155361   9.485   2.661   4.522
51779SOL    HW255362   9.362   2.768   4.534
51780SOL     OW55363   9.440   3.683   5.295
51780SOL    HW155364   9.430   3.668   5.394
51780SOL    HW255365   9.354   3.719   5.259
51781SOL     OW55366  10.175   2.210   3.919
51781SOL    HW155367  10.234   2.273   3.870
51781SOL    HW255368  10.194   2.116   3.890
51782SOL     OW55369  11.029   2.447   5.555
51782SOL    HW155370  11.003   2.536   5.519
51782SOL    HW255371  11.027   2.379   5.482
51783SOL     OW55372  10.672   3.006   4.269
51783SOL    HW155373  10.755   2.977   4.221
51783SOL    HW255374  10.623   3.073   4.213
51784SOL     OW55375   9.860   2.058   4.609
51784SOL    HW155376   9.855   2.053   4.709
51784SOL    HW255377   9.862   2.154   4.580
51785SOL     OW55378  10.318   3.318   4.201
51785SOL    HW155379  10.272   3.390   4.149
51785SOL    HW255380  10.314   3.338   4.299
51786SOL     OW55381   9.661   3.663   4.577
51786SOL    HW155382   9.711   3.577   4.583
51786SOL    HW255383   9.726   3.740   4.574
51787SOL     OW55384  11.105   2.928   4.597
51787SOL    HW155385  11.043   2.913   4.521
51787SOL    HW255386  11.053   2.939   4.682
51788SOL     OW55387  10.537   3.412   5.230
51788SOL    HW155388  10.543   3.335   5.294
51788SOL    HW255389  10.485   3.386   5.150
51789SOL     OW55390   9.631   2.805   3.966
51789SOL    HW155391   9.713   2.844   3.924
51789SOL    HW255392   9.604   2.723   3.917
51790SOL     OW55393  10.768   2.597   4.452
51790SOL    HW155394  10.763   2.532   4.527
51790SOL    HW255395  10.848   2.656   4.465
51791SOL     OW55396   9.771   3.128   5.451
51791SOL    HW155397   9.721   3.129   5.365
51791SOL    HW255398   9.708   3.110   5.527
51792SOL     OW55399  10.421   3.638   3.961
51792SOL    HW155400  10.361   3.576   4.011
51792SOL    HW255401  10.452   3.594   3.876
51793SOL     OW55402   9.512   2.147   5.222
51793SOL    HW155403   9.432   2.207   5.209
51793SOL    HW255404   9.502   2.098   5.308
51794SOL     OW55405  10.942   3.239   3.805
51794SOL    HW155406  10.910   3.333   3.795
51794SOL    HW255407  10.866   3.176   3.793
51795SOL     OW55408   9.774   3.605   4.047
51795SOL    HW155409   9.807   3.644   4.133
51795SOL    HW255410   9.850   3.598   3.982
51796SOL     OW55411  10.710   1.969   4.150
51796SOL    HW155412  10.686   1.932   4.060
51796SOL    HW255413  10.809   1.985   4.154
51797SOL     OW55414   9.559   3.647   4.965
51797SOL    HW155415   9.616   3.582   5.015
51797SOL    HW255416   9.543   3.614   4.872
51798SOL     OW55417  10.250   3.560   4.628
51798SOL    HW155418  10.330   3.503   4.649
51798SOL    HW255419  10.201   3.520   4.551
51799SOL     OW55420   9.692   2.562   4.204
51799SOL    HW155421   9.737   2.472   4.201
51799SOL    HW255422   9.598   2.551   4.237
51800SOL     OW55423  10.857   2.084   5.453
51800SOL    HW155424  10.852   2.121   5.545
51800SOL    HW255425  10.785   2.015   5.441
51801SOL     OW55426   9.924   1.984   3.841
51801SOL    HW155427  10.022   1.962   3.848
51801SOL    HW255428   9.893   1.967   3.748
51802SOL     OW55429  10.091   2.126   5.473
51802SOL    HW155430  10.158   2.065   5.516
51802SOL    HW255431  10.018   2.145   5.538
51803SOL     OW55432  10.198   3.376   4.919
51803SOL    HW155433  10.175   3.351   4.825
51803SOL    HW255434  10.259   3.307   4.958
51804SOL     OW55435  10.661   2.452   5.157
51804SOL    HW155436  10.689   2.409   5.242
51804SOL    HW255437  10.686   2.548   5.158
51805SOL     OW55438  10.113   3.264   4.648
51805SOL    HW155439  10.203   3.278   4.606
51805SOL    HW255440  10.042   3.266   4.577
51806SOL     OW55441  10.232   2.365   4.623
51806SOL    HW155442  10.207   2.356   4.527
51806SOL    HW255443  10.280   2.283   4.654
51807SOL     OW55444   9.849   1.926   4.236
51807SOL    HW155445   9.768   1.927   4.294
51807SOL    HW255446   9.852   2.009   4.181
51808SOL     OW55447  10.744   3.050   3.765
51808SOL    HW155448  10.776   2.974   3.822
51808SOL    HW255449  10.652   3.077   3.795
51809SOL     OW55450   9.607   1.897   3.895
51809SOL    HW155451   9.656   1.981   3.874
51809SOL    HW255452   9.669   1.832   3.940
51810SOL     OW55453  10.245   2.098   4.204
51810SOL    HW155454  10.197   2.139   4.126
51810SOL    HW255455  10.344   2.096   4.185
51811SOL     OW55456  10.386   2.545   5.188
51811SOL    HW155457  10.306   2.484   5.191
51811SOL    HW255458  10.467   2.492   5.164
51812SOL     OW55459  10.537   3.432   4.517
51812SOL    HW155460  10.558   3.506   4.452
51812SOL    HW255461  10.605   3.432   4.590
51813SOL     OW55462   9.769   3.014   4.465
51813SOL    HW155463   9.698   2.987   4.530
51813SOL    HW255464   9.743   2.986   4.372
51814SOL     OW55465  10.581   3.659   4.315
51814SOL    HW155466  10.625   3.723   4.251
51814SOL    HW255467  10.531   3.711   4.385
51815SOL     OW55468  10.342   2.411   3.740
51815SOL    HW155469  10.301   2.493   3.701
51815SOL    HW255470  10.406   2.437   3.813
51816SOL     OW55471   9.388   2.418   5.110
51816SOL    HW155472   9.480   2.417   5.069
51816SOL    HW255473   9.382   2.492   5.177
51817SOL     OW55474   9.871   2.084   4.871
51817SOL    HW155475   9.909   2.000   4.908
51817SOL    HW255476   9.783   2.103   4.915
51818SOL     OW55477  10.176   2.316   4.366
51818SOL    HW155478  10.144   2.388   4.304
51818SOL    HW255479  10.200   2.235   4.313
51819SOL     OW55480  10.327   1.901   4.477
51819SOL    HW155481  10.255   1.906   4.408
51819SOL    HW255482  10.303   1.832   4.546
51820SOL     OW55483  10.739   3.035   4.591
51820SOL    HW155484  10.684   2.951   4.584
51820SOL    HW255485  10.765   3.064   4.499
51821SOL     OW55486  10.776   2.452   4.716
51821SOL    HW155487  10.746   2.357   4.723
51821SOL    HW255488  10.849   2.468   4.782
51822SOL     OW55489  11.167   2.695   4.101
51822SOL    HW155490  11.209   2.631   4.165
51822SOL    HW255491  11.129   2.644   4.023
51823SOL     OW55492   9.798   3.247   3.898
51823SOL    HW155493   9.711   3.232   3.945
51823SOL    HW255494   9.781   3.273   3.803
51824SOL     OW55495  10.974   3.142   4.381
51824SOL    HW155496  11.073   3.150   4.395
51824SOL    HW255497  10.929   3.226   4.412
51825SOL     OW55498  10.700   2.437   3.802
51825SOL    HW155499  10.646   2.416   3.883
51825SOL    HW255500  10.791   2.396   3.811
51826SOL     OW55501   9.837   2.118   4.052
51826SOL    HW155502   9.864   2.059   3.977
51826SOL    HW255503   9.837   2.213   4.021
51827SOL     OW55504  11.064   3.085   5.312
51827SOL    HW155505  11.155   3.046   5.299
51827SOL    HW255506  11.072   3.181   5.336
51828SOL     OW55507  10.374   3.209   5.064
51828SOL    HW155508  10.294   3.186   5.119
51828SOL    HW255509  10.457   3.183   5.113
51829SOL     OW55510  10.902   3.491   5.349
51829SOL    HW155511  10.929   3.525   5.259
51829SOL    HW255512  10.981   3.453   5.395
51830SOL     OW55513  10.421   3.057   4.824
51830SOL    HW155514  10.381   3.101   4.905
51830SOL    HW255515  10.380   3.094   4.741
51831SOL     OW55516  10.948   2.961   4.803
51831SOL    HW155517  10.953   3.042   4.862
51831SOL    HW255518  10.862   2.963   4.752
51832SOL     OW55519  10.225   1.951   5.126
51832SOL    HW155520  10.250   1.931   5.031
51832SOL    HW255521  10.297   2.007   5.168
51833SOL     OW55522  10.290   2.978   5.443
51833SOL    HW155523  10.191   2.984   5.453
51833SOL    HW255524  10.313   2.898   5.387
51834SOL     OW55525  10.015   2.912   4.092
51834SOL    HW155526  10.001   2.919   4.191
51834SOL    HW255527  10.099   2.861   4.074
51835SOL     OW55528   9.720   2.675   4.975
51835SOL    HW155529   9.806   2.687   5.025
51835SOL    HW255530   9.678   2.588   5.002
51836SOL     OW55531  10.584   2.248   4.986
51836SOL    HW155532  10.605   2.322   5.050
51836SOL    HW255533  10.495   2.265   4.943
51837SOL     OW55534   9.374   3.426   5.055
51837SOL    HW155535   9.328   3.508   5.021
51837SOL    HW255536   9.472   3.445   5.064
51838SOL     OW55537   9.677   2.962   4.225
51838SOL    HW155538   9.670   3.045   4.169
51838SOL    HW255539   9.681   2.882   4.165
51839SOL     OW55540   9.876   2.399   4.589
51839SOL    HW155541   9.888   2.465   4.515
51839SOL    HW255542   9.922   2.433   4.672
51840SOL     OW55543  10.562   3.210   4.112
51840SOL    HW155544  10.612   3.287   4.152
51840SOL    HW255545  10.467   3.212   4.144
51841SOL     OW55546  10.582   3.307   4.866
51841SOL    HW155547  10.629   3.320   4.953
51841SOL    HW255548  10.516   3.233   4.875
51842SOL     OW55549  10.892   2.501   4.196
51842SOL    HW155550  10.861   2.562   4.269
51842SOL    HW255551  10.942   2.553   4.127
51843SOL     OW55552   9.664   3.372   5.053
51843SOL    HW155553   9.643   3.328   4.966
51843SOL    HW255554   9.761   3.398   5.056
51844SOL     OW55555   9.712   2.613   5.322
51844SOL    HW155556   9.780   2.668   5.275
51844SOL    HW255557   9.752   2.525   5.349
51845SOL     OW55558  10.897   2.641   5.394
51845SOL    HW155559  10.805   2.679   5.389
51845SOL    HW255560  10.957   2.688   5.329
51846SOL     OW55561  10.323   1.967   5.494
51846SOL    HW155562  10.329   2.052   5.442
51846SOL    HW255563  10.355   1.891   5.437
51847SOL     OW55564   9.814   1.912   5.464
51847SOL    HW155565   9.772   1.855   5.394
51847SOL    HW255566   9.748   1.981   5.496
51848SOL     OW55567   9.883   2.732   4.753
51848SOL    HW155568   9.927   2.821   4.744
51848SOL    HW255569   9.820   2.732   4.830
51849SOL     OW55570  10.670   2.724   4.769
51849SOL    HW155571  10.595   2.724   4.703
51849SOL    HW255572  10.707   2.632   4.778
51850SOL     OW55573  10.519   2.387   3.999
51850SOL    HW155574  10.532   2.303   4.053
51850SOL    HW255575  10.490   2.461   4.059
51851SOL     OW55576   9.617   2.075   4.955
51851SOL    HW155577   9.594   2.112   5.045
51851SOL    HW255578   9.587   1.980   4.949
51852SOL     OW55579   9.347   3.172   5.006
51852SOL    HW155580   9.400   3.123   5.074
51852SOL    HW255581   9.369   3.270   5.011
51853SOL     OW55582  10.042   2.496   4.788
51853SOL    HW155583  10.101   2.470   4.712
51853SOL    HW255584  10.014   2.592   4.777
51854SOL     OW55585  11.038   2.797   5.578
51854SOL    HW155586  10.992   2.790   5.489
51854SOL    HW255587  10.976   2.841   5.644
51855SOL     OW55588   9.617   1.925   4.342
51855SOL    HW155589   9.606   2.019   4.375
51855SOL    HW255590   9.612   1.862   4.419
51856SOL     OW55591  10.932   2.229   4.098
51856SOL    HW155592  10.934   2.153   4.162
51856SOL    HW255593  10.884   2.306   4.138
51857SOL     OW55594  10.333   2.628   4.690
51857SOL    HW155595  10.348   2.649   4.786
51857SOL    HW255596  10.303   2.533   4.681
51858SOL     OW55597  10.290   3.435   5.424
51858SOL    HW155598  10.270   3.479   5.336
51858SOL    HW255599  10.329   3.344   5.408
51859SOL     OW55600  11.169   3.380   5.329
51859SOL    HW155601  11.183   3.407   5.234
51859SOL    HW255602  11.252   3.402   5.382
51860SOL     OW55603   9.660   2.760   5.528
51860SOL    HW155604   9.736   2.804   5.576
51860SOL    HW255605   9.695   2.713   5.446
51861SOL     OW55606  10.850   2.136   3.849
51861SOL    HW155607  10.789   2.061   3.872
51861SOL    HW255608  10.872   2.188   3.932
51862SOL     OW55609  10.613   2.700   3.766
51862SOL    HW155610  10.647   2.607   3.781
51862SOL    HW255611  10.631   2.727   3.671
51863SOL     OW55612  10.378   3.195   4.573
51863SOL    HW155613  10.385   3.111   4.518
51863SOL    HW255614  10.440   3.264   4.537
51864SOL     OW55615   9.629   2.672   4.673
51864SOL    HW155616   9.722   2.708   4.678
51864SOL    HW255617   9.623   2.587   4.725
51865SOL     OW55618   9.649   2.371   4.730
51865SOL    HW155619   9.597   2.288   4.713
51865SOL    HW255620   9.726   2.376   4.666
51866SOL     OW55621  10.448   2.242   5.402
51866SOL    HW155622  10.403   2.305   5.466
51866SOL    HW255623  10.541   2.273   5.385
51867SOL     OW55624  10.470   2.069   5.201
51867SOL    HW155625  10.470   2.133   5.278
51867SOL    HW255626  10.498   2.117   5.118
51868SOL     OW55627   9.318   3.188   3.924
51868SOL    HW155628   9.225   3.209   3.893
51868SOL    HW255629   9.328   3.089   3.937
51869SOL     OW55630   9.398   3.663   4.651
51869SOL    HW155631   9.356   3.577   4.624
51869SOL    HW255632   9.492   3.666   4.617
51870SOL     OW55633   9.814   3.430   4.634
51870SOL    HW155634   9.880   3.504   4.643
51870SOL    HW255635   9.858   3.351   4.592
51871SOL     OW55636  10.312   2.658   4.962
51871SOL    HW155637  10.353   2.626   5.048
51871SOL    HW255638  10.216   2.631   4.959
51872SOL     OW55639   9.350   2.406   4.838
51872SOL    HW155640   9.435   2.373   4.797
51872SOL    HW255641   9.363   2.421   4.936
51873SOL     OW55642   9.499   2.382   5.446
51873SOL    HW155643   9.558   2.342   5.376
51873SOL    HW255644   9.441   2.453   5.405
51874SOL     OW55645  10.679   2.812   5.384
51874SOL    HW155646  10.718   2.901   5.404
51874SOL    HW255647  10.689   2.792   5.287
51875SOL     OW55648  10.125   2.434   4.049
51875SOL    HW155649  10.132   2.345   4.003
51875SOL    HW255650  10.031   2.468   4.041
51876SOL     OW55651  10.967   2.466   4.930
51876SOL    HW155652  10.929   2.397   4.992
51876SOL    HW255653  11.049   2.430   4.886
51877SOL     OW55654   9.562   3.426   5.468
51877SOL    HW155655   9.532   3.483   5.544
51877SOL    HW255656   9.555   3.329   5.494
51878SOL     OW55657   9.981   2.326   4.993
51878SOL    HW155658   9.947   2.237   4.963
51878SOL    HW255659  10.007   2.380   4.913
51879SOL     OW55660  10.240   3.540   5.189
51879SOL    HW155661  10.216   3.522   5.094
51879SOL    HW255662  10.270   3.634   5.199
51880SOL     OW55663   9.783   2.362   3.915
51880SOL    HW155664   9.844   2.442   3.919
51880SOL    HW255665   9.688   2.393   3.922
51881SOL     OW55666   9.469   2.999   5.190
51881SOL    HW155667   9.491   2.938   5.266
51881SOL    HW255668   9.479   2.950   5.104
51882SOL     OW55669  10.657   2.921   4.958
51882SOL    HW155670  10.681   2.858   4.884
51882SOL    HW255671  10.567   2.961   4.940
51883SOL     OW55672  10.612   2.717   4.033
51883SOL    HW155673  10.526   2.686   4.075
51883SOL    HW255674  10.608   2.703   3.934
51884SOL     OW55675  11.069   3.609   4.878
51884SOL    HW155676  11.130   3.639   4.805
51884SOL    HW255677  11.031   3.520   4.856
51885SOL     OW55678  10.562   3.593   4.852
51885SOL    HW155679  10.646   3.598   4.798
51885SOL    HW255680  10.539   3.497   4.870
51886SOL     OW55681   9.393   3.120   4.746
51886SOL    HW155682   9.388   3.119   4.846
51886SOL    HW255683   9.310   3.079   4.708
51887SOL     OW55684   9.998   3.524   5.440
51887SOL    HW155685   9.942   3.605   5.449
51887SOL    HW255686  10.050   3.528   5.354
51888SOL     OW55687  11.036   1.997   4.247
51888SOL    HW155688  11.109   1.980   4.180
51888SOL    HW255689  11.005   1.910   4.285
51889SOL     OW55690  10.698   3.435   4.201
51889SOL    HW155691  10.765   3.447   4.127
51889SOL    HW255692  10.658   3.524   4.224
51890SOL     OW55693   9.440   3.656   5.575
51890SOL    HW155694   9.399   3.582   5.628
51890SOL    HW255695   9.504   3.707   5.633
51891SOL     OW55696  10.590   2.789   4.396
51891SOL    HW155697  10.650   2.708   4.398
51891SOL    HW255698  10.630   2.858   4.336
51892SOL     OW55699  10.140   3.135   5.146
51892SOL    HW155700  10.135   3.168   5.241
51892SOL    HW255701  10.054   3.154   5.100
51893SOL     OW55702   9.982   3.478   3.878
51893SOL    HW155703   9.991   3.488   3.779
51893SOL    HW255704   9.942   3.389   3.899
51894SOL     OW55705  10.960   3.582   5.118
51894SOL    HW155706  11.013   3.592   5.034
51894SOL    HW255707  10.933   3.672   5.152
51895SOL     OW55708  11.151   2.037   4.687
51895SOL    HW155709  11.190   1.952   4.651
51895SOL    HW255710  11.053   2.039   4.668
51896SOL     OW55711   9.573   2.188   4.444
51896SOL    HW155712   9.494   2.239   4.410
51896SOL    HW255713   9.564   2.173   4.542
51897SOL     OW55714  10.504   3.474   3.755
51897SOL    HW155715  10.510   3.381   3.792
51897SOL    HW255716  10.445   3.474   3.675
51898SOL     OW55717  10.132   2.864   5.096
51898SOL    HW155718  10.172   2.863   5.004
51898SOL    HW255719  10.142   2.956   5.136
51899SOL     OW55720  10.226   2.772   4.015
51899SOL    HW155721  10.289   2.810   3.947
51899SOL    HW255722  10.266   2.689   4.054
51900SOL     OW55723  10.814   3.469   3.768
51900SOL    HW155724  10.722   3.506   3.775
51900SOL    HW255725  10.852   3.489   3.678
51901SOL     OW55726   9.682   3.150   5.214
51901SOL    HW155727   9.669   3.243   5.180
51901SOL    HW255728   9.598   3.098   5.201
51902SOL     OW55729  10.924   3.154   5.013
51902SOL    HW155730  10.984   3.157   5.093
51902SOL    HW255731  10.849   3.218   5.026
51903SOL     OW55732  10.349   2.960   4.420
51903SOL    HW155733  10.279   2.913   4.474
51903SOL    HW255734  10.408   2.892   4.377
51904SOL     OW55735  10.324   2.098   4.695
51904SOL    HW155736  10.316   2.062   4.602
51904SOL    HW255737  10.322   2.022   4.760
51905SOL     OW55738   9.900   3.349   4.215
51905SOL    HW155739   9.942   3.291   4.145
51905SOL    HW255740   9.856   3.428   4.171
51906SOL     OW55741  11.019   2.247   5.105
51906SOL    HW155742  11.092   2.316   5.109
51906SOL    HW255743  11.047   2.172   5.046
51907SOL     OW55744   9.565   3.210   4.014
51907SOL    HW155745   9.469   3.211   3.987
51907SOL    HW255746   9.577   3.263   4.098
51908SOL     OW55747   9.415   2.875   5.450
51908SOL    HW155748   9.338   2.842   5.504
51908SOL    HW255749   9.500   2.845   5.492
51909SOL     OW55750   9.982   2.065   5.213
51909SOL    HW155751  10.072   2.049   5.173
51909SOL    HW255752   9.990   2.070   5.312
51910SOL     OW55753   9.385   2.207   3.757
51910SOL    HW155754   9.293   2.179   3.728
51910SOL    HW255755   9.416   2.284   3.701
51911SOL     OW55756  10.750   2.718   5.122
51911SOL    HW155757  10.693   2.770   5.059
51911SOL    HW255758  10.846   2.730   5.098
51912SOL     OW55759   9.382   2.028   4.042
51912SOL    HW155760   9.365   2.111   3.988
51912SOL    HW255761   9.472   1.991   4.020
51913SOL     OW55762  10.493   3.197   3.843
51913SOL    HW155763  10.394   3.186   3.845
51913SOL    HW255764  10.527   3.212   3.936
51914SOL     OW55765   9.923   2.704   5.155
51914SOL    HW155766   9.979   2.785   5.138
51914SOL    HW255767   9.982   2.624   5.158
51915SOL     OW55768  10.803   3.629   4.683
51915SOL    HW155769  10.836   3.693   4.614
51915SOL    HW255770  10.869   3.623   4.758
51916SOL     OW55771  10.026   2.427   5.432
51916SOL    HW155772  10.045   2.492   5.506
51916SOL    HW255773  10.086   2.347   5.441
51917SOL     OW55774  10.760   3.082   5.357
51917SOL    HW155775  10.751   3.072   5.456
51917SOL    HW255776  10.856   3.075   5.331
51918SOL     OW55777   9.700   3.603   5.284
51918SOL    HW155778   9.609   3.644   5.282
51918SOL    HW255779   9.693   3.509   5.316
51919SOL     OW55780  10.984   2.745   4.978
51919SOL    HW155781  10.957   2.656   4.941
51919SOL    HW255782  10.985   2.813   4.905
51920SOL     OW55783  10.535   2.187   4.173
51920SOL    HW155784  10.600   2.113   4.162
51920SOL    HW255785  10.555   2.237   4.257
51921SOL     OW55786   9.904   2.607   4.376
51921SOL    HW155787   9.954   2.692   4.357
51921SOL    HW255788   9.816   2.609   4.328
51922SOL     OW55789  11.087   2.204   5.366
51922SOL    HW155790  11.070   2.235   5.272
51922SOL    HW255791  11.003   2.167   5.404
51923SOL     OW55792  11.040   2.796   5.241
51923SOL    HW155793  11.078   2.887   5.256
51923SOL    HW255794  11.032   2.779   5.142
51924SOL     OW55795  10.169   3.236   3.740
51924SOL    HW155796  10.123   3.251   3.828
51924SOL    HW255797  10.213   3.321   3.710
51925SOL     OW55798   9.971   3.652   4.677
51925SOL    HW155799   9.925   3.740   4.664
51925SOL    HW255800  10.070   3.664   4.670
51926SOL     OW55801  10.169   2.818   4.585
51926SOL    HW155802  10.223   2.749   4.633
51926SOL    HW255803  10.137   2.887   4.651
51927SOL     OW55804  10.393   2.846   3.811
51927SOL    HW155805  10.370   2.899   3.729
51927SOL    HW255806  10.474   2.790   3.792
51928SOL     OW55807  11.171   3.431   4.575
51928SOL    HW155808  11.100   3.419   4.505
51928SOL    HW255809  11.172   3.352   4.635
51929SOL     OW55810   9.531   3.176   5.568
51929SOL    HW155811   9.466   3.103   5.547
51929SOL    HW255812   9.535   3.190   5.666
51930SOL     OW55813   9.389   3.102   4.377
51930SOL    HW155814   9.388   3.055   4.465
51930SOL    HW255815   9.471   3.074   4.326
51931SOL     OW55816   9.982   3.253   5.348
51931SOL    HW155817   9.904   3.203   5.386
51931SOL    HW255818   9.979   3.348   5.379
51932SOL     OW55819  11.134   2.054   4.951
51932SOL    HW155820  11.130   1.964   4.995
51932SOL    HW255821  11.137   2.043   4.852
51933SOL     OW55822   9.738   2.286   4.244
51933SOL    HW155823   9.768   2.214   4.182
51933SOL    HW255824   9.699   2.246   4.327
51934SOL     OW55825  11.015   3.349   4.828
51934SOL    HW155826  10.922   3.324   4.801
51934SOL    HW255827  11.041   3.299   4.910
51935SOL     OW55828   9.627   2.409   5.004
51935SOL    HW155829   9.665   2.350   5.076
51935SOL    HW255830   9.667   2.383   4.916
51936SOL     OW55831  10.122   3.448   4.411
51936SOL    HW155832  10.154   3.458   4.317
51936SOL    HW255833  10.043   3.386   4.413
51937SOL     OW55834  10.734   2.076   4.836
51937SOL    HW155835  10.786   2.011   4.891
51937SOL    HW255836  10.685   2.139   4.897
51938SOL     OW55837  10.311   1.896   4.878
51938SOL    HW155838  10.248   1.824   4.847
51938SOL    HW255839  10.404   1.860   4.878
51939SOL     OW55840  10.080   3.192   4.025
51939SOL    HW155841  10.034   3.105   4.042
51939SOL    HW255842  10.171   3.189   4.066
51940SOL     OW55843   9.928   3.429   5.008
51940SOL    HW155844   9.923   3.511   5.065
51940SOL    HW255845  10.017   3.426   4.963
51941SOL     OW55846  10.662   1.914   3.892
51941SOL    HW155847  10.697   1.873   3.808
51941SOL    HW255848  10.572   1.876   3.912
51942SOL     OW55849  10.610   2.315   4.415
51942SOL    HW155850  10.551   2.395   4.419
51942SOL    HW255851  10.625   2.280   4.508
51943SOL     OW55852  10.903   2.083   4.606
51943SOL    HW155853  10.819   2.082   4.660
51943SOL    HW255854  10.905   2.166   4.550
51944SOL     OW55855   9.349   2.939   4.024
51944SOL    HW155856   9.448   2.928   4.015
51944SOL    HW255857   9.309   2.853   4.056
51945SOL     OW55858  10.185   3.508   4.061
51945SOL    HW155859  10.108   3.473   4.007
51945SOL    HW255860  10.153   3.579   4.123
51946SOL     OW55861   9.540   2.490   5.699
51946SOL    HW155862   9.447   2.488   5.736
51946SOL    HW255863   9.541   2.451   5.607
51947SOL     OW55864   9.535   2.137   6.582
51947SOL    HW155865   9.570   2.120   6.674
51947SOL    HW255866   9.447   2.092   6.570
51948SOL     OW55867   9.329   2.230   6.233
51948SOL    HW155868   9.247   2.273   6.272
51948SOL    HW255869   9.301   2.157   6.170
51949SOL     OW55870   9.879   3.137   6.751
51949SOL    HW155871   9.786   3.130   6.714
51949SOL    HW255872   9.890   3.226   6.795
51950SOL     OW55873  10.865   3.373   6.289
51950SOL    HW155874  10.808   3.357   6.370
51950SOL    HW255875  10.806   3.383   6.209
51951SOL     OW55876  10.445   2.565   6.303
51951SOL    HW155877  10.502   2.643   6.278
51951SOL    HW255878  10.385   2.591   6.379
51952SOL     OW55879  11.065   2.469   5.817
51952SOL    HW155880  11.053   2.456   5.718
51952SOL    HW255881  11.035   2.388   5.866
51953SOL     OW55882  10.078   3.006   6.609
51953SOL    HW155883  10.000   3.023   6.669
51953SOL    HW255884  10.112   3.093   6.573
51954SOL     OW55885  10.160   2.660   7.409
51954SOL    HW155886  10.156   2.736   7.474
51954SOL    HW255887  10.182   2.696   7.318
51955SOL     OW55888   9.995   2.874   6.251
51955SOL    HW155889  10.064   2.858   6.321
51955SOL    HW255890   9.922   2.931   6.289
51956SOL     OW55891   9.996   3.023   7.389
51956SOL    HW155892  10.056   3.102   7.403
51956SOL    HW255893   9.910   3.054   7.348
51957SOL     OW55894   9.645   3.297   6.647
51957SOL    HW155895   9.567   3.266   6.594
51957SOL    HW255896   9.703   3.355   6.590
51958SOL     OW55897  10.770   3.367   6.925
51958SOL    HW155898  10.794   3.461   6.951
51958SOL    HW255899  10.754   3.313   7.007
51959SOL     OW55900   9.748   2.254   7.085
51959SOL    HW155901   9.830   2.198   7.094
51959SOL    HW255902   9.667   2.196   7.089
51960SOL     OW55903  10.913   2.309   6.323
51960SOL    HW155904  10.839   2.355   6.273
51960SOL    HW255905  10.964   2.377   6.376
51961SOL     OW55906   9.541   3.575   6.069
51961SOL    HW155907   9.575   3.652   6.123
51961SOL    HW255908   9.585   3.575   5.979
51962SOL     OW55909  10.437   3.203   7.276
51962SOL    HW155910  10.484   3.203   7.364
51962SOL    HW255911  10.389   3.116   7.265
51963SOL     OW55912   9.540   3.296   6.124
51963SOL    HW155913   9.514   3.392   6.124
51963SOL    HW255914   9.469   3.242   6.169
51964SOL     OW55915   9.550   2.953   6.472
51964SOL    HW155916   9.564   2.869   6.524
51964SOL    HW255917   9.495   3.017   6.527
51965SOL     OW55918   9.930   3.648   7.025
51965SOL    HW155919   9.838   3.631   7.060
51965SOL    HW255920   9.958   3.740   7.051
51966SOL     OW55921   9.916   2.826   5.709
51966SOL    HW155922   9.923   2.910   5.655
51966SOL    HW255923   9.962   2.839   5.797
51967SOL     OW55924  10.904   1.976   7.066
51967SOL    HW155925  10.886   2.043   6.994
51967SOL    HW255926  10.901   2.022   7.155
51968SOL     OW55927   9.432   2.505   6.149
51968SOL    HW155928   9.387   2.417   6.166
51968SOL    HW255929   9.431   2.559   6.233
51969SOL     OW55930  11.152   3.629   5.945
51969SOL    HW155931  11.206   3.600   6.025
51969SOL    HW255932  11.182   3.719   5.916
51970SOL     OW55933   9.337   3.458   5.703
51970SOL    HW155934   9.318   3.362   5.724
51970SOL    HW255935   9.304   3.516   5.778
51971SOL     OW55936  10.999   2.784   6.198
51971SOL    HW155937  11.094   2.755   6.206
51971SOL    HW255938  10.991   2.849   6.123
51972SOL     OW55939  10.951   2.970   6.018
51972SOL    HW155940  11.037   2.972   5.966
51972SOL    HW255941  10.965   3.017   6.106
51973SOL     OW55942   9.423   2.599   7.183
51973SOL    HW155943   9.511   2.586   7.228
51973SOL    HW255944   9.410   2.696   7.161
51974SOL     OW55945   9.923   3.227   6.312
51974SOL    HW155946   9.874   3.140   6.321
51974SOL    HW255947   9.900   3.270   6.225
51975SOL     OW55948  10.603   3.090   7.009
51975SOL    HW155949  10.640   3.017   6.951
51975SOL    HW255950  10.655   3.095   7.094
51976SOL     OW55951  10.119   1.866   6.088
51976SOL    HW155952  10.159   1.957   6.079
51976SOL    HW255953  10.019   1.874   6.094
51977SOL     OW55954   9.507   2.838   6.850
51977SOL    HW155955   9.596   2.793   6.836
51977SOL    HW255956   9.434   2.773   6.831
51978SOL     OW55957  10.835   2.861   5.776
51978SOL    HW155958  10.772   2.785   5.789
51978SOL    HW255959  10.883   2.879   5.862
51979SOL     OW55960  10.497   3.654   7.202
51979SOL    HW155961  10.521   3.714   7.126
51979SOL    HW255962  10.504   3.559   7.172
51980SOL     OW55963   9.627   2.113   7.387
51980SOL    HW155964   9.698   2.184   7.393
51980SOL    HW255965   9.539   2.152   7.415
51981SOL     OW55966  10.776   3.279   6.539
51981SOL    HW155967  10.717   3.285   6.619
51981SOL    HW255968  10.761   3.191   6.493
51982SOL     OW55969  10.977   3.576   6.158
51982SOL    HW155970  10.936   3.553   6.070
51982SOL    HW255971  10.959   3.502   6.223
51983SOL     OW55972   9.908   2.591   5.856
51983SOL    HW155973   9.932   2.660   5.788
51983SOL    HW255974   9.830   2.624   5.910
51984SOL     OW55975  10.591   2.207   6.530
51984SOL    HW155976  10.505   2.157   6.517
51984SOL    HW255977  10.653   2.153   6.586
51985SOL     OW55978  10.886   3.524   5.893
51985SOL    HW155979  10.975   3.570   5.896
51985SOL    HW255980  10.865   3.500   5.798
51986SOL     OW55981  10.117   2.467   7.051
51986SOL    HW155982  10.070   2.464   7.140
51986SOL    HW255983  10.066   2.412   6.985
51987SOL     OW55984  10.704   2.331   7.260
51987SOL    HW155985  10.684   2.374   7.348
51987SOL    HW255986  10.782   2.269   7.269
51988SOL     OW55987  10.283   2.752   7.158
51988SOL    HW155988  10.329   2.668   7.129
51988SOL    HW255989  10.227   2.786   7.083
51989SOL     OW55990  10.301   2.272   6.828
51989SOL    HW155991  10.224   2.306   6.882
51989SOL    HW255992  10.267   2.221   6.749
51990SOL     OW55993  10.351   2.563   6.015
51990SOL    HW155994  10.377   2.559   6.111
51990SOL    HW255995  10.266   2.512   6.001
51991SOL     OW55996   9.386   2.673   6.375
51991SOL    HW155997   9.485   2.661   6.384
51991SOL    HW255998   9.362   2.768   6.396
51992SOL     OW55999   9.440   3.683   7.157
51992SOL    HW156000   9.430   3.668   7.256
51992SOL    HW256001   9.354   3.719   7.121
51993SOL     OW56002  10.175   2.210   5.781
51993SOL    HW156003  10.234   2.273   5.732
51993SOL    HW256004  10.194   2.116   5.752
51994SOL     OW56005  11.029   2.447   7.417
51994SOL    HW156006  11.003   2.536   7.381
51994SOL    HW256007  11.027   2.379   7.344
51995SOL     OW56008  10.672   3.006   6.131
51995SOL    HW156009  10.755   2.977   6.083
51995SOL    HW256010  10.623   3.073   6.075
51996SOL     OW56011   9.860   2.058   6.471
51996SOL    HW156012   9.855   2.053   6.571
51996SOL    HW256013   9.862   2.154   6.442
51997SOL     OW56014  10.318   3.318   6.063
51997SOL    HW156015  10.272   3.390   6.011
51997SOL    HW256016  10.314   3.338   6.161
51998SOL     OW56017   9.661   3.663   6.439
51998SOL    HW156018   9.711   3.577   6.445
51998SOL    HW256019   9.726   3.740   6.436
51999SOL     OW56020  11.105   2.928   6.459
51999SOL    HW156021  11.043   2.913   6.383
51999SOL    HW256022  11.053   2.939   6.544
52000SOL     OW56023  10.537   3.412   7.092
52000SOL    HW156024  10.543   3.335   7.156
52000SOL    HW256025  10.485   3.386   7.012
52001SOL     OW56026   9.631   2.805   5.828
52001SOL    HW156027   9.713   2.844   5.786
52001SOL    HW256028   9.604   2.723   5.779
52002SOL     OW56029  10.768   2.597   6.314
52002SOL    HW156030  10.763   2.532   6.389
52002SOL    HW256031  10.848   2.656   6.327
52003SOL     OW56032   9.771   3.128   7.313
52003SOL    HW156033   9.721   3.129   7.227
52003SOL    HW256034   9.708   3.110   7.389
52004SOL     OW56035  10.421   3.638   5.823
52004SOL    HW156036  10.361   3.576   5.873
52004SOL    HW256037  10.452   3.594   5.738
52005SOL     OW56038   9.512   2.147   7.084
52005SOL    HW156039   9.432   2.207   7.071
52005SOL    HW256040   9.502   2.098   7.170
52006SOL     OW56041  10.942   3.239   5.667
52006SOL    HW156042  10.910   3.333   5.657
52006SOL    HW256043  10.866   3.176   5.655
52007SOL     OW56044   9.774   3.605   5.909
52007SOL    HW156045   9.807   3.644   5.995
52007SOL    HW256046   9.850   3.598   5.844
52008SOL     OW56047  10.710   1.969   6.012
52008SOL    HW156048  10.686   1.932   5.922
52008SOL    HW256049  10.809   1.985   6.016
52009SOL     OW56050   9.559   3.647   6.827
52009SOL    HW156051   9.616   3.582   6.877
52009SOL    HW256052   9.543   3.614   6.734
52010SOL     OW56053  10.250   3.560   6.490
52010SOL    HW156054  10.330   3.503   6.511
52010SOL    HW256055  10.201   3.520   6.413
52011SOL     OW56056   9.692   2.562   6.066
52011SOL    HW156057   9.737   2.472   6.063
52011SOL    HW256058   9.598   2.551   6.099
52012SOL     OW56059  10.857   2.084   7.315
52012SOL    HW156060  10.852   2.121   7.407
52012SOL    HW256061  10.785   2.015   7.303
52013SOL     OW56062   9.924   1.984   5.703
52013SOL    HW156063  10.022   1.962   5.710
52013SOL    HW256064   9.893   1.967   5.610
52014SOL     OW56065  10.091   2.126   7.335
52014SOL    HW156066  10.158   2.065   7.378
52014SOL    HW256067  10.018   2.145   7.400
52015SOL     OW56068  10.198   3.376   6.781
52015SOL    HW156069  10.175   3.351   6.687
52015SOL    HW256070  10.259   3.307   6.820
52016SOL     OW56071  10.661   2.452   7.019
52016SOL    HW156072  10.689   2.409   7.104
52016SOL    HW256073  10.686   2.548   7.020
52017SOL     OW56074  10.113   3.264   6.510
52017SOL    HW156075  10.203   3.278   6.468
52017SOL    HW256076  10.042   3.266   6.439
52018SOL     OW56077  10.232   2.365   6.485
52018SOL    HW156078  10.207   2.356   6.389
52018SOL    HW256079  10.280   2.283   6.516
52019SOL     OW56080   9.849   1.926   6.098
52019SOL    HW156081   9.768   1.927   6.156
52019SOL    HW256082   9.852   2.009   6.043
52020SOL     OW56083  10.744   3.050   5.627
52020SOL    HW156084  10.776   2.974   5.684
52020SOL    HW256085  10.652   3.077   5.657
52021SOL     OW56086   9.607   1.897   5.757
52021SOL    HW156087   9.656   1.981   5.736
52021SOL    HW256088   9.669   1.832   5.802
52022SOL     OW56089  10.245   2.098   6.066
52022SOL    HW156090  10.197   2.139   5.988
52022SOL    HW256091  10.344   2.096   6.047
52023SOL     OW56092  10.386   2.545   7.050
52023SOL    HW156093  10.306   2.484   7.053
52023SOL    HW256094  10.467   2.492   7.026
52024SOL     OW56095  10.537   3.432   6.379
52024SOL    HW156096  10.558   3.506   6.314
52024SOL    HW256097  10.605   3.432   6.452
52025SOL     OW56098   9.769   3.014   6.327
52025SOL    HW156099   9.698   2.987   6.392
52025SOL    HW256100   9.743   2.986   6.234
52026SOL     OW56101  10.581   3.659   6.177
52026SOL    HW156102  10.625   3.723   6.113
52026SOL    HW256103  10.531   3.711   6.247
52027SOL     OW56104  10.342   2.411   5.602
52027SOL    HW156105  10.301   2.493   5.563
52027SOL    HW256106  10.406   2.437   5.675
52028SOL     OW56107   9.388   2.418   6.972
52028SOL    HW156108   9.480   2.417   6.931
52028SOL    HW256109   9.382   2.492   7.039
52029SOL     OW56110   9.871   2.084   6.733
52029SOL    HW156111   9.909   2.000   6.770
52029SOL    HW256112   9.783   2.103   6.777
52030SOL     OW56113  10.176   2.316   6.228
52030SOL    HW156114  10.144   2.388   6.166
52030SOL    HW256115  10.200   2.235   6.175
52031SOL     OW56116  10.327   1.901   6.339
52031SOL    HW156117  10.255   1.906   6.270
52031SOL    HW256118  10.303   1.832   6.408
52032SOL     OW56119  10.739   3.035   6.453
52032SOL    HW156120  10.684   2.951   6.446
52032SOL    HW256121  10.765   3.064   6.361
52033SOL     OW56122  10.776   2.452   6.578
52033SOL    HW156123  10.746   2.357   6.585
52033SOL    HW256124  10.849   2.468   6.644
52034SOL     OW56125  11.167   2.695   5.963
52034SOL    HW156126  11.209   2.631   6.027
52034SOL    HW256127  11.129   2.644   5.885
52035SOL     OW56128   9.798   3.247   5.760
52035SOL    HW156129   9.711   3.232   5.807
52035SOL    HW256130   9.781   3.273   5.665
52036SOL     OW56131  10.974   3.142   6.243
52036SOL    HW156132  11.073   3.150   6.257
52036SOL    HW256133  10.929   3.226   6.274
52037SOL     OW56134  10.700   2.437   5.664
52037SOL    HW156135  10.646   2.416   5.745
52037SOL    HW256136  10.791   2.396   5.673
52038SOL     OW56137   9.837   2.118   5.914
52038SOL    HW156138   9.864   2.059   5.839
52038SOL    HW256139   9.837   2.213   5.883
52039SOL     OW56140  11.064   3.085   7.174
52039SOL    HW156141  11.155   3.046   7.161
52039SOL    HW256142  11.072   3.181   7.198
52040SOL     OW56143  10.374   3.209   6.926
52040SOL    HW156144  10.294   3.186   6.981
52040SOL    HW256145  10.457   3.183   6.975
52041SOL     OW56146  10.902   3.491   7.211
52041SOL    HW156147  10.929   3.525   7.121
52041SOL    HW256148  10.981   3.453   7.257
52042SOL     OW56149  10.421   3.057   6.686
52042SOL    HW156150  10.381   3.101   6.767
52042SOL    HW256151  10.380   3.094   6.603
52043SOL     OW56152  10.948   2.961   6.665
52043SOL    HW156153  10.953   3.042   6.724
52043SOL    HW256154  10.862   2.963   6.614
52044SOL     OW56155  10.225   1.951   6.988
52044SOL    HW156156  10.250   1.931   6.893
52044SOL    HW256157  10.297   2.007   7.030
52045SOL     OW56158  10.290   2.978   7.305
52045SOL    HW156159  10.191   2.984   7.315
52045SOL    HW256160  10.313   2.898   7.249
52046SOL     OW56161  10.015   2.912   5.954
52046SOL    HW156162  10.001   2.919   6.053
52046SOL    HW256163  10.099   2.861   5.936
52047SOL     OW56164   9.720   2.675   6.837
52047SOL    HW156165   9.806   2.687   6.887
52047SOL    HW256166   9.678   2.588   6.864
52048SOL     OW56167  10.584   2.248   6.848
52048SOL    HW156168  10.605   2.322   6.912
52048SOL    HW256169  10.495   2.265   6.805
52049SOL     OW56170   9.374   3.426   6.917
52049SOL    HW156171   9.328   3.508   6.883
52049SOL    HW256172   9.472   3.445   6.926
52050SOL     OW56173   9.677   2.962   6.087
52050SOL    HW156174   9.670   3.045   6.031
52050SOL    HW256175   9.681   2.882   6.027
52051SOL     OW56176   9.876   2.399   6.451
52051SOL    HW156177   9.888   2.465   6.377
52051SOL    HW256178   9.922   2.433   6.534
52052SOL     OW56179  10.562   3.210   5.974
52052SOL    HW156180  10.612   3.287   6.014
52052SOL    HW256181  10.467   3.212   6.006
52053SOL     OW56182  10.582   3.307   6.728
52053SOL    HW156183  10.629   3.320   6.815
52053SOL    HW256184  10.516   3.233   6.737
52054SOL     OW56185  10.892   2.501   6.058
52054SOL    HW156186  10.861   2.562   6.131
52054SOL    HW256187  10.942   2.553   5.989
52055SOL     OW56188   9.664   3.372   6.915
52055SOL    HW156189   9.643   3.328   6.828
52055SOL    HW256190   9.761   3.398   6.918
52056SOL     OW56191   9.712   2.613   7.184
52056SOL    HW156192   9.780   2.668   7.137
52056SOL    HW256193   9.752   2.525   7.211
52057SOL     OW56194  10.897   2.641   7.256
52057SOL    HW156195  10.805   2.679   7.251
52057SOL    HW256196  10.957   2.688   7.191
52058SOL     OW56197  10.323   1.967   7.356
52058SOL    HW156198  10.329   2.052   7.304
52058SOL    HW256199  10.355   1.891   7.299
52059SOL     OW56200   9.814   1.912   7.326
52059SOL    HW156201   9.772   1.855   7.256
52059SOL    HW256202   9.748   1.981   7.358
52060SOL     OW56203   9.883   2.732   6.615
52060SOL    HW156204   9.927   2.821   6.606
52060SOL    HW256205   9.820   2.732   6.692
52061SOL     OW56206  10.670   2.724   6.631
52061SOL    HW156207  10.595   2.724   6.565
52061SOL    HW256208  10.707   2.632   6.640
52062SOL     OW56209  10.519   2.387   5.861
52062SOL    HW156210  10.532   2.303   5.915
52062SOL    HW256211  10.490   2.461   5.921
52063SOL     OW56212   9.617   2.075   6.817
52063SOL    HW156213   9.594   2.112   6.907
52063SOL    HW256214   9.587   1.980   6.811
52064SOL     OW56215   9.347   3.172   6.868
52064SOL    HW156216   9.400   3.123   6.936
52064SOL    HW256217   9.369   3.270   6.873
52065SOL     OW56218  10.042   2.496   6.650
52065SOL    HW156219  10.101   2.470   6.574
52065SOL    HW256220  10.014   2.592   6.639
52066SOL     OW56221  11.038   2.797   7.440
52066SOL    HW156222  10.992   2.790   7.351
52066SOL    HW256223  10.976   2.841   7.506
52067SOL     OW56224   9.617   1.925   6.204
52067SOL    HW156225   9.606   2.019   6.237
52067SOL    HW256226   9.612   1.862   6.281
52068SOL     OW56227  10.932   2.229   5.960
52068SOL    HW156228  10.934   2.153   6.024
52068SOL    HW256229  10.884   2.306   6.000
52069SOL     OW56230  10.333   2.628   6.552
52069SOL    HW156231  10.348   2.649   6.648
52069SOL    HW256232  10.303   2.533   6.543
52070SOL     OW56233  10.290   3.435   7.286
52070SOL    HW156234  10.270   3.479   7.198
52070SOL    HW256235  10.329   3.344   7.270
52071SOL     OW56236  11.169   3.380   7.191
52071SOL    HW156237  11.183   3.407   7.096
52071SOL    HW256238  11.252   3.402   7.244
52072SOL     OW56239   9.660   2.760   7.390
52072SOL    HW156240   9.736   2.804   7.438
52072SOL    HW256241   9.695   2.713   7.308
52073SOL     OW56242  10.850   2.136   5.711
52073SOL    HW156243  10.789   2.061   5.734
52073SOL    HW256244  10.872   2.188   5.794
52074SOL     OW56245  10.613   2.700   5.628
52074SOL    HW156246  10.647   2.607   5.643
52074SOL    HW256247  10.631   2.727   5.533
52075SOL     OW56248  10.378   3.195   6.435
52075SOL    HW156249  10.385   3.111   6.380
52075SOL    HW256250  10.440   3.264   6.399
52076SOL     OW56251   9.629   2.672   6.535
52076SOL    HW156252   9.722   2.708   6.540
52076SOL    HW256253   9.623   2.587   6.587
52077SOL     OW56254   9.649   2.371   6.592
52077SOL    HW156255   9.597   2.288   6.575
52077SOL    HW256256   9.726   2.376   6.528
52078SOL     OW56257  10.448   2.242   7.264
52078SOL    HW156258  10.403   2.305   7.328
52078SOL    HW256259  10.541   2.273   7.247
52079SOL     OW56260  10.470   2.069   7.063
52079SOL    HW156261  10.470   2.133   7.140
52079SOL    HW256262  10.498   2.117   6.980
52080SOL     OW56263   9.318   3.188   5.786
52080SOL    HW156264   9.225   3.209   5.755
52080SOL    HW256265   9.328   3.089   5.799
52081SOL     OW56266   9.398   3.663   6.513
52081SOL    HW156267   9.356   3.577   6.486
52081SOL    HW256268   9.492   3.666   6.479
52082SOL     OW56269   9.814   3.430   6.496
52082SOL    HW156270   9.880   3.504   6.505
52082SOL    HW256271   9.858   3.351   6.454
52083SOL     OW56272  10.312   2.658   6.824
52083SOL    HW156273  10.353   2.626   6.910
52083SOL    HW256274  10.216   2.631   6.821
52084SOL     OW56275   9.350   2.406   6.700
52084SOL    HW156276   9.435   2.373   6.659
52084SOL    HW256277   9.363   2.421   6.798
52085SOL     OW56278   9.499   2.382   7.308
52085SOL    HW156279   9.558   2.342   7.238
52085SOL    HW256280   9.441   2.453   7.267
52086SOL     OW56281  10.679   2.812   7.246
52086SOL    HW156282  10.718   2.901   7.266
52086SOL    HW256283  10.689   2.792   7.149
52087SOL     OW56284  10.125   2.434   5.911
52087SOL    HW156285  10.132   2.345   5.865
52087SOL    HW256286  10.031   2.468   5.903
52088SOL     OW56287  10.967   2.466   6.792
52088SOL    HW156288  10.929   2.397   6.854
52088SOL    HW256289  11.049   2.430   6.748
52089SOL     OW56290   9.562   3.426   7.330
52089SOL    HW156291   9.532   3.483   7.406
52089SOL    HW256292   9.555   3.329   7.356
52090SOL     OW56293   9.981   2.326   6.855
52090SOL    HW156294   9.947   2.237   6.825
52090SOL    HW256295  10.007   2.380   6.775
52091SOL     OW56296  10.240   3.540   7.051
52091SOL    HW156297  10.216   3.522   6.956
52091SOL    HW256298  10.270   3.634   7.061
52092SOL     OW56299   9.783   2.362   5.777
52092SOL    HW156300   9.844   2.442   5.781
52092SOL    HW256301   9.688   2.393   5.784
52093SOL     OW56302   9.469   2.999   7.052
52093SOL    HW156303   9.491   2.938   7.128
52093SOL    HW256304   9.479   2.950   6.966
52094SOL     OW56305  10.657   2.921   6.820
52094SOL    HW156306  10.681   2.858   6.746
52094SOL    HW256307  10.567   2.961   6.802
52095SOL     OW56308  10.612   2.717   5.895
52095SOL    HW156309  10.526   2.686   5.937
52095SOL    HW256310  10.608   2.703   5.796
52096SOL     OW56311  11.069   3.609   6.740
52096SOL    HW156312  11.130   3.639   6.667
52096SOL    HW256313  11.031   3.520   6.718
52097SOL     OW56314  10.562   3.593   6.714
52097SOL    HW156315  10.646   3.598   6.660
52097SOL    HW256316  10.539   3.497   6.732
52098SOL     OW56317   9.393   3.120   6.608
52098SOL    HW156318   9.388   3.119   6.708
52098SOL    HW256319   9.310   3.079   6.570
52099SOL     OW56320   9.998   3.524   7.302
52099SOL    HW156321   9.942   3.605   7.311
52099SOL    HW256322  10.050   3.528   7.216
52100SOL     OW56323  11.036   1.997   6.109
52100SOL    HW156324  11.109   1.980   6.042
52100SOL    HW256325  11.005   1.910   6.147
52101SOL     OW56326  10.698   3.435   6.063
52101SOL    HW156327  10.765   3.447   5.989
52101SOL    HW256328  10.658   3.524   6.086
52102SOL     OW56329   9.440   3.656   7.437
52102SOL    HW156330   9.399   3.582   7.490
52102SOL    HW256331   9.504   3.707   7.495
52103SOL     OW56332  10.590   2.789   6.258
52103SOL    HW156333  10.650   2.708   6.260
52103SOL    HW256334  10.630   2.858   6.198
52104SOL     OW56335  10.140   3.135   7.008
52104SOL    HW156336  10.135   3.168   7.103
52104SOL    HW256337  10.054   3.154   6.962
52105SOL     OW56338   9.982   3.478   5.740
52105SOL    HW156339   9.991   3.488   5.641
52105SOL    HW256340   9.942   3.389   5.761
52106SOL     OW56341  10.960   3.582   6.980
52106SOL    HW156342  11.013   3.592   6.896
52106SOL    HW256343  10.933   3.672   7.014
52107SOL     OW56344  11.151   2.037   6.549
52107SOL    HW156345  11.190   1.952   6.513
52107SOL    HW256346  11.053   2.039   6.530
52108SOL     OW56347   9.573   2.188   6.306
52108SOL    HW156348   9.494   2.239   6.272
52108SOL    HW256349   9.564   2.173   6.404
52109SOL     OW56350  10.504   3.474   5.617
52109SOL    HW156351  10.510   3.381   5.654
52109SOL    HW256352  10.445   3.474   5.537
52110SOL     OW56353  10.132   2.864   6.958
52110SOL    HW156354  10.172   2.863   6.866
52110SOL    HW256355  10.142   2.956   6.998
52111SOL     OW56356  10.226   2.772   5.877
52111SOL    HW156357  10.289   2.810   5.809
52111SOL    HW256358  10.266   2.689   5.916
52112SOL     OW56359  10.814   3.469   5.630
52112SOL    HW156360  10.722   3.506   5.637
52112SOL    HW256361  10.852   3.489   5.540
52113SOL     OW56362   9.682   3.150   7.076
52113SOL    HW156363   9.669   3.243   7.042
52113SOL    HW256364   9.598   3.098   7.063
52114SOL     OW56365  10.924   3.154   6.875
52114SOL    HW156366  10.984   3.157   6.955
52114SOL    HW256367  10.849   3.218   6.888
52115SOL     OW56368  10.349   2.960   6.282
52115SOL    HW156369  10.279   2.913   6.336
52115SOL    HW256370  10.408   2.892   6.239
52116SOL     OW56371  10.324   2.098   6.557
52116SOL    HW156372  10.316   2.062   6.464
52116SOL    HW256373  10.322   2.022   6.622
52117SOL     OW56374   9.900   3.349   6.077
52117SOL    HW156375   9.942   3.291   6.007
52117SOL    HW256376   9.856   3.428   6.033
52118SOL     OW56377  11.019   2.247   6.967
52118SOL    HW156378  11.092   2.316   6.971
52118SOL    HW256379  11.047   2.172   6.908
52119SOL     OW56380   9.565   3.210   5.876
52119SOL    HW156381   9.469   3.211   5.849
52119SOL    HW256382   9.577   3.263   5.960
52120SOL     OW56383   9.415   2.875   7.312
52120SOL    HW156384   9.338   2.842   7.366
52120SOL    HW256385   9.500   2.845   7.354
52121SOL     OW56386   9.982   2.065   7.075
52121SOL    HW156387  10.072   2.049   7.035
52121SOL    HW256388   9.990   2.070   7.174
52122SOL     OW56389   9.385   2.207   5.619
52122SOL    HW156390   9.293   2.179   5.590
52122SOL    HW256391   9.416   2.284   5.563
52123SOL     OW56392  10.750   2.718   6.984
52123SOL    HW156393  10.693   2.770   6.921
52123SOL    HW256394  10.846   2.730   6.960
52124SOL     OW56395   9.382   2.028   5.904
52124SOL    HW156396   9.365   2.111   5.850
52124SOL    HW256397   9.472   1.991   5.882
52125SOL     OW56398  10.493   3.197   5.705
52125SOL    HW156399  10.394   3.186   5.707
52125SOL    HW256400  10.527   3.212   5.798
52126SOL     OW56401   9.923   2.704   7.017
52126SOL    HW156402   9.979   2.785   7.000
52126SOL    HW256403   9.982   2.624   7.020
52127SOL     OW56404  10.803   3.629   6.545
52127SOL    HW156405  10.836   3.693   6.476
52127SOL    HW256406  10.869   3.623   6.620
52128SOL     OW56407  10.026   2.427   7.294
52128SOL    HW156408  10.045   2.492   7.368
52128SOL    HW256409  10.086   2.347   7.303
52129SOL     OW56410  10.760   3.082   7.219
52129SOL    HW156411  10.751   3.072   7.318
52129SOL    HW256412  10.856   3.075   7.193
52130SOL     OW56413   9.700   3.603   7.146
52130SOL    HW156414   9.609   3.644   7.144
52130SOL    HW256415   9.693   3.509   7.178
52131SOL     OW56416  10.984   2.745   6.840
52131SOL    HW156417  10.957   2.656   6.803
52131SOL    HW256418  10.985   2.813   6.767
52132SOL     OW56419  10.535   2.187   6.035
52132SOL    HW156420  10.600   2.113   6.024
52132SOL    HW256421  10.555   2.237   6.119
52133SOL     OW56422   9.904   2.607   6.238
52133SOL    HW156423   9.954   2.692   6.219
52133SOL    HW256424   9.816   2.609   6.190
52134SOL     OW56425  11.087   2.204   7.228
52134SOL    HW156426  11.070   2.235   7.134
52134SOL    HW256427  11.003   2.167   7.266
52135SOL     OW56428  11.040   2.796   7.103
52135SOL    HW156429  11.078   2.887   7.118
52135SOL    HW256430  11.032   2.779   7.004
52136SOL     OW56431  10.169   3.236   5.602
52136SOL    HW156432  10.123   3.251   5.690
52136SOL    HW256433  10.213   3.321   5.572
52137SOL     OW56434   9.971   3.652   6.539
52137SOL    HW156435   9.925   3.740   6.526
52137SOL    HW256436  10.070   3.664   6.532
52138SOL     OW56437  10.169   2.818   6.447
52138SOL    HW156438  10.223   2.749   6.495
52138SOL    HW256439  10.137   2.887   6.513
52139SOL     OW56440  10.393   2.846   5.673
52139SOL    HW156441  10.370   2.899   5.591
52139SOL    HW256442  10.474   2.790   5.654
52140SOL     OW56443  11.171   3.431   6.437
52140SOL    HW156444  11.100   3.419   6.367
52140SOL    HW256445  11.172   3.352   6.497
52141SOL     OW56446   9.531   3.176   7.430
52141SOL    HW156447   9.466   3.103   7.409
52141SOL    HW256448   9.535   3.190   7.528
52142SOL     OW56449   9.389   3.102   6.239
52142SOL    HW156450   9.388   3.055   6.327
52142SOL    HW256451   9.471   3.074   6.188
52143SOL     OW56452   9.982   3.253   7.210
52143SOL    HW156453   9.904   3.203   7.248
52143SOL    HW256454   9.979   3.348   7.241
52144SOL     OW56455  11.134   2.054   6.813
52144SOL    HW156456  11.130   1.964   6.857
52144SOL    HW256457  11.137   2.043   6.714
52145SOL     OW56458   9.738   2.286   6.106
52145SOL    HW156459   9.768   2.214   6.044
52145SOL    HW256460   9.699   2.246   6.189
52146SOL     OW56461  11.015   3.349   6.690
52146SOL    HW156462  10.922   3.324   6.663
52146SOL    HW256463  11.041   3.299   6.772
52147SOL     OW56464   9.627   2.409   6.866
52147SOL    HW156465   9.665   2.350   6.938
52147SOL    HW256466   9.667   2.383   6.778
52148SOL     OW56467  10.122   3.448   6.273
52148SOL    HW156468  10.154   3.458   6.179
52148SOL    HW256469  10.043   3.386   6.275
52149SOL     OW56470  10.734   2.076   6.698
52149SOL    HW156471  10.786   2.011   6.753
52149SOL    HW256472  10.685   2.139   6.759
52150SOL     OW56473  10.311   1.896   6.740
52150SOL    HW156474  10.248   1.824   6.709
52150SOL    HW256475  10.404   1.860   6.740
52151SOL     OW56476  10.080   3.192   5.887
52151SOL    HW156477  10.034   3.105   5.904
52151SOL    HW256478  10.171   3.189   5.928
52152SOL     OW56479   9.928   3.429   6.870
52152SOL    HW156480   9.923   3.511   6.927
52152SOL    HW256481  10.017   3.426   6.825
52153SOL     OW56482  10.662   1.914   5.754
52153SOL    HW156483  10.697   1.873   5.670
52153SOL    HW256484  10.572   1.876   5.774
52154SOL     OW56485  10.610   2.315   6.277
52154SOL    HW156486  10.551   2.395   6.281
52154SOL    HW256487  10.625   2.280   6.370
52155SOL     OW56488  10.903   2.083   6.468
52155SOL    HW156489  10.819   2.082   6.522
52155SOL    HW256490  10.905   2.166   6.412
52156SOL     OW56491   9.349   2.939   5.886
52156SOL    HW156492   9.448   2.928   5.877
52156SOL    HW256493   9.309   2.853   5.918
52157SOL     OW56494  10.185   3.508   5.923
52157SOL    HW156495  10.108   3.473   5.869
52157SOL    HW256496  10.153   3.579   5.985
52158SOL     OW56497   9.540   2.490   7.561
52158SOL    HW156498   9.447   2.488   7.598
52158SOL    HW256499   9.541   2.451   7.469
52159SOL     OW56500   9.535   2.137   8.444
52159SOL    HW156501   9.570   2.120   8.536
52159SOL    HW256502   9.447   2.092   8.432
52160SOL     OW56503   9.329   2.230   8.095
52160SOL    HW156504   9.247   2.273   8.134
52160SOL    HW256505   9.301   2.157   8.032
52161SOL     OW56506   9.879   3.137   8.613
52161SOL    HW156507   9.786   3.130   8.576
52161SOL    HW256508   9.890   3.226   8.657
52162SOL     OW56509  10.865   3.373   8.151
52162SOL    HW156510  10.808   3.357   8.232
52162SOL    HW256511  10.806   3.383   8.071
52163SOL     OW56512  10.445   2.565   8.165
52163SOL    HW156513  10.502   2.643   8.140
52163SOL    HW256514  10.385   2.591   8.241
52164SOL     OW56515  11.065   2.469   7.679
52164SOL    HW156516  11.053   2.456   7.580
52164SOL    HW256517  11.035   2.388   7.728
52165SOL     OW56518  10.078   3.006   8.471
52165SOL    HW156519  10.000   3.023   8.531
52165SOL    HW256520  10.112   3.093   8.435
52166SOL     OW56521  10.160   2.660   9.271
52166SOL    HW156522  10.156   2.736   9.336
52166SOL    HW256523  10.182   2.696   9.180
52167SOL     OW56524   9.995   2.874   8.113
52167SOL    HW156525  10.064   2.858   8.183
52167SOL    HW256526   9.922   2.931   8.151
52168SOL     OW56527   9.996   3.023   9.251
52168SOL    HW156528  10.056   3.102   9.265
52168SOL    HW256529   9.910   3.054   9.210
52169SOL     OW56530   9.645   3.297   8.509
52169SOL    HW156531   9.567   3.266   8.456
52169SOL    HW256532   9.703   3.355   8.452
52170SOL     OW56533  10.770   3.367   8.787
52170SOL    HW156534  10.794   3.461   8.813
52170SOL    HW256535  10.754   3.313   8.869
52171SOL     OW56536   9.748   2.254   8.947
52171SOL    HW156537   9.830   2.198   8.956
52171SOL    HW256538   9.667   2.196   8.951
52172SOL     OW56539  10.913   2.309   8.185
52172SOL    HW156540  10.839   2.355   8.135
52172SOL    HW256541  10.964   2.377   8.238
52173SOL     OW56542   9.541   3.575   7.931
52173SOL    HW156543   9.575   3.652   7.985
52173SOL    HW256544   9.585   3.575   7.841
52174SOL     OW56545  10.437   3.203   9.138
52174SOL    HW156546  10.484   3.203   9.226
52174SOL    HW256547  10.389   3.116   9.127
52175SOL     OW56548   9.540   3.296   7.986
52175SOL    HW156549   9.514   3.392   7.986
52175SOL    HW256550   9.469   3.242   8.031
52176SOL     OW56551   9.550   2.953   8.334
52176SOL    HW156552   9.564   2.869   8.386
52176SOL    HW256553   9.495   3.017   8.389
52177SOL     OW56554   9.930   3.648   8.887
52177SOL    HW156555   9.838   3.631   8.922
52177SOL    HW256556   9.958   3.740   8.913
52178SOL     OW56557   9.916   2.826   7.571
52178SOL    HW156558   9.923   2.910   7.517
52178SOL    HW256559   9.962   2.839   7.659
52179SOL     OW56560  10.904   1.976   8.928
52179SOL    HW156561  10.886   2.043   8.856
52179SOL    HW256562  10.901   2.022   9.017
52180SOL     OW56563   9.432   2.505   8.011
52180SOL    HW156564   9.387   2.417   8.028
52180SOL    HW256565   9.431   2.559   8.095
52181SOL     OW56566  11.152   3.629   7.807
52181SOL    HW156567  11.206   3.600   7.887
52181SOL    HW256568  11.182   3.719   7.778
52182SOL     OW56569   9.337   3.458   7.565
52182SOL    HW156570   9.318   3.362   7.586
52182SOL    HW256571   9.304   3.516   7.640
52183SOL     OW56572  10.999   2.784   8.060
52183SOL    HW156573  11.094   2.755   8.068
52183SOL    HW256574  10.991   2.849   7.985
52184SOL     OW56575  10.951   2.970   7.880
52184SOL    HW156576  11.037   2.972   7.828
52184SOL    HW256577  10.965   3.017   7.968
52185SOL     OW56578   9.423   2.599   9.045
52185SOL    HW156579   9.511   2.586   9.090
52185SOL    HW256580   9.410   2.696   9.023
52186SOL     OW56581   9.923   3.227   8.174
52186SOL    HW156582   9.874   3.140   8.183
52186SOL    HW256583   9.900   3.270   8.087
52187SOL     OW56584  10.603   3.090   8.871
52187SOL    HW156585  10.640   3.017   8.813
52187SOL    HW256586  10.655   3.095   8.956
52188SOL     OW56587  10.119   1.866   7.950
52188SOL    HW156588  10.159   1.957   7.941
52188SOL    HW256589  10.019   1.874   7.956
52189SOL     OW56590   9.507   2.838   8.712
52189SOL    HW156591   9.596   2.793   8.698
52189SOL    HW256592   9.434   2.773   8.693
52190SOL     OW56593  10.835   2.861   7.638
52190SOL    HW156594  10.772   2.785   7.651
52190SOL    HW256595  10.883   2.879   7.724
52191SOL     OW56596  10.497   3.654   9.064
52191SOL    HW156597  10.521   3.714   8.988
52191SOL    HW256598  10.504   3.559   9.034
52192SOL     OW56599   9.627   2.113   9.249
52192SOL    HW156600   9.698   2.184   9.255
52192SOL    HW256601   9.539   2.152   9.277
52193SOL     OW56602  10.776   3.279   8.401
52193SOL    HW156603  10.717   3.285   8.481
52193SOL    HW256604  10.761   3.191   8.355
52194SOL     OW56605  10.977   3.576   8.020
52194SOL    HW156606  10.936   3.553   7.932
52194SOL    HW256607  10.959   3.502   8.085
52195SOL     OW56608   9.908   2.591   7.718
52195SOL    HW156609   9.932   2.660   7.650
52195SOL    HW256610   9.830   2.624   7.772
52196SOL     OW56611  10.591   2.207   8.392
52196SOL    HW156612  10.505   2.157   8.379
52196SOL    HW256613  10.653   2.153   8.448
52197SOL     OW56614  10.886   3.524   7.755
52197SOL    HW156615  10.975   3.570   7.758
52197SOL    HW256616  10.865   3.500   7.660
52198SOL     OW56617  10.117   2.467   8.913
52198SOL    HW156618  10.070   2.464   9.002
52198SOL    HW256619  10.066   2.412   8.847
52199SOL     OW56620  10.704   2.331   9.122
52199SOL    HW156621  10.684   2.374   9.210
52199SOL    HW256622  10.782   2.269   9.131
52200SOL     OW56623  10.283   2.752   9.020
52200SOL    HW156624  10.329   2.668   8.991
52200SOL    HW256625  10.227   2.786   8.945
52201SOL     OW56626  10.301   2.272   8.690
52201SOL    HW156627  10.224   2.306   8.744
52201SOL    HW256628  10.267   2.221   8.611
52202SOL     OW56629  10.351   2.563   7.877
52202SOL    HW156630  10.377   2.559   7.973
52202SOL    HW256631  10.266   2.512   7.863
52203SOL     OW56632   9.386   2.673   8.237
52203SOL    HW156633   9.485   2.661   8.246
52203SOL    HW256634   9.362   2.768   8.258
52204SOL     OW56635   9.440   3.683   9.019
52204SOL    HW156636   9.430   3.668   9.118
52204SOL    HW256637   9.354   3.719   8.983
52205SOL     OW56638  10.175   2.210   7.643
52205SOL    HW156639  10.234   2.273   7.594
52205SOL    HW256640  10.194   2.116   7.614
52206SOL     OW56641  11.029   2.447   9.279
52206SOL    HW156642  11.003   2.536   9.243
52206SOL    HW256643  11.027   2.379   9.206
52207SOL     OW56644  10.672   3.006   7.993
52207SOL    HW156645  10.755   2.977   7.945
52207SOL    HW256646  10.623   3.073   7.937
52208SOL     OW56647   9.860   2.058   8.333
52208SOL    HW156648   9.855   2.053   8.433
52208SOL    HW256649   9.862   2.154   8.304
52209SOL     OW56650  10.318   3.318   7.925
52209SOL    HW156651  10.272   3.390   7.873
52209SOL    HW256652  10.314   3.338   8.023
52210SOL     OW56653   9.661   3.663   8.301
52210SOL    HW156654   9.711   3.577   8.307
52210SOL    HW256655   9.726   3.740   8.298
52211SOL     OW56656  11.105   2.928   8.321
52211SOL    HW156657  11.043   2.913   8.245
52211SOL    HW256658  11.053   2.939   8.406
52212SOL     OW56659  10.537   3.412   8.954
52212SOL    HW156660  10.543   3.335   9.018
52212SOL    HW256661  10.485   3.386   8.874
52213SOL     OW56662   9.631   2.805   7.690
52213SOL    HW156663   9.713   2.844   7.648
52213SOL    HW256664   9.604   2.723   7.641
52214SOL     OW56665  10.768   2.597   8.176
52214SOL    HW156666  10.763   2.532   8.251
52214SOL    HW256667  10.848   2.656   8.189
52215SOL     OW56668   9.771   3.128   9.175
52215SOL    HW156669   9.721   3.129   9.089
52215SOL    HW256670   9.708   3.110   9.251
52216SOL     OW56671  10.421   3.638   7.685
52216SOL    HW156672  10.361   3.576   7.735
52216SOL    HW256673  10.452   3.594   7.600
52217SOL     OW56674   9.512   2.147   8.946
52217SOL    HW156675   9.432   2.207   8.933
52217SOL    HW256676   9.502   2.098   9.032
52218SOL     OW56677  10.942   3.239   7.529
52218SOL    HW156678  10.910   3.333   7.519
52218SOL    HW256679  10.866   3.176   7.517
52219SOL     OW56680   9.774   3.605   7.771
52219SOL    HW156681   9.807   3.644   7.857
52219SOL    HW256682   9.850   3.598   7.706
52220SOL     OW56683  10.710   1.969   7.874
52220SOL    HW156684  10.686   1.932   7.784
52220SOL    HW256685  10.809   1.985   7.878
52221SOL     OW56686   9.559   3.647   8.689
52221SOL    HW156687   9.616   3.582   8.739
52221SOL    HW256688   9.543   3.614   8.596
52222SOL     OW56689  10.250   3.560   8.352
52222SOL    HW156690  10.330   3.503   8.373
52222SOL    HW256691  10.201   3.520   8.275
52223SOL     OW56692   9.692   2.562   7.928
52223SOL    HW156693   9.737   2.472   7.925
52223SOL    HW256694   9.598   2.551   7.961
52224SOL     OW56695  10.857   2.084   9.177
52224SOL    HW156696  10.852   2.121   9.269
52224SOL    HW256697  10.785   2.015   9.165
52225SOL     OW56698   9.924   1.984   7.565
52225SOL    HW156699  10.022   1.962   7.572
52225SOL    HW256700   9.893   1.967   7.472
52226SOL     OW56701  10.091   2.126   9.197
52226SOL    HW156702  10.158   2.065   9.240
52226SOL    HW256703  10.018   2.145   9.262
52227SOL     OW56704  10.198   3.376   8.643
52227SOL    HW156705  10.175   3.351   8.549
52227SOL    HW256706  10.259   3.307   8.682
52228SOL     OW56707  10.661   2.452   8.881
52228SOL    HW156708  10.689   2.409   8.966
52228SOL    HW256709  10.686   2.548   8.882
52229SOL     OW56710  10.113   3.264   8.372
52229SOL    HW156711  10.203   3.278   8.330
52229SOL    HW256712  10.042   3.266   8.301
52230SOL     OW56713  10.232   2.365   8.347
52230SOL    HW156714  10.207   2.356   8.251
52230SOL    HW256715  10.280   2.283   8.378
52231SOL     OW56716   9.849   1.926   7.960
52231SOL    HW156717   9.768   1.927   8.018
52231SOL    HW256718   9.852   2.009   7.905
52232SOL     OW56719  10.744   3.050   7.489
52232SOL    HW156720  10.776   2.974   7.546
52232SOL    HW256721  10.652   3.077   7.519
52233SOL     OW56722   9.607   1.897   7.619
52233SOL    HW156723   9.656   1.981   7.598
52233SOL    HW256724   9.669   1.832   7.664
52234SOL     OW56725  10.245   2.098   7.928
52234SOL    HW156726  10.197   2.139   7.850
52234SOL    HW256727  10.344   2.096   7.909
52235SOL     OW56728  10.386   2.545   8.912
52235SOL    HW156729  10.306   2.484   8.915
52235SOL    HW256730  10.467   2.492   8.888
52236SOL     OW56731  10.537   3.432   8.241
52236SOL    HW156732  10.558   3.506   8.176
52236SOL    HW256733  10.605   3.432   8.314
52237SOL     OW56734   9.769   3.014   8.189
52237SOL    HW156735   9.698   2.987   8.254
52237SOL    HW256736   9.743   2.986   8.096
52238SOL     OW56737  10.581   3.659   8.039
52238SOL    HW156738  10.625   3.723   7.975
52238SOL    HW256739  10.531   3.711   8.109
52239SOL     OW56740  10.342   2.411   7.464
52239SOL    HW156741  10.301   2.493   7.425
52239SOL    HW256742  10.406   2.437   7.537
52240SOL     OW56743   9.871   2.084   8.595
52240SOL    HW156744   9.909   2.000   8.632
52240SOL    HW256745   9.783   2.103   8.639
52241SOL     OW56746  10.176   2.316   8.090
52241SOL    HW156747  10.144   2.388   8.028
52241SOL    HW256748  10.200   2.235   8.037
52242SOL     OW56749  10.327   1.901   8.201
52242SOL    HW156750  10.255   1.906   8.132
52242SOL    HW256751  10.303   1.832   8.270
52243SOL     OW56752  10.739   3.035   8.315
52243SOL    HW156753  10.684   2.951   8.308
52243SOL    HW256754  10.765   3.064   8.223
52244SOL     OW56755  10.776   2.452   8.440
52244SOL    HW156756  10.746   2.357   8.447
52244SOL    HW256757  10.849   2.468   8.506
52245SOL     OW56758  11.167   2.695   7.825
52245SOL    HW156759  11.209   2.631   7.889
52245SOL    HW256760  11.129   2.644   7.747
52246SOL     OW56761   9.798   3.247   7.622
52246SOL    HW156762   9.711   3.232   7.669
52246SOL    HW256763   9.781   3.273   7.527
52247SOL     OW56764  10.974   3.142   8.105
52247SOL    HW156765  11.073   3.150   8.119
52247SOL    HW256766  10.929   3.226   8.136
52248SOL     OW56767  10.700   2.437   7.526
52248SOL    HW156768  10.646   2.416   7.607
52248SOL    HW256769  10.791   2.396   7.535
52249SOL     OW56770   9.837   2.118   7.776
52249SOL    HW156771   9.864   2.059   7.701
52249SOL    HW256772   9.837   2.213   7.745
52250SOL     OW56773  11.064   3.085   9.036
52250SOL    HW156774  11.155   3.046   9.023
52250SOL    HW256775  11.072   3.181   9.060
52251SOL     OW56776  10.374   3.209   8.788
52251SOL    HW156777  10.294   3.186   8.843
52251SOL    HW256778  10.457   3.183   8.837
52252SOL     OW56779  10.902   3.491   9.073
52252SOL    HW156780  10.929   3.525   8.983
52252SOL    HW256781  10.981   3.453   9.119
52253SOL     OW56782  10.421   3.057   8.548
52253SOL    HW156783  10.381   3.101   8.629
52253SOL    HW256784  10.380   3.094   8.465
52254SOL     OW56785  10.948   2.961   8.527
52254SOL    HW156786  10.953   3.042   8.586
52254SOL    HW256787  10.862   2.963   8.476
52255SOL     OW56788  10.225   1.951   8.850
52255SOL    HW156789  10.250   1.931   8.755
52255SOL    HW256790  10.297   2.007   8.892
52256SOL     OW56791  10.290   2.978   9.167
52256SOL    HW156792  10.191   2.984   9.177
52256SOL    HW256793  10.313   2.898   9.111
52257SOL     OW56794  10.015   2.912   7.816
52257SOL    HW156795  10.001   2.919   7.915
52257SOL    HW256796  10.099   2.861   7.798
52258SOL     OW56797   9.720   2.675   8.699
52258SOL    HW156798   9.806   2.687   8.749
52258SOL    HW256799   9.678   2.588   8.726
52259SOL     OW56800  10.584   2.248   8.710
52259SOL    HW156801  10.605   2.322   8.774
52259SOL    HW256802  10.495   2.265   8.667
52260SOL     OW56803   9.374   3.426   8.779
52260SOL    HW156804   9.328   3.508   8.745
52260SOL    HW256805   9.472   3.445   8.788
52261SOL     OW56806   9.677   2.962   7.949
52261SOL    HW156807   9.670   3.045   7.893
52261SOL    HW256808   9.681   2.882   7.889
52262SOL     OW56809   9.876   2.399   8.313
52262SOL    HW156810   9.888   2.465   8.239
52262SOL    HW256811   9.922   2.433   8.396
52263SOL     OW56812  10.562   3.210   7.836
52263SOL    HW156813  10.612   3.287   7.876
52263SOL    HW256814  10.467   3.212   7.868
52264SOL     OW56815  10.582   3.307   8.590
52264SOL    HW156816  10.629   3.320   8.677
52264SOL    HW256817  10.516   3.233   8.599
52265SOL     OW56818  10.892   2.501   7.920
52265SOL    HW156819  10.861   2.562   7.993
52265SOL    HW256820  10.942   2.553   7.851
52266SOL     OW56821   9.664   3.372   8.777
52266SOL    HW156822   9.643   3.328   8.690
52266SOL    HW256823   9.761   3.398   8.780
52267SOL     OW56824   9.712   2.613   9.046
52267SOL    HW156825   9.780   2.668   8.999
52267SOL    HW256826   9.752   2.525   9.073
52268SOL     OW56827  10.897   2.641   9.118
52268SOL    HW156828  10.805   2.679   9.113
52268SOL    HW256829  10.957   2.688   9.053
52269SOL     OW56830  10.323   1.967   9.218
52269SOL    HW156831  10.329   2.052   9.166
52269SOL    HW256832  10.355   1.891   9.161
52270SOL     OW56833   9.814   1.912   9.188
52270SOL    HW156834   9.772   1.855   9.118
52270SOL    HW256835   9.748   1.981   9.220
52271SOL     OW56836   9.883   2.732   8.477
52271SOL    HW156837   9.927   2.821   8.468
52271SOL    HW256838   9.820   2.732   8.554
52272SOL     OW56839  10.670   2.724   8.493
52272SOL    HW156840  10.595   2.724   8.427
52272SOL    HW256841  10.707   2.632   8.502
52273SOL     OW56842   9.617   2.075   8.679
52273SOL    HW156843   9.594   2.112   8.769
52273SOL    HW256844   9.587   1.980   8.673
52274SOL     OW56845   9.347   3.172   8.730
52274SOL    HW156846   9.400   3.123   8.798
52274SOL    HW256847   9.369   3.270   8.735
52275SOL     OW56848  10.042   2.496   8.512
52275SOL    HW156849  10.101   2.470   8.436
52275SOL    HW256850  10.014   2.592   8.501
52276SOL     OW56851  11.038   2.797   9.302
52276SOL    HW156852  10.992   2.790   9.213
52276SOL    HW256853  10.976   2.841   9.368
52277SOL     OW56854   9.617   1.925   8.066
52277SOL    HW156855   9.606   2.019   8.099
52277SOL    HW256856   9.612   1.862   8.143
52278SOL     OW56857  10.932   2.229   7.822
52278SOL    HW156858  10.934   2.153   7.886
52278SOL    HW256859  10.884   2.306   7.862
52279SOL     OW56860  10.333   2.628   8.414
52279SOL    HW156861  10.348   2.649   8.510
52279SOL    HW256862  10.303   2.533   8.405
52280SOL     OW56863  10.290   3.435   9.148
52280SOL    HW156864  10.270   3.479   9.060
52280SOL    HW256865  10.329   3.344   9.132
52281SOL     OW56866  11.169   3.380   9.053
52281SOL    HW156867  11.183   3.407   8.958
52281SOL    HW256868  11.252   3.402   9.106
52282SOL     OW56869   9.660   2.760   9.252
52282SOL    HW156870   9.736   2.804   9.300
52282SOL    HW256871   9.695   2.713   9.170
52283SOL     OW56872  10.850   2.136   7.573
52283SOL    HW156873  10.789   2.061   7.596
52283SOL    HW256874  10.872   2.188   7.656
52284SOL     OW56875  10.613   2.700   7.490
52284SOL    HW156876  10.647   2.607   7.505
52284SOL    HW256877  10.631   2.727   7.395
52285SOL     OW56878  10.378   3.195   8.297
52285SOL    HW156879  10.385   3.111   8.242
52285SOL    HW256880  10.440   3.264   8.261
52286SOL     OW56881   9.629   2.672   8.397
52286SOL    HW156882   9.722   2.708   8.402
52286SOL    HW256883   9.623   2.587   8.449
52287SOL     OW56884   9.649   2.371   8.454
52287SOL    HW156885   9.597   2.288   8.437
52287SOL    HW256886   9.726   2.376   8.390
52288SOL     OW56887  10.448   2.242   9.126
52288SOL    HW156888  10.403   2.305   9.190
52288SOL    HW256889  10.541   2.273   9.109
52289SOL     OW56890  10.470   2.069   8.925
52289SOL    HW156891  10.470   2.133   9.002
52289SOL    HW256892  10.498   2.117   8.842
52290SOL     OW56893   9.318   3.188   7.648
52290SOL    HW156894   9.225   3.209   7.617
52290SOL    HW256895   9.328   3.089   7.661
52291SOL     OW56896   9.398   3.663   8.375
52291SOL    HW156897   9.356   3.577   8.348
52291SOL    HW256898   9.492   3.666   8.341
52292SOL     OW56899   9.814   3.430   8.358
52292SOL    HW156900   9.880   3.504   8.367
52292SOL    HW256901   9.858   3.351   8.316
52293SOL     OW56902  10.312   2.658   8.686
52293SOL    HW156903  10.353   2.626   8.772
52293SOL    HW256904  10.216   2.631   8.683
52294SOL     OW56905   9.350   2.406   8.562
52294SOL    HW156906   9.435   2.373   8.521
52294SOL    HW256907   9.363   2.421   8.660
52295SOL     OW56908   9.499   2.382   9.170
52295SOL    HW156909   9.558   2.342   9.100
52295SOL    HW256910   9.441   2.453   9.129
52296SOL     OW56911  10.679   2.812   9.108
52296SOL    HW156912  10.718   2.901   9.128
52296SOL    HW256913  10.689   2.792   9.011
52297SOL     OW56914  10.125   2.434   7.773
52297SOL    HW156915  10.132   2.345   7.727
52297SOL    HW256916  10.031   2.468   7.765
52298SOL     OW56917  10.967   2.466   8.654
52298SOL    HW156918  10.929   2.397   8.716
52298SOL    HW256919  11.049   2.430   8.610
52299SOL     OW56920   9.562   3.426   9.192
52299SOL    HW156921   9.532   3.483   9.268
52299SOL    HW256922   9.555   3.329   9.218
52300SOL     OW56923   9.981   2.326   8.717
52300SOL    HW156924   9.947   2.237   8.687
52300SOL    HW256925  10.007   2.380   8.637
52301SOL     OW56926  10.240   3.540   8.913
52301SOL    HW156927  10.216   3.522   8.818
52301SOL    HW256928  10.270   3.634   8.923
52302SOL     OW56929   9.783   2.362   7.639
52302SOL    HW156930   9.844   2.442   7.643
52302SOL    HW256931   9.688   2.393   7.646
52303SOL     OW56932   9.469   2.999   8.914
52303SOL    HW156933   9.491   2.938   8.990
52303SOL    HW256934   9.479   2.950   8.828
52304SOL     OW56935  10.657   2.921   8.682
52304SOL    HW156936  10.681   2.858   8.608
52304SOL    HW256937  10.567   2.961   8.664
52305SOL     OW56938  10.612   2.717   7.757
52305SOL    HW156939  10.526   2.686   7.799
52305SOL    HW256940  10.608   2.703   7.658
52306SOL     OW56941  11.069   3.609   8.602
52306SOL    HW156942  11.130   3.639   8.529
52306SOL    HW256943  11.031   3.520   8.580
52307SOL     OW56944  10.562   3.593   8.576
52307SOL    HW156945  10.646   3.598   8.522
52307SOL    HW256946  10.539   3.497   8.594
52308SOL     OW56947   9.393   3.120   8.470
52308SOL    HW156948   9.388   3.119   8.570
52308SOL    HW256949   9.310   3.079   8.432
52309SOL     OW56950   9.998   3.524   9.164
52309SOL    HW156951   9.942   3.605   9.173
52309SOL    HW256952  10.050   3.528   9.078
52310SOL     OW56953  11.036   1.997   7.971
52310SOL    HW156954  11.109   1.980   7.904
52310SOL    HW256955  11.005   1.910   8.009
52311SOL     OW56956  10.698   3.435   7.925
52311SOL    HW156957  10.765   3.447   7.851
52311SOL    HW256958  10.658   3.524   7.948
52312SOL     OW56959   9.440   3.656   9.299
52312SOL    HW156960   9.399   3.582   9.352
52312SOL    HW256961   9.504   3.707   9.357
52313SOL     OW56962  10.590   2.789   8.120
52313SOL    HW156963  10.650   2.708   8.122
52313SOL    HW256964  10.630   2.858   8.060
52314SOL     OW56965  10.140   3.135   8.870
52314SOL    HW156966  10.135   3.168   8.965
52314SOL    HW256967  10.054   3.154   8.824
52315SOL     OW56968   9.982   3.478   7.602
52315SOL    HW156969   9.991   3.488   7.503
52315SOL    HW256970   9.942   3.389   7.623
52316SOL     OW56971  10.960   3.582   8.842
52316SOL    HW156972  11.013   3.592   8.758
52316SOL    HW256973  10.933   3.672   8.876
52317SOL     OW56974  11.151   2.037   8.411
52317SOL    HW156975  11.190   1.952   8.375
52317SOL    HW256976  11.053   2.039   8.392
52318SOL     OW56977   9.573   2.188   8.168
52318SOL    HW156978   9.494   2.239   8.134
52318SOL    HW256979   9.564   2.173   8.266
52319SOL     OW56980  10.504   3.474   7.479
52319SOL    HW156981  10.510   3.381   7.516
52319SOL    HW256982  10.445   3.474   7.399
52320SOL     OW56983  10.132   2.864   8.820
52320SOL    HW156984  10.172   2.863   8.728
52320SOL    HW256985  10.142   2.956   8.860
52321SOL     OW56986  10.226   2.772   7.739
52321SOL    HW156987  10.289   2.810   7.671
52321SOL    HW256988  10.266   2.689   7.778
52322SOL     OW56989  10.814   3.469   7.492
52322SOL    HW156990  10.722   3.506   7.499
52322SOL    HW256991  10.852   3.489   7.402
52323SOL     OW56992   9.682   3.150   8.938
52323SOL    HW156993   9.669   3.243   8.904
52323SOL    HW256994   9.598   3.098   8.925
52324SOL     OW56995  10.924   3.154   8.737
52324SOL    HW156996  10.984   3.157   8.817
52324SOL    HW256997  10.849   3.218   8.750
52325SOL     OW56998  10.349   2.960   8.144
52325SOL    HW156999  10.279   2.913   8.198
52325SOL    HW257000  10.408   2.892   8.101
52326SOL     OW57001  10.324   2.098   8.419
52326SOL    HW157002  10.316   2.062   8.326
52326SOL    HW257003  10.322   2.022   8.484
52327SOL     OW57004   9.900   3.349   7.939
52327SOL    HW157005   9.942   3.291   7.869
52327SOL    HW257006   9.856   3.428   7.895
52328SOL     OW57007  11.019   2.247   8.829
52328SOL    HW157008  11.092   2.316   8.833
52328SOL    HW257009  11.047   2.172   8.770
52329SOL     OW57010   9.565   3.210   7.738
52329SOL    HW157011   9.469   3.211   7.711
52329SOL    HW257012   9.577   3.263   7.822
52330SOL     OW57013   9.415   2.875   9.174
52330SOL    HW157014   9.338   2.842   9.228
52330SOL    HW257015   9.500   2.845   9.216
52331SOL     OW57016   9.982   2.065   8.937
52331SOL    HW157017  10.072   2.049   8.897
52331SOL    HW257018   9.990   2.070   9.036
52332SOL     OW57019   9.385   2.207   7.481
52332SOL    HW157020   9.293   2.179   7.452
52332SOL    HW257021   9.416   2.284   7.425
52333SOL     OW57022  10.750   2.718   8.846
52333SOL    HW157023  10.693   2.770   8.783
52333SOL    HW257024  10.846   2.730   8.822
52334SOL     OW57025   9.382   2.028   7.766
52334SOL    HW157026   9.365   2.111   7.712
52334SOL    HW257027   9.472   1.991   7.744
52335SOL     OW57028  10.493   3.197   7.567
52335SOL    HW157029  10.394   3.186   7.569
52335SOL    HW257030  10.527   3.212   7.660
52336SOL     OW57031   9.923   2.704   8.879
52336SOL    HW157032   9.979   2.785   8.862
52336SOL    HW257033   9.982   2.624   8.882
52337SOL     OW57034  10.803   3.629   8.407
52337SOL    HW157035  10.836   3.693   8.338
52337SOL    HW257036  10.869   3.623   8.482
52338SOL     OW57037  10.026   2.427   9.156
52338SOL    HW157038  10.045   2.492   9.230
52338SOL    HW257039  10.086   2.347   9.165
52339SOL     OW57040  10.760   3.082   9.081
52339SOL    HW157041  10.751   3.072   9.180
52339SOL    HW257042  10.856   3.075   9.055
52340SOL     OW57043   9.700   3.603   9.008
52340SOL    HW157044   9.609   3.644   9.006
52340SOL    HW257045   9.693   3.509   9.040
52341SOL     OW57046  10.984   2.745   8.702
52341SOL    HW157047  10.957   2.656   8.665
52341SOL    HW257048  10.985   2.813   8.629
52342SOL     OW57049  10.535   2.187   7.897
52342SOL    HW157050  10.600   2.113   7.886
52342SOL    HW257051  10.555   2.237   7.981
52343SOL     OW57052   9.904   2.607   8.100
52343SOL    HW157053   9.954   2.692   8.081
52343SOL    HW257054   9.816   2.609   8.052
52344SOL     OW57055  11.087   2.204   9.090
52344SOL    HW157056  11.070   2.235   8.996
52344SOL    HW257057  11.003   2.167   9.128
52345SOL     OW57058  11.040   2.796   8.965
52345SOL    HW157059  11.078   2.887   8.980
52345SOL    HW257060  11.032   2.779   8.866
52346SOL     OW57061  10.169   3.236   7.464
52346SOL    HW157062  10.123   3.251   7.552
52346SOL    HW257063  10.213   3.321   7.434
52347SOL     OW57064   9.971   3.652   8.401
52347SOL    HW157065   9.925   3.740   8.388
52347SOL    HW257066  10.070   3.664   8.394
52348SOL     OW57067  10.169   2.818   8.309
52348SOL    HW157068  10.223   2.749   8.357
52348SOL    HW257069  10.137   2.887   8.375
52349SOL     OW57070  10.393   2.846   7.535
52349SOL    HW157071  10.370   2.899   7.453
52349SOL    HW257072  10.474   2.790   7.516
52350SOL     OW57073  11.171   3.431   8.299
52350SOL    HW157074  11.100   3.419   8.229
52350SOL    HW257075  11.172   3.352   8.359
52351SOL     OW57076   9.531   3.176   9.292
52351SOL    HW157077   9.466   3.103   9.271
52351SOL    HW257078   9.535   3.190   9.390
52352SOL     OW57079   9.389   3.102   8.101
52352SOL    HW157080   9.388   3.055   8.189
52352SOL    HW257081   9.471   3.074   8.050
52353SOL     OW57082   9.982   3.253   9.072
52353SOL    HW157083   9.904   3.203   9.110
52353SOL    HW257084   9.979   3.348   9.103
52354SOL     OW57085  11.134   2.054   8.675
52354SOL    HW157086  11.130   1.964   8.719
52354SOL    HW257087  11.137   2.043   8.576
52355SOL     OW57088   9.738   2.286   7.968
52355SOL    HW157089   9.768   2.214   7.906
52355SOL    HW257090   9.699   2.246   8.051
52356SOL     OW57091  11.015   3.349   8.552
52356SOL    HW157092  10.922   3.324   8.525
52356SOL    HW257093  11.041   3.299   8.634
52357SOL     OW57094   9.627   2.409   8.728
52357SOL    HW157095   9.665   2.350   8.800
52357SOL    HW257096   9.667   2.383   8.640
52358SOL     OW57097  10.122   3.448   8.135
52358SOL    HW157098  10.154   3.458   8.041
52358SOL    HW257099  10.043   3.386   8.137
52359SOL     OW57100  10.734   2.076   8.560
52359SOL    HW157101  10.786   2.011   8.615
52359SOL    HW257102  10.685   2.139   8.621
52360SOL     OW57103  10.311   1.896   8.602
52360SOL    HW157104  10.248   1.824   8.571
52360SOL    HW257105  10.404   1.860   8.602
52361SOL     OW57106  10.080   3.192   7.749
52361SOL    HW157107  10.034   3.105   7.766
52361SOL    HW257108  10.171   3.189   7.790
52362SOL     OW57109   9.928   3.429   8.732
52362SOL    HW157110   9.923   3.511   8.789
52362SOL    HW257111  10.017   3.426   8.687
52363SOL     OW57112  10.662   1.914   7.616
52363SOL    HW157113  10.697   1.873   7.532
52363SOL    HW257114  10.572   1.876   7.636
52364SOL     OW57115  10.610   2.315   8.139
52364SOL    HW157116  10.551   2.395   8.143
52364SOL    HW257117  10.625   2.280   8.232
52365SOL     OW57118  10.903   2.083   8.330
52365SOL    HW157119  10.819   2.082   8.384
52365SOL    HW257120  10.905   2.166   8.274
52366SOL     OW57121   9.349   2.939   7.748
52366SOL    HW157122   9.448   2.928   7.739
52366SOL    HW257123   9.309   2.853   7.780
52367SOL     OW57124  10.185   3.508   7.785
52367SOL    HW157125  10.108   3.473   7.731
52367SOL    HW257126  10.153   3.579   7.847
52368SOL     OW57127   9.540   2.490   9.423
52368SOL    HW157128   9.447   2.488   9.460
52368SOL    HW257129   9.541   2.451   9.331
52369SOL     OW57130   9.535   2.137  10.306
52369SOL    HW157131   9.570   2.120  10.398
52369SOL    HW257132   9.447   2.092  10.294
52370SOL     OW57133   9.329   2.230   9.957
52370SOL    HW157134   9.247   2.273   9.996
52370SOL    HW257135   9.301   2.157   9.894
52371SOL     OW57136   9.879   3.137  10.475
52371SOL    HW157137   9.786   3.130  10.438
52371SOL    HW257138   9.890   3.226  10.519
52372SOL     OW57139  10.865   3.373  10.013
52372SOL    HW157140  10.808   3.357  10.094
52372SOL    HW257141  10.806   3.383   9.933
52373SOL     OW57142  10.445   2.565  10.027
52373SOL    HW157143  10.502   2.643  10.002
52373SOL    HW257144  10.385   2.591  10.103
52374SOL     OW57145  11.065   2.469   9.541
52374SOL    HW157146  11.053   2.456   9.442
52374SOL    HW257147  11.035   2.388   9.590
52375SOL     OW57148  10.078   3.006  10.333
52375SOL    HW157149  10.000   3.023  10.393
52375SOL    HW257150  10.112   3.093  10.297
52376SOL     OW57151  10.160   2.660  11.133
52376SOL    HW157152  10.156   2.736  11.198
52376SOL    HW257153  10.182   2.696  11.042
52377SOL     OW57154   9.995   2.874   9.975
52377SOL    HW157155  10.064   2.858  10.045
52377SOL    HW257156   9.922   2.931  10.013
52378SOL     OW57157   9.996   3.023  11.113
52378SOL    HW157158  10.056   3.102  11.127
52378SOL    HW257159   9.910   3.054  11.072
52379SOL     OW57160   9.645   3.297  10.371
52379SOL    HW157161   9.567   3.266  10.318
52379SOL    HW257162   9.703   3.355  10.314
52380SOL     OW57163  10.770   3.367  10.649
52380SOL    HW157164  10.794   3.461  10.675
52380SOL    HW257165  10.754   3.313  10.731
52381SOL     OW57166   9.748   2.254  10.809
52381SOL    HW157167   9.830   2.198  10.818
52381SOL    HW257168   9.667   2.196  10.813
52382SOL     OW57169  10.913   2.309  10.047
52382SOL    HW157170  10.839   2.355   9.997
52382SOL    HW257171  10.964   2.377  10.100
52383SOL     OW57172   9.541   3.575   9.793
52383SOL    HW157173   9.575   3.652   9.847
52383SOL    HW257174   9.585   3.575   9.703
52384SOL     OW57175  10.437   3.203  11.000
52384SOL    HW157176  10.484   3.203  11.088
52384SOL    HW257177  10.389   3.116  10.989
52385SOL     OW57178   9.540   3.296   9.848
52385SOL    HW157179   9.514   3.392   9.848
52385SOL    HW257180   9.469   3.242   9.893
52386SOL     OW57181   9.550   2.953  10.196
52386SOL    HW157182   9.564   2.869  10.248
52386SOL    HW257183   9.495   3.017  10.251
52387SOL     OW57184   9.930   3.648  10.749
52387SOL    HW157185   9.838   3.631  10.784
52387SOL    HW257186   9.958   3.740  10.775
52388SOL     OW57187   9.916   2.826   9.433
52388SOL    HW157188   9.923   2.910   9.379
52388SOL    HW257189   9.962   2.839   9.521
52389SOL     OW57190  10.904   1.976  10.790
52389SOL    HW157191  10.886   2.043  10.718
52389SOL    HW257192  10.901   2.022  10.879
52390SOL     OW57193   9.432   2.505   9.873
52390SOL    HW157194   9.387   2.417   9.890
52390SOL    HW257195   9.431   2.559   9.957
52391SOL     OW57196  11.152   3.629   9.669
52391SOL    HW157197  11.206   3.600   9.749
52391SOL    HW257198  11.182   3.719   9.640
52392SOL     OW57199   9.337   3.458   9.427
52392SOL    HW157200   9.318   3.362   9.448
52392SOL    HW257201   9.304   3.516   9.502
52393SOL     OW57202  10.999   2.784   9.922
52393SOL    HW157203  11.094   2.755   9.930
52393SOL    HW257204  10.991   2.849   9.847
52394SOL     OW57205  10.951   2.970   9.742
52394SOL    HW157206  11.037   2.972   9.690
52394SOL    HW257207  10.965   3.017   9.830
52395SOL     OW57208   9.423   2.599  10.907
52395SOL    HW157209   9.511   2.586  10.952
52395SOL    HW257210   9.410   2.696  10.885
52396SOL     OW57211   9.923   3.227  10.036
52396SOL    HW157212   9.874   3.140  10.045
52396SOL    HW257213   9.900   3.270   9.949
52397SOL     OW57214  10.603   3.090  10.733
52397SOL    HW157215  10.640   3.017  10.675
52397SOL    HW257216  10.655   3.095  10.818
52398SOL     OW57217  10.119   1.866   9.812
52398SOL    HW157218  10.159   1.957   9.803
52398SOL    HW257219  10.019   1.874   9.818
52399SOL     OW57220   9.507   2.838  10.574
52399SOL    HW157221   9.596   2.793  10.560
52399SOL    HW257222   9.434   2.773  10.555
52400SOL     OW57223  10.835   2.861   9.500
52400SOL    HW157224  10.772   2.785   9.513
52400SOL    HW257225  10.883   2.879   9.586
52401SOL     OW57226  10.497   3.654  10.926
52401SOL    HW157227  10.521   3.714  10.850
52401SOL    HW257228  10.504   3.559  10.896
52402SOL     OW57229   9.627   2.113  11.111
52402SOL    HW157230   9.698   2.184  11.117
52402SOL    HW257231   9.539   2.152  11.139
52403SOL     OW57232  10.776   3.279  10.263
52403SOL    HW157233  10.717   3.285  10.343
52403SOL    HW257234  10.761   3.191  10.217
52404SOL     OW57235  10.977   3.576   9.882
52404SOL    HW157236  10.936   3.553   9.794
52404SOL    HW257237  10.959   3.502   9.947
52405SOL     OW57238   9.908   2.591   9.580
52405SOL    HW157239   9.932   2.660   9.512
52405SOL    HW257240   9.830   2.624   9.634
52406SOL     OW57241  10.591   2.207  10.254
52406SOL    HW157242  10.505   2.157  10.241
52406SOL    HW257243  10.653   2.153  10.310
52407SOL     OW57244  10.886   3.524   9.617
52407SOL    HW157245  10.975   3.570   9.620
52407SOL    HW257246  10.865   3.500   9.522
52408SOL     OW57247  10.117   2.467  10.775
52408SOL    HW157248  10.070   2.464  10.864
52408SOL    HW257249  10.066   2.412  10.709
52409SOL     OW57250  10.704   2.331  10.984
52409SOL    HW157251  10.684   2.374  11.072
52409SOL    HW257252  10.782   2.269  10.993
52410SOL     OW57253  10.283   2.752  10.882
52410SOL    HW157254  10.329   2.668  10.853
52410SOL    HW257255  10.227   2.786  10.807
52411SOL     OW57256  10.301   2.272  10.552
52411SOL    HW157257  10.224   2.306  10.606
52411SOL    HW257258  10.267   2.221  10.473
52412SOL     OW57259  10.351   2.563   9.739
52412SOL    HW157260  10.377   2.559   9.835
52412SOL    HW257261  10.266   2.512   9.725
52413SOL     OW57262   9.386   2.673  10.099
52413SOL    HW157263   9.485   2.661  10.108
52413SOL    HW257264   9.362   2.768  10.120
52414SOL     OW57265   9.440   3.683  10.881
52414SOL    HW157266   9.430   3.668  10.980
52414SOL    HW257267   9.354   3.719  10.845
52415SOL     OW57268  10.175   2.210   9.505
52415SOL    HW157269  10.234   2.273   9.456
52415SOL    HW257270  10.194   2.116   9.476
52416SOL     OW57271  11.029   2.447  11.141
52416SOL    HW157272  11.003   2.536  11.105
52416SOL    HW257273  11.027   2.379  11.068
52417SOL     OW57274  10.672   3.006   9.855
52417SOL    HW157275  10.755   2.977   9.807
52417SOL    HW257276  10.623   3.073   9.799
52418SOL     OW57277   9.860   2.058  10.195
52418SOL    HW157278   9.855   2.053  10.295
52418SOL    HW257279   9.862   2.154  10.166
52419SOL     OW57280  10.318   3.318   9.787
52419SOL    HW157281  10.272   3.390   9.735
52419SOL    HW257282  10.314   3.338   9.885
52420SOL     OW57283   9.661   3.663  10.163
52420SOL    HW157284   9.711   3.577  10.169
52420SOL    HW257285   9.726   3.740  10.160
52421SOL     OW57286  11.105   2.928  10.183
52421SOL    HW157287  11.043   2.913  10.107
52421SOL    HW257288  11.053   2.939  10.268
52422SOL     OW57289  10.537   3.412  10.816
52422SOL    HW157290  10.543   3.335  10.880
52422SOL    HW257291  10.485   3.386  10.736
52423SOL     OW57292   9.631   2.805   9.552
52423SOL    HW157293   9.713   2.844   9.510
52423SOL    HW257294   9.604   2.723   9.503
52424SOL     OW57295  10.768   2.597  10.038
52424SOL    HW157296  10.763   2.532  10.113
52424SOL    HW257297  10.848   2.656  10.051
52425SOL     OW57298   9.771   3.128  11.037
52425SOL    HW157299   9.721   3.129  10.951
52425SOL    HW257300   9.708   3.110  11.113
52426SOL     OW57301  10.421   3.638   9.547
52426SOL    HW157302  10.361   3.576   9.597
52426SOL    HW257303  10.452   3.594   9.462
52427SOL     OW57304   9.512   2.147  10.808
52427SOL    HW157305   9.432   2.207  10.795
52427SOL    HW257306   9.502   2.098  10.894
52428SOL     OW57307  10.942   3.239   9.391
52428SOL    HW157308  10.910   3.333   9.381
52428SOL    HW257309  10.866   3.176   9.379
52429SOL     OW57310   9.774   3.605   9.633
52429SOL    HW157311   9.807   3.644   9.719
52429SOL    HW257312   9.850   3.598   9.568
52430SOL     OW57313  10.710   1.969   9.736
52430SOL    HW157314  10.686   1.932   9.646
52430SOL    HW257315  10.809   1.985   9.740
52431SOL     OW57316   9.559   3.647  10.551
52431SOL    HW157317   9.616   3.582  10.601
52431SOL    HW257318   9.543   3.614  10.458
52432SOL     OW57319  10.250   3.560  10.214
52432SOL    HW157320  10.330   3.503  10.235
52432SOL    HW257321  10.201   3.520  10.137
52433SOL     OW57322   9.692   2.562   9.790
52433SOL    HW157323   9.737   2.472   9.787
52433SOL    HW257324   9.598   2.551   9.823
52434SOL     OW57325  10.857   2.084  11.039
52434SOL    HW157326  10.852   2.121  11.131
52434SOL    HW257327  10.785   2.015  11.027
52435SOL     OW57328   9.924   1.984   9.427
52435SOL    HW157329  10.022   1.962   9.434
52435SOL    HW257330   9.893   1.967   9.334
52436SOL     OW57331  10.091   2.126  11.059
52436SOL    HW157332  10.158   2.065  11.102
52436SOL    HW257333  10.018   2.145  11.124
52437SOL     OW57334  10.198   3.376  10.505
52437SOL    HW157335  10.175   3.351  10.411
52437SOL    HW257336  10.259   3.307  10.544
52438SOL     OW57337  10.661   2.452  10.743
52438SOL    HW157338  10.689   2.409  10.828
52438SOL    HW257339  10.686   2.548  10.744
52439SOL     OW57340  10.113   3.264  10.234
52439SOL    HW157341  10.203   3.278  10.192
52439SOL    HW257342  10.042   3.266  10.163
52440SOL     OW57343  10.232   2.365  10.209
52440SOL    HW157344  10.207   2.356  10.113
52440SOL    HW257345  10.280   2.283  10.240
52441SOL     OW57346   9.849   1.926   9.822
52441SOL    HW157347   9.768   1.927   9.880
52441SOL    HW257348   9.852   2.009   9.767
52442SOL     OW57349  10.744   3.050   9.351
52442SOL    HW157350  10.776   2.974   9.408
52442SOL    HW257351  10.652   3.077   9.381
52443SOL     OW57352   9.607   1.897   9.481
52443SOL    HW157353   9.656   1.981   9.460
52443SOL    HW257354   9.669   1.832   9.526
52444SOL     OW57355  10.245   2.098   9.790
52444SOL    HW157356  10.197   2.139   9.712
52444SOL    HW257357  10.344   2.096   9.771
52445SOL     OW57358  10.386   2.545  10.774
52445SOL    HW157359  10.306   2.484  10.777
52445SOL    HW257360  10.467   2.492  10.750
52446SOL     OW57361  10.537   3.432  10.103
52446SOL    HW157362  10.558   3.506  10.038
52446SOL    HW257363  10.605   3.432  10.176
52447SOL     OW57364   9.769   3.014  10.051
52447SOL    HW157365   9.698   2.987  10.116
52447SOL    HW257366   9.743   2.986   9.958
52448SOL     OW57367  10.581   3.659   9.901
52448SOL    HW157368  10.625   3.723   9.837
52448SOL    HW257369  10.531   3.711   9.971
52449SOL     OW57370  10.342   2.411   9.326
52449SOL    HW157371  10.301   2.493   9.287
52449SOL    HW257372  10.406   2.437   9.399
52450SOL     OW57373   9.388   2.418  10.696
52450SOL    HW157374   9.480   2.417  10.655
52450SOL    HW257375   9.382   2.492  10.763
52451SOL     OW57376   9.871   2.084  10.457
52451SOL    HW157377   9.909   2.000  10.494
52451SOL    HW257378   9.783   2.103  10.501
52452SOL     OW57379  10.176   2.316   9.952
52452SOL    HW157380  10.144   2.388   9.890
52452SOL    HW257381  10.200   2.235   9.899
52453SOL     OW57382  10.327   1.901  10.063
52453SOL    HW157383  10.255   1.906   9.994
52453SOL    HW257384  10.303   1.832  10.132
52454SOL     OW57385  10.739   3.035  10.177
52454SOL    HW157386  10.684   2.951  10.170
52454SOL    HW257387  10.765   3.064  10.085
52455SOL     OW57388  10.776   2.452  10.302
52455SOL    HW157389  10.746   2.357  10.309
52455SOL    HW257390  10.849   2.468  10.368
52456SOL     OW57391  11.167   2.695   9.687
52456SOL    HW157392  11.209   2.631   9.751
52456SOL    HW257393  11.129   2.644   9.609
52457SOL     OW57394   9.798   3.247   9.484
52457SOL    HW157395   9.711   3.232   9.531
52457SOL    HW257396   9.781   3.273   9.389
52458SOL     OW57397  10.974   3.142   9.967
52458SOL    HW157398  11.073   3.150   9.981
52458SOL    HW257399  10.929   3.226   9.998
52459SOL     OW57400  10.700   2.437   9.388
52459SOL    HW157401  10.646   2.416   9.469
52459SOL    HW257402  10.791   2.396   9.397
52460SOL     OW57403   9.837   2.118   9.638
52460SOL    HW157404   9.864   2.059   9.563
52460SOL    HW257405   9.837   2.213   9.607
52461SOL     OW57406  11.064   3.085  10.898
52461SOL    HW157407  11.155   3.046  10.885
52461SOL    HW257408  11.072   3.181  10.922
52462SOL     OW57409  10.374   3.209  10.650
52462SOL    HW157410  10.294   3.186  10.705
52462SOL    HW257411  10.457   3.183  10.699
52463SOL     OW57412  10.902   3.491  10.935
52463SOL    HW157413  10.929   3.525  10.845
52463SOL    HW257414  10.981   3.453  10.981
52464SOL     OW57415  10.421   3.057  10.410
52464SOL    HW157416  10.381   3.101  10.491
52464SOL    HW257417  10.380   3.094  10.327
52465SOL     OW57418  10.948   2.961  10.389
52465SOL    HW157419  10.953   3.042  10.448
52465SOL    HW257420  10.862   2.963  10.338
52466SOL     OW57421  10.225   1.951  10.712
52466SOL    HW157422  10.250   1.931  10.617
52466SOL    HW257423  10.297   2.007  10.754
52467SOL     OW57424  10.290   2.978  11.029
52467SOL    HW157425  10.191   2.984  11.039
52467SOL    HW257426  10.313   2.898  10.973
52468SOL     OW57427  10.015   2.912   9.678
52468SOL    HW157428  10.001   2.919   9.777
52468SOL    HW257429  10.099   2.861   9.660
52469SOL     OW57430   9.720   2.675  10.561
52469SOL    HW157431   9.806   2.687  10.611
52469SOL    HW257432   9.678   2.588  10.588
52470SOL     OW57433  10.584   2.248  10.572
52470SOL    HW157434  10.605   2.322  10.636
52470SOL    HW257435  10.495   2.265  10.529
52471SOL     OW57436   9.374   3.426  10.641
52471SOL    HW157437   9.328   3.508  10.607
52471SOL    HW257438   9.472   3.445  10.650
52472SOL     OW57439   9.677   2.962   9.811
52472SOL    HW157440   9.670   3.045   9.755
52472SOL    HW257441   9.681   2.882   9.751
52473SOL     OW57442   9.876   2.399  10.175
52473SOL    HW157443   9.888   2.465  10.101
52473SOL    HW257444   9.922   2.433  10.258
52474SOL     OW57445  10.562   3.210   9.698
52474SOL    HW157446  10.612   3.287   9.738
52474SOL    HW257447  10.467   3.212   9.730
52475SOL     OW57448  10.582   3.307  10.452
52475SOL    HW157449  10.629   3.320  10.539
52475SOL    HW257450  10.516   3.233  10.461
52476SOL     OW57451  10.892   2.501   9.782
52476SOL    HW157452  10.861   2.562   9.855
52476SOL    HW257453  10.942   2.553   9.713
52477SOL     OW57454   9.664   3.372  10.639
52477SOL    HW157455   9.643   3.328  10.552
52477SOL    HW257456   9.761   3.398  10.642
52478SOL     OW57457   9.712   2.613  10.908
52478SOL    HW157458   9.780   2.668  10.861
52478SOL    HW257459   9.752   2.525  10.935
52479SOL     OW57460  10.897   2.641  10.980
52479SOL    HW157461  10.805   2.679  10.975
52479SOL    HW257462  10.957   2.688  10.915
52480SOL     OW57463  10.323   1.967  11.080
52480SOL    HW157464  10.329   2.052  11.028
52480SOL    HW257465  10.355   1.891  11.023
52481SOL     OW57466   9.814   1.912  11.050
52481SOL    HW157467   9.772   1.855  10.980
52481SOL    HW257468   9.748   1.981  11.082
52482SOL     OW57469   9.883   2.732  10.339
52482SOL    HW157470   9.927   2.821  10.330
52482SOL    HW257471   9.820   2.732  10.416
52483SOL     OW57472  10.670   2.724  10.355
52483SOL    HW157473  10.595   2.724  10.289
52483SOL    HW257474  10.707   2.632  10.364
52484SOL     OW57475  10.519   2.387   9.585
52484SOL    HW157476  10.532   2.303   9.639
52484SOL    HW257477  10.490   2.461   9.645
52485SOL     OW57478   9.617   2.075  10.541
52485SOL    HW157479   9.594   2.112  10.631
52485SOL    HW257480   9.587   1.980  10.535
52486SOL     OW57481   9.347   3.172  10.592
52486SOL    HW157482   9.400   3.123  10.660
52486SOL    HW257483   9.369   3.270  10.597
52487SOL     OW57484  10.042   2.496  10.374
52487SOL    HW157485  10.101   2.470  10.298
52487SOL    HW257486  10.014   2.592  10.363
52488SOL     OW57487  11.038   2.797  11.164
52488SOL    HW157488  10.992   2.790  11.075
52488SOL    HW257489  10.976   2.841  11.230
52489SOL     OW57490   9.617   1.925   9.928
52489SOL    HW157491   9.606   2.019   9.961
52489SOL    HW257492   9.612   1.862  10.005
52490SOL     OW57493  10.932   2.229   9.684
52490SOL    HW157494  10.934   2.153   9.748
52490SOL    HW257495  10.884   2.306   9.724
52491SOL     OW57496  10.333   2.628  10.276
52491SOL    HW157497  10.348   2.649  10.372
52491SOL    HW257498  10.303   2.533  10.267
52492SOL     OW57499  10.290   3.435  11.010
52492SOL    HW157500  10.270   3.479  10.922
52492SOL    HW257501  10.329   3.344  10.994
52493SOL     OW57502  11.169   3.380  10.915
52493SOL    HW157503  11.183   3.407  10.820
52493SOL    HW257504  11.252   3.402  10.968
52494SOL     OW57505   9.660   2.760  11.114
52494SOL    HW157506   9.736   2.804  11.162
52494SOL    HW257507   9.695   2.713  11.032
52495SOL     OW57508  10.850   2.136   9.435
52495SOL    HW157509  10.789   2.061   9.458
52495SOL    HW257510  10.872   2.188   9.518
52496SOL     OW57511  10.613   2.700   9.352
52496SOL    HW157512  10.647   2.607   9.367
52496SOL    HW257513  10.631   2.727   9.257
52497SOL     OW57514  10.378   3.195  10.159
52497SOL    HW157515  10.385   3.111  10.104
52497SOL    HW257516  10.440   3.264  10.123
52498SOL     OW57517   9.629   2.672  10.259
52498SOL    HW157518   9.722   2.708  10.264
52498SOL    HW257519   9.623   2.587  10.311
52499SOL     OW57520   9.649   2.371  10.316
52499SOL    HW157521   9.597   2.288  10.299
52499SOL    HW257522   9.726   2.376  10.252
52500SOL     OW57523  10.448   2.242  10.988
52500SOL    HW157524  10.403   2.305  11.052
52500SOL    HW257525  10.541   2.273  10.971
52501SOL     OW57526  10.470   2.069  10.787
52501SOL    HW157527  10.470   2.133  10.864
52501SOL    HW257528  10.498   2.117  10.704
52502SOL     OW57529   9.318   3.188   9.510
52502SOL    HW157530   9.225   3.209   9.479
52502SOL    HW257531   9.328   3.089   9.523
52503SOL     OW57532   9.398   3.663  10.237
52503SOL    HW157533   9.356   3.577  10.210
52503SOL    HW257534   9.492   3.666  10.203
52504SOL     OW57535   9.814   3.430  10.220
52504SOL    HW157536   9.880   3.504  10.229
52504SOL    HW257537   9.858   3.351  10.178
52505SOL     OW57538  10.312   2.658  10.548
52505SOL    HW157539  10.353   2.626  10.634
52505SOL    HW257540  10.216   2.631  10.545
52506SOL     OW57541   9.350   2.406  10.424
52506SOL    HW157542   9.435   2.373  10.383
52506SOL    HW257543   9.363   2.421  10.522
52507SOL     OW57544   9.499   2.382  11.032
52507SOL    HW157545   9.558   2.342  10.962
52507SOL    HW257546   9.441   2.453  10.991
52508SOL     OW57547  10.679   2.812  10.970
52508SOL    HW157548  10.718   2.901  10.990
52508SOL    HW257549  10.689   2.792  10.873
52509SOL     OW57550  10.125   2.434   9.635
52509SOL    HW157551  10.132   2.345   9.589
52509SOL    HW257552  10.031   2.468   9.627
52510SOL     OW57553  10.967   2.466  10.516
52510SOL    HW157554  10.929   2.397  10.578
52510SOL    HW257555  11.049   2.430  10.472
52511SOL     OW57556   9.562   3.426  11.054
52511SOL    HW157557   9.532   3.483  11.130
52511SOL    HW257558   9.555   3.329  11.080
52512SOL     OW57559   9.981   2.326  10.579
52512SOL    HW157560   9.947   2.237  10.549
52512SOL    HW257561  10.007   2.380  10.499
52513SOL     OW57562  10.240   3.540  10.775
52513SOL    HW157563  10.216   3.522  10.680
52513SOL    HW257564  10.270   3.634  10.785
52514SOL     OW57565   9.783   2.362   9.501
52514SOL    HW157566   9.844   2.442   9.505
52514SOL    HW257567   9.688   2.393   9.508
52515SOL     OW57568   9.469   2.999  10.776
52515SOL    HW157569   9.491   2.938  10.852
52515SOL    HW257570   9.479   2.950  10.690
52516SOL     OW57571  10.657   2.921  10.544
52516SOL    HW157572  10.681   2.858  10.470
52516SOL    HW257573  10.567   2.961  10.526
52517SOL     OW57574  10.612   2.717   9.619
52517SOL    HW157575  10.526   2.686   9.661
52517SOL    HW257576  10.608   2.703   9.520
52518SOL     OW57577  11.069   3.609  10.464
52518SOL    HW157578  11.130   3.639  10.391
52518SOL    HW257579  11.031   3.520  10.442
52519SOL     OW57580  10.562   3.593  10.438
52519SOL    HW157581  10.646   3.598  10.384
52519SOL    HW257582  10.539   3.497  10.456
52520SOL     OW57583   9.393   3.120  10.332
52520SOL    HW157584   9.388   3.119  10.432
52520SOL    HW257585   9.310   3.079  10.294
52521SOL     OW57586   9.998   3.524  11.026
52521SOL    HW157587   9.942   3.605  11.035
52521SOL    HW257588  10.050   3.528  10.940
52522SOL     OW57589  11.036   1.997   9.833
52522SOL    HW157590  11.109   1.980   9.766
52522SOL    HW257591  11.005   1.910   9.871
52523SOL     OW57592  10.698   3.435   9.787
52523SOL    HW157593  10.765   3.447   9.713
52523SOL    HW257594  10.658   3.524   9.810
52524SOL     OW57595   9.440   3.656  11.161
52524SOL    HW157596   9.399   3.582  11.214
52524SOL    HW257597   9.504   3.707  11.219
52525SOL     OW57598  10.590   2.789   9.982
52525SOL    HW157599  10.650   2.708   9.984
52525SOL    HW257600  10.630   2.858   9.922
52526SOL     OW57601  10.140   3.135  10.732
52526SOL    HW157602  10.135   3.168  10.827
52526SOL    HW257603  10.054   3.154  10.686
52527SOL     OW57604   9.982   3.478   9.464
52527SOL    HW157605   9.991   3.488   9.365
52527SOL    HW257606   9.942   3.389   9.485
52528SOL     OW57607  10.960   3.582  10.704
52528SOL    HW157608  11.013   3.592  10.620
52528SOL    HW257609  10.933   3.672  10.738
52529SOL     OW57610  11.151   2.037  10.273
52529SOL    HW157611  11.190   1.952  10.237
52529SOL    HW257612  11.053   2.039  10.254
52530SOL     OW57613   9.573   2.188  10.030
52530SOL    HW157614   9.494   2.239   9.996
52530SOL    HW257615   9.564   2.173  10.128
52531SOL     OW57616  10.504   3.474   9.341
52531SOL    HW157617  10.510   3.381   9.378
52531SOL    HW257618  10.445   3.474   9.261
52532SOL     OW57619  10.132   2.864  10.682
52532SOL    HW157620  10.172   2.863  10.590
52532SOL    HW257621  10.142   2.956  10.722
52533SOL     OW57622  10.226   2.772   9.601
52533SOL    HW157623  10.289   2.810   9.533
52533SOL    HW257624  10.266   2.689   9.640
52534SOL     OW57625  10.814   3.469   9.354
52534SOL    HW157626  10.722   3.506   9.361
52534SOL    HW257627  10.852   3.489   9.264
52535SOL     OW57628   9.682   3.150  10.800
52535SOL    HW157629   9.669   3.243  10.766
52535SOL    HW257630   9.598   3.098  10.787
52536SOL     OW57631  10.924   3.154  10.599
52536SOL    HW157632  10.984   3.157  10.679
52536SOL    HW257633  10.849   3.218  10.612
52537SOL     OW57634  10.349   2.960  10.006
52537SOL    HW157635  10.279   2.913  10.060
52537SOL    HW257636  10.408   2.892   9.963
52538SOL     OW57637  10.324   2.098  10.281
52538SOL    HW157638  10.316   2.062  10.188
52538SOL    HW257639  10.322   2.022  10.346
52539SOL     OW57640   9.900   3.349   9.801
52539SOL    HW157641   9.942   3.291   9.731
52539SOL    HW257642   9.856   3.428   9.757
52540SOL     OW57643  11.019   2.247  10.691
52540SOL    HW157644  11.092   2.316  10.695
52540SOL    HW257645  11.047   2.172  10.632
52541SOL     OW57646   9.565   3.210   9.600
52541SOL    HW157647   9.469   3.211   9.573
52541SOL    HW257648   9.577   3.263   9.684
52542SOL     OW57649   9.415   2.875  11.036
52542SOL    HW157650   9.338   2.842  11.090
52542SOL    HW257651   9.500   2.845  11.078
52543SOL     OW57652   9.982   2.065  10.799
52543SOL    HW157653  10.072   2.049  10.759
52543SOL    HW257654   9.990   2.070  10.898
52544SOL     OW57655   9.385   2.207   9.343
52544SOL    HW157656   9.293   2.179   9.314
52544SOL    HW257657   9.416   2.284   9.287
52545SOL     OW57658  10.750   2.718  10.708
52545SOL    HW157659  10.693   2.770  10.645
52545SOL    HW257660  10.846   2.730  10.684
52546SOL     OW57661   9.382   2.028   9.628
52546SOL    HW157662   9.365   2.111   9.574
52546SOL    HW257663   9.472   1.991   9.606
52547SOL     OW57664  10.493   3.197   9.429
52547SOL    HW157665  10.394   3.186   9.431
52547SOL    HW257666  10.527   3.212   9.522
52548SOL     OW57667   9.923   2.704  10.741
52548SOL    HW157668   9.979   2.785  10.724
52548SOL    HW257669   9.982   2.624  10.744
52549SOL     OW57670  10.803   3.629  10.269
52549SOL    HW157671  10.836   3.693  10.200
52549SOL    HW257672  10.869   3.623  10.344
52550SOL     OW57673  10.026   2.427  11.018
52550SOL    HW157674  10.045   2.492  11.092
52550SOL    HW257675  10.086   2.347  11.027
52551SOL     OW57676  10.760   3.082  10.943
52551SOL    HW157677  10.751   3.072  11.042
52551SOL    HW257678  10.856   3.075  10.917
52552SOL     OW57679   9.700   3.603  10.870
52552SOL    HW157680   9.609   3.644  10.868
52552SOL    HW257681   9.693   3.509  10.902
52553SOL     OW57682  10.984   2.745  10.564
52553SOL    HW157683  10.957   2.656  10.527
52553SOL    HW257684  10.985   2.813  10.491
52554SOL     OW57685  10.535   2.187   9.759
52554SOL    HW157686  10.600   2.113   9.748
52554SOL    HW257687  10.555   2.237   9.843
52555SOL     OW57688   9.904   2.607   9.962
52555SOL    HW157689   9.954   2.692   9.943
52555SOL    HW257690   9.816   2.609   9.914
52556SOL     OW57691  11.087   2.204  10.952
52556SOL    HW157692  11.070   2.235  10.858
52556SOL    HW257693  11.003   2.167  10.990
52557SOL     OW57694  11.040   2.796  10.827
52557SOL    HW157695  11.078   2.887  10.842
52557SOL    HW257696  11.032   2.779  10.728
52558SOL     OW57697  10.169   3.236   9.326
52558SOL    HW157698  10.123   3.251   9.414
52558SOL    HW257699  10.213   3.321   9.296
52559SOL     OW57700   9.971   3.652  10.263
52559SOL    HW157701   9.925   3.740  10.250
52559SOL    HW257702  10.070   3.664  10.256
52560SOL     OW57703  10.169   2.818  10.171
52560SOL    HW157704  10.223   2.749  10.219
52560SOL    HW257705  10.137   2.887  10.237
52561SOL     OW57706  10.393   2.846   9.397
52561SOL    HW157707  10.370   2.899   9.315
52561SOL    HW257708  10.474   2.790   9.378
52562SOL     OW57709  11.171   3.431  10.161
52562SOL    HW157710  11.100   3.419  10.091
52562SOL    HW257711  11.172   3.352  10.221
52563SOL     OW57712   9.531   3.176  11.154
52563SOL    HW157713   9.466   3.103  11.133
52563SOL    HW257714   9.535   3.190  11.252
52564SOL     OW57715   9.389   3.102   9.963
52564SOL    HW157716   9.388   3.055  10.051
52564SOL    HW257717   9.471   3.074   9.912
52565SOL     OW57718   9.982   3.253  10.934
52565SOL    HW157719   9.904   3.203  10.972
52565SOL    HW257720   9.979   3.348  10.965
52566SOL     OW57721  11.134   2.054  10.537
52566SOL    HW157722  11.130   1.964  10.581
52566SOL    HW257723  11.137   2.043  10.438
52567SOL     OW57724   9.738   2.286   9.830
52567SOL    HW157725   9.768   2.214   9.768
52567SOL    HW257726   9.699   2.246   9.913
52568SOL     OW57727  11.015   3.349  10.414
52568SOL    HW157728  10.922   3.324  10.387
52568SOL    HW257729  11.041   3.299  10.496
52569SOL     OW57730   9.627   2.409  10.590
52569SOL    HW157731   9.665   2.350  10.662
52569SOL    HW257732   9.667   2.383  10.502
52570SOL     OW57733  10.122   3.448   9.997
52570SOL    HW157734  10.154   3.458   9.903
52570SOL    HW257735  10.043   3.386   9.999
52571SOL     OW57736  10.734   2.076  10.422
52571SOL    HW157737  10.786   2.011  10.477
52571SOL    HW257738  10.685   2.139  10.483
52572SOL     OW57739  10.311   1.896  10.464
52572SOL    HW157740  10.248   1.824  10.433
52572SOL    HW257741  10.404   1.860  10.464
52573SOL     OW57742  10.080   3.192   9.611
52573SOL    HW157743  10.034   3.105   9.628
52573SOL    HW257744  10.171   3.189   9.652
52574SOL     OW57745   9.928   3.429  10.594
52574SOL    HW157746   9.923   3.511  10.651
52574SOL    HW257747  10.017   3.426  10.549
52575SOL     OW57748  10.662   1.914   9.478
52575SOL    HW157749  10.697   1.873   9.394
52575SOL    HW257750  10.572   1.876   9.498
52576SOL     OW57751  10.610   2.315  10.001
52576SOL    HW157752  10.551   2.395  10.005
52576SOL    HW257753  10.625   2.280  10.094
52577SOL     OW57754   9.349   2.939   9.610
52577SOL    HW157755   9.448   2.928   9.601
52577SOL    HW257756   9.309   2.853   9.642
52578SOL     OW57757  10.185   3.508   9.647
52578SOL    HW157758  10.108   3.473   9.593
52578SOL    HW257759  10.153   3.579   9.709
52579SOL     OW57760   9.540   2.490  11.285
52579SOL    HW157761   9.447   2.488  11.322
52579SOL    HW257762   9.541   2.451  11.193
52580SOL     OW57763   9.535   2.137  12.168
52580SOL    HW157764   9.570   2.120  12.260
52580SOL    HW257765   9.447   2.092  12.156
52581SOL     OW57766   9.329   2.230  11.819
52581SOL    HW157767   9.247   2.273  11.858
52581SOL    HW257768   9.301   2.157  11.756
52582SOL     OW57769   9.879   3.137  12.337
52582SOL    HW157770   9.786   3.130  12.300
52582SOL    HW257771   9.890   3.226  12.381
52583SOL     OW57772  10.865   3.373  11.875
52583SOL    HW157773  10.808   3.357  11.956
52583SOL    HW257774  10.806   3.383  11.795
52584SOL     OW57775  10.445   2.565  11.889
52584SOL    HW157776  10.502   2.643  11.864
52584SOL    HW257777  10.385   2.591  11.965
52585SOL     OW57778  11.065   2.469  11.403
52585SOL    HW157779  11.053   2.456  11.304
52585SOL    HW257780  11.035   2.388  11.452
52586SOL     OW57781  10.078   3.006  12.195
52586SOL    HW157782  10.000   3.023  12.255
52586SOL    HW257783  10.112   3.093  12.159
52587SOL     OW57784   9.995   2.874  11.837
52587SOL    HW157785  10.064   2.858  11.907
52587SOL    HW257786   9.922   2.931  11.875
52588SOL     OW57787   9.645   3.297  12.233
52588SOL    HW157788   9.567   3.266  12.180
52588SOL    HW257789   9.703   3.355  12.176
52589SOL     OW57790  10.770   3.367  12.511
52589SOL    HW157791  10.794   3.461  12.537
52589SOL    HW257792  10.754   3.313  12.593
52590SOL     OW57793   9.748   2.254  12.671
52590SOL    HW157794   9.830   2.198  12.680
52590SOL    HW257795   9.667   2.196  12.675
52591SOL     OW57796  10.913   2.309  11.909
52591SOL    HW157797  10.839   2.355  11.859
52591SOL    HW257798  10.964   2.377  11.962
52592SOL     OW57799   9.541   3.575  11.655
52592SOL    HW157800   9.575   3.652  11.709
52592SOL    HW257801   9.585   3.575  11.565
52593SOL     OW57802   9.540   3.296  11.710
52593SOL    HW157803   9.514   3.392  11.710
52593SOL    HW257804   9.469   3.242  11.755
52594SOL     OW57805   9.550   2.953  12.058
52594SOL    HW157806   9.564   2.869  12.110
52594SOL    HW257807   9.495   3.017  12.113
52595SOL     OW57808   9.930   3.648  12.611
52595SOL    HW157809   9.838   3.631  12.646
52595SOL    HW257810   9.958   3.740  12.637
52596SOL     OW57811   9.916   2.826  11.295
52596SOL    HW157812   9.923   2.910  11.241
52596SOL    HW257813   9.962   2.839  11.383
52597SOL     OW57814  10.904   1.976  12.652
52597SOL    HW157815  10.886   2.043  12.580
52597SOL    HW257816  10.901   2.022  12.741
52598SOL     OW57817   9.432   2.505  11.735
52598SOL    HW157818   9.387   2.417  11.752
52598SOL    HW257819   9.431   2.559  11.819
52599SOL     OW57820  11.152   3.629  11.531
52599SOL    HW157821  11.206   3.600  11.611
52599SOL    HW257822  11.182   3.719  11.502
52600SOL     OW57823   9.337   3.458  11.289
52600SOL    HW157824   9.318   3.362  11.310
52600SOL    HW257825   9.304   3.516  11.364
52601SOL     OW57826  10.999   2.784  11.784
52601SOL    HW157827  11.094   2.755  11.792
52601SOL    HW257828  10.991   2.849  11.709
52602SOL     OW57829  10.951   2.970  11.604
52602SOL    HW157830  11.037   2.972  11.552
52602SOL    HW257831  10.965   3.017  11.692
52603SOL     OW57832   9.423   2.599  12.769
52603SOL    HW157833   9.511   2.586  12.814
52603SOL    HW257834   9.410   2.696  12.747
52604SOL     OW57835   9.923   3.227  11.898
52604SOL    HW157836   9.874   3.140  11.907
52604SOL    HW257837   9.900   3.270  11.811
52605SOL     OW57838  10.603   3.090  12.595
52605SOL    HW157839  10.640   3.017  12.537
52605SOL    HW257840  10.655   3.095  12.680
52606SOL     OW57841  10.119   1.866  11.674
52606SOL    HW157842  10.159   1.957  11.665
52606SOL    HW257843  10.019   1.874  11.680
52607SOL     OW57844   9.507   2.838  12.436
52607SOL    HW157845   9.596   2.793  12.422
52607SOL    HW257846   9.434   2.773  12.417
52608SOL     OW57847  10.835   2.861  11.362
52608SOL    HW157848  10.772   2.785  11.375
52608SOL    HW257849  10.883   2.879  11.448
52609SOL     OW57850  10.776   3.279  12.125
52609SOL    HW157851  10.717   3.285  12.205
52609SOL    HW257852  10.761   3.191  12.079
52610SOL     OW57853  10.977   3.576  11.744
52610SOL    HW157854  10.936   3.553  11.656
52610SOL    HW257855  10.959   3.502  11.809
52611SOL     OW57856   9.908   2.591  11.442
52611SOL    HW157857   9.932   2.660  11.374
52611SOL    HW257858   9.830   2.624  11.496
52612SOL     OW57859  10.591   2.207  12.116
52612SOL    HW157860  10.505   2.157  12.103
52612SOL    HW257861  10.653   2.153  12.172
52613SOL     OW57862  10.886   3.524  11.479
52613SOL    HW157863  10.975   3.570  11.482
52613SOL    HW257864  10.865   3.500  11.384
52614SOL     OW57865  10.117   2.467  12.637
52614SOL    HW157866  10.070   2.464  12.726
52614SOL    HW257867  10.066   2.412  12.571
52615SOL     OW57868  10.283   2.752  12.744
52615SOL    HW157869  10.329   2.668  12.715
52615SOL    HW257870  10.227   2.786  12.669
52616SOL     OW57871  10.301   2.272  12.414
52616SOL    HW157872  10.224   2.306  12.468
52616SOL    HW257873  10.267   2.221  12.335
52617SOL     OW57874  10.351   2.563  11.601
52617SOL    HW157875  10.377   2.559  11.697
52617SOL    HW257876  10.266   2.512  11.587
52618SOL     OW57877   9.386   2.673  11.961
52618SOL    HW157878   9.485   2.661  11.970
52618SOL    HW257879   9.362   2.768  11.982
52619SOL     OW57880   9.440   3.683  12.743
52619SOL    HW157881   9.430   3.668  12.842
52619SOL    HW257882   9.354   3.719  12.707
52620SOL     OW57883  10.175   2.210  11.367
52620SOL    HW157884  10.234   2.273  11.318
52620SOL    HW257885  10.194   2.116  11.338
52621SOL     OW57886  10.672   3.006  11.717
52621SOL    HW157887  10.755   2.977  11.669
52621SOL    HW257888  10.623   3.073  11.661
52622SOL     OW57889   9.860   2.058  12.057
52622SOL    HW157890   9.855   2.053  12.157
52622SOL    HW257891   9.862   2.154  12.028
52623SOL     OW57892  10.318   3.318  11.649
52623SOL    HW157893  10.272   3.390  11.597
52623SOL    HW257894  10.314   3.338  11.747
52624SOL     OW57895   9.661   3.663  12.025
52624SOL    HW157896   9.711   3.577  12.031
52624SOL    HW257897   9.726   3.740  12.022
52625SOL     OW57898  11.105   2.928  12.045
52625SOL    HW157899  11.043   2.913  11.969
52625SOL    HW257900  11.053   2.939  12.130
52626SOL     OW57901  10.537   3.412  12.678
52626SOL    HW157902  10.543   3.335  12.742
52626SOL    HW257903  10.485   3.386  12.598
52627SOL     OW57904   9.631   2.805  11.414
52627SOL    HW157905   9.713   2.844  11.372
52627SOL    HW257906   9.604   2.723  11.365
52628SOL     OW57907  10.768   2.597  11.900
52628SOL    HW157908  10.763   2.532  11.975
52628SOL    HW257909  10.848   2.656  11.913
52629SOL     OW57910  10.421   3.638  11.409
52629SOL    HW157911  10.361   3.576  11.459
52629SOL    HW257912  10.452   3.594  11.324
52630SOL     OW57913   9.512   2.147  12.670
52630SOL    HW157914   9.432   2.207  12.657
52630SOL    HW257915   9.502   2.098  12.756
52631SOL     OW57916  10.942   3.239  11.253
52631SOL    HW157917  10.910   3.333  11.243
52631SOL    HW257918  10.866   3.176  11.241
52632SOL     OW57919   9.774   3.605  11.495
52632SOL    HW157920   9.807   3.644  11.581
52632SOL    HW257921   9.850   3.598  11.430
52633SOL     OW57922  10.710   1.969  11.598
52633SOL    HW157923  10.686   1.932  11.508
52633SOL    HW257924  10.809   1.985  11.602
52634SOL     OW57925   9.559   3.647  12.413
52634SOL    HW157926   9.616   3.582  12.463
52634SOL    HW257927   9.543   3.614  12.320
52635SOL     OW57928  10.250   3.560  12.076
52635SOL    HW157929  10.330   3.503  12.097
52635SOL    HW257930  10.201   3.520  11.999
52636SOL     OW57931   9.692   2.562  11.652
52636SOL    HW157932   9.737   2.472  11.649
52636SOL    HW257933   9.598   2.551  11.685
52637SOL     OW57934   9.924   1.984  11.289
52637SOL    HW157935  10.022   1.962  11.296
52637SOL    HW257936   9.893   1.967  11.196
52638SOL     OW57937  10.198   3.376  12.367
52638SOL    HW157938  10.175   3.351  12.273
52638SOL    HW257939  10.259   3.307  12.406
52639SOL     OW57940  10.661   2.452  12.605
52639SOL    HW157941  10.689   2.409  12.690
52639SOL    HW257942  10.686   2.548  12.606
52640SOL     OW57943  10.113   3.264  12.096
52640SOL    HW157944  10.203   3.278  12.054
52640SOL    HW257945  10.042   3.266  12.025
52641SOL     OW57946  10.232   2.365  12.071
52641SOL    HW157947  10.207   2.356  11.975
52641SOL    HW257948  10.280   2.283  12.102
52642SOL     OW57949   9.849   1.926  11.684
52642SOL    HW157950   9.768   1.927  11.742
52642SOL    HW257951   9.852   2.009  11.629
52643SOL     OW57952  10.744   3.050  11.213
52643SOL    HW157953  10.776   2.974  11.270
52643SOL    HW257954  10.652   3.077  11.243
52644SOL     OW57955   9.607   1.897  11.343
52644SOL    HW157956   9.656   1.981  11.322
52644SOL    HW257957   9.669   1.832  11.388
52645SOL     OW57958  10.245   2.098  11.652
52645SOL    HW157959  10.197   2.139  11.574
52645SOL    HW257960  10.344   2.096  11.633
52646SOL     OW57961  10.386   2.545  12.636
52646SOL    HW157962  10.306   2.484  12.639
52646SOL    HW257963  10.467   2.492  12.612
52647SOL     OW57964  10.537   3.432  11.965
52647SOL    HW157965  10.558   3.506  11.900
52647SOL    HW257966  10.605   3.432  12.038
52648SOL     OW57967   9.769   3.014  11.913
52648SOL    HW157968   9.698   2.987  11.978
52648SOL    HW257969   9.743   2.986  11.820
52649SOL     OW57970  10.581   3.659  11.763
52649SOL    HW157971  10.625   3.723  11.699
52649SOL    HW257972  10.531   3.711  11.833
52650SOL     OW57973  10.342   2.411  11.188
52650SOL    HW157974  10.301   2.493  11.149
52650SOL    HW257975  10.406   2.437  11.261
52651SOL     OW57976   9.388   2.418  12.558
52651SOL    HW157977   9.480   2.417  12.517
52651SOL    HW257978   9.382   2.492  12.625
52652SOL     OW57979   9.871   2.084  12.319
52652SOL    HW157980   9.909   2.000  12.356
52652SOL    HW257981   9.783   2.103  12.363
52653SOL     OW57982  10.176   2.316  11.814
52653SOL    HW157983  10.144   2.388  11.752
52653SOL    HW257984  10.200   2.235  11.761
52654SOL     OW57985  10.327   1.901  11.925
52654SOL    HW157986  10.255   1.906  11.856
52654SOL    HW257987  10.303   1.832  11.994
52655SOL     OW57988  10.739   3.035  12.039
52655SOL    HW157989  10.684   2.951  12.032
52655SOL    HW257990  10.765   3.064  11.947
52656SOL     OW57991  10.776   2.452  12.164
52656SOL    HW157992  10.746   2.357  12.171
52656SOL    HW257993  10.849   2.468  12.230
52657SOL     OW57994  11.167   2.695  11.549
52657SOL    HW157995  11.209   2.631  11.613
52657SOL    HW257996  11.129   2.644  11.471
52658SOL     OW57997   9.798   3.247  11.346
52658SOL    HW157998   9.711   3.232  11.393
52658SOL    HW257999   9.781   3.273  11.251
52659SOL     OW58000  10.974   3.142  11.829
52659SOL    HW158001  11.073   3.150  11.843
52659SOL    HW258002  10.929   3.226  11.860
52660SOL     OW58003  10.700   2.437  11.250
52660SOL    HW158004  10.646   2.416  11.331
52660SOL    HW258005  10.791   2.396  11.259
52661SOL     OW58006   9.837   2.118  11.500
52661SOL    HW158007   9.864   2.059  11.425
52661SOL    HW258008   9.837   2.213  11.469
52662SOL     OW58009  11.064   3.085  12.760
52662SOL    HW158010  11.155   3.046  12.747
52662SOL    HW258011  11.072   3.181  12.784
52663SOL     OW58012  10.374   3.209  12.512
52663SOL    HW158013  10.294   3.186  12.567
52663SOL    HW258014  10.457   3.183  12.561
52664SOL     OW58015  10.421   3.057  12.272
52664SOL    HW158016  10.381   3.101  12.353
52664SOL    HW258017  10.380   3.094  12.189
52665SOL     OW58018  10.948   2.961  12.251
52665SOL    HW158019  10.953   3.042  12.310
52665SOL    HW258020  10.862   2.963  12.200
52666SOL     OW58021  10.225   1.951  12.574
52666SOL    HW158022  10.250   1.931  12.479
52666SOL    HW258023  10.297   2.007  12.616
52667SOL     OW58024  10.015   2.912  11.540
52667SOL    HW158025  10.001   2.919  11.639
52667SOL    HW258026  10.099   2.861  11.522
52668SOL     OW58027   9.720   2.675  12.423
52668SOL    HW158028   9.806   2.687  12.473
52668SOL    HW258029   9.678   2.588  12.450
52669SOL     OW58030  10.584   2.248  12.434
52669SOL    HW158031  10.605   2.322  12.498
52669SOL    HW258032  10.495   2.265  12.391
52670SOL     OW58033   9.374   3.426  12.503
52670SOL    HW158034   9.328   3.508  12.469
52670SOL    HW258035   9.472   3.445  12.512
52671SOL     OW58036   9.677   2.962  11.673
52671SOL    HW158037   9.670   3.045  11.617
52671SOL    HW258038   9.681   2.882  11.613
52672SOL     OW58039   9.876   2.399  12.037
52672SOL    HW158040   9.888   2.465  11.963
52672SOL    HW258041   9.922   2.433  12.120
52673SOL     OW58042  10.562   3.210  11.560
52673SOL    HW158043  10.612   3.287  11.600
52673SOL    HW258044  10.467   3.212  11.592
52674SOL     OW58045  10.582   3.307  12.314
52674SOL    HW158046  10.629   3.320  12.401
52674SOL    HW258047  10.516   3.233  12.323
52675SOL     OW58048  10.892   2.501  11.644
52675SOL    HW158049  10.861   2.562  11.717
52675SOL    HW258050  10.942   2.553  11.575
52676SOL     OW58051   9.664   3.372  12.501
52676SOL    HW158052   9.643   3.328  12.414
52676SOL    HW258053   9.761   3.398  12.504
52677SOL     OW58054   9.712   2.613  12.770
52677SOL    HW158055   9.780   2.668  12.723
52677SOL    HW258056   9.752   2.525  12.797
52678SOL     OW58057  10.897   2.641  12.842
52678SOL    HW158058  10.805   2.679  12.837
52678SOL    HW258059  10.957   2.688  12.777
52679SOL     OW58060   9.883   2.732  12.201
52679SOL    HW158061   9.927   2.821  12.192
52679SOL    HW258062   9.820   2.732  12.278
52680SOL     OW58063  10.670   2.724  12.217
52680SOL    HW158064  10.595   2.724  12.151
52680SOL    HW258065  10.707   2.632  12.226
52681SOL     OW58066  10.519   2.387  11.447
52681SOL    HW158067  10.532   2.303  11.501
52681SOL    HW258068  10.490   2.461  11.507
52682SOL     OW58069   9.617   2.075  12.403
52682SOL    HW158070   9.594   2.112  12.493
52682SOL    HW258071   9.587   1.980  12.397
52683SOL     OW58072   9.347   3.172  12.454
52683SOL    HW158073   9.400   3.123  12.522
52683SOL    HW258074   9.369   3.270  12.459
52684SOL     OW58075  10.042   2.496  12.236
52684SOL    HW158076  10.101   2.470  12.160
52684SOL    HW258077  10.014   2.592  12.225
52685SOL     OW58078   9.617   1.925  11.790
52685SOL    HW158079   9.606   2.019  11.823
52685SOL    HW258080   9.612   1.862  11.867
52686SOL     OW58081  10.932   2.229  11.546
52686SOL    HW158082  10.934   2.153  11.610
52686SOL    HW258083  10.884   2.306  11.586
52687SOL     OW58084  10.333   2.628  12.138
52687SOL    HW158085  10.348   2.649  12.234
52687SOL    HW258086  10.303   2.533  12.129
52688SOL     OW58087  10.850   2.136  11.297
52688SOL    HW158088  10.789   2.061  11.320
52688SOL    HW258089  10.872   2.188  11.380
52689SOL     OW58090  10.613   2.700  11.214
52689SOL    HW158091  10.647   2.607  11.229
52689SOL    HW258092  10.631   2.727  11.119
52690SOL     OW58093  10.378   3.195  12.021
52690SOL    HW158094  10.385   3.111  11.966
52690SOL    HW258095  10.440   3.264  11.985
52691SOL     OW58096   9.629   2.672  12.121
52691SOL    HW158097   9.722   2.708  12.126
52691SOL    HW258098   9.623   2.587  12.173
52692SOL     OW58099   9.649   2.371  12.178
52692SOL    HW158100   9.597   2.288  12.161
52692SOL    HW258101   9.726   2.376  12.114
52693SOL     OW58102  10.470   2.069  12.649
52693SOL    HW158103  10.470   2.133  12.726
52693SOL    HW258104  10.498   2.117  12.566
52694SOL     OW58105   9.318   3.188  11.372
52694SOL    HW158106   9.225   3.209  11.341
52694SOL    HW258107   9.328   3.089  11.385
52695SOL     OW58108   9.398   3.663  12.099
52695SOL    HW158109   9.356   3.577  12.072
52695SOL    HW258110   9.492   3.666  12.065
52696SOL     OW58111   9.814   3.430  12.082
52696SOL    HW158112   9.880   3.504  12.091
52696SOL    HW258113   9.858   3.351  12.040
52697SOL     OW58114  10.312   2.658  12.410
52697SOL    HW158115  10.353   2.626  12.496
52697SOL    HW258116  10.216   2.631  12.407
52698SOL     OW58117   9.350   2.406  12.286
52698SOL    HW158118   9.435   2.373  12.245
52698SOL    HW258119   9.363   2.421  12.384
52699SOL     OW58120  10.125   2.434  11.497
52699SOL    HW158121  10.132   2.345  11.451
52699SOL    HW258122  10.031   2.468  11.489
52700SOL     OW58123  10.967   2.466  12.378
52700SOL    HW158124  10.929   2.397  12.440
52700SOL    HW258125  11.049   2.430  12.334
52701SOL     OW58126   9.562   3.426  12.916
52701SOL    HW158127   9.532   3.483  12.992
52701SOL    HW258128   9.555   3.329  12.942
52702SOL     OW58129   9.981   2.326  12.441
52702SOL    HW158130   9.947   2.237  12.411
52702SOL    HW258131  10.007   2.380  12.361
52703SOL     OW58132  10.240   3.540  12.637
52703SOL    HW158133  10.216   3.522  12.542
52703SOL    HW258134  10.270   3.634  12.647
52704SOL     OW58135   9.783   2.362  11.363
52704SOL    HW158136   9.844   2.442  11.367
52704SOL    HW258137   9.688   2.393  11.370
52705SOL     OW58138   9.469   2.999  12.638
52705SOL    HW158139   9.491   2.938  12.714
52705SOL    HW258140   9.479   2.950  12.552
52706SOL     OW58141  10.657   2.921  12.406
52706SOL    HW158142  10.681   2.858  12.332
52706SOL    HW258143  10.567   2.961  12.388
52707SOL     OW58144  10.612   2.717  11.481
52707SOL    HW158145  10.526   2.686  11.523
52707SOL    HW258146  10.608   2.703  11.382
52708SOL     OW58147  11.069   3.609  12.326
52708SOL    HW158148  11.130   3.639  12.253
52708SOL    HW258149  11.031   3.520  12.304
52709SOL     OW58150  10.562   3.593  12.300
52709SOL    HW158151  10.646   3.598  12.246
52709SOL    HW258152  10.539   3.497  12.318
52710SOL     OW58153   9.393   3.120  12.194
52710SOL    HW158154   9.388   3.119  12.294
52710SOL    HW258155   9.310   3.079  12.156
52711SOL     OW58156  11.036   1.997  11.695
52711SOL    HW158157  11.109   1.980  11.628
52711SOL    HW258158  11.005   1.910  11.733
52712SOL     OW58159  10.698   3.435  11.649
52712SOL    HW158160  10.765   3.447  11.575
52712SOL    HW258161  10.658   3.524  11.672
52713SOL     OW58162  10.590   2.789  11.844
52713SOL    HW158163  10.650   2.708  11.846
52713SOL    HW258164  10.630   2.858  11.784
52714SOL     OW58165  10.140   3.135  12.594
52714SOL    HW158166  10.135   3.168  12.689
52714SOL    HW258167  10.054   3.154  12.548
52715SOL     OW58168   9.982   3.478  11.326
52715SOL    HW158169   9.991   3.488  11.227
52715SOL    HW258170   9.942   3.389  11.347
52716SOL     OW58171  10.960   3.582  12.566
52716SOL    HW158172  11.013   3.592  12.482
52716SOL    HW258173  10.933   3.672  12.600
52717SOL     OW58174  11.151   2.037  12.135
52717SOL    HW158175  11.190   1.952  12.099
52717SOL    HW258176  11.053   2.039  12.116
52718SOL     OW58177   9.573   2.188  11.892
52718SOL    HW158178   9.494   2.239  11.858
52718SOL    HW258179   9.564   2.173  11.990
52719SOL     OW58180  10.504   3.474  11.203
52719SOL    HW158181  10.510   3.381  11.240
52719SOL    HW258182  10.445   3.474  11.123
52720SOL     OW58183  10.132   2.864  12.544
52720SOL    HW158184  10.172   2.863  12.452
52720SOL    HW258185  10.142   2.956  12.584
52721SOL     OW58186  10.226   2.772  11.463
52721SOL    HW158187  10.289   2.810  11.395
52721SOL    HW258188  10.266   2.689  11.502
52722SOL     OW58189  10.814   3.469  11.216
52722SOL    HW158190  10.722   3.506  11.223
52722SOL    HW258191  10.852   3.489  11.126
52723SOL     OW58192   9.682   3.150  12.662
52723SOL    HW158193   9.669   3.243  12.628
52723SOL    HW258194   9.598   3.098  12.649
52724SOL     OW58195  10.924   3.154  12.461
52724SOL    HW158196  10.984   3.157  12.541
52724SOL    HW258197  10.849   3.218  12.474
52725SOL     OW58198  10.349   2.960  11.868
52725SOL    HW158199  10.279   2.913  11.922
52725SOL    HW258200  10.408   2.892  11.825
52726SOL     OW58201  10.324   2.098  12.143
52726SOL    HW158202  10.316   2.062  12.050
52726SOL    HW258203  10.322   2.022  12.208
52727SOL     OW58204   9.900   3.349  11.663
52727SOL    HW158205   9.942   3.291  11.593
52727SOL    HW258206   9.856   3.428  11.619
52728SOL     OW58207  11.019   2.247  12.553
52728SOL    HW158208  11.092   2.316  12.557
52728SOL    HW258209  11.047   2.172  12.494
52729SOL     OW58210   9.565   3.210  11.462
52729SOL    HW158211   9.469   3.211  11.435
52729SOL    HW258212   9.577   3.263  11.546
52730SOL     OW58213   9.415   2.875  12.898
52730SOL    HW158214   9.338   2.842  12.952
52730SOL    HW258215   9.500   2.845  12.940
52731SOL     OW58216   9.982   2.065  12.661
52731SOL    HW158217  10.072   2.049  12.621
52731SOL    HW258218   9.990   2.070  12.760
52732SOL     OW58219   9.385   2.207  11.205
52732SOL    HW158220   9.293   2.179  11.176
52732SOL    HW258221   9.416   2.284  11.149
52733SOL     OW58222  10.750   2.718  12.570
52733SOL    HW158223  10.693   2.770  12.507
52733SOL    HW258224  10.846   2.730  12.546
52734SOL     OW58225   9.382   2.028  11.490
52734SOL    HW158226   9.365   2.111  11.436
52734SOL    HW258227   9.472   1.991  11.468
52735SOL     OW58228  10.493   3.197  11.291
52735SOL    HW158229  10.394   3.186  11.293
52735SOL    HW258230  10.527   3.212  11.384
52736SOL     OW58231   9.923   2.704  12.603
52736SOL    HW158232   9.979   2.785  12.586
52736SOL    HW258233   9.982   2.624  12.606
52737SOL     OW58234  10.803   3.629  12.131
52737SOL    HW158235  10.836   3.693  12.062
52737SOL    HW258236  10.869   3.623  12.206
52738SOL     OW58237  10.026   2.427  12.880
52738SOL    HW158238  10.045   2.492  12.954
52738SOL    HW258239  10.086   2.347  12.889
52739SOL     OW58240   9.700   3.603  12.732
52739SOL    HW158241   9.609   3.644  12.730
52739SOL    HW258242   9.693   3.509  12.764
52740SOL     OW58243  10.984   2.745  12.426
52740SOL    HW158244  10.957   2.656  12.389
52740SOL    HW258245  10.985   2.813  12.353
52741SOL     OW58246  10.535   2.187  11.621
52741SOL    HW158247  10.600   2.113  11.610
52741SOL    HW258248  10.555   2.237  11.705
52742SOL     OW58249   9.904   2.607  11.824
52742SOL    HW158250   9.954   2.692  11.805
52742SOL    HW258251   9.816   2.609  11.776
52743SOL     OW58252  11.087   2.204  12.814
52743SOL    HW158253  11.070   2.235  12.720
52743SOL    HW258254  11.003   2.167  12.852
52744SOL     OW58255  11.040   2.796  12.689
52744SOL    HW158256  11.078   2.887  12.704
52744SOL    HW258257  11.032   2.779  12.590
52745SOL     OW58258  10.169   3.236  11.188
52745SOL    HW158259  10.123   3.251  11.276
52745SOL    HW258260  10.213   3.321  11.158
52746SOL     OW58261   9.971   3.652  12.125
52746SOL    HW158262   9.925   3.740  12.112
52746SOL    HW258263  10.070   3.664  12.118
52747SOL     OW58264  10.169   2.818  12.033
52747SOL    HW158265  10.223   2.749  12.081
52747SOL    HW258266  10.137   2.887  12.099
52748SOL     OW58267  10.393   2.846  11.259
52748SOL    HW158268  10.370   2.899  11.177
52748SOL    HW258269  10.474   2.790  11.240
52749SOL     OW58270  11.171   3.431  12.023
52749SOL    HW158271  11.100   3.419  11.953
52749SOL    HW258272  11.172   3.352  12.083
52750SOL     OW58273   9.389   3.102  11.825
52750SOL    HW158274   9.388   3.055  11.913
52750SOL    HW258275   9.471   3.074  11.774
52751SOL     OW58276   9.982   3.253  12.796
52751SOL    HW158277   9.904   3.203  12.834
52751SOL    HW258278   9.979   3.348  12.827
52752SOL     OW58279  11.134   2.054  12.399
52752SOL    HW158280  11.130   1.964  12.443
52752SOL    HW258281  11.137   2.043  12.300
52753SOL     OW58282   9.738   2.286  11.692
52753SOL    HW158283   9.768   2.214  11.630
52753SOL    HW258284   9.699   2.246  11.775
52754SOL     OW58285  11.015   3.349  12.276
52754SOL    HW158286  10.922   3.324  12.249
52754SOL    HW258287  11.041   3.299  12.358
52755SOL     OW58288   9.627   2.409  12.452
52755SOL    HW158289   9.665   2.350  12.524
52755SOL    HW258290   9.667   2.383  12.364
52756SOL     OW58291  10.122   3.448  11.859
52756SOL    HW158292  10.154   3.458  11.765
52756SOL    HW258293  10.043   3.386  11.861
52757SOL     OW58294  10.734   2.076  12.284
52757SOL    HW158295  10.786   2.011  12.339
52757SOL    HW258296  10.685   2.139  12.345
52758SOL     OW58297  10.311   1.896  12.326
52758SOL    HW158298  10.248   1.824  12.295
52758SOL    HW258299  10.404   1.860  12.326
52759SOL     OW58300  10.080   3.192  11.473
52759SOL    HW158301  10.034   3.105  11.490
52759SOL    HW258302  10.171   3.189  11.514
52760SOL     OW58303   9.928   3.429  12.456
52760SOL    HW158304   9.923   3.511  12.513
52760SOL    HW258305  10.017   3.426  12.411
52761SOL     OW58306  10.662   1.914  11.340
52761SOL    HW158307  10.697   1.873  11.256
52761SOL    HW258308  10.572   1.876  11.360
52762SOL     OW58309  10.610   2.315  11.863
52762SOL    HW158310  10.551   2.395  11.867
52762SOL    HW258311  10.625   2.280  11.956
52763SOL     OW58312  10.903   2.083  12.054
52763SOL    HW158313  10.819   2.082  12.108
52763SOL    HW258314  10.905   2.166  11.998
52764SOL     OW58315   9.349   2.939  11.472
52764SOL    HW158316   9.448   2.928  11.463
52764SOL    HW258317   9.309   2.853  11.504
52765SOL     OW58318  10.185   3.508  11.509
52765SOL    HW158319  10.108   3.473  11.455
52765SOL    HW258320  10.153   3.579  11.571
52766SOL     OW58321   9.540   4.352   0.113
52766SOL    HW158322   9.447   4.350   0.150
52766SOL    HW258323   9.541   4.313   0.021
52767SOL     OW58324   9.535   3.999   0.996
52767SOL    HW158325   9.570   3.982   1.088
52767SOL    HW258326   9.447   3.954   0.984
52768SOL     OW58327   9.329   4.092   0.647
52768SOL    HW158328   9.247   4.135   0.686
52768SOL    HW258329   9.301   4.019   0.584
52769SOL     OW58330   9.879   4.999   1.165
52769SOL    HW158331   9.786   4.992   1.128
52769SOL    HW258332   9.890   5.088   1.209
52770SOL     OW58333  10.865   5.235   0.703
52770SOL    HW158334  10.808   5.219   0.784
52770SOL    HW258335  10.806   5.245   0.623
52771SOL     OW58336  10.445   4.427   0.717
52771SOL    HW158337  10.502   4.505   0.692
52771SOL    HW258338  10.385   4.453   0.793
52772SOL     OW58339  11.065   4.331   0.231
52772SOL    HW158340  11.053   4.318   0.132
52772SOL    HW258341  11.035   4.250   0.280
52773SOL     OW58342  10.078   4.868   1.023
52773SOL    HW158343  10.000   4.885   1.083
52773SOL    HW258344  10.112   4.955   0.987
52774SOL     OW58345  10.160   4.522   1.823
52774SOL    HW158346  10.156   4.598   1.888
52774SOL    HW258347  10.182   4.558   1.732
52775SOL     OW58348   9.995   4.736   0.665
52775SOL    HW158349  10.064   4.720   0.735
52775SOL    HW258350   9.922   4.793   0.703
52776SOL     OW58351   9.996   4.885   1.803
52776SOL    HW158352  10.056   4.964   1.817
52776SOL    HW258353   9.910   4.916   1.762
52777SOL     OW58354   9.645   5.159   1.061
52777SOL    HW158355   9.567   5.128   1.008
52777SOL    HW258356   9.703   5.217   1.004
52778SOL     OW58357  10.770   5.229   1.339
52778SOL    HW158358  10.794   5.323   1.365
52778SOL    HW258359  10.754   5.175   1.421
52779SOL     OW58360   9.748   4.116   1.499
52779SOL    HW158361   9.830   4.060   1.508
52779SOL    HW258362   9.667   4.058   1.503
52780SOL     OW58363  10.913   4.171   0.737
52780SOL    HW158364  10.839   4.217   0.687
52780SOL    HW258365  10.964   4.239   0.790
52781SOL     OW58366   9.541   5.437   0.483
52781SOL    HW158367   9.575   5.514   0.537
52781SOL    HW258368   9.585   5.437   0.393
52782SOL     OW58369  10.437   5.065   1.690
52782SOL    HW158370  10.484   5.065   1.778
52782SOL    HW258371  10.389   4.978   1.679
52783SOL     OW58372   9.540   5.158   0.538
52783SOL    HW158373   9.514   5.254   0.538
52783SOL    HW258374   9.469   5.104   0.583
52784SOL     OW58375   9.550   4.815   0.886
52784SOL    HW158376   9.564   4.731   0.938
52784SOL    HW258377   9.495   4.879   0.941
52785SOL     OW58378   9.930   5.510   1.439
52785SOL    HW158379   9.838   5.493   1.474
52785SOL    HW258380   9.958   5.602   1.465
52786SOL     OW58381   9.916   4.688   0.123
52786SOL    HW158382   9.923   4.772   0.069
52786SOL    HW258383   9.962   4.701   0.211
52787SOL     OW58384  10.904   3.838   1.480
52787SOL    HW158385  10.886   3.905   1.408
52787SOL    HW258386  10.901   3.884   1.569
52788SOL     OW58387   9.432   4.367   0.563
52788SOL    HW158388   9.387   4.279   0.580
52788SOL    HW258389   9.431   4.421   0.647
52789SOL     OW58390  11.152   5.491   0.359
52789SOL    HW158391  11.206   5.462   0.439
52789SOL    HW258392  11.182   5.581   0.330
52790SOL     OW58393   9.337   5.320   0.117
52790SOL    HW158394   9.318   5.224   0.138
52790SOL    HW258395   9.304   5.378   0.192
52791SOL     OW58396  10.999   4.646   0.612
52791SOL    HW158397  11.094   4.617   0.620
52791SOL    HW258398  10.991   4.711   0.537
52792SOL     OW58399  10.951   4.832   0.432
52792SOL    HW158400  11.037   4.834   0.380
52792SOL    HW258401  10.965   4.879   0.520
52793SOL     OW58402   9.423   4.461   1.597
52793SOL    HW158403   9.511   4.448   1.642
52793SOL    HW258404   9.410   4.558   1.575
52794SOL     OW58405   9.923   5.089   0.726
52794SOL    HW158406   9.874   5.002   0.735
52794SOL    HW258407   9.900   5.132   0.639
52795SOL     OW58408  10.603   4.952   1.423
52795SOL    HW158409  10.640   4.879   1.365
52795SOL    HW258410  10.655   4.957   1.508
52796SOL     OW58411  10.119   3.728   0.502
52796SOL    HW158412  10.159   3.819   0.493
52796SOL    HW258413  10.019   3.736   0.508
52797SOL     OW58414   9.507   4.700   1.264
52797SOL    HW158415   9.596   4.655   1.250
52797SOL    HW258416   9.434   4.635   1.245
52798SOL     OW58417  10.835   4.723   0.190
52798SOL    HW158418  10.772   4.647   0.203
52798SOL    HW258419  10.883   4.741   0.276
52799SOL     OW58420  10.497   5.516   1.616
52799SOL    HW158421  10.521   5.576   1.540
52799SOL    HW258422  10.504   5.421   1.586
52800SOL     OW58423   9.627   3.975   1.801
52800SOL    HW158424   9.698   4.046   1.807
52800SOL    HW258425   9.539   4.014   1.829
52801SOL     OW58426  10.776   5.141   0.953
52801SOL    HW158427  10.717   5.147   1.033
52801SOL    HW258428  10.761   5.053   0.907
52802SOL     OW58429  10.977   5.438   0.572
52802SOL    HW158430  10.936   5.415   0.484
52802SOL    HW258431  10.959   5.364   0.637
52803SOL     OW58432   9.908   4.453   0.270
52803SOL    HW158433   9.932   4.522   0.202
52803SOL    HW258434   9.830   4.486   0.324
52804SOL     OW58435  10.591   4.069   0.944
52804SOL    HW158436  10.505   4.019   0.931
52804SOL    HW258437  10.653   4.015   1.000
52805SOL     OW58438  10.886   5.386   0.307
52805SOL    HW158439  10.975   5.432   0.310
52805SOL    HW258440  10.865   5.362   0.212
52806SOL     OW58441  10.117   4.329   1.465
52806SOL    HW158442  10.070   4.326   1.554
52806SOL    HW258443  10.066   4.274   1.399
52807SOL     OW58444  10.704   4.193   1.674
52807SOL    HW158445  10.684   4.236   1.762
52807SOL    HW258446  10.782   4.131   1.683
52808SOL     OW58447  10.283   4.614   1.572
52808SOL    HW158448  10.329   4.530   1.543
52808SOL    HW258449  10.227   4.648   1.497
52809SOL     OW58450  10.301   4.134   1.242
52809SOL    HW158451  10.224   4.168   1.296
52809SOL    HW258452  10.267   4.083   1.163
52810SOL     OW58453  10.351   4.425   0.429
52810SOL    HW158454  10.377   4.421   0.525
52810SOL    HW258455  10.266   4.374   0.415
52811SOL     OW58456   9.386   4.535   0.789
52811SOL    HW158457   9.485   4.523   0.798
52811SOL    HW258458   9.362   4.630   0.810
52812SOL     OW58459   9.440   5.545   1.571
52812SOL    HW158460   9.430   5.530   1.670
52812SOL    HW258461   9.354   5.581   1.535
52813SOL     OW58462  10.175   4.072   0.195
52813SOL    HW158463  10.234   4.135   0.146
52813SOL    HW258464  10.194   3.978   0.166
52814SOL     OW58465  11.029   4.309   1.831
52814SOL    HW158466  11.003   4.398   1.795
52814SOL    HW258467  11.027   4.241   1.758
52815SOL     OW58468  10.672   4.868   0.545
52815SOL    HW158469  10.755   4.839   0.497
52815SOL    HW258470  10.623   4.935   0.489
52816SOL     OW58471   9.860   3.920   0.885
52816SOL    HW158472   9.855   3.915   0.985
52816SOL    HW258473   9.862   4.016   0.856
52817SOL     OW58474  10.318   5.180   0.477
52817SOL    HW158475  10.272   5.252   0.425
52817SOL    HW258476  10.314   5.200   0.575
52818SOL     OW58477   9.661   5.525   0.853
52818SOL    HW158478   9.711   5.439   0.859
52818SOL    HW258479   9.726   5.602   0.850
52819SOL     OW58480  11.105   4.790   0.873
52819SOL    HW158481  11.043   4.775   0.797
52819SOL    HW258482  11.053   4.801   0.958
52820SOL     OW58483  10.537   5.274   1.506
52820SOL    HW158484  10.543   5.197   1.570
52820SOL    HW258485  10.485   5.248   1.426
52821SOL     OW58486   9.631   4.667   0.242
52821SOL    HW158487   9.713   4.706   0.200
52821SOL    HW258488   9.604   4.585   0.193
52822SOL     OW58489  10.768   4.459   0.728
52822SOL    HW158490  10.763   4.394   0.803
52822SOL    HW258491  10.848   4.518   0.741
52823SOL     OW58492   9.771   4.990   1.727
52823SOL    HW158493   9.721   4.991   1.641
52823SOL    HW258494   9.708   4.972   1.803
52824SOL     OW58495  10.421   5.500   0.237
52824SOL    HW158496  10.361   5.438   0.287
52824SOL    HW258497  10.452   5.456   0.152
52825SOL     OW58498   9.512   4.009   1.498
52825SOL    HW158499   9.432   4.069   1.485
52825SOL    HW258500   9.502   3.960   1.584
52826SOL     OW58501  10.942   5.101   0.081
52826SOL    HW158502  10.910   5.195   0.071
52826SOL    HW258503  10.866   5.038   0.069
52827SOL     OW58504   9.774   5.467   0.323
52827SOL    HW158505   9.807   5.506   0.409
52827SOL    HW258506   9.850   5.460   0.258
52828SOL     OW58507  10.710   3.831   0.426
52828SOL    HW158508  10.686   3.794   0.336
52828SOL    HW258509  10.809   3.847   0.430
52829SOL     OW58510   9.559   5.509   1.241
52829SOL    HW158511   9.616   5.444   1.291
52829SOL    HW258512   9.543   5.476   1.148
52830SOL     OW58513  10.250   5.422   0.904
52830SOL    HW158514  10.330   5.365   0.925
52830SOL    HW258515  10.201   5.382   0.827
52831SOL     OW58516   9.692   4.424   0.480
52831SOL    HW158517   9.737   4.334   0.477
52831SOL    HW258518   9.598   4.413   0.513
52832SOL     OW58519  10.857   3.946   1.729
52832SOL    HW158520  10.852   3.983   1.821
52832SOL    HW258521  10.785   3.877   1.717
52833SOL     OW58522   9.924   3.846   0.117
52833SOL    HW158523  10.022   3.824   0.124
52833SOL    HW258524   9.893   3.829   0.024
52834SOL     OW58525  10.091   3.988   1.749
52834SOL    HW158526  10.158   3.927   1.792
52834SOL    HW258527  10.018   4.007   1.814
52835SOL     OW58528  10.198   5.238   1.195
52835SOL    HW158529  10.175   5.213   1.101
52835SOL    HW258530  10.259   5.169   1.234
52836SOL     OW58531  10.661   4.314   1.433
52836SOL    HW158532  10.689   4.271   1.518
52836SOL    HW258533  10.686   4.410   1.434
52837SOL     OW58534  10.113   5.126   0.924
52837SOL    HW158535  10.203   5.140   0.882
52837SOL    HW258536  10.042   5.128   0.853
52838SOL     OW58537  10.232   4.227   0.899
52838SOL    HW158538  10.207   4.218   0.803
52838SOL    HW258539  10.280   4.145   0.930
52839SOL     OW58540   9.849   3.788   0.512
52839SOL    HW158541   9.768   3.789   0.570
52839SOL    HW258542   9.852   3.871   0.457
52840SOL     OW58543  10.744   4.912   0.041
52840SOL    HW158544  10.776   4.836   0.098
52840SOL    HW258545  10.652   4.939   0.071
52841SOL     OW58546   9.607   3.759   0.171
52841SOL    HW158547   9.656   3.843   0.150
52841SOL    HW258548   9.669   3.694   0.216
52842SOL     OW58549  10.245   3.960   0.480
52842SOL    HW158550  10.197   4.001   0.402
52842SOL    HW258551  10.344   3.958   0.461
52843SOL     OW58552  10.386   4.407   1.464
52843SOL    HW158553  10.306   4.346   1.467
52843SOL    HW258554  10.467   4.354   1.440
52844SOL     OW58555  10.537   5.294   0.793
52844SOL    HW158556  10.558   5.368   0.728
52844SOL    HW258557  10.605   5.294   0.866
52845SOL     OW58558   9.769   4.876   0.741
52845SOL    HW158559   9.698   4.849   0.806
52845SOL    HW258560   9.743   4.848   0.648
52846SOL     OW58561  10.581   5.521   0.591
52846SOL    HW158562  10.625   5.585   0.527
52846SOL    HW258563  10.531   5.573   0.661
52847SOL     OW58564  10.342   4.273   0.016
52847SOL    HW158565  10.301   4.355  -0.023
52847SOL    HW258566  10.406   4.299   0.089
52848SOL     OW58567   9.388   4.280   1.386
52848SOL    HW158568   9.480   4.279   1.345
52848SOL    HW258569   9.382   4.354   1.453
52849SOL     OW58570   9.871   3.946   1.147
52849SOL    HW158571   9.909   3.862   1.184
52849SOL    HW258572   9.783   3.965   1.191
52850SOL     OW58573  10.176   4.178   0.642
52850SOL    HW158574  10.144   4.250   0.580
52850SOL    HW258575  10.200   4.097   0.589
52851SOL     OW58576  10.327   3.763   0.753
52851SOL    HW158577  10.255   3.768   0.684
52851SOL    HW258578  10.303   3.694   0.822
52852SOL     OW58579  10.739   4.897   0.867
52852SOL    HW158580  10.684   4.813   0.860
52852SOL    HW258581  10.765   4.926   0.775
52853SOL     OW58582  10.776   4.314   0.992
52853SOL    HW158583  10.746   4.219   0.999
52853SOL    HW258584  10.849   4.330   1.058
52854SOL     OW58585  11.167   4.557   0.377
52854SOL    HW158586  11.209   4.493   0.441
52854SOL    HW258587  11.129   4.506   0.299
52855SOL     OW58588   9.798   5.109   0.174
52855SOL    HW158589   9.711   5.094   0.221
52855SOL    HW258590   9.781   5.135   0.079
52856SOL     OW58591  10.974   5.004   0.657
52856SOL    HW158592  11.073   5.012   0.671
52856SOL    HW258593  10.929   5.088   0.688
52857SOL     OW58594  10.700   4.299   0.078
52857SOL    HW158595  10.646   4.278   0.159
52857SOL    HW258596  10.791   4.258   0.087
52858SOL     OW58597   9.837   3.980   0.328
52858SOL    HW158598   9.864   3.921   0.253
52858SOL    HW258599   9.837   4.075   0.297
52859SOL     OW58600  11.064   4.947   1.588
52859SOL    HW158601  11.155   4.908   1.575
52859SOL    HW258602  11.072   5.043   1.612
52860SOL     OW58603  10.374   5.071   1.340
52860SOL    HW158604  10.294   5.048   1.395
52860SOL    HW258605  10.457   5.045   1.389
52861SOL     OW58606  10.902   5.353   1.625
52861SOL    HW158607  10.929   5.387   1.535
52861SOL    HW258608  10.981   5.315   1.671
52862SOL     OW58609  10.421   4.919   1.100
52862SOL    HW158610  10.381   4.963   1.181
52862SOL    HW258611  10.380   4.956   1.017
52863SOL     OW58612  10.948   4.823   1.079
52863SOL    HW158613  10.953   4.904   1.138
52863SOL    HW258614  10.862   4.825   1.028
52864SOL     OW58615  10.225   3.813   1.402
52864SOL    HW158616  10.250   3.793   1.307
52864SOL    HW258617  10.297   3.869   1.444
52865SOL     OW58618  10.290   4.840   1.719
52865SOL    HW158619  10.191   4.846   1.729
52865SOL    HW258620  10.313   4.760   1.663
52866SOL     OW58621  10.015   4.774   0.368
52866SOL    HW158622  10.001   4.781   0.467
52866SOL    HW258623  10.099   4.723   0.350
52867SOL     OW58624   9.720   4.537   1.251
52867SOL    HW158625   9.806   4.549   1.301
52867SOL    HW258626   9.678   4.450   1.278
52868SOL     OW58627  10.584   4.110   1.262
52868SOL    HW158628  10.605   4.184   1.326
52868SOL    HW258629  10.495   4.127   1.219
52869SOL     OW58630   9.374   5.288   1.331
52869SOL    HW158631   9.328   5.370   1.297
52869SOL    HW258632   9.472   5.307   1.340
52870SOL     OW58633   9.677   4.824   0.501
52870SOL    HW158634   9.670   4.907   0.445
52870SOL    HW258635   9.681   4.744   0.441
52871SOL     OW58636   9.876   4.261   0.865
52871SOL    HW158637   9.888   4.327   0.791
52871SOL    HW258638   9.922   4.295   0.948
52872SOL     OW58639  10.562   5.072   0.388
52872SOL    HW158640  10.612   5.149   0.428
52872SOL    HW258641  10.467   5.074   0.420
52873SOL     OW58642  10.582   5.169   1.142
52873SOL    HW158643  10.629   5.182   1.229
52873SOL    HW258644  10.516   5.095   1.151
52874SOL     OW58645  10.892   4.363   0.472
52874SOL    HW158646  10.861   4.424   0.545
52874SOL    HW258647  10.942   4.415   0.403
52875SOL     OW58648   9.664   5.234   1.329
52875SOL    HW158649   9.643   5.190   1.242
52875SOL    HW258650   9.761   5.260   1.332
52876SOL     OW58651   9.712   4.475   1.598
52876SOL    HW158652   9.780   4.530   1.551
52876SOL    HW258653   9.752   4.387   1.625
52877SOL     OW58654  10.897   4.503   1.670
52877SOL    HW158655  10.805   4.541   1.665
52877SOL    HW258656  10.957   4.550   1.605
52878SOL     OW58657  10.323   3.829   1.770
52878SOL    HW158658  10.329   3.914   1.718
52878SOL    HW258659  10.355   3.753   1.713
52879SOL     OW58660   9.814   3.774   1.740
52879SOL    HW158661   9.772   3.717   1.670
52879SOL    HW258662   9.748   3.843   1.772
52880SOL     OW58663   9.883   4.594   1.029
52880SOL    HW158664   9.927   4.683   1.020
52880SOL    HW258665   9.820   4.594   1.106
52881SOL     OW58666  10.670   4.586   1.045
52881SOL    HW158667  10.595   4.586   0.979
52881SOL    HW258668  10.707   4.494   1.054
52882SOL     OW58669  10.519   4.249   0.275
52882SOL    HW158670  10.532   4.165   0.329
52882SOL    HW258671  10.490   4.323   0.335
52883SOL     OW58672   9.617   3.937   1.231
52883SOL    HW158673   9.594   3.974   1.321
52883SOL    HW258674   9.587   3.842   1.225
52884SOL     OW58675   9.347   5.034   1.282
52884SOL    HW158676   9.400   4.985   1.350
52884SOL    HW258677   9.369   5.132   1.287
52885SOL     OW58678  10.042   4.358   1.064
52885SOL    HW158679  10.101   4.332   0.988
52885SOL    HW258680  10.014   4.454   1.053
52886SOL     OW58681  11.038   4.659   1.854
52886SOL    HW158682  10.992   4.652   1.765
52886SOL    HW258683  10.976   4.703   1.920
52887SOL     OW58684   9.617   3.787   0.618
52887SOL    HW158685   9.606   3.881   0.651
52887SOL    HW258686   9.612   3.724   0.695
52888SOL     OW58687  10.932   4.091   0.374
52888SOL    HW158688  10.934   4.015   0.438
52888SOL    HW258689  10.884   4.168   0.414
52889SOL     OW58690  10.333   4.490   0.966
52889SOL    HW158691  10.348   4.511   1.062
52889SOL    HW258692  10.303   4.395   0.957
52890SOL     OW58693  10.290   5.297   1.700
52890SOL    HW158694  10.270   5.341   1.612
52890SOL    HW258695  10.329   5.206   1.684
52891SOL     OW58696  11.169   5.242   1.605
52891SOL    HW158697  11.183   5.269   1.510
52891SOL    HW258698  11.252   5.264   1.658
52892SOL     OW58699   9.660   4.622   1.804
52892SOL    HW158700   9.736   4.666   1.852
52892SOL    HW258701   9.695   4.575   1.722
52893SOL     OW58702  10.850   3.998   0.125
52893SOL    HW158703  10.789   3.923   0.148
52893SOL    HW258704  10.872   4.050   0.208
52894SOL     OW58705  10.613   4.562   0.042
52894SOL    HW158706  10.647   4.469   0.057
52894SOL    HW258707  10.631   4.589  -0.053
52895SOL     OW58708  10.378   5.057   0.849
52895SOL    HW158709  10.385   4.973   0.794
52895SOL    HW258710  10.440   5.126   0.813
52896SOL     OW58711   9.629   4.534   0.949
52896SOL    HW158712   9.722   4.570   0.954
52896SOL    HW258713   9.623   4.449   1.001
52897SOL     OW58714   9.649   4.233   1.006
52897SOL    HW158715   9.597   4.150   0.989
52897SOL    HW258716   9.726   4.238   0.942
52898SOL     OW58717  10.448   4.104   1.678
52898SOL    HW158718  10.403   4.167   1.742
52898SOL    HW258719  10.541   4.135   1.661
52899SOL     OW58720  10.470   3.931   1.477
52899SOL    HW158721  10.470   3.995   1.554
52899SOL    HW258722  10.498   3.979   1.394
52900SOL     OW58723   9.318   5.050   0.200
52900SOL    HW158724   9.225   5.071   0.169
52900SOL    HW258725   9.328   4.951   0.213
52901SOL     OW58726   9.398   5.525   0.927
52901SOL    HW158727   9.356   5.439   0.900
52901SOL    HW258728   9.492   5.528   0.893
52902SOL     OW58729   9.814   5.292   0.910
52902SOL    HW158730   9.880   5.366   0.919
52902SOL    HW258731   9.858   5.213   0.868
52903SOL     OW58732  10.312   4.520   1.238
52903SOL    HW158733  10.353   4.488   1.324
52903SOL    HW258734  10.216   4.493   1.235
52904SOL     OW58735   9.350   4.268   1.114
52904SOL    HW158736   9.435   4.235   1.073
52904SOL    HW258737   9.363   4.283   1.212
52905SOL     OW58738   9.499   4.244   1.722
52905SOL    HW158739   9.558   4.204   1.652
52905SOL    HW258740   9.441   4.315   1.681
52906SOL     OW58741  10.679   4.674   1.660
52906SOL    HW158742  10.718   4.763   1.680
52906SOL    HW258743  10.689   4.654   1.563
52907SOL     OW58744  10.125   4.296   0.325
52907SOL    HW158745  10.132   4.207   0.279
52907SOL    HW258746  10.031   4.330   0.317
52908SOL     OW58747  10.967   4.328   1.206
52908SOL    HW158748  10.929   4.259   1.268
52908SOL    HW258749  11.049   4.292   1.162
52909SOL     OW58750   9.562   5.288   1.744
52909SOL    HW158751   9.532   5.345   1.820
52909SOL    HW258752   9.555   5.191   1.770
52910SOL     OW58753   9.981   4.188   1.269
52910SOL    HW158754   9.947   4.099   1.239
52910SOL    HW258755  10.007   4.242   1.189
52911SOL     OW58756  10.240   5.402   1.465
52911SOL    HW158757  10.216   5.384   1.370
52911SOL    HW258758  10.270   5.496   1.475
52912SOL     OW58759   9.783   4.224   0.191
52912SOL    HW158760   9.844   4.304   0.195
52912SOL    HW258761   9.688   4.255   0.198
52913SOL     OW58762   9.469   4.861   1.466
52913SOL    HW158763   9.491   4.800   1.542
52913SOL    HW258764   9.479   4.812   1.380
52914SOL     OW58765  10.657   4.783   1.234
52914SOL    HW158766  10.681   4.720   1.160
52914SOL    HW258767  10.567   4.823   1.216
52915SOL     OW58768  10.612   4.579   0.309
52915SOL    HW158769  10.526   4.548   0.351
52915SOL    HW258770  10.608   4.565   0.210
52916SOL     OW58771  11.069   5.471   1.154
52916SOL    HW158772  11.130   5.501   1.081
52916SOL    HW258773  11.031   5.382   1.132
52917SOL     OW58774  10.562   5.455   1.128
52917SOL    HW158775  10.646   5.460   1.074
52917SOL    HW258776  10.539   5.359   1.146
52918SOL     OW58777   9.393   4.982   1.022
52918SOL    HW158778   9.388   4.981   1.122
52918SOL    HW258779   9.310   4.941   0.984
52919SOL     OW58780   9.998   5.386   1.716
52919SOL    HW158781   9.942   5.467   1.725
52919SOL    HW258782  10.050   5.390   1.630
52920SOL     OW58783  10.213   3.810   0.133
52920SOL    HW158784  10.264   3.811   0.047
52920SOL    HW258785  10.269   3.768   0.204
52921SOL     OW58786  11.036   3.859   0.523
52921SOL    HW158787  11.109   3.842   0.456
52921SOL    HW258788  11.005   3.772   0.561
52922SOL     OW58789  10.698   5.297   0.477
52922SOL    HW158790  10.765   5.309   0.403
52922SOL    HW258791  10.658   5.386   0.500
52923SOL     OW58792   9.440   5.518   1.851
52923SOL    HW158793   9.399   5.444   1.904
52923SOL    HW258794   9.504   5.569   1.909
52924SOL     OW58795  10.590   4.651   0.672
52924SOL    HW158796  10.650   4.570   0.674
52924SOL    HW258797  10.630   4.720   0.612
52925SOL     OW58798  10.140   4.997   1.422
52925SOL    HW158799  10.135   5.030   1.517
52925SOL    HW258800  10.054   5.016   1.376
52926SOL     OW58801   9.982   5.340   0.154
52926SOL    HW158802   9.991   5.350   0.055
52926SOL    HW258803   9.942   5.251   0.175
52927SOL     OW58804  10.960   5.444   1.394
52927SOL    HW158805  11.013   5.454   1.310
52927SOL    HW258806  10.933   5.534   1.428
52928SOL     OW58807  11.151   3.899   0.963
52928SOL    HW158808  11.190   3.814   0.927
52928SOL    HW258809  11.053   3.901   0.944
52929SOL     OW58810   9.573   4.050   0.720
52929SOL    HW158811   9.494   4.101   0.686
52929SOL    HW258812   9.564   4.035   0.818
52930SOL     OW58813  10.504   5.336   0.031
52930SOL    HW158814  10.510   5.243   0.068
52930SOL    HW258815  10.445   5.336  -0.049
52931SOL     OW58816  10.132   4.726   1.372
52931SOL    HW158817  10.172   4.725   1.280
52931SOL    HW258818  10.142   4.818   1.412
52932SOL     OW58819  10.226   4.634   0.291
52932SOL    HW158820  10.289   4.672   0.223
52932SOL    HW258821  10.266   4.551   0.330
52933SOL     OW58822  10.814   5.331   0.044
52933SOL    HW158823  10.722   5.368   0.051
52933SOL    HW258824  10.852   5.351  -0.046
52934SOL     OW58825   9.682   5.012   1.490
52934SOL    HW158826   9.669   5.105   1.456
52934SOL    HW258827   9.598   4.960   1.477
52935SOL     OW58828  10.924   5.016   1.289
52935SOL    HW158829  10.984   5.019   1.369
52935SOL    HW258830  10.849   5.080   1.302
52936SOL     OW58831  10.349   4.822   0.696
52936SOL    HW158832  10.279   4.775   0.750
52936SOL    HW258833  10.408   4.754   0.653
52937SOL     OW58834  10.324   3.960   0.971
52937SOL    HW158835  10.316   3.924   0.878
52937SOL    HW258836  10.322   3.884   1.036
52938SOL     OW58837   9.900   5.211   0.491
52938SOL    HW158838   9.942   5.153   0.421
52938SOL    HW258839   9.856   5.290   0.447
52939SOL     OW58840  11.019   4.109   1.381
52939SOL    HW158841  11.092   4.178   1.385
52939SOL    HW258842  11.047   4.034   1.322
52940SOL     OW58843   9.565   5.072   0.290
52940SOL    HW158844   9.469   5.073   0.263
52940SOL    HW258845   9.577   5.125   0.374
52941SOL     OW58846   9.415   4.737   1.726
52941SOL    HW158847   9.338   4.704   1.780
52941SOL    HW258848   9.500   4.707   1.768
52942SOL     OW58849   9.982   3.927   1.489
52942SOL    HW158850  10.072   3.911   1.449
52942SOL    HW258851   9.990   3.932   1.588
52943SOL     OW58852  10.750   4.580   1.398
52943SOL    HW158853  10.693   4.632   1.335
52943SOL    HW258854  10.846   4.592   1.374
52944SOL     OW58855   9.382   3.890   0.318
52944SOL    HW158856   9.365   3.973   0.264
52944SOL    HW258857   9.472   3.853   0.296
52945SOL     OW58858  10.493   5.059   0.119
52945SOL    HW158859  10.394   5.048   0.121
52945SOL    HW258860  10.527   5.074   0.212
52946SOL     OW58861   9.923   4.566   1.431
52946SOL    HW158862   9.979   4.647   1.414
52946SOL    HW258863   9.982   4.486   1.434
52947SOL     OW58864  10.803   5.491   0.959
52947SOL    HW158865  10.836   5.555   0.890
52947SOL    HW258866  10.869   5.485   1.034
52948SOL     OW58867  10.026   4.289   1.708
52948SOL    HW158868  10.045   4.354   1.782
52948SOL    HW258869  10.086   4.209   1.717
52949SOL     OW58870  10.760   4.944   1.633
52949SOL    HW158871  10.751   4.934   1.732
52949SOL    HW258872  10.856   4.937   1.607
52950SOL     OW58873   9.700   5.465   1.560
52950SOL    HW158874   9.609   5.506   1.558
52950SOL    HW258875   9.693   5.371   1.592
52951SOL     OW58876  10.984   4.607   1.254
52951SOL    HW158877  10.957   4.518   1.217
52951SOL    HW258878  10.985   4.675   1.181
52952SOL     OW58879  10.535   4.049   0.449
52952SOL    HW158880  10.600   3.975   0.438
52952SOL    HW258881  10.555   4.099   0.533
52953SOL     OW58882   9.904   4.469   0.652
52953SOL    HW158883   9.954   4.554   0.633
52953SOL    HW258884   9.816   4.471   0.604
52954SOL     OW58885  11.087   4.066   1.642
52954SOL    HW158886  11.070   4.097   1.548
52954SOL    HW258887  11.003   4.029   1.680
52955SOL     OW58888  11.040   4.658   1.517
52955SOL    HW158889  11.078   4.749   1.532
52955SOL    HW258890  11.032   4.641   1.418
52956SOL     OW58891  10.169   5.098   0.016
52956SOL    HW158892  10.123   5.113   0.104
52956SOL    HW258893  10.213   5.183  -0.014
52957SOL     OW58894   9.971   5.514   0.953
52957SOL    HW158895   9.925   5.602   0.940
52957SOL    HW258896  10.070   5.526   0.946
52958SOL     OW58897  10.169   4.680   0.861
52958SOL    HW158898  10.223   4.611   0.909
52958SOL    HW258899  10.137   4.749   0.927
52959SOL     OW58900  10.393   4.708   0.087
52959SOL    HW158901  10.370   4.761   0.005
52959SOL    HW258902  10.474   4.652   0.068
52960SOL     OW58903  11.171   5.293   0.851
52960SOL    HW158904  11.100   5.281   0.781
52960SOL    HW258905  11.172   5.214   0.911
52961SOL     OW58906   9.531   5.038   1.844
52961SOL    HW158907   9.466   4.965   1.823
52961SOL    HW258908   9.535   5.052   1.942
52962SOL     OW58909   9.389   4.964   0.653
52962SOL    HW158910   9.388   4.917   0.741
52962SOL    HW258911   9.471   4.936   0.602
52963SOL     OW58912   9.982   5.115   1.624
52963SOL    HW158913   9.904   5.065   1.662
52963SOL    HW258914   9.979   5.210   1.655
52964SOL     OW58915  11.134   3.916   1.227
52964SOL    HW158916  11.130   3.826   1.271
52964SOL    HW258917  11.137   3.905   1.128
52965SOL     OW58918   9.738   4.148   0.520
52965SOL    HW158919   9.768   4.076   0.458
52965SOL    HW258920   9.699   4.108   0.603
52966SOL     OW58921  11.015   5.211   1.104
52966SOL    HW158922  10.922   5.186   1.077
52966SOL    HW258923  11.041   5.161   1.186
52967SOL     OW58924   9.627   4.271   1.280
52967SOL    HW158925   9.665   4.212   1.352
52967SOL    HW258926   9.667   4.245   1.192
52968SOL     OW58927  10.122   5.310   0.687
52968SOL    HW158928  10.154   5.320   0.593
52968SOL    HW258929  10.043   5.248   0.689
52969SOL     OW58930  10.734   3.938   1.112
52969SOL    HW158931  10.786   3.873   1.167
52969SOL    HW258932  10.685   4.001   1.173
52970SOL     OW58933  10.311   3.758   1.154
52970SOL    HW158934  10.248   3.686   1.123
52970SOL    HW258935  10.404   3.722   1.154
52971SOL     OW58936  10.080   5.054   0.301
52971SOL    HW158937  10.034   4.967   0.318
52971SOL    HW258938  10.171   5.051   0.342
52972SOL     OW58939   9.928   5.291   1.284
52972SOL    HW158940   9.923   5.373   1.341
52972SOL    HW258941  10.017   5.288   1.239
52973SOL     OW58942  10.662   3.776   0.168
52973SOL    HW158943  10.697   3.735   0.084
52973SOL    HW258944  10.572   3.738   0.188
52974SOL     OW58945  10.610   4.177   0.691
52974SOL    HW158946  10.551   4.257   0.695
52974SOL    HW258947  10.625   4.142   0.784
52975SOL     OW58948  10.903   3.945   0.882
52975SOL    HW158949  10.819   3.944   0.936
52975SOL    HW258950  10.905   4.028   0.826
52976SOL     OW58951   9.349   4.801   0.300
52976SOL    HW158952   9.448   4.790   0.291
52976SOL    HW258953   9.309   4.715   0.332
52977SOL     OW58954  10.185   5.370   0.337
52977SOL    HW158955  10.108   5.335   0.283
52977SOL    HW258956  10.153   5.441   0.399
52978SOL     OW58957   9.540   4.352   1.975
52978SOL    HW158958   9.447   4.350   2.012
52978SOL    HW258959   9.541   4.313   1.883
52979SOL     OW58960   9.535   3.999   2.858
52979SOL    HW158961   9.570   3.982   2.950
52979SOL    HW258962   9.447   3.954   2.846
52980SOL     OW58963   9.329   4.092   2.509
52980SOL    HW158964   9.247   4.135   2.548
52980SOL    HW258965   9.301   4.019   2.446
52981SOL     OW58966   9.879   4.999   3.027
52981SOL    HW158967   9.786   4.992   2.990
52981SOL    HW258968   9.890   5.088   3.071
52982SOL     OW58969  10.865   5.235   2.565
52982SOL    HW158970  10.808   5.219   2.646
52982SOL    HW258971  10.806   5.245   2.485
52983SOL     OW58972  10.445   4.427   2.579
52983SOL    HW158973  10.502   4.505   2.554
52983SOL    HW258974  10.385   4.453   2.655
52984SOL     OW58975  11.065   4.331   2.093
52984SOL    HW158976  11.053   4.318   1.994
52984SOL    HW258977  11.035   4.250   2.142
52985SOL     OW58978  10.078   4.868   2.885
52985SOL    HW158979  10.000   4.885   2.945
52985SOL    HW258980  10.112   4.955   2.849
52986SOL     OW58981  10.160   4.522   3.685
52986SOL    HW158982  10.156   4.598   3.750
52986SOL    HW258983  10.182   4.558   3.594
52987SOL     OW58984   9.995   4.736   2.527
52987SOL    HW158985  10.064   4.720   2.597
52987SOL    HW258986   9.922   4.793   2.565
52988SOL     OW58987   9.996   4.885   3.665
52988SOL    HW158988  10.056   4.964   3.679
52988SOL    HW258989   9.910   4.916   3.624
52989SOL     OW58990   9.645   5.159   2.923
52989SOL    HW158991   9.567   5.128   2.870
52989SOL    HW258992   9.703   5.217   2.866
52990SOL     OW58993  10.770   5.229   3.201
52990SOL    HW158994  10.794   5.323   3.227
52990SOL    HW258995  10.754   5.175   3.283
52991SOL     OW58996   9.748   4.116   3.361
52991SOL    HW158997   9.830   4.060   3.370
52991SOL    HW258998   9.667   4.058   3.365
52992SOL     OW58999  10.913   4.171   2.599
52992SOL    HW159000  10.839   4.217   2.549
52992SOL    HW259001  10.964   4.239   2.652
52993SOL     OW59002   9.541   5.437   2.345
52993SOL    HW159003   9.575   5.514   2.399
52993SOL    HW259004   9.585   5.437   2.255
52994SOL     OW59005  10.437   5.065   3.552
52994SOL    HW159006  10.484   5.065   3.640
52994SOL    HW259007  10.389   4.978   3.541
52995SOL     OW59008   9.540   5.158   2.400
52995SOL    HW159009   9.514   5.254   2.400
52995SOL    HW259010   9.469   5.104   2.445
52996SOL     OW59011   9.550   4.815   2.748
52996SOL    HW159012   9.564   4.731   2.800
52996SOL    HW259013   9.495   4.879   2.803
52997SOL     OW59014   9.930   5.510   3.301
52997SOL    HW159015   9.838   5.493   3.336
52997SOL    HW259016   9.958   5.602   3.327
52998SOL     OW59017   9.916   4.688   1.985
52998SOL    HW159018   9.923   4.772   1.931
52998SOL    HW259019   9.962   4.701   2.073
52999SOL     OW59020  10.904   3.838   3.342
52999SOL    HW159021  10.886   3.905   3.270
52999SOL    HW259022  10.901   3.884   3.431
53000SOL     OW59023   9.432   4.367   2.425
53000SOL    HW159024   9.387   4.279   2.442
53000SOL    HW259025   9.431   4.421   2.509
53001SOL     OW59026  11.152   5.491   2.221
53001SOL    HW159027  11.206   5.462   2.301
53001SOL    HW259028  11.182   5.581   2.192
53002SOL     OW59029   9.337   5.320   1.979
53002SOL    HW159030   9.318   5.224   2.000
53002SOL    HW259031   9.304   5.378   2.054
53003SOL     OW59032  10.999   4.646   2.474
53003SOL    HW159033  11.094   4.617   2.482
53003SOL    HW259034  10.991   4.711   2.399
53004SOL     OW59035  10.951   4.832   2.294
53004SOL    HW159036  11.037   4.834   2.242
53004SOL    HW259037  10.965   4.879   2.382
53005SOL     OW59038   9.423   4.461   3.459
53005SOL    HW159039   9.511   4.448   3.504
53005SOL    HW259040   9.410   4.558   3.437
53006SOL     OW59041   9.923   5.089   2.588
53006SOL    HW159042   9.874   5.002   2.597
53006SOL    HW259043   9.900   5.132   2.501
53007SOL     OW59044  10.603   4.952   3.285
53007SOL    HW159045  10.640   4.879   3.227
53007SOL    HW259046  10.655   4.957   3.370
53008SOL     OW59047  10.119   3.728   2.364
53008SOL    HW159048  10.159   3.819   2.355
53008SOL    HW259049  10.019   3.736   2.370
53009SOL     OW59050   9.507   4.700   3.126
53009SOL    HW159051   9.596   4.655   3.112
53009SOL    HW259052   9.434   4.635   3.107
53010SOL     OW59053  10.835   4.723   2.052
53010SOL    HW159054  10.772   4.647   2.065
53010SOL    HW259055  10.883   4.741   2.138
53011SOL     OW59056  10.497   5.516   3.478
53011SOL    HW159057  10.521   5.576   3.402
53011SOL    HW259058  10.504   5.421   3.448
53012SOL     OW59059   9.627   3.975   3.663
53012SOL    HW159060   9.698   4.046   3.669
53012SOL    HW259061   9.539   4.014   3.691
53013SOL     OW59062  10.776   5.141   2.815
53013SOL    HW159063  10.717   5.147   2.895
53013SOL    HW259064  10.761   5.053   2.769
53014SOL     OW59065  10.977   5.438   2.434
53014SOL    HW159066  10.936   5.415   2.346
53014SOL    HW259067  10.959   5.364   2.499
53015SOL     OW59068   9.908   4.453   2.132
53015SOL    HW159069   9.932   4.522   2.064
53015SOL    HW259070   9.830   4.486   2.186
53016SOL     OW59071  10.591   4.069   2.806
53016SOL    HW159072  10.505   4.019   2.793
53016SOL    HW259073  10.653   4.015   2.862
53017SOL     OW59074  10.886   5.386   2.169
53017SOL    HW159075  10.975   5.432   2.172
53017SOL    HW259076  10.865   5.362   2.074
53018SOL     OW59077  10.117   4.329   3.327
53018SOL    HW159078  10.070   4.326   3.416
53018SOL    HW259079  10.066   4.274   3.261
53019SOL     OW59080  10.704   4.193   3.536
53019SOL    HW159081  10.684   4.236   3.624
53019SOL    HW259082  10.782   4.131   3.545
53020SOL     OW59083  10.283   4.614   3.434
53020SOL    HW159084  10.329   4.530   3.405
53020SOL    HW259085  10.227   4.648   3.359
53021SOL     OW59086  10.301   4.134   3.104
53021SOL    HW159087  10.224   4.168   3.158
53021SOL    HW259088  10.267   4.083   3.025
53022SOL     OW59089  10.351   4.425   2.291
53022SOL    HW159090  10.377   4.421   2.387
53022SOL    HW259091  10.266   4.374   2.277
53023SOL     OW59092   9.386   4.535   2.651
53023SOL    HW159093   9.485   4.523   2.660
53023SOL    HW259094   9.362   4.630   2.672
53024SOL     OW59095   9.440   5.545   3.433
53024SOL    HW159096   9.430   5.530   3.532
53024SOL    HW259097   9.354   5.581   3.397
53025SOL     OW59098  10.175   4.072   2.057
53025SOL    HW159099  10.234   4.135   2.008
53025SOL    HW259100  10.194   3.978   2.028
53026SOL     OW59101  11.029   4.309   3.693
53026SOL    HW159102  11.003   4.398   3.657
53026SOL    HW259103  11.027   4.241   3.620
53027SOL     OW59104  10.672   4.868   2.407
53027SOL    HW159105  10.755   4.839   2.359
53027SOL    HW259106  10.623   4.935   2.351
53028SOL     OW59107   9.860   3.920   2.747
53028SOL    HW159108   9.855   3.915   2.847
53028SOL    HW259109   9.862   4.016   2.718
53029SOL     OW59110  10.318   5.180   2.339
53029SOL    HW159111  10.272   5.252   2.287
53029SOL    HW259112  10.314   5.200   2.437
53030SOL     OW59113   9.661   5.525   2.715
53030SOL    HW159114   9.711   5.439   2.721
53030SOL    HW259115   9.726   5.602   2.712
53031SOL     OW59116  11.105   4.790   2.735
53031SOL    HW159117  11.043   4.775   2.659
53031SOL    HW259118  11.053   4.801   2.820
53032SOL     OW59119  10.537   5.274   3.368
53032SOL    HW159120  10.543   5.197   3.432
53032SOL    HW259121  10.485   5.248   3.288
53033SOL     OW59122   9.631   4.667   2.104
53033SOL    HW159123   9.713   4.706   2.062
53033SOL    HW259124   9.604   4.585   2.055
53034SOL     OW59125  10.768   4.459   2.590
53034SOL    HW159126  10.763   4.394   2.665
53034SOL    HW259127  10.848   4.518   2.603
53035SOL     OW59128   9.771   4.990   3.589
53035SOL    HW159129   9.721   4.991   3.503
53035SOL    HW259130   9.708   4.972   3.665
53036SOL     OW59131  10.421   5.500   2.099
53036SOL    HW159132  10.361   5.438   2.149
53036SOL    HW259133  10.452   5.456   2.014
53037SOL     OW59134   9.512   4.009   3.360
53037SOL    HW159135   9.432   4.069   3.347
53037SOL    HW259136   9.502   3.960   3.446
53038SOL     OW59137  10.942   5.101   1.943
53038SOL    HW159138  10.910   5.195   1.933
53038SOL    HW259139  10.866   5.038   1.931
53039SOL     OW59140   9.774   5.467   2.185
53039SOL    HW159141   9.807   5.506   2.271
53039SOL    HW259142   9.850   5.460   2.120
53040SOL     OW59143  10.710   3.831   2.288
53040SOL    HW159144  10.686   3.794   2.198
53040SOL    HW259145  10.809   3.847   2.292
53041SOL     OW59146   9.559   5.509   3.103
53041SOL    HW159147   9.616   5.444   3.153
53041SOL    HW259148   9.543   5.476   3.010
53042SOL     OW59149  10.250   5.422   2.766
53042SOL    HW159150  10.330   5.365   2.787
53042SOL    HW259151  10.201   5.382   2.689
53043SOL     OW59152   9.692   4.424   2.342
53043SOL    HW159153   9.737   4.334   2.339
53043SOL    HW259154   9.598   4.413   2.375
53044SOL     OW59155  10.857   3.946   3.591
53044SOL    HW159156  10.852   3.983   3.683
53044SOL    HW259157  10.785   3.877   3.579
53045SOL     OW59158   9.924   3.846   1.979
53045SOL    HW159159  10.022   3.824   1.986
53045SOL    HW259160   9.893   3.829   1.886
53046SOL     OW59161  10.091   3.988   3.611
53046SOL    HW159162  10.158   3.927   3.654
53046SOL    HW259163  10.018   4.007   3.676
53047SOL     OW59164  10.198   5.238   3.057
53047SOL    HW159165  10.175   5.213   2.963
53047SOL    HW259166  10.259   5.169   3.096
53048SOL     OW59167  10.661   4.314   3.295
53048SOL    HW159168  10.689   4.271   3.380
53048SOL    HW259169  10.686   4.410   3.296
53049SOL     OW59170  10.113   5.126   2.786
53049SOL    HW159171  10.203   5.140   2.744
53049SOL    HW259172  10.042   5.128   2.715
53050SOL     OW59173  10.232   4.227   2.761
53050SOL    HW159174  10.207   4.218   2.665
53050SOL    HW259175  10.280   4.145   2.792
53051SOL     OW59176   9.849   3.788   2.374
53051SOL    HW159177   9.768   3.789   2.432
53051SOL    HW259178   9.852   3.871   2.319
53052SOL     OW59179  10.744   4.912   1.903
53052SOL    HW159180  10.776   4.836   1.960
53052SOL    HW259181  10.652   4.939   1.933
53053SOL     OW59182   9.607   3.759   2.033
53053SOL    HW159183   9.656   3.843   2.012
53053SOL    HW259184   9.669   3.694   2.078
53054SOL     OW59185  10.245   3.960   2.342
53054SOL    HW159186  10.197   4.001   2.264
53054SOL    HW259187  10.344   3.958   2.323
53055SOL     OW59188  10.386   4.407   3.326
53055SOL    HW159189  10.306   4.346   3.329
53055SOL    HW259190  10.467   4.354   3.302
53056SOL     OW59191  10.537   5.294   2.655
53056SOL    HW159192  10.558   5.368   2.590
53056SOL    HW259193  10.605   5.294   2.728
53057SOL     OW59194   9.769   4.876   2.603
53057SOL    HW159195   9.698   4.849   2.668
53057SOL    HW259196   9.743   4.848   2.510
53058SOL     OW59197  10.581   5.521   2.453
53058SOL    HW159198  10.625   5.585   2.389
53058SOL    HW259199  10.531   5.573   2.523
53059SOL     OW59200  10.342   4.273   1.878
53059SOL    HW159201  10.301   4.355   1.839
53059SOL    HW259202  10.406   4.299   1.951
53060SOL     OW59203   9.388   4.280   3.248
53060SOL    HW159204   9.480   4.279   3.207
53060SOL    HW259205   9.382   4.354   3.315
53061SOL     OW59206   9.871   3.946   3.009
53061SOL    HW159207   9.909   3.862   3.046
53061SOL    HW259208   9.783   3.965   3.053
53062SOL     OW59209  10.176   4.178   2.504
53062SOL    HW159210  10.144   4.250   2.442
53062SOL    HW259211  10.200   4.097   2.451
53063SOL     OW59212  10.327   3.763   2.615
53063SOL    HW159213  10.255   3.768   2.546
53063SOL    HW259214  10.303   3.694   2.684
53064SOL     OW59215  10.739   4.897   2.729
53064SOL    HW159216  10.684   4.813   2.722
53064SOL    HW259217  10.765   4.926   2.637
53065SOL     OW59218  10.776   4.314   2.854
53065SOL    HW159219  10.746   4.219   2.861
53065SOL    HW259220  10.849   4.330   2.920
53066SOL     OW59221  11.167   4.557   2.239
53066SOL    HW159222  11.209   4.493   2.303
53066SOL    HW259223  11.129   4.506   2.161
53067SOL     OW59224   9.798   5.109   2.036
53067SOL    HW159225   9.711   5.094   2.083
53067SOL    HW259226   9.781   5.135   1.941
53068SOL     OW59227  10.974   5.004   2.519
53068SOL    HW159228  11.073   5.012   2.533
53068SOL    HW259229  10.929   5.088   2.550
53069SOL     OW59230  10.700   4.299   1.940
53069SOL    HW159231  10.646   4.278   2.021
53069SOL    HW259232  10.791   4.258   1.949
53070SOL     OW59233   9.837   3.980   2.190
53070SOL    HW159234   9.864   3.921   2.115
53070SOL    HW259235   9.837   4.075   2.159
53071SOL     OW59236  11.064   4.947   3.450
53071SOL    HW159237  11.155   4.908   3.437
53071SOL    HW259238  11.072   5.043   3.474
53072SOL     OW59239  10.374   5.071   3.202
53072SOL    HW159240  10.294   5.048   3.257
53072SOL    HW259241  10.457   5.045   3.251
53073SOL     OW59242  10.902   5.353   3.487
53073SOL    HW159243  10.929   5.387   3.397
53073SOL    HW259244  10.981   5.315   3.533
53074SOL     OW59245  10.421   4.919   2.962
53074SOL    HW159246  10.381   4.963   3.043
53074SOL    HW259247  10.380   4.956   2.879
53075SOL     OW59248  10.948   4.823   2.941
53075SOL    HW159249  10.953   4.904   3.000
53075SOL    HW259250  10.862   4.825   2.890
53076SOL     OW59251  10.225   3.813   3.264
53076SOL    HW159252  10.250   3.793   3.169
53076SOL    HW259253  10.297   3.869   3.306
53077SOL     OW59254  10.290   4.840   3.581
53077SOL    HW159255  10.191   4.846   3.591
53077SOL    HW259256  10.313   4.760   3.525
53078SOL     OW59257  10.015   4.774   2.230
53078SOL    HW159258  10.001   4.781   2.329
53078SOL    HW259259  10.099   4.723   2.212
53079SOL     OW59260   9.720   4.537   3.113
53079SOL    HW159261   9.806   4.549   3.163
53079SOL    HW259262   9.678   4.450   3.140
53080SOL     OW59263  10.584   4.110   3.124
53080SOL    HW159264  10.605   4.184   3.188
53080SOL    HW259265  10.495   4.127   3.081
53081SOL     OW59266   9.374   5.288   3.193
53081SOL    HW159267   9.328   5.370   3.159
53081SOL    HW259268   9.472   5.307   3.202
53082SOL     OW59269   9.677   4.824   2.363
53082SOL    HW159270   9.670   4.907   2.307
53082SOL    HW259271   9.681   4.744   2.303
53083SOL     OW59272   9.876   4.261   2.727
53083SOL    HW159273   9.888   4.327   2.653
53083SOL    HW259274   9.922   4.295   2.810
53084SOL     OW59275  10.562   5.072   2.250
53084SOL    HW159276  10.612   5.149   2.290
53084SOL    HW259277  10.467   5.074   2.282
53085SOL     OW59278  10.582   5.169   3.004
53085SOL    HW159279  10.629   5.182   3.091
53085SOL    HW259280  10.516   5.095   3.013
53086SOL     OW59281  10.892   4.363   2.334
53086SOL    HW159282  10.861   4.424   2.407
53086SOL    HW259283  10.942   4.415   2.265
53087SOL     OW59284   9.664   5.234   3.191
53087SOL    HW159285   9.643   5.190   3.104
53087SOL    HW259286   9.761   5.260   3.194
53088SOL     OW59287   9.712   4.475   3.460
53088SOL    HW159288   9.780   4.530   3.413
53088SOL    HW259289   9.752   4.387   3.487
53089SOL     OW59290  10.897   4.503   3.532
53089SOL    HW159291  10.805   4.541   3.527
53089SOL    HW259292  10.957   4.550   3.467
53090SOL     OW59293  10.323   3.829   3.632
53090SOL    HW159294  10.329   3.914   3.580
53090SOL    HW259295  10.355   3.753   3.575
53091SOL     OW59296   9.814   3.774   3.602
53091SOL    HW159297   9.772   3.717   3.532
53091SOL    HW259298   9.748   3.843   3.634
53092SOL     OW59299   9.883   4.594   2.891
53092SOL    HW159300   9.927   4.683   2.882
53092SOL    HW259301   9.820   4.594   2.968
53093SOL     OW59302  10.670   4.586   2.907
53093SOL    HW159303  10.595   4.586   2.841
53093SOL    HW259304  10.707   4.494   2.916
53094SOL     OW59305  10.519   4.249   2.137
53094SOL    HW159306  10.532   4.165   2.191
53094SOL    HW259307  10.490   4.323   2.197
53095SOL     OW59308   9.617   3.937   3.093
53095SOL    HW159309   9.594   3.974   3.183
53095SOL    HW259310   9.587   3.842   3.087
53096SOL     OW59311   9.347   5.034   3.144
53096SOL    HW159312   9.400   4.985   3.212
53096SOL    HW259313   9.369   5.132   3.149
53097SOL     OW59314  10.042   4.358   2.926
53097SOL    HW159315  10.101   4.332   2.850
53097SOL    HW259316  10.014   4.454   2.915
53098SOL     OW59317  11.038   4.659   3.716
53098SOL    HW159318  10.992   4.652   3.627
53098SOL    HW259319  10.976   4.703   3.782
53099SOL     OW59320   9.617   3.787   2.480
53099SOL    HW159321   9.606   3.881   2.513
53099SOL    HW259322   9.612   3.724   2.557
53100SOL     OW59323  10.932   4.091   2.236
53100SOL    HW159324  10.934   4.015   2.300
53100SOL    HW259325  10.884   4.168   2.276
53101SOL     OW59326  10.333   4.490   2.828
53101SOL    HW159327  10.348   4.511   2.924
53101SOL    HW259328  10.303   4.395   2.819
53102SOL     OW59329  10.290   5.297   3.562
53102SOL    HW159330  10.270   5.341   3.474
53102SOL    HW259331  10.329   5.206   3.546
53103SOL     OW59332  11.169   5.242   3.467
53103SOL    HW159333  11.183   5.269   3.372
53103SOL    HW259334  11.252   5.264   3.520
53104SOL     OW59335   9.660   4.622   3.666
53104SOL    HW159336   9.736   4.666   3.714
53104SOL    HW259337   9.695   4.575   3.584
53105SOL     OW59338  10.850   3.998   1.987
53105SOL    HW159339  10.789   3.923   2.010
53105SOL    HW259340  10.872   4.050   2.070
53106SOL     OW59341  10.613   4.562   1.904
53106SOL    HW159342  10.647   4.469   1.919
53106SOL    HW259343  10.631   4.589   1.809
53107SOL     OW59344  10.378   5.057   2.711
53107SOL    HW159345  10.385   4.973   2.656
53107SOL    HW259346  10.440   5.126   2.675
53108SOL     OW59347   9.629   4.534   2.811
53108SOL    HW159348   9.722   4.570   2.816
53108SOL    HW259349   9.623   4.449   2.863
53109SOL     OW59350   9.649   4.233   2.868
53109SOL    HW159351   9.597   4.150   2.851
53109SOL    HW259352   9.726   4.238   2.804
53110SOL     OW59353  10.448   4.104   3.540
53110SOL    HW159354  10.403   4.167   3.604
53110SOL    HW259355  10.541   4.135   3.523
53111SOL     OW59356  10.470   3.931   3.339
53111SOL    HW159357  10.470   3.995   3.416
53111SOL    HW259358  10.498   3.979   3.256
53112SOL     OW59359   9.318   5.050   2.062
53112SOL    HW159360   9.225   5.071   2.031
53112SOL    HW259361   9.328   4.951   2.075
53113SOL     OW59362   9.398   5.525   2.789
53113SOL    HW159363   9.356   5.439   2.762
53113SOL    HW259364   9.492   5.528   2.755
53114SOL     OW59365   9.814   5.292   2.772
53114SOL    HW159366   9.880   5.366   2.781
53114SOL    HW259367   9.858   5.213   2.730
53115SOL     OW59368  10.312   4.520   3.100
53115SOL    HW159369  10.353   4.488   3.186
53115SOL    HW259370  10.216   4.493   3.097
53116SOL     OW59371   9.350   4.268   2.976
53116SOL    HW159372   9.435   4.235   2.935
53116SOL    HW259373   9.363   4.283   3.074
53117SOL     OW59374   9.499   4.244   3.584
53117SOL    HW159375   9.558   4.204   3.514
53117SOL    HW259376   9.441   4.315   3.543
53118SOL     OW59377  10.679   4.674   3.522
53118SOL    HW159378  10.718   4.763   3.542
53118SOL    HW259379  10.689   4.654   3.425
53119SOL     OW59380  10.125   4.296   2.187
53119SOL    HW159381  10.132   4.207   2.141
53119SOL    HW259382  10.031   4.330   2.179
53120SOL     OW59383  10.967   4.328   3.068
53120SOL    HW159384  10.929   4.259   3.130
53120SOL    HW259385  11.049   4.292   3.024
53121SOL     OW59386   9.562   5.288   3.606
53121SOL    HW159387   9.532   5.345   3.682
53121SOL    HW259388   9.555   5.191   3.632
53122SOL     OW59389   9.981   4.188   3.131
53122SOL    HW159390   9.947   4.099   3.101
53122SOL    HW259391  10.007   4.242   3.051
53123SOL     OW59392  10.240   5.402   3.327
53123SOL    HW159393  10.216   5.384   3.232
53123SOL    HW259394  10.270   5.496   3.337
53124SOL     OW59395   9.783   4.224   2.053
53124SOL    HW159396   9.844   4.304   2.057
53124SOL    HW259397   9.688   4.255   2.060
53125SOL     OW59398   9.469   4.861   3.328
53125SOL    HW159399   9.491   4.800   3.404
53125SOL    HW259400   9.479   4.812   3.242
53126SOL     OW59401  10.657   4.783   3.096
53126SOL    HW159402  10.681   4.720   3.022
53126SOL    HW259403  10.567   4.823   3.078
53127SOL     OW59404  10.612   4.579   2.171
53127SOL    HW159405  10.526   4.548   2.213
53127SOL    HW259406  10.608   4.565   2.072
53128SOL     OW59407  11.069   5.471   3.016
53128SOL    HW159408  11.130   5.501   2.943
53128SOL    HW259409  11.031   5.382   2.994
53129SOL     OW59410  10.562   5.455   2.990
53129SOL    HW159411  10.646   5.460   2.936
53129SOL    HW259412  10.539   5.359   3.008
53130SOL     OW59413   9.393   4.982   2.884
53130SOL    HW159414   9.388   4.981   2.984
53130SOL    HW259415   9.310   4.941   2.846
53131SOL     OW59416   9.998   5.386   3.578
53131SOL    HW159417   9.942   5.467   3.587
53131SOL    HW259418  10.050   5.390   3.492
53132SOL     OW59419  11.036   3.859   2.385
53132SOL    HW159420  11.109   3.842   2.318
53132SOL    HW259421  11.005   3.772   2.423
53133SOL     OW59422  10.698   5.297   2.339
53133SOL    HW159423  10.765   5.309   2.265
53133SOL    HW259424  10.658   5.386   2.362
53134SOL     OW59425   9.440   5.518   3.713
53134SOL    HW159426   9.399   5.444   3.766
53134SOL    HW259427   9.504   5.569   3.771
53135SOL     OW59428  10.590   4.651   2.534
53135SOL    HW159429  10.650   4.570   2.536
53135SOL    HW259430  10.630   4.720   2.474
53136SOL     OW59431  10.140   4.997   3.284
53136SOL    HW159432  10.135   5.030   3.379
53136SOL    HW259433  10.054   5.016   3.238
53137SOL     OW59434   9.982   5.340   2.016
53137SOL    HW159435   9.991   5.350   1.917
53137SOL    HW259436   9.942   5.251   2.037
53138SOL     OW59437  10.960   5.444   3.256
53138SOL    HW159438  11.013   5.454   3.172
53138SOL    HW259439  10.933   5.534   3.290
53139SOL     OW59440  11.151   3.899   2.825
53139SOL    HW159441  11.190   3.814   2.789
53139SOL    HW259442  11.053   3.901   2.806
53140SOL     OW59443   9.573   4.050   2.582
53140SOL    HW159444   9.494   4.101   2.548
53140SOL    HW259445   9.564   4.035   2.680
53141SOL     OW59446  10.504   5.336   1.893
53141SOL    HW159447  10.510   5.243   1.930
53141SOL    HW259448  10.445   5.336   1.813
53142SOL     OW59449  10.132   4.726   3.234
53142SOL    HW159450  10.172   4.725   3.142
53142SOL    HW259451  10.142   4.818   3.274
53143SOL     OW59452  10.226   4.634   2.153
53143SOL    HW159453  10.289   4.672   2.085
53143SOL    HW259454  10.266   4.551   2.192
53144SOL     OW59455  10.814   5.331   1.906
53144SOL    HW159456  10.722   5.368   1.913
53144SOL    HW259457  10.852   5.351   1.816
53145SOL     OW59458   9.682   5.012   3.352
53145SOL    HW159459   9.669   5.105   3.318
53145SOL    HW259460   9.598   4.960   3.339
53146SOL     OW59461  10.924   5.016   3.151
53146SOL    HW159462  10.984   5.019   3.231
53146SOL    HW259463  10.849   5.080   3.164
53147SOL     OW59464  10.349   4.822   2.558
53147SOL    HW159465  10.279   4.775   2.612
53147SOL    HW259466  10.408   4.754   2.515
53148SOL     OW59467  10.324   3.960   2.833
53148SOL    HW159468  10.316   3.924   2.740
53148SOL    HW259469  10.322   3.884   2.898
53149SOL     OW59470   9.900   5.211   2.353
53149SOL    HW159471   9.942   5.153   2.283
53149SOL    HW259472   9.856   5.290   2.309
53150SOL     OW59473  11.019   4.109   3.243
53150SOL    HW159474  11.092   4.178   3.247
53150SOL    HW259475  11.047   4.034   3.184
53151SOL     OW59476   9.565   5.072   2.152
53151SOL    HW159477   9.469   5.073   2.125
53151SOL    HW259478   9.577   5.125   2.236
53152SOL     OW59479   9.415   4.737   3.588
53152SOL    HW159480   9.338   4.704   3.642
53152SOL    HW259481   9.500   4.707   3.630
53153SOL     OW59482   9.982   3.927   3.351
53153SOL    HW159483  10.072   3.911   3.311
53153SOL    HW259484   9.990   3.932   3.450
53154SOL     OW59485   9.385   4.069   1.895
53154SOL    HW159486   9.293   4.041   1.866
53154SOL    HW259487   9.416   4.146   1.839
53155SOL     OW59488  10.750   4.580   3.260
53155SOL    HW159489  10.693   4.632   3.197
53155SOL    HW259490  10.846   4.592   3.236
53156SOL     OW59491   9.382   3.890   2.180
53156SOL    HW159492   9.365   3.973   2.126
53156SOL    HW259493   9.472   3.853   2.158
53157SOL     OW59494  10.493   5.059   1.981
53157SOL    HW159495  10.394   5.048   1.983
53157SOL    HW259496  10.527   5.074   2.074
53158SOL     OW59497   9.923   4.566   3.293
53158SOL    HW159498   9.979   4.647   3.276
53158SOL    HW259499   9.982   4.486   3.296
53159SOL     OW59500  10.803   5.491   2.821
53159SOL    HW159501  10.836   5.555   2.752
53159SOL    HW259502  10.869   5.485   2.896
53160SOL     OW59503  10.026   4.289   3.570
53160SOL    HW159504  10.045   4.354   3.644
53160SOL    HW259505  10.086   4.209   3.579
53161SOL     OW59506  10.760   4.944   3.495
53161SOL    HW159507  10.751   4.934   3.594
53161SOL    HW259508  10.856   4.937   3.469
53162SOL     OW59509   9.700   5.465   3.422
53162SOL    HW159510   9.609   5.506   3.420
53162SOL    HW259511   9.693   5.371   3.454
53163SOL     OW59512  10.984   4.607   3.116
53163SOL    HW159513  10.957   4.518   3.079
53163SOL    HW259514  10.985   4.675   3.043
53164SOL     OW59515  10.535   4.049   2.311
53164SOL    HW159516  10.600   3.975   2.300
53164SOL    HW259517  10.555   4.099   2.395
53165SOL     OW59518   9.904   4.469   2.514
53165SOL    HW159519   9.954   4.554   2.495
53165SOL    HW259520   9.816   4.471   2.466
53166SOL     OW59521  11.087   4.066   3.504
53166SOL    HW159522  11.070   4.097   3.410
53166SOL    HW259523  11.003   4.029   3.542
53167SOL     OW59524  11.040   4.658   3.379
53167SOL    HW159525  11.078   4.749   3.394
53167SOL    HW259526  11.032   4.641   3.280
53168SOL     OW59527  10.169   5.098   1.878
53168SOL    HW159528  10.123   5.113   1.966
53168SOL    HW259529  10.213   5.183   1.848
53169SOL     OW59530   9.971   5.514   2.815
53169SOL    HW159531   9.925   5.602   2.802
53169SOL    HW259532  10.070   5.526   2.808
53170SOL     OW59533  10.169   4.680   2.723
53170SOL    HW159534  10.223   4.611   2.771
53170SOL    HW259535  10.137   4.749   2.789
53171SOL     OW59536  10.393   4.708   1.949
53171SOL    HW159537  10.370   4.761   1.867
53171SOL    HW259538  10.474   4.652   1.930
53172SOL     OW59539  11.171   5.293   2.713
53172SOL    HW159540  11.100   5.281   2.643
53172SOL    HW259541  11.172   5.214   2.773
53173SOL     OW59542   9.531   5.038   3.706
53173SOL    HW159543   9.466   4.965   3.685
53173SOL    HW259544   9.535   5.052   3.804
53174SOL     OW59545   9.389   4.964   2.515
53174SOL    HW159546   9.388   4.917   2.603
53174SOL    HW259547   9.471   4.936   2.464
53175SOL     OW59548   9.982   5.115   3.486
53175SOL    HW159549   9.904   5.065   3.524
53175SOL    HW259550   9.979   5.210   3.517
53176SOL     OW59551  11.134   3.916   3.089
53176SOL    HW159552  11.130   3.826   3.133
53176SOL    HW259553  11.137   3.905   2.990
53177SOL     OW59554   9.738   4.148   2.382
53177SOL    HW159555   9.768   4.076   2.320
53177SOL    HW259556   9.699   4.108   2.465
53178SOL     OW59557  11.015   5.211   2.966
53178SOL    HW159558  10.922   5.186   2.939
53178SOL    HW259559  11.041   5.161   3.048
53179SOL     OW59560   9.627   4.271   3.142
53179SOL    HW159561   9.665   4.212   3.214
53179SOL    HW259562   9.667   4.245   3.054
53180SOL     OW59563  10.122   5.310   2.549
53180SOL    HW159564  10.154   5.320   2.455
53180SOL    HW259565  10.043   5.248   2.551
53181SOL     OW59566  10.734   3.938   2.974
53181SOL    HW159567  10.786   3.873   3.029
53181SOL    HW259568  10.685   4.001   3.035
53182SOL     OW59569  10.311   3.758   3.016
53182SOL    HW159570  10.248   3.686   2.985
53182SOL    HW259571  10.404   3.722   3.016
53183SOL     OW59572  10.080   5.054   2.163
53183SOL    HW159573  10.034   4.967   2.180
53183SOL    HW259574  10.171   5.051   2.204
53184SOL     OW59575   9.928   5.291   3.146
53184SOL    HW159576   9.923   5.373   3.203
53184SOL    HW259577  10.017   5.288   3.101
53185SOL     OW59578  10.662   3.776   2.030
53185SOL    HW159579  10.697   3.735   1.946
53185SOL    HW259580  10.572   3.738   2.050
53186SOL     OW59581  10.610   4.177   2.553
53186SOL    HW159582  10.551   4.257   2.557
53186SOL    HW259583  10.625   4.142   2.646
53187SOL     OW59584  10.903   3.945   2.744
53187SOL    HW159585  10.819   3.944   2.798
53187SOL    HW259586  10.905   4.028   2.688
53188SOL     OW59587   9.349   4.801   2.162
53188SOL    HW159588   9.448   4.790   2.153
53188SOL    HW259589   9.309   4.715   2.194
53189SOL     OW59590  10.185   5.370   2.199
53189SOL    HW159591  10.108   5.335   2.145
53189SOL    HW259592  10.153   5.441   2.261
53190SOL     OW59593   9.540   4.352   3.837
53190SOL    HW159594   9.447   4.350   3.874
53190SOL    HW259595   9.541   4.313   3.745
53191SOL     OW59596   9.535   3.999   4.720
53191SOL    HW159597   9.570   3.982   4.812
53191SOL    HW259598   9.447   3.954   4.708
53192SOL     OW59599   9.329   4.092   4.371
53192SOL    HW159600   9.247   4.135   4.410
53192SOL    HW259601   9.301   4.019   4.308
53193SOL     OW59602   9.879   4.999   4.889
53193SOL    HW159603   9.786   4.992   4.852
53193SOL    HW259604   9.890   5.088   4.933
53194SOL     OW59605  10.865   5.235   4.427
53194SOL    HW159606  10.808   5.219   4.508
53194SOL    HW259607  10.806   5.245   4.347
53195SOL     OW59608  10.445   4.427   4.441
53195SOL    HW159609  10.502   4.505   4.416
53195SOL    HW259610  10.385   4.453   4.517
53196SOL     OW59611  11.065   4.331   3.955
53196SOL    HW159612  11.053   4.318   3.856
53196SOL    HW259613  11.035   4.250   4.004
53197SOL     OW59614  10.078   4.868   4.747
53197SOL    HW159615  10.000   4.885   4.807
53197SOL    HW259616  10.112   4.955   4.711
53198SOL     OW59617  10.160   4.522   5.547
53198SOL    HW159618  10.156   4.598   5.612
53198SOL    HW259619  10.182   4.558   5.456
53199SOL     OW59620   9.995   4.736   4.389
53199SOL    HW159621  10.064   4.720   4.459
53199SOL    HW259622   9.922   4.793   4.427
53200SOL     OW59623   9.996   4.885   5.527
53200SOL    HW159624  10.056   4.964   5.541
53200SOL    HW259625   9.910   4.916   5.486
53201SOL     OW59626   9.645   5.159   4.785
53201SOL    HW159627   9.567   5.128   4.732
53201SOL    HW259628   9.703   5.217   4.728
53202SOL     OW59629  10.770   5.229   5.063
53202SOL    HW159630  10.794   5.323   5.089
53202SOL    HW259631  10.754   5.175   5.145
53203SOL     OW59632   9.748   4.116   5.223
53203SOL    HW159633   9.830   4.060   5.232
53203SOL    HW259634   9.667   4.058   5.227
53204SOL     OW59635  10.913   4.171   4.461
53204SOL    HW159636  10.839   4.217   4.411
53204SOL    HW259637  10.964   4.239   4.514
53205SOL     OW59638   9.541   5.437   4.207
53205SOL    HW159639   9.575   5.514   4.261
53205SOL    HW259640   9.585   5.437   4.117
53206SOL     OW59641  10.437   5.065   5.414
53206SOL    HW159642  10.484   5.065   5.502
53206SOL    HW259643  10.389   4.978   5.403
53207SOL     OW59644   9.540   5.158   4.262
53207SOL    HW159645   9.514   5.254   4.262
53207SOL    HW259646   9.469   5.104   4.307
53208SOL     OW59647   9.550   4.815   4.610
53208SOL    HW159648   9.564   4.731   4.662
53208SOL    HW259649   9.495   4.879   4.665
53209SOL     OW59650   9.930   5.510   5.163
53209SOL    HW159651   9.838   5.493   5.198
53209SOL    HW259652   9.958   5.602   5.189
53210SOL     OW59653   9.916   4.688   3.847
53210SOL    HW159654   9.923   4.772   3.793
53210SOL    HW259655   9.962   4.701   3.935
53211SOL     OW59656  10.904   3.838   5.204
53211SOL    HW159657  10.886   3.905   5.132
53211SOL    HW259658  10.901   3.884   5.293
53212SOL     OW59659   9.432   4.367   4.287
53212SOL    HW159660   9.387   4.279   4.304
53212SOL    HW259661   9.431   4.421   4.371
53213SOL     OW59662  11.152   5.491   4.083
53213SOL    HW159663  11.206   5.462   4.163
53213SOL    HW259664  11.182   5.581   4.054
53214SOL     OW59665   9.337   5.320   3.841
53214SOL    HW159666   9.318   5.224   3.862
53214SOL    HW259667   9.304   5.378   3.916
53215SOL     OW59668  10.999   4.646   4.336
53215SOL    HW159669  11.094   4.617   4.344
53215SOL    HW259670  10.991   4.711   4.261
53216SOL     OW59671  10.951   4.832   4.156
53216SOL    HW159672  11.037   4.834   4.104
53216SOL    HW259673  10.965   4.879   4.244
53217SOL     OW59674   9.423   4.461   5.321
53217SOL    HW159675   9.511   4.448   5.366
53217SOL    HW259676   9.410   4.558   5.299
53218SOL     OW59677   9.923   5.089   4.450
53218SOL    HW159678   9.874   5.002   4.459
53218SOL    HW259679   9.900   5.132   4.363
53219SOL     OW59680  10.603   4.952   5.147
53219SOL    HW159681  10.640   4.879   5.089
53219SOL    HW259682  10.655   4.957   5.232
53220SOL     OW59683  10.119   3.728   4.226
53220SOL    HW159684  10.159   3.819   4.217
53220SOL    HW259685  10.019   3.736   4.232
53221SOL     OW59686   9.507   4.700   4.988
53221SOL    HW159687   9.596   4.655   4.974
53221SOL    HW259688   9.434   4.635   4.969
53222SOL     OW59689  10.835   4.723   3.914
53222SOL    HW159690  10.772   4.647   3.927
53222SOL    HW259691  10.883   4.741   4.000
53223SOL     OW59692  10.497   5.516   5.340
53223SOL    HW159693  10.521   5.576   5.264
53223SOL    HW259694  10.504   5.421   5.310
53224SOL     OW59695   9.627   3.975   5.525
53224SOL    HW159696   9.698   4.046   5.531
53224SOL    HW259697   9.539   4.014   5.553
53225SOL     OW59698  10.776   5.141   4.677
53225SOL    HW159699  10.717   5.147   4.757
53225SOL    HW259700  10.761   5.053   4.631
53226SOL     OW59701  10.977   5.438   4.296
53226SOL    HW159702  10.936   5.415   4.208
53226SOL    HW259703  10.959   5.364   4.361
53227SOL     OW59704   9.908   4.453   3.994
53227SOL    HW159705   9.932   4.522   3.926
53227SOL    HW259706   9.830   4.486   4.048
53228SOL     OW59707  10.591   4.069   4.668
53228SOL    HW159708  10.505   4.019   4.655
53228SOL    HW259709  10.653   4.015   4.724
53229SOL     OW59710  10.886   5.386   4.031
53229SOL    HW159711  10.975   5.432   4.034
53229SOL    HW259712  10.865   5.362   3.936
53230SOL     OW59713  10.117   4.329   5.189
53230SOL    HW159714  10.070   4.326   5.278
53230SOL    HW259715  10.066   4.274   5.123
53231SOL     OW59716  10.704   4.193   5.398
53231SOL    HW159717  10.684   4.236   5.486
53231SOL    HW259718  10.782   4.131   5.407
53232SOL     OW59719  10.283   4.614   5.296
53232SOL    HW159720  10.329   4.530   5.267
53232SOL    HW259721  10.227   4.648   5.221
53233SOL     OW59722  10.301   4.134   4.966
53233SOL    HW159723  10.224   4.168   5.020
53233SOL    HW259724  10.267   4.083   4.887
53234SOL     OW59725  10.351   4.425   4.153
53234SOL    HW159726  10.377   4.421   4.249
53234SOL    HW259727  10.266   4.374   4.139
53235SOL     OW59728   9.386   4.535   4.513
53235SOL    HW159729   9.485   4.523   4.522
53235SOL    HW259730   9.362   4.630   4.534
53236SOL     OW59731   9.440   5.545   5.295
53236SOL    HW159732   9.430   5.530   5.394
53236SOL    HW259733   9.354   5.581   5.259
53237SOL     OW59734  10.175   4.072   3.919
53237SOL    HW159735  10.234   4.135   3.870
53237SOL    HW259736  10.194   3.978   3.890
53238SOL     OW59737  11.029   4.309   5.555
53238SOL    HW159738  11.003   4.398   5.519
53238SOL    HW259739  11.027   4.241   5.482
53239SOL     OW59740  10.672   4.868   4.269
53239SOL    HW159741  10.755   4.839   4.221
53239SOL    HW259742  10.623   4.935   4.213
53240SOL     OW59743   9.860   3.920   4.609
53240SOL    HW159744   9.855   3.915   4.709
53240SOL    HW259745   9.862   4.016   4.580
53241SOL     OW59746  10.318   5.180   4.201
53241SOL    HW159747  10.272   5.252   4.149
53241SOL    HW259748  10.314   5.200   4.299
53242SOL     OW59749   9.661   5.525   4.577
53242SOL    HW159750   9.711   5.439   4.583
53242SOL    HW259751   9.726   5.602   4.574
53243SOL     OW59752  11.105   4.790   4.597
53243SOL    HW159753  11.043   4.775   4.521
53243SOL    HW259754  11.053   4.801   4.682
53244SOL     OW59755  10.537   5.274   5.230
53244SOL    HW159756  10.543   5.197   5.294
53244SOL    HW259757  10.485   5.248   5.150
53245SOL     OW59758   9.631   4.667   3.966
53245SOL    HW159759   9.713   4.706   3.924
53245SOL    HW259760   9.604   4.585   3.917
53246SOL     OW59761  10.768   4.459   4.452
53246SOL    HW159762  10.763   4.394   4.527
53246SOL    HW259763  10.848   4.518   4.465
53247SOL     OW59764   9.771   4.990   5.451
53247SOL    HW159765   9.721   4.991   5.365
53247SOL    HW259766   9.708   4.972   5.527
53248SOL     OW59767  10.421   5.500   3.961
53248SOL    HW159768  10.361   5.438   4.011
53248SOL    HW259769  10.452   5.456   3.876
53249SOL     OW59770   9.512   4.009   5.222
53249SOL    HW159771   9.432   4.069   5.209
53249SOL    HW259772   9.502   3.960   5.308
53250SOL     OW59773  10.942   5.101   3.805
53250SOL    HW159774  10.910   5.195   3.795
53250SOL    HW259775  10.866   5.038   3.793
53251SOL     OW59776   9.774   5.467   4.047
53251SOL    HW159777   9.807   5.506   4.133
53251SOL    HW259778   9.850   5.460   3.982
53252SOL     OW59779  10.710   3.831   4.150
53252SOL    HW159780  10.686   3.794   4.060
53252SOL    HW259781  10.809   3.847   4.154
53253SOL     OW59782   9.559   5.509   4.965
53253SOL    HW159783   9.616   5.444   5.015
53253SOL    HW259784   9.543   5.476   4.872
53254SOL     OW59785  10.250   5.422   4.628
53254SOL    HW159786  10.330   5.365   4.649
53254SOL    HW259787  10.201   5.382   4.551
53255SOL     OW59788   9.692   4.424   4.204
53255SOL    HW159789   9.737   4.334   4.201
53255SOL    HW259790   9.598   4.413   4.237
53256SOL     OW59791  10.857   3.946   5.453
53256SOL    HW159792  10.852   3.983   5.545
53256SOL    HW259793  10.785   3.877   5.441
53257SOL     OW59794   9.924   3.846   3.841
53257SOL    HW159795  10.022   3.824   3.848
53257SOL    HW259796   9.893   3.829   3.748
53258SOL     OW59797  10.091   3.988   5.473
53258SOL    HW159798  10.158   3.927   5.516
53258SOL    HW259799  10.018   4.007   5.538
53259SOL     OW59800  10.198   5.238   4.919
53259SOL    HW159801  10.175   5.213   4.825
53259SOL    HW259802  10.259   5.169   4.958
53260SOL     OW59803  10.661   4.314   5.157
53260SOL    HW159804  10.689   4.271   5.242
53260SOL    HW259805  10.686   4.410   5.158
53261SOL     OW59806  10.113   5.126   4.648
53261SOL    HW159807  10.203   5.140   4.606
53261SOL    HW259808  10.042   5.128   4.577
53262SOL     OW59809  10.232   4.227   4.623
53262SOL    HW159810  10.207   4.218   4.527
53262SOL    HW259811  10.280   4.145   4.654
53263SOL     OW59812   9.849   3.788   4.236
53263SOL    HW159813   9.768   3.789   4.294
53263SOL    HW259814   9.852   3.871   4.181
53264SOL     OW59815  10.744   4.912   3.765
53264SOL    HW159816  10.776   4.836   3.822
53264SOL    HW259817  10.652   4.939   3.795
53265SOL     OW59818   9.607   3.759   3.895
53265SOL    HW159819   9.656   3.843   3.874
53265SOL    HW259820   9.669   3.694   3.940
53266SOL     OW59821  10.245   3.960   4.204
53266SOL    HW159822  10.197   4.001   4.126
53266SOL    HW259823  10.344   3.958   4.185
53267SOL     OW59824  10.386   4.407   5.188
53267SOL    HW159825  10.306   4.346   5.191
53267SOL    HW259826  10.467   4.354   5.164
53268SOL     OW59827  10.537   5.294   4.517
53268SOL    HW159828  10.558   5.368   4.452
53268SOL    HW259829  10.605   5.294   4.590
53269SOL     OW59830   9.769   4.876   4.465
53269SOL    HW159831   9.698   4.849   4.530
53269SOL    HW259832   9.743   4.848   4.372
53270SOL     OW59833  10.581   5.521   4.315
53270SOL    HW159834  10.625   5.585   4.251
53270SOL    HW259835  10.531   5.573   4.385
53271SOL     OW59836  10.342   4.273   3.740
53271SOL    HW159837  10.301   4.355   3.701
53271SOL    HW259838  10.406   4.299   3.813
53272SOL     OW59839   9.388   4.280   5.110
53272SOL    HW159840   9.480   4.279   5.069
53272SOL    HW259841   9.382   4.354   5.177
53273SOL     OW59842   9.871   3.946   4.871
53273SOL    HW159843   9.909   3.862   4.908
53273SOL    HW259844   9.783   3.965   4.915
53274SOL     OW59845  10.176   4.178   4.366
53274SOL    HW159846  10.144   4.250   4.304
53274SOL    HW259847  10.200   4.097   4.313
53275SOL     OW59848  10.327   3.763   4.477
53275SOL    HW159849  10.255   3.768   4.408
53275SOL    HW259850  10.303   3.694   4.546
53276SOL     OW59851  10.739   4.897   4.591
53276SOL    HW159852  10.684   4.813   4.584
53276SOL    HW259853  10.765   4.926   4.499
53277SOL     OW59854  10.776   4.314   4.716
53277SOL    HW159855  10.746   4.219   4.723
53277SOL    HW259856  10.849   4.330   4.782
53278SOL     OW59857  11.167   4.557   4.101
53278SOL    HW159858  11.209   4.493   4.165
53278SOL    HW259859  11.129   4.506   4.023
53279SOL     OW59860   9.798   5.109   3.898
53279SOL    HW159861   9.711   5.094   3.945
53279SOL    HW259862   9.781   5.135   3.803
53280SOL     OW59863  10.974   5.004   4.381
53280SOL    HW159864  11.073   5.012   4.395
53280SOL    HW259865  10.929   5.088   4.412
53281SOL     OW59866  10.700   4.299   3.802
53281SOL    HW159867  10.646   4.278   3.883
53281SOL    HW259868  10.791   4.258   3.811
53282SOL     OW59869   9.837   3.980   4.052
53282SOL    HW159870   9.864   3.921   3.977
53282SOL    HW259871   9.837   4.075   4.021
53283SOL     OW59872  11.064   4.947   5.312
53283SOL    HW159873  11.155   4.908   5.299
53283SOL    HW259874  11.072   5.043   5.336
53284SOL     OW59875  10.374   5.071   5.064
53284SOL    HW159876  10.294   5.048   5.119
53284SOL    HW259877  10.457   5.045   5.113
53285SOL     OW59878  10.902   5.353   5.349
53285SOL    HW159879  10.929   5.387   5.259
53285SOL    HW259880  10.981   5.315   5.395
53286SOL     OW59881  10.421   4.919   4.824
53286SOL    HW159882  10.381   4.963   4.905
53286SOL    HW259883  10.380   4.956   4.741
53287SOL     OW59884  10.948   4.823   4.803
53287SOL    HW159885  10.953   4.904   4.862
53287SOL    HW259886  10.862   4.825   4.752
53288SOL     OW59887  10.225   3.813   5.126
53288SOL    HW159888  10.250   3.793   5.031
53288SOL    HW259889  10.297   3.869   5.168
53289SOL     OW59890  10.290   4.840   5.443
53289SOL    HW159891  10.191   4.846   5.453
53289SOL    HW259892  10.313   4.760   5.387
53290SOL     OW59893  10.015   4.774   4.092
53290SOL    HW159894  10.001   4.781   4.191
53290SOL    HW259895  10.099   4.723   4.074
53291SOL     OW59896   9.720   4.537   4.975
53291SOL    HW159897   9.806   4.549   5.025
53291SOL    HW259898   9.678   4.450   5.002
53292SOL     OW59899  10.584   4.110   4.986
53292SOL    HW159900  10.605   4.184   5.050
53292SOL    HW259901  10.495   4.127   4.943
53293SOL     OW59902   9.374   5.288   5.055
53293SOL    HW159903   9.328   5.370   5.021
53293SOL    HW259904   9.472   5.307   5.064
53294SOL     OW59905   9.677   4.824   4.225
53294SOL    HW159906   9.670   4.907   4.169
53294SOL    HW259907   9.681   4.744   4.165
53295SOL     OW59908   9.876   4.261   4.589
53295SOL    HW159909   9.888   4.327   4.515
53295SOL    HW259910   9.922   4.295   4.672
53296SOL     OW59911  10.562   5.072   4.112
53296SOL    HW159912  10.612   5.149   4.152
53296SOL    HW259913  10.467   5.074   4.144
53297SOL     OW59914  10.582   5.169   4.866
53297SOL    HW159915  10.629   5.182   4.953
53297SOL    HW259916  10.516   5.095   4.875
53298SOL     OW59917  10.892   4.363   4.196
53298SOL    HW159918  10.861   4.424   4.269
53298SOL    HW259919  10.942   4.415   4.127
53299SOL     OW59920   9.664   5.234   5.053
53299SOL    HW159921   9.643   5.190   4.966
53299SOL    HW259922   9.761   5.260   5.056
53300SOL     OW59923   9.712   4.475   5.322
53300SOL    HW159924   9.780   4.530   5.275
53300SOL    HW259925   9.752   4.387   5.349
53301SOL     OW59926  10.897   4.503   5.394
53301SOL    HW159927  10.805   4.541   5.389
53301SOL    HW259928  10.957   4.550   5.329
53302SOL     OW59929  10.323   3.829   5.494
53302SOL    HW159930  10.329   3.914   5.442
53302SOL    HW259931  10.355   3.753   5.437
53303SOL     OW59932   9.814   3.774   5.464
53303SOL    HW159933   9.772   3.717   5.394
53303SOL    HW259934   9.748   3.843   5.496
53304SOL     OW59935   9.883   4.594   4.753
53304SOL    HW159936   9.927   4.683   4.744
53304SOL    HW259937   9.820   4.594   4.830
53305SOL     OW59938  10.670   4.586   4.769
53305SOL    HW159939  10.595   4.586   4.703
53305SOL    HW259940  10.707   4.494   4.778
53306SOL     OW59941  10.519   4.249   3.999
53306SOL    HW159942  10.532   4.165   4.053
53306SOL    HW259943  10.490   4.323   4.059
53307SOL     OW59944   9.617   3.937   4.955
53307SOL    HW159945   9.594   3.974   5.045
53307SOL    HW259946   9.587   3.842   4.949
53308SOL     OW59947   9.347   5.034   5.006
53308SOL    HW159948   9.400   4.985   5.074
53308SOL    HW259949   9.369   5.132   5.011
53309SOL     OW59950  10.042   4.358   4.788
53309SOL    HW159951  10.101   4.332   4.712
53309SOL    HW259952  10.014   4.454   4.777
53310SOL     OW59953  11.038   4.659   5.578
53310SOL    HW159954  10.992   4.652   5.489
53310SOL    HW259955  10.976   4.703   5.644
53311SOL     OW59956   9.617   3.787   4.342
53311SOL    HW159957   9.606   3.881   4.375
53311SOL    HW259958   9.612   3.724   4.419
53312SOL     OW59959  10.932   4.091   4.098
53312SOL    HW159960  10.934   4.015   4.162
53312SOL    HW259961  10.884   4.168   4.138
53313SOL     OW59962  10.333   4.490   4.690
53313SOL    HW159963  10.348   4.511   4.786
53313SOL    HW259964  10.303   4.395   4.681
53314SOL     OW59965  10.290   5.297   5.424
53314SOL    HW159966  10.270   5.341   5.336
53314SOL    HW259967  10.329   5.206   5.408
53315SOL     OW59968  11.169   5.242   5.329
53315SOL    HW159969  11.183   5.269   5.234
53315SOL    HW259970  11.252   5.264   5.382
53316SOL     OW59971   9.660   4.622   5.528
53316SOL    HW159972   9.736   4.666   5.576
53316SOL    HW259973   9.695   4.575   5.446
53317SOL     OW59974  10.850   3.998   3.849
53317SOL    HW159975  10.789   3.923   3.872
53317SOL    HW259976  10.872   4.050   3.932
53318SOL     OW59977  10.613   4.562   3.766
53318SOL    HW159978  10.647   4.469   3.781
53318SOL    HW259979  10.631   4.589   3.671
53319SOL     OW59980  10.378   5.057   4.573
53319SOL    HW159981  10.385   4.973   4.518
53319SOL    HW259982  10.440   5.126   4.537
53320SOL     OW59983   9.629   4.534   4.673
53320SOL    HW159984   9.722   4.570   4.678
53320SOL    HW259985   9.623   4.449   4.725
53321SOL     OW59986   9.649   4.233   4.730
53321SOL    HW159987   9.597   4.150   4.713
53321SOL    HW259988   9.726   4.238   4.666
53322SOL     OW59989  10.448   4.104   5.402
53322SOL    HW159990  10.403   4.167   5.466
53322SOL    HW259991  10.541   4.135   5.385
53323SOL     OW59992  10.470   3.931   5.201
53323SOL    HW159993  10.470   3.995   5.278
53323SOL    HW259994  10.498   3.979   5.118
53324SOL     OW59995   9.318   5.050   3.924
53324SOL    HW159996   9.225   5.071   3.893
53324SOL    HW259997   9.328   4.951   3.937
53325SOL     OW59998   9.398   5.525   4.651
53325SOL    HW159999   9.356   5.439   4.624
53325SOL    HW260000   9.492   5.528   4.617
53326SOL     OW60001   9.814   5.292   4.634
53326SOL    HW160002   9.880   5.366   4.643
53326SOL    HW260003   9.858   5.213   4.592
53327SOL     OW60004  10.312   4.520   4.962
53327SOL    HW160005  10.353   4.488   5.048
53327SOL    HW260006  10.216   4.493   4.959
53328SOL     OW60007   9.350   4.268   4.838
53328SOL    HW160008   9.435   4.235   4.797
53328SOL    HW260009   9.363   4.283   4.936
53329SOL     OW60010   9.499   4.244   5.446
53329SOL    HW160011   9.558   4.204   5.376
53329SOL    HW260012   9.441   4.315   5.405
53330SOL     OW60013  10.679   4.674   5.384
53330SOL    HW160014  10.718   4.763   5.404
53330SOL    HW260015  10.689   4.654   5.287
53331SOL     OW60016  10.125   4.296   4.049
53331SOL    HW160017  10.132   4.207   4.003
53331SOL    HW260018  10.031   4.330   4.041
53332SOL     OW60019  10.967   4.328   4.930
53332SOL    HW160020  10.929   4.259   4.992
53332SOL    HW260021  11.049   4.292   4.886
53333SOL     OW60022   9.562   5.288   5.468
53333SOL    HW160023   9.532   5.345   5.544
53333SOL    HW260024   9.555   5.191   5.494
53334SOL     OW60025   9.981   4.188   4.993
53334SOL    HW160026   9.947   4.099   4.963
53334SOL    HW260027  10.007   4.242   4.913
53335SOL     OW60028  10.240   5.402   5.189
53335SOL    HW160029  10.216   5.384   5.094
53335SOL    HW260030  10.270   5.496   5.199
53336SOL     OW60031   9.783   4.224   3.915
53336SOL    HW160032   9.844   4.304   3.919
53336SOL    HW260033   9.688   4.255   3.922
53337SOL     OW60034   9.469   4.861   5.190
53337SOL    HW160035   9.491   4.800   5.266
53337SOL    HW260036   9.479   4.812   5.104
53338SOL     OW60037  10.657   4.783   4.958
53338SOL    HW160038  10.681   4.720   4.884
53338SOL    HW260039  10.567   4.823   4.940
53339SOL     OW60040  10.612   4.579   4.033
53339SOL    HW160041  10.526   4.548   4.075
53339SOL    HW260042  10.608   4.565   3.934
53340SOL     OW60043  11.069   5.471   4.878
53340SOL    HW160044  11.130   5.501   4.805
53340SOL    HW260045  11.031   5.382   4.856
53341SOL     OW60046  10.562   5.455   4.852
53341SOL    HW160047  10.646   5.460   4.798
53341SOL    HW260048  10.539   5.359   4.870
53342SOL     OW60049   9.393   4.982   4.746
53342SOL    HW160050   9.388   4.981   4.846
53342SOL    HW260051   9.310   4.941   4.708
53343SOL     OW60052   9.998   5.386   5.440
53343SOL    HW160053   9.942   5.467   5.449
53343SOL    HW260054  10.050   5.390   5.354
53344SOL     OW60055  11.036   3.859   4.247
53344SOL    HW160056  11.109   3.842   4.180
53344SOL    HW260057  11.005   3.772   4.285
53345SOL     OW60058  10.698   5.297   4.201
53345SOL    HW160059  10.765   5.309   4.127
53345SOL    HW260060  10.658   5.386   4.224
53346SOL     OW60061   9.440   5.518   5.575
53346SOL    HW160062   9.399   5.444   5.628
53346SOL    HW260063   9.504   5.569   5.633
53347SOL     OW60064  10.590   4.651   4.396
53347SOL    HW160065  10.650   4.570   4.398
53347SOL    HW260066  10.630   4.720   4.336
53348SOL     OW60067  10.140   4.997   5.146
53348SOL    HW160068  10.135   5.030   5.241
53348SOL    HW260069  10.054   5.016   5.100
53349SOL     OW60070   9.982   5.340   3.878
53349SOL    HW160071   9.991   5.350   3.779
53349SOL    HW260072   9.942   5.251   3.899
53350SOL     OW60073  10.960   5.444   5.118
53350SOL    HW160074  11.013   5.454   5.034
53350SOL    HW260075  10.933   5.534   5.152
53351SOL     OW60076  11.151   3.899   4.687
53351SOL    HW160077  11.190   3.814   4.651
53351SOL    HW260078  11.053   3.901   4.668
53352SOL     OW60079   9.573   4.050   4.444
53352SOL    HW160080   9.494   4.101   4.410
53352SOL    HW260081   9.564   4.035   4.542
53353SOL     OW60082  10.504   5.336   3.755
53353SOL    HW160083  10.510   5.243   3.792
53353SOL    HW260084  10.445   5.336   3.675
53354SOL     OW60085  10.132   4.726   5.096
53354SOL    HW160086  10.172   4.725   5.004
53354SOL    HW260087  10.142   4.818   5.136
53355SOL     OW60088  10.226   4.634   4.015
53355SOL    HW160089  10.289   4.672   3.947
53355SOL    HW260090  10.266   4.551   4.054
53356SOL     OW60091  10.814   5.331   3.768
53356SOL    HW160092  10.722   5.368   3.775
53356SOL    HW260093  10.852   5.351   3.678
53357SOL     OW60094   9.682   5.012   5.214
53357SOL    HW160095   9.669   5.105   5.180
53357SOL    HW260096   9.598   4.960   5.201
53358SOL     OW60097  10.924   5.016   5.013
53358SOL    HW160098  10.984   5.019   5.093
53358SOL    HW260099  10.849   5.080   5.026
53359SOL     OW60100  10.349   4.822   4.420
53359SOL    HW160101  10.279   4.775   4.474
53359SOL    HW260102  10.408   4.754   4.377
53360SOL     OW60103  10.324   3.960   4.695
53360SOL    HW160104  10.316   3.924   4.602
53360SOL    HW260105  10.322   3.884   4.760
53361SOL     OW60106   9.900   5.211   4.215
53361SOL    HW160107   9.942   5.153   4.145
53361SOL    HW260108   9.856   5.290   4.171
53362SOL     OW60109  11.019   4.109   5.105
53362SOL    HW160110  11.092   4.178   5.109
53362SOL    HW260111  11.047   4.034   5.046
53363SOL     OW60112   9.565   5.072   4.014
53363SOL    HW160113   9.469   5.073   3.987
53363SOL    HW260114   9.577   5.125   4.098
53364SOL     OW60115   9.415   4.737   5.450
53364SOL    HW160116   9.338   4.704   5.504
53364SOL    HW260117   9.500   4.707   5.492
53365SOL     OW60118   9.982   3.927   5.213
53365SOL    HW160119  10.072   3.911   5.173
53365SOL    HW260120   9.990   3.932   5.312
53366SOL     OW60121   9.385   4.069   3.757
53366SOL    HW160122   9.293   4.041   3.728
53366SOL    HW260123   9.416   4.146   3.701
53367SOL     OW60124  10.750   4.580   5.122
53367SOL    HW160125  10.693   4.632   5.059
53367SOL    HW260126  10.846   4.592   5.098
53368SOL     OW60127   9.382   3.890   4.042
53368SOL    HW160128   9.365   3.973   3.988
53368SOL    HW260129   9.472   3.853   4.020
53369SOL     OW60130  10.493   5.059   3.843
53369SOL    HW160131  10.394   5.048   3.845
53369SOL    HW260132  10.527   5.074   3.936
53370SOL     OW60133   9.923   4.566   5.155
53370SOL    HW160134   9.979   4.647   5.138
53370SOL    HW260135   9.982   4.486   5.158
53371SOL     OW60136  10.803   5.491   4.683
53371SOL    HW160137  10.836   5.555   4.614
53371SOL    HW260138  10.869   5.485   4.758
53372SOL     OW60139  10.026   4.289   5.432
53372SOL    HW160140  10.045   4.354   5.506
53372SOL    HW260141  10.086   4.209   5.441
53373SOL     OW60142  10.760   4.944   5.357
53373SOL    HW160143  10.751   4.934   5.456
53373SOL    HW260144  10.856   4.937   5.331
53374SOL     OW60145   9.700   5.465   5.284
53374SOL    HW160146   9.609   5.506   5.282
53374SOL    HW260147   9.693   5.371   5.316
53375SOL     OW60148  10.984   4.607   4.978
53375SOL    HW160149  10.957   4.518   4.941
53375SOL    HW260150  10.985   4.675   4.905
53376SOL     OW60151  10.535   4.049   4.173
53376SOL    HW160152  10.600   3.975   4.162
53376SOL    HW260153  10.555   4.099   4.257
53377SOL     OW60154   9.904   4.469   4.376
53377SOL    HW160155   9.954   4.554   4.357
53377SOL    HW260156   9.816   4.471   4.328
53378SOL     OW60157  11.087   4.066   5.366
53378SOL    HW160158  11.070   4.097   5.272
53378SOL    HW260159  11.003   4.029   5.404
53379SOL     OW60160  11.040   4.658   5.241
53379SOL    HW160161  11.078   4.749   5.256
53379SOL    HW260162  11.032   4.641   5.142
53380SOL     OW60163  10.169   5.098   3.740
53380SOL    HW160164  10.123   5.113   3.828
53380SOL    HW260165  10.213   5.183   3.710
53381SOL     OW60166   9.971   5.514   4.677
53381SOL    HW160167   9.925   5.602   4.664
53381SOL    HW260168  10.070   5.526   4.670
53382SOL     OW60169  10.169   4.680   4.585
53382SOL    HW160170  10.223   4.611   4.633
53382SOL    HW260171  10.137   4.749   4.651
53383SOL     OW60172  10.393   4.708   3.811
53383SOL    HW160173  10.370   4.761   3.729
53383SOL    HW260174  10.474   4.652   3.792
53384SOL     OW60175  11.171   5.293   4.575
53384SOL    HW160176  11.100   5.281   4.505
53384SOL    HW260177  11.172   5.214   4.635
53385SOL     OW60178   9.531   5.038   5.568
53385SOL    HW160179   9.466   4.965   5.547
53385SOL    HW260180   9.535   5.052   5.666
53386SOL     OW60181   9.389   4.964   4.377
53386SOL    HW160182   9.388   4.917   4.465
53386SOL    HW260183   9.471   4.936   4.326
53387SOL     OW60184   9.982   5.115   5.348
53387SOL    HW160185   9.904   5.065   5.386
53387SOL    HW260186   9.979   5.210   5.379
53388SOL     OW60187  11.134   3.916   4.951
53388SOL    HW160188  11.130   3.826   4.995
53388SOL    HW260189  11.137   3.905   4.852
53389SOL     OW60190   9.738   4.148   4.244
53389SOL    HW160191   9.768   4.076   4.182
53389SOL    HW260192   9.699   4.108   4.327
53390SOL     OW60193  11.015   5.211   4.828
53390SOL    HW160194  10.922   5.186   4.801
53390SOL    HW260195  11.041   5.161   4.910
53391SOL     OW60196   9.627   4.271   5.004
53391SOL    HW160197   9.665   4.212   5.076
53391SOL    HW260198   9.667   4.245   4.916
53392SOL     OW60199  10.122   5.310   4.411
53392SOL    HW160200  10.154   5.320   4.317
53392SOL    HW260201  10.043   5.248   4.413
53393SOL     OW60202  10.734   3.938   4.836
53393SOL    HW160203  10.786   3.873   4.891
53393SOL    HW260204  10.685   4.001   4.897
53394SOL     OW60205  10.311   3.758   4.878
53394SOL    HW160206  10.248   3.686   4.847
53394SOL    HW260207  10.404   3.722   4.878
53395SOL     OW60208  10.080   5.054   4.025
53395SOL    HW160209  10.034   4.967   4.042
53395SOL    HW260210  10.171   5.051   4.066
53396SOL     OW60211   9.928   5.291   5.008
53396SOL    HW160212   9.923   5.373   5.065
53396SOL    HW260213  10.017   5.288   4.963
53397SOL     OW60214  10.662   3.776   3.892
53397SOL    HW160215  10.697   3.735   3.808
53397SOL    HW260216  10.572   3.738   3.912
53398SOL     OW60217  10.610   4.177   4.415
53398SOL    HW160218  10.551   4.257   4.419
53398SOL    HW260219  10.625   4.142   4.508
53399SOL     OW60220  10.903   3.945   4.606
53399SOL    HW160221  10.819   3.944   4.660
53399SOL    HW260222  10.905   4.028   4.550
53400SOL     OW60223   9.349   4.801   4.024
53400SOL    HW160224   9.448   4.790   4.015
53400SOL    HW260225   9.309   4.715   4.056
53401SOL     OW60226  10.185   5.370   4.061
53401SOL    HW160227  10.108   5.335   4.007
53401SOL    HW260228  10.153   5.441   4.123
53402SOL     OW60229   9.535   3.999   6.582
53402SOL    HW160230   9.570   3.982   6.674
53402SOL    HW260231   9.447   3.954   6.570
53403SOL     OW60232   9.329   4.092   6.233
53403SOL    HW160233   9.247   4.135   6.272
53403SOL    HW260234   9.301   4.019   6.170
53404SOL     OW60235   9.879   4.999   6.751
53404SOL    HW160236   9.786   4.992   6.714
53404SOL    HW260237   9.890   5.088   6.795
53405SOL     OW60238  10.865   5.235   6.289
53405SOL    HW160239  10.808   5.219   6.370
53405SOL    HW260240  10.806   5.245   6.209
53406SOL     OW60241  10.445   4.427   6.303
53406SOL    HW160242  10.502   4.505   6.278
53406SOL    HW260243  10.385   4.453   6.379
53407SOL     OW60244  11.065   4.331   5.817
53407SOL    HW160245  11.053   4.318   5.718
53407SOL    HW260246  11.035   4.250   5.866
53408SOL     OW60247  10.078   4.868   6.609
53408SOL    HW160248  10.000   4.885   6.669
53408SOL    HW260249  10.112   4.955   6.573
53409SOL     OW60250  10.160   4.522   7.409
53409SOL    HW160251  10.156   4.598   7.474
53409SOL    HW260252  10.182   4.558   7.318
53410SOL     OW60253   9.995   4.736   6.251
53410SOL    HW160254  10.064   4.720   6.321
53410SOL    HW260255   9.922   4.793   6.289
53411SOL     OW60256   9.996   4.885   7.389
53411SOL    HW160257  10.056   4.964   7.403
53411SOL    HW260258   9.910   4.916   7.348
53412SOL     OW60259   9.645   5.159   6.647
53412SOL    HW160260   9.567   5.128   6.594
53412SOL    HW260261   9.703   5.217   6.590
53413SOL     OW60262  10.770   5.229   6.925
53413SOL    HW160263  10.794   5.323   6.951
53413SOL    HW260264  10.754   5.175   7.007
53414SOL     OW60265   9.748   4.116   7.085
53414SOL    HW160266   9.830   4.060   7.094
53414SOL    HW260267   9.667   4.058   7.089
53415SOL     OW60268  10.913   4.171   6.323
53415SOL    HW160269  10.839   4.217   6.273
53415SOL    HW260270  10.964   4.239   6.376
53416SOL     OW60271   9.541   5.437   6.069
53416SOL    HW160272   9.575   5.514   6.123
53416SOL    HW260273   9.585   5.437   5.979
53417SOL     OW60274  10.437   5.065   7.276
53417SOL    HW160275  10.484   5.065   7.364
53417SOL    HW260276  10.389   4.978   7.265
53418SOL     OW60277   9.540   5.158   6.124
53418SOL    HW160278   9.514   5.254   6.124
53418SOL    HW260279   9.469   5.104   6.169
53419SOL     OW60280   9.550   4.815   6.472
53419SOL    HW160281   9.564   4.731   6.524
53419SOL    HW260282   9.495   4.879   6.527
53420SOL     OW60283   9.930   5.510   7.025
53420SOL    HW160284   9.838   5.493   7.060
53420SOL    HW260285   9.958   5.602   7.051
53421SOL     OW60286   9.916   4.688   5.709
53421SOL    HW160287   9.923   4.772   5.655
53421SOL    HW260288   9.962   4.701   5.797
53422SOL     OW60289  10.904   3.838   7.066
53422SOL    HW160290  10.886   3.905   6.994
53422SOL    HW260291  10.901   3.884   7.155
53423SOL     OW60292   9.432   4.367   6.149
53423SOL    HW160293   9.387   4.279   6.166
53423SOL    HW260294   9.431   4.421   6.233
53424SOL     OW60295  11.152   5.491   5.945
53424SOL    HW160296  11.206   5.462   6.025
53424SOL    HW260297  11.182   5.581   5.916
53425SOL     OW60298   9.337   5.320   5.703
53425SOL    HW160299   9.318   5.224   5.724
53425SOL    HW260300   9.304   5.378   5.778
53426SOL     OW60301  10.999   4.646   6.198
53426SOL    HW160302  11.094   4.617   6.206
53426SOL    HW260303  10.991   4.711   6.123
53427SOL     OW60304  10.951   4.832   6.018
53427SOL    HW160305  11.037   4.834   5.966
53427SOL    HW260306  10.965   4.879   6.106
53428SOL     OW60307   9.423   4.461   7.183
53428SOL    HW160308   9.511   4.448   7.228
53428SOL    HW260309   9.410   4.558   7.161
53429SOL     OW60310   9.923   5.089   6.312
53429SOL    HW160311   9.874   5.002   6.321
53429SOL    HW260312   9.900   5.132   6.225
53430SOL     OW60313  10.603   4.952   7.009
53430SOL    HW160314  10.640   4.879   6.951
53430SOL    HW260315  10.655   4.957   7.094
53431SOL     OW60316  10.119   3.728   6.088
53431SOL    HW160317  10.159   3.819   6.079
53431SOL    HW260318  10.019   3.736   6.094
53432SOL     OW60319   9.507   4.700   6.850
53432SOL    HW160320   9.596   4.655   6.836
53432SOL    HW260321   9.434   4.635   6.831
53433SOL     OW60322  10.835   4.723   5.776
53433SOL    HW160323  10.772   4.647   5.789
53433SOL    HW260324  10.883   4.741   5.862
53434SOL     OW60325  10.497   5.516   7.202
53434SOL    HW160326  10.521   5.576   7.126
53434SOL    HW260327  10.504   5.421   7.172
53435SOL     OW60328   9.627   3.975   7.387
53435SOL    HW160329   9.698   4.046   7.393
53435SOL    HW260330   9.539   4.014   7.415
53436SOL     OW60331  10.776   5.141   6.539
53436SOL    HW160332  10.717   5.147   6.619
53436SOL    HW260333  10.761   5.053   6.493
53437SOL     OW60334  10.977   5.438   6.158
53437SOL    HW160335  10.936   5.415   6.070
53437SOL    HW260336  10.959   5.364   6.223
53438SOL     OW60337   9.908   4.453   5.856
53438SOL    HW160338   9.932   4.522   5.788
53438SOL    HW260339   9.830   4.486   5.910
53439SOL     OW60340  10.591   4.069   6.530
53439SOL    HW160341  10.505   4.019   6.517
53439SOL    HW260342  10.653   4.015   6.586
53440SOL     OW60343  10.886   5.386   5.893
53440SOL    HW160344  10.975   5.432   5.896
53440SOL    HW260345  10.865   5.362   5.798
53441SOL     OW60346  10.117   4.329   7.051
53441SOL    HW160347  10.070   4.326   7.140
53441SOL    HW260348  10.066   4.274   6.985
53442SOL     OW60349  10.704   4.193   7.260
53442SOL    HW160350  10.684   4.236   7.348
53442SOL    HW260351  10.782   4.131   7.269
53443SOL     OW60352  10.283   4.614   7.158
53443SOL    HW160353  10.329   4.530   7.129
53443SOL    HW260354  10.227   4.648   7.083
53444SOL     OW60355  10.301   4.134   6.828
53444SOL    HW160356  10.224   4.168   6.882
53444SOL    HW260357  10.267   4.083   6.749
53445SOL     OW60358  10.351   4.425   6.015
53445SOL    HW160359  10.377   4.421   6.111
53445SOL    HW260360  10.266   4.374   6.001
53446SOL     OW60361   9.386   4.535   6.375
53446SOL    HW160362   9.485   4.523   6.384
53446SOL    HW260363   9.362   4.630   6.396
53447SOL     OW60364   9.440   5.545   7.157
53447SOL    HW160365   9.430   5.530   7.256
53447SOL    HW260366   9.354   5.581   7.121
53448SOL     OW60367  10.175   4.072   5.781
53448SOL    HW160368  10.234   4.135   5.732
53448SOL    HW260369  10.194   3.978   5.752
53449SOL     OW60370  11.029   4.309   7.417
53449SOL    HW160371  11.003   4.398   7.381
53449SOL    HW260372  11.027   4.241   7.344
53450SOL     OW60373  10.672   4.868   6.131
53450SOL    HW160374  10.755   4.839   6.083
53450SOL    HW260375  10.623   4.935   6.075
53451SOL     OW60376   9.860   3.920   6.471
53451SOL    HW160377   9.855   3.915   6.571
53451SOL    HW260378   9.862   4.016   6.442
53452SOL     OW60379  10.318   5.180   6.063
53452SOL    HW160380  10.272   5.252   6.011
53452SOL    HW260381  10.314   5.200   6.161
53453SOL     OW60382   9.661   5.525   6.439
53453SOL    HW160383   9.711   5.439   6.445
53453SOL    HW260384   9.726   5.602   6.436
53454SOL     OW60385  11.105   4.790   6.459
53454SOL    HW160386  11.043   4.775   6.383
53454SOL    HW260387  11.053   4.801   6.544
53455SOL     OW60388  10.537   5.274   7.092
53455SOL    HW160389  10.543   5.197   7.156
53455SOL    HW260390  10.485   5.248   7.012
53456SOL     OW60391   9.631   4.667   5.828
53456SOL    HW160392   9.713   4.706   5.786
53456SOL    HW260393   9.604   4.585   5.779
53457SOL     OW60394  10.768   4.459   6.314
53457SOL    HW160395  10.763   4.394   6.389
53457SOL    HW260396  10.848   4.518   6.327
53458SOL     OW60397   9.771   4.990   7.313
53458SOL    HW160398   9.721   4.991   7.227
53458SOL    HW260399   9.708   4.972   7.389
53459SOL     OW60400  10.421   5.500   5.823
53459SOL    HW160401  10.361   5.438   5.873
53459SOL    HW260402  10.452   5.456   5.738
53460SOL     OW60403   9.512   4.009   7.084
53460SOL    HW160404   9.432   4.069   7.071
53460SOL    HW260405   9.502   3.960   7.170
53461SOL     OW60406  10.942   5.101   5.667
53461SOL    HW160407  10.910   5.195   5.657
53461SOL    HW260408  10.866   5.038   5.655
53462SOL     OW60409   9.774   5.467   5.909
53462SOL    HW160410   9.807   5.506   5.995
53462SOL    HW260411   9.850   5.460   5.844
53463SOL     OW60412  10.710   3.831   6.012
53463SOL    HW160413  10.686   3.794   5.922
53463SOL    HW260414  10.809   3.847   6.016
53464SOL     OW60415   9.559   5.509   6.827
53464SOL    HW160416   9.616   5.444   6.877
53464SOL    HW260417   9.543   5.476   6.734
53465SOL     OW60418  10.250   5.422   6.490
53465SOL    HW160419  10.330   5.365   6.511
53465SOL    HW260420  10.201   5.382   6.413
53466SOL     OW60421   9.692   4.424   6.066
53466SOL    HW160422   9.737   4.334   6.063
53466SOL    HW260423   9.598   4.413   6.099
53467SOL     OW60424  10.857   3.946   7.315
53467SOL    HW160425  10.852   3.983   7.407
53467SOL    HW260426  10.785   3.877   7.303
53468SOL     OW60427   9.924   3.846   5.703
53468SOL    HW160428  10.022   3.824   5.710
53468SOL    HW260429   9.893   3.829   5.610
53469SOL     OW60430  10.091   3.988   7.335
53469SOL    HW160431  10.158   3.927   7.378
53469SOL    HW260432  10.018   4.007   7.400
53470SOL     OW60433  10.198   5.238   6.781
53470SOL    HW160434  10.175   5.213   6.687
53470SOL    HW260435  10.259   5.169   6.820
53471SOL     OW60436  10.661   4.314   7.019
53471SOL    HW160437  10.689   4.271   7.104
53471SOL    HW260438  10.686   4.410   7.020
53472SOL     OW60439  10.113   5.126   6.510
53472SOL    HW160440  10.203   5.140   6.468
53472SOL    HW260441  10.042   5.128   6.439
53473SOL     OW60442  10.232   4.227   6.485
53473SOL    HW160443  10.207   4.218   6.389
53473SOL    HW260444  10.280   4.145   6.516
53474SOL     OW60445   9.849   3.788   6.098
53474SOL    HW160446   9.768   3.789   6.156
53474SOL    HW260447   9.852   3.871   6.043
53475SOL     OW60448  10.744   4.912   5.627
53475SOL    HW160449  10.776   4.836   5.684
53475SOL    HW260450  10.652   4.939   5.657
53476SOL     OW60451   9.607   3.759   5.757
53476SOL    HW160452   9.656   3.843   5.736
53476SOL    HW260453   9.669   3.694   5.802
53477SOL     OW60454  10.245   3.960   6.066
53477SOL    HW160455  10.197   4.001   5.988
53477SOL    HW260456  10.344   3.958   6.047
53478SOL     OW60457  10.386   4.407   7.050
53478SOL    HW160458  10.306   4.346   7.053
53478SOL    HW260459  10.467   4.354   7.026
53479SOL     OW60460  10.537   5.294   6.379
53479SOL    HW160461  10.558   5.368   6.314
53479SOL    HW260462  10.605   5.294   6.452
53480SOL     OW60463   9.769   4.876   6.327
53480SOL    HW160464   9.698   4.849   6.392
53480SOL    HW260465   9.743   4.848   6.234
53481SOL     OW60466  10.581   5.521   6.177
53481SOL    HW160467  10.625   5.585   6.113
53481SOL    HW260468  10.531   5.573   6.247
53482SOL     OW60469  10.342   4.273   5.602
53482SOL    HW160470  10.301   4.355   5.563
53482SOL    HW260471  10.406   4.299   5.675
53483SOL     OW60472   9.388   4.280   6.972
53483SOL    HW160473   9.480   4.279   6.931
53483SOL    HW260474   9.382   4.354   7.039
53484SOL     OW60475   9.871   3.946   6.733
53484SOL    HW160476   9.909   3.862   6.770
53484SOL    HW260477   9.783   3.965   6.777
53485SOL     OW60478  10.176   4.178   6.228
53485SOL    HW160479  10.144   4.250   6.166
53485SOL    HW260480  10.200   4.097   6.175
53486SOL     OW60481  10.327   3.763   6.339
53486SOL    HW160482  10.255   3.768   6.270
53486SOL    HW260483  10.303   3.694   6.408
53487SOL     OW60484  10.739   4.897   6.453
53487SOL    HW160485  10.684   4.813   6.446
53487SOL    HW260486  10.765   4.926   6.361
53488SOL     OW60487  10.776   4.314   6.578
53488SOL    HW160488  10.746   4.219   6.585
53488SOL    HW260489  10.849   4.330   6.644
53489SOL     OW60490  11.167   4.557   5.963
53489SOL    HW160491  11.209   4.493   6.027
53489SOL    HW260492  11.129   4.506   5.885
53490SOL     OW60493   9.798   5.109   5.760
53490SOL    HW160494   9.711   5.094   5.807
53490SOL    HW260495   9.781   5.135   5.665
53491SOL     OW60496  10.974   5.004   6.243
53491SOL    HW160497  11.073   5.012   6.257
53491SOL    HW260498  10.929   5.088   6.274
53492SOL     OW60499  10.700   4.299   5.664
53492SOL    HW160500  10.646   4.278   5.745
53492SOL    HW260501  10.791   4.258   5.673
53493SOL     OW60502   9.837   3.980   5.914
53493SOL    HW160503   9.864   3.921   5.839
53493SOL    HW260504   9.837   4.075   5.883
53494SOL     OW60505  11.064   4.947   7.174
53494SOL    HW160506  11.155   4.908   7.161
53494SOL    HW260507  11.072   5.043   7.198
53495SOL     OW60508  10.374   5.071   6.926
53495SOL    HW160509  10.294   5.048   6.981
53495SOL    HW260510  10.457   5.045   6.975
53496SOL     OW60511  10.902   5.353   7.211
53496SOL    HW160512  10.929   5.387   7.121
53496SOL    HW260513  10.981   5.315   7.257
53497SOL     OW60514  10.421   4.919   6.686
53497SOL    HW160515  10.381   4.963   6.767
53497SOL    HW260516  10.380   4.956   6.603
53498SOL     OW60517  10.948   4.823   6.665
53498SOL    HW160518  10.953   4.904   6.724
53498SOL    HW260519  10.862   4.825   6.614
53499SOL     OW60520  10.225   3.813   6.988
53499SOL    HW160521  10.250   3.793   6.893
53499SOL    HW260522  10.297   3.869   7.030
53500SOL     OW60523  10.290   4.840   7.305
53500SOL    HW160524  10.191   4.846   7.315
53500SOL    HW260525  10.313   4.760   7.249
53501SOL     OW60526  10.015   4.774   5.954
53501SOL    HW160527  10.001   4.781   6.053
53501SOL    HW260528  10.099   4.723   5.936
53502SOL     OW60529   9.720   4.537   6.837
53502SOL    HW160530   9.806   4.549   6.887
53502SOL    HW260531   9.678   4.450   6.864
53503SOL     OW60532  10.584   4.110   6.848
53503SOL    HW160533  10.605   4.184   6.912
53503SOL    HW260534  10.495   4.127   6.805
53504SOL     OW60535   9.374   5.288   6.917
53504SOL    HW160536   9.328   5.370   6.883
53504SOL    HW260537   9.472   5.307   6.926
53505SOL     OW60538   9.677   4.824   6.087
53505SOL    HW160539   9.670   4.907   6.031
53505SOL    HW260540   9.681   4.744   6.027
53506SOL     OW60541   9.876   4.261   6.451
53506SOL    HW160542   9.888   4.327   6.377
53506SOL    HW260543   9.922   4.295   6.534
53507SOL     OW60544  10.562   5.072   5.974
53507SOL    HW160545  10.612   5.149   6.014
53507SOL    HW260546  10.467   5.074   6.006
53508SOL     OW60547  10.582   5.169   6.728
53508SOL    HW160548  10.629   5.182   6.815
53508SOL    HW260549  10.516   5.095   6.737
53509SOL     OW60550  10.892   4.363   6.058
53509SOL    HW160551  10.861   4.424   6.131
53509SOL    HW260552  10.942   4.415   5.989
53510SOL     OW60553   9.664   5.234   6.915
53510SOL    HW160554   9.643   5.190   6.828
53510SOL    HW260555   9.761   5.260   6.918
53511SOL     OW60556   9.712   4.475   7.184
53511SOL    HW160557   9.780   4.530   7.137
53511SOL    HW260558   9.752   4.387   7.211
53512SOL     OW60559  10.897   4.503   7.256
53512SOL    HW160560  10.805   4.541   7.251
53512SOL    HW260561  10.957   4.550   7.191
53513SOL     OW60562  10.323   3.829   7.356
53513SOL    HW160563  10.329   3.914   7.304
53513SOL    HW260564  10.355   3.753   7.299
53514SOL     OW60565   9.814   3.774   7.326
53514SOL    HW160566   9.772   3.717   7.256
53514SOL    HW260567   9.748   3.843   7.358
53515SOL     OW60568   9.883   4.594   6.615
53515SOL    HW160569   9.927   4.683   6.606
53515SOL    HW260570   9.820   4.594   6.692
53516SOL     OW60571  10.670   4.586   6.631
53516SOL    HW160572  10.595   4.586   6.565
53516SOL    HW260573  10.707   4.494   6.640
53517SOL     OW60574  10.519   4.249   5.861
53517SOL    HW160575  10.532   4.165   5.915
53517SOL    HW260576  10.490   4.323   5.921
53518SOL     OW60577   9.617   3.937   6.817
53518SOL    HW160578   9.594   3.974   6.907
53518SOL    HW260579   9.587   3.842   6.811
53519SOL     OW60580   9.347   5.034   6.868
53519SOL    HW160581   9.400   4.985   6.936
53519SOL    HW260582   9.369   5.132   6.873
53520SOL     OW60583  10.042   4.358   6.650
53520SOL    HW160584  10.101   4.332   6.574
53520SOL    HW260585  10.014   4.454   6.639
53521SOL     OW60586  11.038   4.659   7.440
53521SOL    HW160587  10.992   4.652   7.351
53521SOL    HW260588  10.976   4.703   7.506
53522SOL     OW60589   9.617   3.787   6.204
53522SOL    HW160590   9.606   3.881   6.237
53522SOL    HW260591   9.612   3.724   6.281
53523SOL     OW60592  10.932   4.091   5.960
53523SOL    HW160593  10.934   4.015   6.024
53523SOL    HW260594  10.884   4.168   6.000
53524SOL     OW60595  10.333   4.490   6.552
53524SOL    HW160596  10.348   4.511   6.648
53524SOL    HW260597  10.303   4.395   6.543
53525SOL     OW60598  10.290   5.297   7.286
53525SOL    HW160599  10.270   5.341   7.198
53525SOL    HW260600  10.329   5.206   7.270
53526SOL     OW60601  11.169   5.242   7.191
53526SOL    HW160602  11.183   5.269   7.096
53526SOL    HW260603  11.252   5.264   7.244
53527SOL     OW60604   9.660   4.622   7.390
53527SOL    HW160605   9.736   4.666   7.438
53527SOL    HW260606   9.695   4.575   7.308
53528SOL     OW60607  10.850   3.998   5.711
53528SOL    HW160608  10.789   3.923   5.734
53528SOL    HW260609  10.872   4.050   5.794
53529SOL     OW60610  10.613   4.562   5.628
53529SOL    HW160611  10.647   4.469   5.643
53529SOL    HW260612  10.631   4.589   5.533
53530SOL     OW60613  10.378   5.057   6.435
53530SOL    HW160614  10.385   4.973   6.380
53530SOL    HW260615  10.440   5.126   6.399
53531SOL     OW60616   9.629   4.534   6.535
53531SOL    HW160617   9.722   4.570   6.540
53531SOL    HW260618   9.623   4.449   6.587
53532SOL     OW60619   9.649   4.233   6.592
53532SOL    HW160620   9.597   4.150   6.575
53532SOL    HW260621   9.726   4.238   6.528
53533SOL     OW60622  10.448   4.104   7.264
53533SOL    HW160623  10.403   4.167   7.328
53533SOL    HW260624  10.541   4.135   7.247
53534SOL     OW60625  10.470   3.931   7.063
53534SOL    HW160626  10.470   3.995   7.140
53534SOL    HW260627  10.498   3.979   6.980
53535SOL     OW60628   9.318   5.050   5.786
53535SOL    HW160629   9.225   5.071   5.755
53535SOL    HW260630   9.328   4.951   5.799
53536SOL     OW60631   9.398   5.525   6.513
53536SOL    HW160632   9.356   5.439   6.486
53536SOL    HW260633   9.492   5.528   6.479
53537SOL     OW60634   9.814   5.292   6.496
53537SOL    HW160635   9.880   5.366   6.505
53537SOL    HW260636   9.858   5.213   6.454
53538SOL     OW60637  10.312   4.520   6.824
53538SOL    HW160638  10.353   4.488   6.910
53538SOL    HW260639  10.216   4.493   6.821
53539SOL     OW60640   9.350   4.268   6.700
53539SOL    HW160641   9.435   4.235   6.659
53539SOL    HW260642   9.363   4.283   6.798
53540SOL     OW60643   9.499   4.244   7.308
53540SOL    HW160644   9.558   4.204   7.238
53540SOL    HW260645   9.441   4.315   7.267
53541SOL     OW60646  10.679   4.674   7.246
53541SOL    HW160647  10.718   4.763   7.266
53541SOL    HW260648  10.689   4.654   7.149
53542SOL     OW60649  10.125   4.296   5.911
53542SOL    HW160650  10.132   4.207   5.865
53542SOL    HW260651  10.031   4.330   5.903
53543SOL     OW60652  10.967   4.328   6.792
53543SOL    HW160653  10.929   4.259   6.854
53543SOL    HW260654  11.049   4.292   6.748
53544SOL     OW60655   9.562   5.288   7.330
53544SOL    HW160656   9.532   5.345   7.406
53544SOL    HW260657   9.555   5.191   7.356
53545SOL     OW60658   9.981   4.188   6.855
53545SOL    HW160659   9.947   4.099   6.825
53545SOL    HW260660  10.007   4.242   6.775
53546SOL     OW60661  10.240   5.402   7.051
53546SOL    HW160662  10.216   5.384   6.956
53546SOL    HW260663  10.270   5.496   7.061
53547SOL     OW60664   9.783   4.224   5.777
53547SOL    HW160665   9.844   4.304   5.781
53547SOL    HW260666   9.688   4.255   5.784
53548SOL     OW60667   9.469   4.861   7.052
53548SOL    HW160668   9.491   4.800   7.128
53548SOL    HW260669   9.479   4.812   6.966
53549SOL     OW60670  10.657   4.783   6.820
53549SOL    HW160671  10.681   4.720   6.746
53549SOL    HW260672  10.567   4.823   6.802
53550SOL     OW60673  10.612   4.579   5.895
53550SOL    HW160674  10.526   4.548   5.937
53550SOL    HW260675  10.608   4.565   5.796
53551SOL     OW60676  11.069   5.471   6.740
53551SOL    HW160677  11.130   5.501   6.667
53551SOL    HW260678  11.031   5.382   6.718
53552SOL     OW60679  10.562   5.455   6.714
53552SOL    HW160680  10.646   5.460   6.660
53552SOL    HW260681  10.539   5.359   6.732
53553SOL     OW60682   9.393   4.982   6.608
53553SOL    HW160683   9.388   4.981   6.708
53553SOL    HW260684   9.310   4.941   6.570
53554SOL     OW60685   9.998   5.386   7.302
53554SOL    HW160686   9.942   5.467   7.311
53554SOL    HW260687  10.050   5.390   7.216
53555SOL     OW60688  11.036   3.859   6.109
53555SOL    HW160689  11.109   3.842   6.042
53555SOL    HW260690  11.005   3.772   6.147
53556SOL     OW60691  10.698   5.297   6.063
53556SOL    HW160692  10.765   5.309   5.989
53556SOL    HW260693  10.658   5.386   6.086
53557SOL     OW60694   9.440   5.518   7.437
53557SOL    HW160695   9.399   5.444   7.490
53557SOL    HW260696   9.504   5.569   7.495
53558SOL     OW60697  10.590   4.651   6.258
53558SOL    HW160698  10.650   4.570   6.260
53558SOL    HW260699  10.630   4.720   6.198
53559SOL     OW60700  10.140   4.997   7.008
53559SOL    HW160701  10.135   5.030   7.103
53559SOL    HW260702  10.054   5.016   6.962
53560SOL     OW60703   9.982   5.340   5.740
53560SOL    HW160704   9.991   5.350   5.641
53560SOL    HW260705   9.942   5.251   5.761
53561SOL     OW60706  10.960   5.444   6.980
53561SOL    HW160707  11.013   5.454   6.896
53561SOL    HW260708  10.933   5.534   7.014
53562SOL     OW60709  11.151   3.899   6.549
53562SOL    HW160710  11.190   3.814   6.513
53562SOL    HW260711  11.053   3.901   6.530
53563SOL     OW60712   9.573   4.050   6.306
53563SOL    HW160713   9.494   4.101   6.272
53563SOL    HW260714   9.564   4.035   6.404
53564SOL     OW60715  10.504   5.336   5.617
53564SOL    HW160716  10.510   5.243   5.654
53564SOL    HW260717  10.445   5.336   5.537
53565SOL     OW60718  10.132   4.726   6.958
53565SOL    HW160719  10.172   4.725   6.866
53565SOL    HW260720  10.142   4.818   6.998
53566SOL     OW60721  10.226   4.634   5.877
53566SOL    HW160722  10.289   4.672   5.809
53566SOL    HW260723  10.266   4.551   5.916
53567SOL     OW60724  10.814   5.331   5.630
53567SOL    HW160725  10.722   5.368   5.637
53567SOL    HW260726  10.852   5.351   5.540
53568SOL     OW60727   9.682   5.012   7.076
53568SOL    HW160728   9.669   5.105   7.042
53568SOL    HW260729   9.598   4.960   7.063
53569SOL     OW60730  10.924   5.016   6.875
53569SOL    HW160731  10.984   5.019   6.955
53569SOL    HW260732  10.849   5.080   6.888
53570SOL     OW60733  10.349   4.822   6.282
53570SOL    HW160734  10.279   4.775   6.336
53570SOL    HW260735  10.408   4.754   6.239
53571SOL     OW60736  10.324   3.960   6.557
53571SOL    HW160737  10.316   3.924   6.464
53571SOL    HW260738  10.322   3.884   6.622
53572SOL     OW60739   9.900   5.211   6.077
53572SOL    HW160740   9.942   5.153   6.007
53572SOL    HW260741   9.856   5.290   6.033
53573SOL     OW60742  11.019   4.109   6.967
53573SOL    HW160743  11.092   4.178   6.971
53573SOL    HW260744  11.047   4.034   6.908
53574SOL     OW60745   9.565   5.072   5.876
53574SOL    HW160746   9.469   5.073   5.849
53574SOL    HW260747   9.577   5.125   5.960
53575SOL     OW60748   9.415   4.737   7.312
53575SOL    HW160749   9.338   4.704   7.366
53575SOL    HW260750   9.500   4.707   7.354
53576SOL     OW60751   9.982   3.927   7.075
53576SOL    HW160752  10.072   3.911   7.035
53576SOL    HW260753   9.990   3.932   7.174
53577SOL     OW60754   9.385   4.069   5.619
53577SOL    HW160755   9.293   4.041   5.590
53577SOL    HW260756   9.416   4.146   5.563
53578SOL     OW60757  10.750   4.580   6.984
53578SOL    HW160758  10.693   4.632   6.921
53578SOL    HW260759  10.846   4.592   6.960
53579SOL     OW60760   9.382   3.890   5.904
53579SOL    HW160761   9.365   3.973   5.850
53579SOL    HW260762   9.472   3.853   5.882
53580SOL     OW60763  10.493   5.059   5.705
53580SOL    HW160764  10.394   5.048   5.707
53580SOL    HW260765  10.527   5.074   5.798
53581SOL     OW60766   9.923   4.566   7.017
53581SOL    HW160767   9.979   4.647   7.000
53581SOL    HW260768   9.982   4.486   7.020
53582SOL     OW60769  10.803   5.491   6.545
53582SOL    HW160770  10.836   5.555   6.476
53582SOL    HW260771  10.869   5.485   6.620
53583SOL     OW60772  10.026   4.289   7.294
53583SOL    HW160773  10.045   4.354   7.368
53583SOL    HW260774  10.086   4.209   7.303
53584SOL     OW60775  10.760   4.944   7.219
53584SOL    HW160776  10.751   4.934   7.318
53584SOL    HW260777  10.856   4.937   7.193
53585SOL     OW60778   9.700   5.465   7.146
53585SOL    HW160779   9.609   5.506   7.144
53585SOL    HW260780   9.693   5.371   7.178
53586SOL     OW60781  10.984   4.607   6.840
53586SOL    HW160782  10.957   4.518   6.803
53586SOL    HW260783  10.985   4.675   6.767
53587SOL     OW60784  10.535   4.049   6.035
53587SOL    HW160785  10.600   3.975   6.024
53587SOL    HW260786  10.555   4.099   6.119
53588SOL     OW60787   9.904   4.469   6.238
53588SOL    HW160788   9.954   4.554   6.219
53588SOL    HW260789   9.816   4.471   6.190
53589SOL     OW60790  11.087   4.066   7.228
53589SOL    HW160791  11.070   4.097   7.134
53589SOL    HW260792  11.003   4.029   7.266
53590SOL     OW60793  11.040   4.658   7.103
53590SOL    HW160794  11.078   4.749   7.118
53590SOL    HW260795  11.032   4.641   7.004
53591SOL     OW60796  10.169   5.098   5.602
53591SOL    HW160797  10.123   5.113   5.690
53591SOL    HW260798  10.213   5.183   5.572
53592SOL     OW60799   9.971   5.514   6.539
53592SOL    HW160800   9.925   5.602   6.526
53592SOL    HW260801  10.070   5.526   6.532
53593SOL     OW60802  10.169   4.680   6.447
53593SOL    HW160803  10.223   4.611   6.495
53593SOL    HW260804  10.137   4.749   6.513
53594SOL     OW60805  10.393   4.708   5.673
53594SOL    HW160806  10.370   4.761   5.591
53594SOL    HW260807  10.474   4.652   5.654
53595SOL     OW60808  11.171   5.293   6.437
53595SOL    HW160809  11.100   5.281   6.367
53595SOL    HW260810  11.172   5.214   6.497
53596SOL     OW60811   9.531   5.038   7.430
53596SOL    HW160812   9.466   4.965   7.409
53596SOL    HW260813   9.535   5.052   7.528
53597SOL     OW60814   9.389   4.964   6.239
53597SOL    HW160815   9.388   4.917   6.327
53597SOL    HW260816   9.471   4.936   6.188
53598SOL     OW60817   9.982   5.115   7.210
53598SOL    HW160818   9.904   5.065   7.248
53598SOL    HW260819   9.979   5.210   7.241
53599SOL     OW60820  11.134   3.916   6.813
53599SOL    HW160821  11.130   3.826   6.857
53599SOL    HW260822  11.137   3.905   6.714
53600SOL     OW60823   9.738   4.148   6.106
53600SOL    HW160824   9.768   4.076   6.044
53600SOL    HW260825   9.699   4.108   6.189
53601SOL     OW60826  11.015   5.211   6.690
53601SOL    HW160827  10.922   5.186   6.663
53601SOL    HW260828  11.041   5.161   6.772
53602SOL     OW60829   9.627   4.271   6.866
53602SOL    HW160830   9.665   4.212   6.938
53602SOL    HW260831   9.667   4.245   6.778
53603SOL     OW60832  10.122   5.310   6.273
53603SOL    HW160833  10.154   5.320   6.179
53603SOL    HW260834  10.043   5.248   6.275
53604SOL     OW60835  10.734   3.938   6.698
53604SOL    HW160836  10.786   3.873   6.753
53604SOL    HW260837  10.685   4.001   6.759
53605SOL     OW60838  10.311   3.758   6.740
53605SOL    HW160839  10.248   3.686   6.709
53605SOL    HW260840  10.404   3.722   6.740
53606SOL     OW60841  10.080   5.054   5.887
53606SOL    HW160842  10.034   4.967   5.904
53606SOL    HW260843  10.171   5.051   5.928
53607SOL     OW60844   9.928   5.291   6.870
53607SOL    HW160845   9.923   5.373   6.927
53607SOL    HW260846  10.017   5.288   6.825
53608SOL     OW60847  10.662   3.776   5.754
53608SOL    HW160848  10.697   3.735   5.670
53608SOL    HW260849  10.572   3.738   5.774
53609SOL     OW60850  10.610   4.177   6.277
53609SOL    HW160851  10.551   4.257   6.281
53609SOL    HW260852  10.625   4.142   6.370
53610SOL     OW60853  10.903   3.945   6.468
53610SOL    HW160854  10.819   3.944   6.522
53610SOL    HW260855  10.905   4.028   6.412
53611SOL     OW60856   9.349   4.801   5.886
53611SOL    HW160857   9.448   4.790   5.877
53611SOL    HW260858   9.309   4.715   5.918
53612SOL     OW60859  10.185   5.370   5.923
53612SOL    HW160860  10.108   5.335   5.869
53612SOL    HW260861  10.153   5.441   5.985
53613SOL     OW60862   9.540   4.352   7.561
53613SOL    HW160863   9.447   4.350   7.598
53613SOL    HW260864   9.541   4.313   7.469
53614SOL     OW60865   9.535   3.999   8.444
53614SOL    HW160866   9.570   3.982   8.536
53614SOL    HW260867   9.447   3.954   8.432
53615SOL     OW60868   9.329   4.092   8.095
53615SOL    HW160869   9.247   4.135   8.134
53615SOL    HW260870   9.301   4.019   8.032
53616SOL     OW60871   9.879   4.999   8.613
53616SOL    HW160872   9.786   4.992   8.576
53616SOL    HW260873   9.890   5.088   8.657
53617SOL     OW60874  10.865   5.235   8.151
53617SOL    HW160875  10.808   5.219   8.232
53617SOL    HW260876  10.806   5.245   8.071
53618SOL     OW60877  10.445   4.427   8.165
53618SOL    HW160878  10.502   4.505   8.140
53618SOL    HW260879  10.385   4.453   8.241
53619SOL     OW60880  11.065   4.331   7.679
53619SOL    HW160881  11.053   4.318   7.580
53619SOL    HW260882  11.035   4.250   7.728
53620SOL     OW60883  10.078   4.868   8.471
53620SOL    HW160884  10.000   4.885   8.531
53620SOL    HW260885  10.112   4.955   8.435
53621SOL     OW60886  10.160   4.522   9.271
53621SOL    HW160887  10.156   4.598   9.336
53621SOL    HW260888  10.182   4.558   9.180
53622SOL     OW60889   9.995   4.736   8.113
53622SOL    HW160890  10.064   4.720   8.183
53622SOL    HW260891   9.922   4.793   8.151
53623SOL     OW60892   9.996   4.885   9.251
53623SOL    HW160893  10.056   4.964   9.265
53623SOL    HW260894   9.910   4.916   9.210
53624SOL     OW60895   9.645   5.159   8.509
53624SOL    HW160896   9.567   5.128   8.456
53624SOL    HW260897   9.703   5.217   8.452
53625SOL     OW60898  10.770   5.229   8.787
53625SOL    HW160899  10.794   5.323   8.813
53625SOL    HW260900  10.754   5.175   8.869
53626SOL     OW60901   9.748   4.116   8.947
53626SOL    HW160902   9.830   4.060   8.956
53626SOL    HW260903   9.667   4.058   8.951
53627SOL     OW60904  10.913   4.171   8.185
53627SOL    HW160905  10.839   4.217   8.135
53627SOL    HW260906  10.964   4.239   8.238
53628SOL     OW60907   9.541   5.437   7.931
53628SOL    HW160908   9.575   5.514   7.985
53628SOL    HW260909   9.585   5.437   7.841
53629SOL     OW60910  10.437   5.065   9.138
53629SOL    HW160911  10.484   5.065   9.226
53629SOL    HW260912  10.389   4.978   9.127
53630SOL     OW60913   9.540   5.158   7.986
53630SOL    HW160914   9.514   5.254   7.986
53630SOL    HW260915   9.469   5.104   8.031
53631SOL     OW60916   9.550   4.815   8.334
53631SOL    HW160917   9.564   4.731   8.386
53631SOL    HW260918   9.495   4.879   8.389
53632SOL     OW60919   9.930   5.510   8.887
53632SOL    HW160920   9.838   5.493   8.922
53632SOL    HW260921   9.958   5.602   8.913
53633SOL     OW60922   9.916   4.688   7.571
53633SOL    HW160923   9.923   4.772   7.517
53633SOL    HW260924   9.962   4.701   7.659
53634SOL     OW60925  10.904   3.838   8.928
53634SOL    HW160926  10.886   3.905   8.856
53634SOL    HW260927  10.901   3.884   9.017
53635SOL     OW60928   9.432   4.367   8.011
53635SOL    HW160929   9.387   4.279   8.028
53635SOL    HW260930   9.431   4.421   8.095
53636SOL     OW60931  11.152   5.491   7.807
53636SOL    HW160932  11.206   5.462   7.887
53636SOL    HW260933  11.182   5.581   7.778
53637SOL     OW60934   9.337   5.320   7.565
53637SOL    HW160935   9.318   5.224   7.586
53637SOL    HW260936   9.304   5.378   7.640
53638SOL     OW60937  10.999   4.646   8.060
53638SOL    HW160938  11.094   4.617   8.068
53638SOL    HW260939  10.991   4.711   7.985
53639SOL     OW60940  10.951   4.832   7.880
53639SOL    HW160941  11.037   4.834   7.828
53639SOL    HW260942  10.965   4.879   7.968
53640SOL     OW60943   9.423   4.461   9.045
53640SOL    HW160944   9.511   4.448   9.090
53640SOL    HW260945   9.410   4.558   9.023
53641SOL     OW60946   9.923   5.089   8.174
53641SOL    HW160947   9.874   5.002   8.183
53641SOL    HW260948   9.900   5.132   8.087
53642SOL     OW60949  10.603   4.952   8.871
53642SOL    HW160950  10.640   4.879   8.813
53642SOL    HW260951  10.655   4.957   8.956
53643SOL     OW60952  10.119   3.728   7.950
53643SOL    HW160953  10.159   3.819   7.941
53643SOL    HW260954  10.019   3.736   7.956
53644SOL     OW60955   9.507   4.700   8.712
53644SOL    HW160956   9.596   4.655   8.698
53644SOL    HW260957   9.434   4.635   8.693
53645SOL     OW60958  10.835   4.723   7.638
53645SOL    HW160959  10.772   4.647   7.651
53645SOL    HW260960  10.883   4.741   7.724
53646SOL     OW60961  10.497   5.516   9.064
53646SOL    HW160962  10.521   5.576   8.988
53646SOL    HW260963  10.504   5.421   9.034
53647SOL     OW60964   9.627   3.975   9.249
53647SOL    HW160965   9.698   4.046   9.255
53647SOL    HW260966   9.539   4.014   9.277
53648SOL     OW60967  10.776   5.141   8.401
53648SOL    HW160968  10.717   5.147   8.481
53648SOL    HW260969  10.761   5.053   8.355
53649SOL     OW60970  10.977   5.438   8.020
53649SOL    HW160971  10.936   5.415   7.932
53649SOL    HW260972  10.959   5.364   8.085
53650SOL     OW60973  10.591   4.069   8.392
53650SOL    HW160974  10.505   4.019   8.379
53650SOL    HW260975  10.653   4.015   8.448
53651SOL     OW60976  10.886   5.386   7.755
53651SOL    HW160977  10.975   5.432   7.758
53651SOL    HW260978  10.865   5.362   7.660
53652SOL     OW60979  10.117   4.329   8.913
53652SOL    HW160980  10.070   4.326   9.002
53652SOL    HW260981  10.066   4.274   8.847
53653SOL     OW60982  10.704   4.193   9.122
53653SOL    HW160983  10.684   4.236   9.210
53653SOL    HW260984  10.782   4.131   9.131
53654SOL     OW60985  10.283   4.614   9.020
53654SOL    HW160986  10.329   4.530   8.991
53654SOL    HW260987  10.227   4.648   8.945
53655SOL     OW60988  10.301   4.134   8.690
53655SOL    HW160989  10.224   4.168   8.744
53655SOL    HW260990  10.267   4.083   8.611
53656SOL     OW60991  10.351   4.425   7.877
53656SOL    HW160992  10.377   4.421   7.973
53656SOL    HW260993  10.266   4.374   7.863
53657SOL     OW60994   9.386   4.535   8.237
53657SOL    HW160995   9.485   4.523   8.246
53657SOL    HW260996   9.362   4.630   8.258
53658SOL     OW60997   9.440   5.545   9.019
53658SOL    HW160998   9.430   5.530   9.118
53658SOL    HW260999   9.354   5.581   8.983
53659SOL     OW61000  10.175   4.072   7.643
53659SOL    HW161001  10.234   4.135   7.594
53659SOL    HW261002  10.194   3.978   7.614
53660SOL     OW61003  11.029   4.309   9.279
53660SOL    HW161004  11.003   4.398   9.243
53660SOL    HW261005  11.027   4.241   9.206
53661SOL     OW61006  10.672   4.868   7.993
53661SOL    HW161007  10.755   4.839   7.945
53661SOL    HW261008  10.623   4.935   7.937
53662SOL     OW61009   9.860   3.920   8.333
53662SOL    HW161010   9.855   3.915   8.433
53662SOL    HW261011   9.862   4.016   8.304
53663SOL     OW61012  10.318   5.180   7.925
53663SOL    HW161013  10.272   5.252   7.873
53663SOL    HW261014  10.314   5.200   8.023
53664SOL     OW61015   9.661   5.525   8.301
53664SOL    HW161016   9.711   5.439   8.307
53664SOL    HW261017   9.726   5.602   8.298
53665SOL     OW61018  11.105   4.790   8.321
53665SOL    HW161019  11.043   4.775   8.245
53665SOL    HW261020  11.053   4.801   8.406
53666SOL     OW61021  10.537   5.274   8.954
53666SOL    HW161022  10.543   5.197   9.018
53666SOL    HW261023  10.485   5.248   8.874
53667SOL     OW61024   9.631   4.667   7.690
53667SOL    HW161025   9.713   4.706   7.648
53667SOL    HW261026   9.604   4.585   7.641
53668SOL     OW61027  10.768   4.459   8.176
53668SOL    HW161028  10.763   4.394   8.251
53668SOL    HW261029  10.848   4.518   8.189
53669SOL     OW61030   9.771   4.990   9.175
53669SOL    HW161031   9.721   4.991   9.089
53669SOL    HW261032   9.708   4.972   9.251
53670SOL     OW61033  10.421   5.500   7.685
53670SOL    HW161034  10.361   5.438   7.735
53670SOL    HW261035  10.452   5.456   7.600
53671SOL     OW61036   9.512   4.009   8.946
53671SOL    HW161037   9.432   4.069   8.933
53671SOL    HW261038   9.502   3.960   9.032
53672SOL     OW61039  10.942   5.101   7.529
53672SOL    HW161040  10.910   5.195   7.519
53672SOL    HW261041  10.866   5.038   7.517
53673SOL     OW61042   9.774   5.467   7.771
53673SOL    HW161043   9.807   5.506   7.857
53673SOL    HW261044   9.850   5.460   7.706
53674SOL     OW61045  10.710   3.831   7.874
53674SOL    HW161046  10.686   3.794   7.784
53674SOL    HW261047  10.809   3.847   7.878
53675SOL     OW61048   9.559   5.509   8.689
53675SOL    HW161049   9.616   5.444   8.739
53675SOL    HW261050   9.543   5.476   8.596
53676SOL     OW61051  10.250   5.422   8.352
53676SOL    HW161052  10.330   5.365   8.373
53676SOL    HW261053  10.201   5.382   8.275
53677SOL     OW61054   9.692   4.424   7.928
53677SOL    HW161055   9.737   4.334   7.925
53677SOL    HW261056   9.598   4.413   7.961
53678SOL     OW61057  10.857   3.946   9.177
53678SOL    HW161058  10.852   3.983   9.269
53678SOL    HW261059  10.785   3.877   9.165
53679SOL     OW61060   9.924   3.846   7.565
53679SOL    HW161061  10.022   3.824   7.572
53679SOL    HW261062   9.893   3.829   7.472
53680SOL     OW61063  10.091   3.988   9.197
53680SOL    HW161064  10.158   3.927   9.240
53680SOL    HW261065  10.018   4.007   9.262
53681SOL     OW61066  10.198   5.238   8.643
53681SOL    HW161067  10.175   5.213   8.549
53681SOL    HW261068  10.259   5.169   8.682
53682SOL     OW61069  10.661   4.314   8.881
53682SOL    HW161070  10.689   4.271   8.966
53682SOL    HW261071  10.686   4.410   8.882
53683SOL     OW61072  10.113   5.126   8.372
53683SOL    HW161073  10.203   5.140   8.330
53683SOL    HW261074  10.042   5.128   8.301
53684SOL     OW61075  10.232   4.227   8.347
53684SOL    HW161076  10.207   4.218   8.251
53684SOL    HW261077  10.280   4.145   8.378
53685SOL     OW61078   9.849   3.788   7.960
53685SOL    HW161079   9.768   3.789   8.018
53685SOL    HW261080   9.852   3.871   7.905
53686SOL     OW61081  10.744   4.912   7.489
53686SOL    HW161082  10.776   4.836   7.546
53686SOL    HW261083  10.652   4.939   7.519
53687SOL     OW61084   9.607   3.759   7.619
53687SOL    HW161085   9.656   3.843   7.598
53687SOL    HW261086   9.669   3.694   7.664
53688SOL     OW61087  10.245   3.960   7.928
53688SOL    HW161088  10.197   4.001   7.850
53688SOL    HW261089  10.344   3.958   7.909
53689SOL     OW61090  10.386   4.407   8.912
53689SOL    HW161091  10.306   4.346   8.915
53689SOL    HW261092  10.467   4.354   8.888
53690SOL     OW61093  10.537   5.294   8.241
53690SOL    HW161094  10.558   5.368   8.176
53690SOL    HW261095  10.605   5.294   8.314
53691SOL     OW61096   9.769   4.876   8.189
53691SOL    HW161097   9.698   4.849   8.254
53691SOL    HW261098   9.743   4.848   8.096
53692SOL     OW61099  10.581   5.521   8.039
53692SOL    HW161100  10.625   5.585   7.975
53692SOL    HW261101  10.531   5.573   8.109
53693SOL     OW61102  10.342   4.273   7.464
53693SOL    HW161103  10.301   4.355   7.425
53693SOL    HW261104  10.406   4.299   7.537
53694SOL     OW61105   9.388   4.280   8.834
53694SOL    HW161106   9.480   4.279   8.793
53694SOL    HW261107   9.382   4.354   8.901
53695SOL     OW61108   9.871   3.946   8.595
53695SOL    HW161109   9.909   3.862   8.632
53695SOL    HW261110   9.783   3.965   8.639
53696SOL     OW61111  10.176   4.178   8.090
53696SOL    HW161112  10.144   4.250   8.028
53696SOL    HW261113  10.200   4.097   8.037
53697SOL     OW61114  10.327   3.763   8.201
53697SOL    HW161115  10.255   3.768   8.132
53697SOL    HW261116  10.303   3.694   8.270
53698SOL     OW61117  10.739   4.897   8.315
53698SOL    HW161118  10.684   4.813   8.308
53698SOL    HW261119  10.765   4.926   8.223
53699SOL     OW61120  10.776   4.314   8.440
53699SOL    HW161121  10.746   4.219   8.447
53699SOL    HW261122  10.849   4.330   8.506
53700SOL     OW61123  11.167   4.557   7.825
53700SOL    HW161124  11.209   4.493   7.889
53700SOL    HW261125  11.129   4.506   7.747
53701SOL     OW61126   9.798   5.109   7.622
53701SOL    HW161127   9.711   5.094   7.669
53701SOL    HW261128   9.781   5.135   7.527
53702SOL     OW61129  10.974   5.004   8.105
53702SOL    HW161130  11.073   5.012   8.119
53702SOL    HW261131  10.929   5.088   8.136
53703SOL     OW61132  10.700   4.299   7.526
53703SOL    HW161133  10.646   4.278   7.607
53703SOL    HW261134  10.791   4.258   7.535
53704SOL     OW61135   9.837   3.980   7.776
53704SOL    HW161136   9.864   3.921   7.701
53704SOL    HW261137   9.837   4.075   7.745
53705SOL     OW61138  11.064   4.947   9.036
53705SOL    HW161139  11.155   4.908   9.023
53705SOL    HW261140  11.072   5.043   9.060
53706SOL     OW61141  10.374   5.071   8.788
53706SOL    HW161142  10.294   5.048   8.843
53706SOL    HW261143  10.457   5.045   8.837
53707SOL     OW61144  10.902   5.353   9.073
53707SOL    HW161145  10.929   5.387   8.983
53707SOL    HW261146  10.981   5.315   9.119
53708SOL     OW61147  10.421   4.919   8.548
53708SOL    HW161148  10.381   4.963   8.629
53708SOL    HW261149  10.380   4.956   8.465
53709SOL     OW61150  10.948   4.823   8.527
53709SOL    HW161151  10.953   4.904   8.586
53709SOL    HW261152  10.862   4.825   8.476
53710SOL     OW61153  10.225   3.813   8.850
53710SOL    HW161154  10.250   3.793   8.755
53710SOL    HW261155  10.297   3.869   8.892
53711SOL     OW61156  10.290   4.840   9.167
53711SOL    HW161157  10.191   4.846   9.177
53711SOL    HW261158  10.313   4.760   9.111
53712SOL     OW61159  10.015   4.774   7.816
53712SOL    HW161160  10.001   4.781   7.915
53712SOL    HW261161  10.099   4.723   7.798
53713SOL     OW61162   9.720   4.537   8.699
53713SOL    HW161163   9.806   4.549   8.749
53713SOL    HW261164   9.678   4.450   8.726
53714SOL     OW61165  10.584   4.110   8.710
53714SOL    HW161166  10.605   4.184   8.774
53714SOL    HW261167  10.495   4.127   8.667
53715SOL     OW61168   9.374   5.288   8.779
53715SOL    HW161169   9.328   5.370   8.745
53715SOL    HW261170   9.472   5.307   8.788
53716SOL     OW61171   9.677   4.824   7.949
53716SOL    HW161172   9.670   4.907   7.893
53716SOL    HW261173   9.681   4.744   7.889
53717SOL     OW61174   9.876   4.261   8.313
53717SOL    HW161175   9.888   4.327   8.239
53717SOL    HW261176   9.922   4.295   8.396
53718SOL     OW61177  10.562   5.072   7.836
53718SOL    HW161178  10.612   5.149   7.876
53718SOL    HW261179  10.467   5.074   7.868
53719SOL     OW61180  10.582   5.169   8.590
53719SOL    HW161181  10.629   5.182   8.677
53719SOL    HW261182  10.516   5.095   8.599
53720SOL     OW61183  10.892   4.363   7.920
53720SOL    HW161184  10.861   4.424   7.993
53720SOL    HW261185  10.942   4.415   7.851
53721SOL     OW61186   9.664   5.234   8.777
53721SOL    HW161187   9.643   5.190   8.690
53721SOL    HW261188   9.761   5.260   8.780
53722SOL     OW61189   9.712   4.475   9.046
53722SOL    HW161190   9.780   4.530   8.999
53722SOL    HW261191   9.752   4.387   9.073
53723SOL     OW61192  10.897   4.503   9.118
53723SOL    HW161193  10.805   4.541   9.113
53723SOL    HW261194  10.957   4.550   9.053
53724SOL     OW61195  10.323   3.829   9.218
53724SOL    HW161196  10.329   3.914   9.166
53724SOL    HW261197  10.355   3.753   9.161
53725SOL     OW61198   9.814   3.774   9.188
53725SOL    HW161199   9.772   3.717   9.118
53725SOL    HW261200   9.748   3.843   9.220
53726SOL     OW61201   9.883   4.594   8.477
53726SOL    HW161202   9.927   4.683   8.468
53726SOL    HW261203   9.820   4.594   8.554
53727SOL     OW61204  10.670   4.586   8.493
53727SOL    HW161205  10.595   4.586   8.427
53727SOL    HW261206  10.707   4.494   8.502
53728SOL     OW61207  10.519   4.249   7.723
53728SOL    HW161208  10.532   4.165   7.777
53728SOL    HW261209  10.490   4.323   7.783
53729SOL     OW61210   9.617   3.937   8.679
53729SOL    HW161211   9.594   3.974   8.769
53729SOL    HW261212   9.587   3.842   8.673
53730SOL     OW61213   9.347   5.034   8.730
53730SOL    HW161214   9.400   4.985   8.798
53730SOL    HW261215   9.369   5.132   8.735
53731SOL     OW61216  10.042   4.358   8.512
53731SOL    HW161217  10.101   4.332   8.436
53731SOL    HW261218  10.014   4.454   8.501
53732SOL     OW61219  11.038   4.659   9.302
53732SOL    HW161220  10.992   4.652   9.213
53732SOL    HW261221  10.976   4.703   9.368
53733SOL     OW61222   9.617   3.787   8.066
53733SOL    HW161223   9.606   3.881   8.099
53733SOL    HW261224   9.612   3.724   8.143
53734SOL     OW61225  10.932   4.091   7.822
53734SOL    HW161226  10.934   4.015   7.886
53734SOL    HW261227  10.884   4.168   7.862
53735SOL     OW61228  10.333   4.490   8.414
53735SOL    HW161229  10.348   4.511   8.510
53735SOL    HW261230  10.303   4.395   8.405
53736SOL     OW61231  10.290   5.297   9.148
53736SOL    HW161232  10.270   5.341   9.060
53736SOL    HW261233  10.329   5.206   9.132
53737SOL     OW61234  11.169   5.242   9.053
53737SOL    HW161235  11.183   5.269   8.958
53737SOL    HW261236  11.252   5.264   9.106
53738SOL     OW61237   9.660   4.622   9.252
53738SOL    HW161238   9.736   4.666   9.300
53738SOL    HW261239   9.695   4.575   9.170
53739SOL     OW61240  10.850   3.998   7.573
53739SOL    HW161241  10.789   3.923   7.596
53739SOL    HW261242  10.872   4.050   7.656
53740SOL     OW61243  10.613   4.562   7.490
53740SOL    HW161244  10.647   4.469   7.505
53740SOL    HW261245  10.631   4.589   7.395
53741SOL     OW61246  10.378   5.057   8.297
53741SOL    HW161247  10.385   4.973   8.242
53741SOL    HW261248  10.440   5.126   8.261
53742SOL     OW61249   9.629   4.534   8.397
53742SOL    HW161250   9.722   4.570   8.402
53742SOL    HW261251   9.623   4.449   8.449
53743SOL     OW61252   9.649   4.233   8.454
53743SOL    HW161253   9.597   4.150   8.437
53743SOL    HW261254   9.726   4.238   8.390
53744SOL     OW61255  10.448   4.104   9.126
53744SOL    HW161256  10.403   4.167   9.190
53744SOL    HW261257  10.541   4.135   9.109
53745SOL     OW61258  10.470   3.931   8.925
53745SOL    HW161259  10.470   3.995   9.002
53745SOL    HW261260  10.498   3.979   8.842
53746SOL     OW61261   9.318   5.050   7.648
53746SOL    HW161262   9.225   5.071   7.617
53746SOL    HW261263   9.328   4.951   7.661
53747SOL     OW61264   9.398   5.525   8.375
53747SOL    HW161265   9.356   5.439   8.348
53747SOL    HW261266   9.492   5.528   8.341
53748SOL     OW61267   9.814   5.292   8.358
53748SOL    HW161268   9.880   5.366   8.367
53748SOL    HW261269   9.858   5.213   8.316
53749SOL     OW61270  10.312   4.520   8.686
53749SOL    HW161271  10.353   4.488   8.772
53749SOL    HW261272  10.216   4.493   8.683
53750SOL     OW61273   9.350   4.268   8.562
53750SOL    HW161274   9.435   4.235   8.521
53750SOL    HW261275   9.363   4.283   8.660
53751SOL     OW61276   9.499   4.244   9.170
53751SOL    HW161277   9.558   4.204   9.100
53751SOL    HW261278   9.441   4.315   9.129
53752SOL     OW61279  10.679   4.674   9.108
53752SOL    HW161280  10.718   4.763   9.128
53752SOL    HW261281  10.689   4.654   9.011
53753SOL     OW61282  10.125   4.296   7.773
53753SOL    HW161283  10.132   4.207   7.727
53753SOL    HW261284  10.031   4.330   7.765
53754SOL     OW61285  10.967   4.328   8.654
53754SOL    HW161286  10.929   4.259   8.716
53754SOL    HW261287  11.049   4.292   8.610
53755SOL     OW61288   9.562   5.288   9.192
53755SOL    HW161289   9.532   5.345   9.268
53755SOL    HW261290   9.555   5.191   9.218
53756SOL     OW61291   9.981   4.188   8.717
53756SOL    HW161292   9.947   4.099   8.687
53756SOL    HW261293  10.007   4.242   8.637
53757SOL     OW61294  10.240   5.402   8.913
53757SOL    HW161295  10.216   5.384   8.818
53757SOL    HW261296  10.270   5.496   8.923
53758SOL     OW61297   9.783   4.224   7.639
53758SOL    HW161298   9.844   4.304   7.643
53758SOL    HW261299   9.688   4.255   7.646
53759SOL     OW61300   9.469   4.861   8.914
53759SOL    HW161301   9.491   4.800   8.990
53759SOL    HW261302   9.479   4.812   8.828
53760SOL     OW61303  10.657   4.783   8.682
53760SOL    HW161304  10.681   4.720   8.608
53760SOL    HW261305  10.567   4.823   8.664
53761SOL     OW61306  10.612   4.579   7.757
53761SOL    HW161307  10.526   4.548   7.799
53761SOL    HW261308  10.608   4.565   7.658
53762SOL     OW61309  11.069   5.471   8.602
53762SOL    HW161310  11.130   5.501   8.529
53762SOL    HW261311  11.031   5.382   8.580
53763SOL     OW61312  10.562   5.455   8.576
53763SOL    HW161313  10.646   5.460   8.522
53763SOL    HW261314  10.539   5.359   8.594
53764SOL     OW61315   9.393   4.982   8.470
53764SOL    HW161316   9.388   4.981   8.570
53764SOL    HW261317   9.310   4.941   8.432
53765SOL     OW61318   9.998   5.386   9.164
53765SOL    HW161319   9.942   5.467   9.173
53765SOL    HW261320  10.050   5.390   9.078
53766SOL     OW61321  11.036   3.859   7.971
53766SOL    HW161322  11.109   3.842   7.904
53766SOL    HW261323  11.005   3.772   8.009
53767SOL     OW61324  10.698   5.297   7.925
53767SOL    HW161325  10.765   5.309   7.851
53767SOL    HW261326  10.658   5.386   7.948
53768SOL     OW61327   9.440   5.518   9.299
53768SOL    HW161328   9.399   5.444   9.352
53768SOL    HW261329   9.504   5.569   9.357
53769SOL     OW61330  10.590   4.651   8.120
53769SOL    HW161331  10.650   4.570   8.122
53769SOL    HW261332  10.630   4.720   8.060
53770SOL     OW61333  10.140   4.997   8.870
53770SOL    HW161334  10.135   5.030   8.965
53770SOL    HW261335  10.054   5.016   8.824
53771SOL     OW61336   9.982   5.340   7.602
53771SOL    HW161337   9.991   5.350   7.503
53771SOL    HW261338   9.942   5.251   7.623
53772SOL     OW61339  10.960   5.444   8.842
53772SOL    HW161340  11.013   5.454   8.758
53772SOL    HW261341  10.933   5.534   8.876
53773SOL     OW61342  11.151   3.899   8.411
53773SOL    HW161343  11.190   3.814   8.375
53773SOL    HW261344  11.053   3.901   8.392
53774SOL     OW61345   9.573   4.050   8.168
53774SOL    HW161346   9.494   4.101   8.134
53774SOL    HW261347   9.564   4.035   8.266
53775SOL     OW61348  10.504   5.336   7.479
53775SOL    HW161349  10.510   5.243   7.516
53775SOL    HW261350  10.445   5.336   7.399
53776SOL     OW61351  10.132   4.726   8.820
53776SOL    HW161352  10.172   4.725   8.728
53776SOL    HW261353  10.142   4.818   8.860
53777SOL     OW61354  10.226   4.634   7.739
53777SOL    HW161355  10.289   4.672   7.671
53777SOL    HW261356  10.266   4.551   7.778
53778SOL     OW61357  10.814   5.331   7.492
53778SOL    HW161358  10.722   5.368   7.499
53778SOL    HW261359  10.852   5.351   7.402
53779SOL     OW61360   9.682   5.012   8.938
53779SOL    HW161361   9.669   5.105   8.904
53779SOL    HW261362   9.598   4.960   8.925
53780SOL     OW61363  10.924   5.016   8.737
53780SOL    HW161364  10.984   5.019   8.817
53780SOL    HW261365  10.849   5.080   8.750
53781SOL     OW61366  10.349   4.822   8.144
53781SOL    HW161367  10.279   4.775   8.198
53781SOL    HW261368  10.408   4.754   8.101
53782SOL     OW61369  10.324   3.960   8.419
53782SOL    HW161370  10.316   3.924   8.326
53782SOL    HW261371  10.322   3.884   8.484
53783SOL     OW61372   9.900   5.211   7.939
53783SOL    HW161373   9.942   5.153   7.869
53783SOL    HW261374   9.856   5.290   7.895
53784SOL     OW61375  11.019   4.109   8.829
53784SOL    HW161376  11.092   4.178   8.833
53784SOL    HW261377  11.047   4.034   8.770
53785SOL     OW61378   9.565   5.072   7.738
53785SOL    HW161379   9.469   5.073   7.711
53785SOL    HW261380   9.577   5.125   7.822
53786SOL     OW61381   9.415   4.737   9.174
53786SOL    HW161382   9.338   4.704   9.228
53786SOL    HW261383   9.500   4.707   9.216
53787SOL     OW61384   9.982   3.927   8.937
53787SOL    HW161385  10.072   3.911   8.897
53787SOL    HW261386   9.990   3.932   9.036
53788SOL     OW61387   9.385   4.069   7.481
53788SOL    HW161388   9.293   4.041   7.452
53788SOL    HW261389   9.416   4.146   7.425
53789SOL     OW61390  10.750   4.580   8.846
53789SOL    HW161391  10.693   4.632   8.783
53789SOL    HW261392  10.846   4.592   8.822
53790SOL     OW61393   9.382   3.890   7.766
53790SOL    HW161394   9.365   3.973   7.712
53790SOL    HW261395   9.472   3.853   7.744
53791SOL     OW61396  10.493   5.059   7.567
53791SOL    HW161397  10.394   5.048   7.569
53791SOL    HW261398  10.527   5.074   7.660
53792SOL     OW61399   9.923   4.566   8.879
53792SOL    HW161400   9.979   4.647   8.862
53792SOL    HW261401   9.982   4.486   8.882
53793SOL     OW61402  10.803   5.491   8.407
53793SOL    HW161403  10.836   5.555   8.338
53793SOL    HW261404  10.869   5.485   8.482
53794SOL     OW61405  10.026   4.289   9.156
53794SOL    HW161406  10.045   4.354   9.230
53794SOL    HW261407  10.086   4.209   9.165
53795SOL     OW61408  10.760   4.944   9.081
53795SOL    HW161409  10.751   4.934   9.180
53795SOL    HW261410  10.856   4.937   9.055
53796SOL     OW61411   9.700   5.465   9.008
53796SOL    HW161412   9.609   5.506   9.006
53796SOL    HW261413   9.693   5.371   9.040
53797SOL     OW61414  10.984   4.607   8.702
53797SOL    HW161415  10.957   4.518   8.665
53797SOL    HW261416  10.985   4.675   8.629
53798SOL     OW61417  10.535   4.049   7.897
53798SOL    HW161418  10.600   3.975   7.886
53798SOL    HW261419  10.555   4.099   7.981
53799SOL     OW61420   9.904   4.469   8.100
53799SOL    HW161421   9.954   4.554   8.081
53799SOL    HW261422   9.816   4.471   8.052
53800SOL     OW61423  11.087   4.066   9.090
53800SOL    HW161424  11.070   4.097   8.996
53800SOL    HW261425  11.003   4.029   9.128
53801SOL     OW61426  11.040   4.658   8.965
53801SOL    HW161427  11.078   4.749   8.980
53801SOL    HW261428  11.032   4.641   8.866
53802SOL     OW61429  10.169   5.098   7.464
53802SOL    HW161430  10.123   5.113   7.552
53802SOL    HW261431  10.213   5.183   7.434
53803SOL     OW61432   9.971   5.514   8.401
53803SOL    HW161433   9.925   5.602   8.388
53803SOL    HW261434  10.070   5.526   8.394
53804SOL     OW61435  10.169   4.680   8.309
53804SOL    HW161436  10.223   4.611   8.357
53804SOL    HW261437  10.137   4.749   8.375
53805SOL     OW61438  10.393   4.708   7.535
53805SOL    HW161439  10.370   4.761   7.453
53805SOL    HW261440  10.474   4.652   7.516
53806SOL     OW61441  11.171   5.293   8.299
53806SOL    HW161442  11.100   5.281   8.229
53806SOL    HW261443  11.172   5.214   8.359
53807SOL     OW61444   9.531   5.038   9.292
53807SOL    HW161445   9.466   4.965   9.271
53807SOL    HW261446   9.535   5.052   9.390
53808SOL     OW61447   9.389   4.964   8.101
53808SOL    HW161448   9.388   4.917   8.189
53808SOL    HW261449   9.471   4.936   8.050
53809SOL     OW61450   9.982   5.115   9.072
53809SOL    HW161451   9.904   5.065   9.110
53809SOL    HW261452   9.979   5.210   9.103
53810SOL     OW61453  11.134   3.916   8.675
53810SOL    HW161454  11.130   3.826   8.719
53810SOL    HW261455  11.137   3.905   8.576
53811SOL     OW61456   9.738   4.148   7.968
53811SOL    HW161457   9.768   4.076   7.906
53811SOL    HW261458   9.699   4.108   8.051
53812SOL     OW61459  11.015   5.211   8.552
53812SOL    HW161460  10.922   5.186   8.525
53812SOL    HW261461  11.041   5.161   8.634
53813SOL     OW61462   9.627   4.271   8.728
53813SOL    HW161463   9.665   4.212   8.800
53813SOL    HW261464   9.667   4.245   8.640
53814SOL     OW61465  10.122   5.310   8.135
53814SOL    HW161466  10.154   5.320   8.041
53814SOL    HW261467  10.043   5.248   8.137
53815SOL     OW61468  10.734   3.938   8.560
53815SOL    HW161469  10.786   3.873   8.615
53815SOL    HW261470  10.685   4.001   8.621
53816SOL     OW61471  10.311   3.758   8.602
53816SOL    HW161472  10.248   3.686   8.571
53816SOL    HW261473  10.404   3.722   8.602
53817SOL     OW61474  10.080   5.054   7.749
53817SOL    HW161475  10.034   4.967   7.766
53817SOL    HW261476  10.171   5.051   7.790
53818SOL     OW61477   9.928   5.291   8.732
53818SOL    HW161478   9.923   5.373   8.789
53818SOL    HW261479  10.017   5.288   8.687
53819SOL     OW61480  10.662   3.776   7.616
53819SOL    HW161481  10.697   3.735   7.532
53819SOL    HW261482  10.572   3.738   7.636
53820SOL     OW61483  10.610   4.177   8.139
53820SOL    HW161484  10.551   4.257   8.143
53820SOL    HW261485  10.625   4.142   8.232
53821SOL     OW61486  10.903   3.945   8.330
53821SOL    HW161487  10.819   3.944   8.384
53821SOL    HW261488  10.905   4.028   8.274
53822SOL     OW61489   9.349   4.801   7.748
53822SOL    HW161490   9.448   4.790   7.739
53822SOL    HW261491   9.309   4.715   7.780
53823SOL     OW61492  10.185   5.370   7.785
53823SOL    HW161493  10.108   5.335   7.731
53823SOL    HW261494  10.153   5.441   7.847
53824SOL     OW61495   9.540   4.352   9.423
53824SOL    HW161496   9.447   4.350   9.460
53824SOL    HW261497   9.541   4.313   9.331
53825SOL     OW61498   9.535   3.999  10.306
53825SOL    HW161499   9.570   3.982  10.398
53825SOL    HW261500   9.447   3.954  10.294
53826SOL     OW61501   9.329   4.092   9.957
53826SOL    HW161502   9.247   4.135   9.996
53826SOL    HW261503   9.301   4.019   9.894
53827SOL     OW61504   9.879   4.999  10.475
53827SOL    HW161505   9.786   4.992  10.438
53827SOL    HW261506   9.890   5.088  10.519
53828SOL     OW61507  10.865   5.235  10.013
53828SOL    HW161508  10.808   5.219  10.094
53828SOL    HW261509  10.806   5.245   9.933
53829SOL     OW61510  10.445   4.427  10.027
53829SOL    HW161511  10.502   4.505  10.002
53829SOL    HW261512  10.385   4.453  10.103
53830SOL     OW61513  11.065   4.331   9.541
53830SOL    HW161514  11.053   4.318   9.442
53830SOL    HW261515  11.035   4.250   9.590
53831SOL     OW61516  10.078   4.868  10.333
53831SOL    HW161517  10.000   4.885  10.393
53831SOL    HW261518  10.112   4.955  10.297
53832SOL     OW61519  10.160   4.522  11.133
53832SOL    HW161520  10.156   4.598  11.198
53832SOL    HW261521  10.182   4.558  11.042
53833SOL     OW61522   9.995   4.736   9.975
53833SOL    HW161523  10.064   4.720  10.045
53833SOL    HW261524   9.922   4.793  10.013
53834SOL     OW61525   9.996   4.885  11.113
53834SOL    HW161526  10.056   4.964  11.127
53834SOL    HW261527   9.910   4.916  11.072
53835SOL     OW61528   9.645   5.159  10.371
53835SOL    HW161529   9.567   5.128  10.318
53835SOL    HW261530   9.703   5.217  10.314
53836SOL     OW61531  10.770   5.229  10.649
53836SOL    HW161532  10.794   5.323  10.675
53836SOL    HW261533  10.754   5.175  10.731
53837SOL     OW61534   9.748   4.116  10.809
53837SOL    HW161535   9.830   4.060  10.818
53837SOL    HW261536   9.667   4.058  10.813
53838SOL     OW61537  10.913   4.171  10.047
53838SOL    HW161538  10.839   4.217   9.997
53838SOL    HW261539  10.964   4.239  10.100
53839SOL     OW61540   9.541   5.437   9.793
53839SOL    HW161541   9.575   5.514   9.847
53839SOL    HW261542   9.585   5.437   9.703
53840SOL     OW61543  10.437   5.065  11.000
53840SOL    HW161544  10.484   5.065  11.088
53840SOL    HW261545  10.389   4.978  10.989
53841SOL     OW61546   9.540   5.158   9.848
53841SOL    HW161547   9.514   5.254   9.848
53841SOL    HW261548   9.469   5.104   9.893
53842SOL     OW61549   9.550   4.815  10.196
53842SOL    HW161550   9.564   4.731  10.248
53842SOL    HW261551   9.495   4.879  10.251
53843SOL     OW61552   9.930   5.510  10.749
53843SOL    HW161553   9.838   5.493  10.784
53843SOL    HW261554   9.958   5.602  10.775
53844SOL     OW61555   9.916   4.688   9.433
53844SOL    HW161556   9.923   4.772   9.379
53844SOL    HW261557   9.962   4.701   9.521
53845SOL     OW61558  10.904   3.838  10.790
53845SOL    HW161559  10.886   3.905  10.718
53845SOL    HW261560  10.901   3.884  10.879
53846SOL     OW61561   9.432   4.367   9.873
53846SOL    HW161562   9.387   4.279   9.890
53846SOL    HW261563   9.431   4.421   9.957
53847SOL     OW61564  11.152   5.491   9.669
53847SOL    HW161565  11.206   5.462   9.749
53847SOL    HW261566  11.182   5.581   9.640
53848SOL     OW61567   9.337   5.320   9.427
53848SOL    HW161568   9.318   5.224   9.448
53848SOL    HW261569   9.304   5.378   9.502
53849SOL     OW61570  10.999   4.646   9.922
53849SOL    HW161571  11.094   4.617   9.930
53849SOL    HW261572  10.991   4.711   9.847
53850SOL     OW61573  10.951   4.832   9.742
53850SOL    HW161574  11.037   4.834   9.690
53850SOL    HW261575  10.965   4.879   9.830
53851SOL     OW61576   9.423   4.461  10.907
53851SOL    HW161577   9.511   4.448  10.952
53851SOL    HW261578   9.410   4.558  10.885
53852SOL     OW61579   9.923   5.089  10.036
53852SOL    HW161580   9.874   5.002  10.045
53852SOL    HW261581   9.900   5.132   9.949
53853SOL     OW61582  10.603   4.952  10.733
53853SOL    HW161583  10.640   4.879  10.675
53853SOL    HW261584  10.655   4.957  10.818
53854SOL     OW61585  10.119   3.728   9.812
53854SOL    HW161586  10.159   3.819   9.803
53854SOL    HW261587  10.019   3.736   9.818
53855SOL     OW61588   9.507   4.700  10.574
53855SOL    HW161589   9.596   4.655  10.560
53855SOL    HW261590   9.434   4.635  10.555
53856SOL     OW61591  10.835   4.723   9.500
53856SOL    HW161592  10.772   4.647   9.513
53856SOL    HW261593  10.883   4.741   9.586
53857SOL     OW61594  10.497   5.516  10.926
53857SOL    HW161595  10.521   5.576  10.850
53857SOL    HW261596  10.504   5.421  10.896
53858SOL     OW61597   9.627   3.975  11.111
53858SOL    HW161598   9.698   4.046  11.117
53858SOL    HW261599   9.539   4.014  11.139
53859SOL     OW61600  10.776   5.141  10.263
53859SOL    HW161601  10.717   5.147  10.343
53859SOL    HW261602  10.761   5.053  10.217
53860SOL     OW61603  10.977   5.438   9.882
53860SOL    HW161604  10.936   5.415   9.794
53860SOL    HW261605  10.959   5.364   9.947
53861SOL     OW61606   9.908   4.453   9.580
53861SOL    HW161607   9.932   4.522   9.512
53861SOL    HW261608   9.830   4.486   9.634
53862SOL     OW61609  10.591   4.069  10.254
53862SOL    HW161610  10.505   4.019  10.241
53862SOL    HW261611  10.653   4.015  10.310
53863SOL     OW61612  10.886   5.386   9.617
53863SOL    HW161613  10.975   5.432   9.620
53863SOL    HW261614  10.865   5.362   9.522
53864SOL     OW61615  10.117   4.329  10.775
53864SOL    HW161616  10.070   4.326  10.864
53864SOL    HW261617  10.066   4.274  10.709
53865SOL     OW61618  10.704   4.193  10.984
53865SOL    HW161619  10.684   4.236  11.072
53865SOL    HW261620  10.782   4.131  10.993
53866SOL     OW61621  10.283   4.614  10.882
53866SOL    HW161622  10.329   4.530  10.853
53866SOL    HW261623  10.227   4.648  10.807
53867SOL     OW61624  10.301   4.134  10.552
53867SOL    HW161625  10.224   4.168  10.606
53867SOL    HW261626  10.267   4.083  10.473
53868SOL     OW61627  10.351   4.425   9.739
53868SOL    HW161628  10.377   4.421   9.835
53868SOL    HW261629  10.266   4.374   9.725
53869SOL     OW61630   9.386   4.535  10.099
53869SOL    HW161631   9.485   4.523  10.108
53869SOL    HW261632   9.362   4.630  10.120
53870SOL     OW61633   9.440   5.545  10.881
53870SOL    HW161634   9.430   5.530  10.980
53870SOL    HW261635   9.354   5.581  10.845
53871SOL     OW61636  10.175   4.072   9.505
53871SOL    HW161637  10.234   4.135   9.456
53871SOL    HW261638  10.194   3.978   9.476
53872SOL     OW61639  11.029   4.309  11.141
53872SOL    HW161640  11.003   4.398  11.105
53872SOL    HW261641  11.027   4.241  11.068
53873SOL     OW61642  10.672   4.868   9.855
53873SOL    HW161643  10.755   4.839   9.807
53873SOL    HW261644  10.623   4.935   9.799
53874SOL     OW61645   9.860   3.920  10.195
53874SOL    HW161646   9.855   3.915  10.295
53874SOL    HW261647   9.862   4.016  10.166
53875SOL     OW61648  10.318   5.180   9.787
53875SOL    HW161649  10.272   5.252   9.735
53875SOL    HW261650  10.314   5.200   9.885
53876SOL     OW61651   9.661   5.525  10.163
53876SOL    HW161652   9.711   5.439  10.169
53876SOL    HW261653   9.726   5.602  10.160
53877SOL     OW61654  11.105   4.790  10.183
53877SOL    HW161655  11.043   4.775  10.107
53877SOL    HW261656  11.053   4.801  10.268
53878SOL     OW61657  10.537   5.274  10.816
53878SOL    HW161658  10.543   5.197  10.880
53878SOL    HW261659  10.485   5.248  10.736
53879SOL     OW61660   9.631   4.667   9.552
53879SOL    HW161661   9.713   4.706   9.510
53879SOL    HW261662   9.604   4.585   9.503
53880SOL     OW61663  10.768   4.459  10.038
53880SOL    HW161664  10.763   4.394  10.113
53880SOL    HW261665  10.848   4.518  10.051
53881SOL     OW61666   9.771   4.990  11.037
53881SOL    HW161667   9.721   4.991  10.951
53881SOL    HW261668   9.708   4.972  11.113
53882SOL     OW61669  10.421   5.500   9.547
53882SOL    HW161670  10.361   5.438   9.597
53882SOL    HW261671  10.452   5.456   9.462
53883SOL     OW61672   9.512   4.009  10.808
53883SOL    HW161673   9.432   4.069  10.795
53883SOL    HW261674   9.502   3.960  10.894
53884SOL     OW61675  10.942   5.101   9.391
53884SOL    HW161676  10.910   5.195   9.381
53884SOL    HW261677  10.866   5.038   9.379
53885SOL     OW61678   9.774   5.467   9.633
53885SOL    HW161679   9.807   5.506   9.719
53885SOL    HW261680   9.850   5.460   9.568
53886SOL     OW61681  10.710   3.831   9.736
53886SOL    HW161682  10.686   3.794   9.646
53886SOL    HW261683  10.809   3.847   9.740
53887SOL     OW61684   9.559   5.509  10.551
53887SOL    HW161685   9.616   5.444  10.601
53887SOL    HW261686   9.543   5.476  10.458
53888SOL     OW61687  10.250   5.422  10.214
53888SOL    HW161688  10.330   5.365  10.235
53888SOL    HW261689  10.201   5.382  10.137
53889SOL     OW61690   9.692   4.424   9.790
53889SOL    HW161691   9.737   4.334   9.787
53889SOL    HW261692   9.598   4.413   9.823
53890SOL     OW61693  10.857   3.946  11.039
53890SOL    HW161694  10.852   3.983  11.131
53890SOL    HW261695  10.785   3.877  11.027
53891SOL     OW61696   9.924   3.846   9.427
53891SOL    HW161697  10.022   3.824   9.434
53891SOL    HW261698   9.893   3.829   9.334
53892SOL     OW61699  10.091   3.988  11.059
53892SOL    HW161700  10.158   3.927  11.102
53892SOL    HW261701  10.018   4.007  11.124
53893SOL     OW61702  10.198   5.238  10.505
53893SOL    HW161703  10.175   5.213  10.411
53893SOL    HW261704  10.259   5.169  10.544
53894SOL     OW61705  10.661   4.314  10.743
53894SOL    HW161706  10.689   4.271  10.828
53894SOL    HW261707  10.686   4.410  10.744
53895SOL     OW61708  10.113   5.126  10.234
53895SOL    HW161709  10.203   5.140  10.192
53895SOL    HW261710  10.042   5.128  10.163
53896SOL     OW61711  10.232   4.227  10.209
53896SOL    HW161712  10.207   4.218  10.113
53896SOL    HW261713  10.280   4.145  10.240
53897SOL     OW61714   9.849   3.788   9.822
53897SOL    HW161715   9.768   3.789   9.880
53897SOL    HW261716   9.852   3.871   9.767
53898SOL     OW61717  10.744   4.912   9.351
53898SOL    HW161718  10.776   4.836   9.408
53898SOL    HW261719  10.652   4.939   9.381
53899SOL     OW61720   9.607   3.759   9.481
53899SOL    HW161721   9.656   3.843   9.460
53899SOL    HW261722   9.669   3.694   9.526
53900SOL     OW61723  10.245   3.960   9.790
53900SOL    HW161724  10.197   4.001   9.712
53900SOL    HW261725  10.344   3.958   9.771
53901SOL     OW61726  10.386   4.407  10.774
53901SOL    HW161727  10.306   4.346  10.777
53901SOL    HW261728  10.467   4.354  10.750
53902SOL     OW61729  10.537   5.294  10.103
53902SOL    HW161730  10.558   5.368  10.038
53902SOL    HW261731  10.605   5.294  10.176
53903SOL     OW61732   9.769   4.876  10.051
53903SOL    HW161733   9.698   4.849  10.116
53903SOL    HW261734   9.743   4.848   9.958
53904SOL     OW61735  10.581   5.521   9.901
53904SOL    HW161736  10.625   5.585   9.837
53904SOL    HW261737  10.531   5.573   9.971
53905SOL     OW61738  10.342   4.273   9.326
53905SOL    HW161739  10.301   4.355   9.287
53905SOL    HW261740  10.406   4.299   9.399
53906SOL     OW61741   9.388   4.280  10.696
53906SOL    HW161742   9.480   4.279  10.655
53906SOL    HW261743   9.382   4.354  10.763
53907SOL     OW61744   9.871   3.946  10.457
53907SOL    HW161745   9.909   3.862  10.494
53907SOL    HW261746   9.783   3.965  10.501
53908SOL     OW61747  10.176   4.178   9.952
53908SOL    HW161748  10.144   4.250   9.890
53908SOL    HW261749  10.200   4.097   9.899
53909SOL     OW61750  10.327   3.763  10.063
53909SOL    HW161751  10.255   3.768   9.994
53909SOL    HW261752  10.303   3.694  10.132
53910SOL     OW61753  10.739   4.897  10.177
53910SOL    HW161754  10.684   4.813  10.170
53910SOL    HW261755  10.765   4.926  10.085
53911SOL     OW61756  10.776   4.314  10.302
53911SOL    HW161757  10.746   4.219  10.309
53911SOL    HW261758  10.849   4.330  10.368
53912SOL     OW61759  11.167   4.557   9.687
53912SOL    HW161760  11.209   4.493   9.751
53912SOL    HW261761  11.129   4.506   9.609
53913SOL     OW61762   9.798   5.109   9.484
53913SOL    HW161763   9.711   5.094   9.531
53913SOL    HW261764   9.781   5.135   9.389
53914SOL     OW61765  10.974   5.004   9.967
53914SOL    HW161766  11.073   5.012   9.981
53914SOL    HW261767  10.929   5.088   9.998
53915SOL     OW61768  10.700   4.299   9.388
53915SOL    HW161769  10.646   4.278   9.469
53915SOL    HW261770  10.791   4.258   9.397
53916SOL     OW61771   9.837   3.980   9.638
53916SOL    HW161772   9.864   3.921   9.563
53916SOL    HW261773   9.837   4.075   9.607
53917SOL     OW61774  11.064   4.947  10.898
53917SOL    HW161775  11.155   4.908  10.885
53917SOL    HW261776  11.072   5.043  10.922
53918SOL     OW61777  10.374   5.071  10.650
53918SOL    HW161778  10.294   5.048  10.705
53918SOL    HW261779  10.457   5.045  10.699
53919SOL     OW61780  10.902   5.353  10.935
53919SOL    HW161781  10.929   5.387  10.845
53919SOL    HW261782  10.981   5.315  10.981
53920SOL     OW61783  10.421   4.919  10.410
53920SOL    HW161784  10.381   4.963  10.491
53920SOL    HW261785  10.380   4.956  10.327
53921SOL     OW61786  10.948   4.823  10.389
53921SOL    HW161787  10.953   4.904  10.448
53921SOL    HW261788  10.862   4.825  10.338
53922SOL     OW61789  10.225   3.813  10.712
53922SOL    HW161790  10.250   3.793  10.617
53922SOL    HW261791  10.297   3.869  10.754
53923SOL     OW61792  10.290   4.840  11.029
53923SOL    HW161793  10.191   4.846  11.039
53923SOL    HW261794  10.313   4.760  10.973
53924SOL     OW61795  10.015   4.774   9.678
53924SOL    HW161796  10.001   4.781   9.777
53924SOL    HW261797  10.099   4.723   9.660
53925SOL     OW61798   9.720   4.537  10.561
53925SOL    HW161799   9.806   4.549  10.611
53925SOL    HW261800   9.678   4.450  10.588
53926SOL     OW61801  10.584   4.110  10.572
53926SOL    HW161802  10.605   4.184  10.636
53926SOL    HW261803  10.495   4.127  10.529
53927SOL     OW61804   9.374   5.288  10.641
53927SOL    HW161805   9.328   5.370  10.607
53927SOL    HW261806   9.472   5.307  10.650
53928SOL     OW61807   9.677   4.824   9.811
53928SOL    HW161808   9.670   4.907   9.755
53928SOL    HW261809   9.681   4.744   9.751
53929SOL     OW61810   9.876   4.261  10.175
53929SOL    HW161811   9.888   4.327  10.101
53929SOL    HW261812   9.922   4.295  10.258
53930SOL     OW61813  10.562   5.072   9.698
53930SOL    HW161814  10.612   5.149   9.738
53930SOL    HW261815  10.467   5.074   9.730
53931SOL     OW61816  10.582   5.169  10.452
53931SOL    HW161817  10.629   5.182  10.539
53931SOL    HW261818  10.516   5.095  10.461
53932SOL     OW61819  10.892   4.363   9.782
53932SOL    HW161820  10.861   4.424   9.855
53932SOL    HW261821  10.942   4.415   9.713
53933SOL     OW61822   9.664   5.234  10.639
53933SOL    HW161823   9.643   5.190  10.552
53933SOL    HW261824   9.761   5.260  10.642
53934SOL     OW61825   9.712   4.475  10.908
53934SOL    HW161826   9.780   4.530  10.861
53934SOL    HW261827   9.752   4.387  10.935
53935SOL     OW61828  10.897   4.503  10.980
53935SOL    HW161829  10.805   4.541  10.975
53935SOL    HW261830  10.957   4.550  10.915
53936SOL     OW61831  10.323   3.829  11.080
53936SOL    HW161832  10.329   3.914  11.028
53936SOL    HW261833  10.355   3.753  11.023
53937SOL     OW61834   9.814   3.774  11.050
53937SOL    HW161835   9.772   3.717  10.980
53937SOL    HW261836   9.748   3.843  11.082
53938SOL     OW61837   9.883   4.594  10.339
53938SOL    HW161838   9.927   4.683  10.330
53938SOL    HW261839   9.820   4.594  10.416
53939SOL     OW61840  10.670   4.586  10.355
53939SOL    HW161841  10.595   4.586  10.289
53939SOL    HW261842  10.707   4.494  10.364
53940SOL     OW61843  10.519   4.249   9.585
53940SOL    HW161844  10.532   4.165   9.639
53940SOL    HW261845  10.490   4.323   9.645
53941SOL     OW61846   9.617   3.937  10.541
53941SOL    HW161847   9.594   3.974  10.631
53941SOL    HW261848   9.587   3.842  10.535
53942SOL     OW61849   9.347   5.034  10.592
53942SOL    HW161850   9.400   4.985  10.660
53942SOL    HW261851   9.369   5.132  10.597
53943SOL     OW61852  10.042   4.358  10.374
53943SOL    HW161853  10.101   4.332  10.298
53943SOL    HW261854  10.014   4.454  10.363
53944SOL     OW61855  11.038   4.659  11.164
53944SOL    HW161856  10.992   4.652  11.075
53944SOL    HW261857  10.976   4.703  11.230
53945SOL     OW61858   9.617   3.787   9.928
53945SOL    HW161859   9.606   3.881   9.961
53945SOL    HW261860   9.612   3.724  10.005
53946SOL     OW61861  10.932   4.091   9.684
53946SOL    HW161862  10.934   4.015   9.748
53946SOL    HW261863  10.884   4.168   9.724
53947SOL     OW61864  10.333   4.490  10.276
53947SOL    HW161865  10.348   4.511  10.372
53947SOL    HW261866  10.303   4.395  10.267
53948SOL     OW61867  10.290   5.297  11.010
53948SOL    HW161868  10.270   5.341  10.922
53948SOL    HW261869  10.329   5.206  10.994
53949SOL     OW61870  11.169   5.242  10.915
53949SOL    HW161871  11.183   5.269  10.820
53949SOL    HW261872  11.252   5.264  10.968
53950SOL     OW61873   9.660   4.622  11.114
53950SOL    HW161874   9.736   4.666  11.162
53950SOL    HW261875   9.695   4.575  11.032
53951SOL     OW61876  10.850   3.998   9.435
53951SOL    HW161877  10.789   3.923   9.458
53951SOL    HW261878  10.872   4.050   9.518
53952SOL     OW61879  10.613   4.562   9.352
53952SOL    HW161880  10.647   4.469   9.367
53952SOL    HW261881  10.631   4.589   9.257
53953SOL     OW61882  10.378   5.057  10.159
53953SOL    HW161883  10.385   4.973  10.104
53953SOL    HW261884  10.440   5.126  10.123
53954SOL     OW61885   9.629   4.534  10.259
53954SOL    HW161886   9.722   4.570  10.264
53954SOL    HW261887   9.623   4.449  10.311
53955SOL     OW61888   9.649   4.233  10.316
53955SOL    HW161889   9.597   4.150  10.299
53955SOL    HW261890   9.726   4.238  10.252
53956SOL     OW61891  10.448   4.104  10.988
53956SOL    HW161892  10.403   4.167  11.052
53956SOL    HW261893  10.541   4.135  10.971
53957SOL     OW61894  10.470   3.931  10.787
53957SOL    HW161895  10.470   3.995  10.864
53957SOL    HW261896  10.498   3.979  10.704
53958SOL     OW61897   9.318   5.050   9.510
53958SOL    HW161898   9.225   5.071   9.479
53958SOL    HW261899   9.328   4.951   9.523
53959SOL     OW61900   9.398   5.525  10.237
53959SOL    HW161901   9.356   5.439  10.210
53959SOL    HW261902   9.492   5.528  10.203
53960SOL     OW61903   9.814   5.292  10.220
53960SOL    HW161904   9.880   5.366  10.229
53960SOL    HW261905   9.858   5.213  10.178
53961SOL     OW61906  10.312   4.520  10.548
53961SOL    HW161907  10.353   4.488  10.634
53961SOL    HW261908  10.216   4.493  10.545
53962SOL     OW61909   9.350   4.268  10.424
53962SOL    HW161910   9.435   4.235  10.383
53962SOL    HW261911   9.363   4.283  10.522
53963SOL     OW61912   9.499   4.244  11.032
53963SOL    HW161913   9.558   4.204  10.962
53963SOL    HW261914   9.441   4.315  10.991
53964SOL     OW61915  10.679   4.674  10.970
53964SOL    HW161916  10.718   4.763  10.990
53964SOL    HW261917  10.689   4.654  10.873
53965SOL     OW61918  10.125   4.296   9.635
53965SOL    HW161919  10.132   4.207   9.589
53965SOL    HW261920  10.031   4.330   9.627
53966SOL     OW61921  10.967   4.328  10.516
53966SOL    HW161922  10.929   4.259  10.578
53966SOL    HW261923  11.049   4.292  10.472
53967SOL     OW61924   9.562   5.288  11.054
53967SOL    HW161925   9.532   5.345  11.130
53967SOL    HW261926   9.555   5.191  11.080
53968SOL     OW61927   9.981   4.188  10.579
53968SOL    HW161928   9.947   4.099  10.549
53968SOL    HW261929  10.007   4.242  10.499
53969SOL     OW61930  10.240   5.402  10.775
53969SOL    HW161931  10.216   5.384  10.680
53969SOL    HW261932  10.270   5.496  10.785
53970SOL     OW61933   9.783   4.224   9.501
53970SOL    HW161934   9.844   4.304   9.505
53970SOL    HW261935   9.688   4.255   9.508
53971SOL     OW61936   9.469   4.861  10.776
53971SOL    HW161937   9.491   4.800  10.852
53971SOL    HW261938   9.479   4.812  10.690
53972SOL     OW61939  10.657   4.783  10.544
53972SOL    HW161940  10.681   4.720  10.470
53972SOL    HW261941  10.567   4.823  10.526
53973SOL     OW61942  10.612   4.579   9.619
53973SOL    HW161943  10.526   4.548   9.661
53973SOL    HW261944  10.608   4.565   9.520
53974SOL     OW61945  11.069   5.471  10.464
53974SOL    HW161946  11.130   5.501  10.391
53974SOL    HW261947  11.031   5.382  10.442
53975SOL     OW61948  10.562   5.455  10.438
53975SOL    HW161949  10.646   5.460  10.384
53975SOL    HW261950  10.539   5.359  10.456
53976SOL     OW61951   9.393   4.982  10.332
53976SOL    HW161952   9.388   4.981  10.432
53976SOL    HW261953   9.310   4.941  10.294
53977SOL     OW61954   9.998   5.386  11.026
53977SOL    HW161955   9.942   5.467  11.035
53977SOL    HW261956  10.050   5.390  10.940
53978SOL     OW61957  11.036   3.859   9.833
53978SOL    HW161958  11.109   3.842   9.766
53978SOL    HW261959  11.005   3.772   9.871
53979SOL     OW61960  10.698   5.297   9.787
53979SOL    HW161961  10.765   5.309   9.713
53979SOL    HW261962  10.658   5.386   9.810
53980SOL     OW61963   9.440   5.518  11.161
53980SOL    HW161964   9.399   5.444  11.214
53980SOL    HW261965   9.504   5.569  11.219
53981SOL     OW61966  10.590   4.651   9.982
53981SOL    HW161967  10.650   4.570   9.984
53981SOL    HW261968  10.630   4.720   9.922
53982SOL     OW61969  10.140   4.997  10.732
53982SOL    HW161970  10.135   5.030  10.827
53982SOL    HW261971  10.054   5.016  10.686
53983SOL     OW61972   9.982   5.340   9.464
53983SOL    HW161973   9.991   5.350   9.365
53983SOL    HW261974   9.942   5.251   9.485
53984SOL     OW61975  10.960   5.444  10.704
53984SOL    HW161976  11.013   5.454  10.620
53984SOL    HW261977  10.933   5.534  10.738
53985SOL     OW61978  11.151   3.899  10.273
53985SOL    HW161979  11.190   3.814  10.237
53985SOL    HW261980  11.053   3.901  10.254
53986SOL     OW61981   9.573   4.050  10.030
53986SOL    HW161982   9.494   4.101   9.996
53986SOL    HW261983   9.564   4.035  10.128
53987SOL     OW61984  10.504   5.336   9.341
53987SOL    HW161985  10.510   5.243   9.378
53987SOL    HW261986  10.445   5.336   9.261
53988SOL     OW61987  10.132   4.726  10.682
53988SOL    HW161988  10.172   4.725  10.590
53988SOL    HW261989  10.142   4.818  10.722
53989SOL     OW61990  10.226   4.634   9.601
53989SOL    HW161991  10.289   4.672   9.533
53989SOL    HW261992  10.266   4.551   9.640
53990SOL     OW61993  10.814   5.331   9.354
53990SOL    HW161994  10.722   5.368   9.361
53990SOL    HW261995  10.852   5.351   9.264
53991SOL     OW61996   9.682   5.012  10.800
53991SOL    HW161997   9.669   5.105  10.766
53991SOL    HW261998   9.598   4.960  10.787
53992SOL     OW61999  10.924   5.016  10.599
53992SOL    HW162000  10.984   5.019  10.679
53992SOL    HW262001  10.849   5.080  10.612
53993SOL     OW62002  10.349   4.822  10.006
53993SOL    HW162003  10.279   4.775  10.060
53993SOL    HW262004  10.408   4.754   9.963
53994SOL     OW62005  10.324   3.960  10.281
53994SOL    HW162006  10.316   3.924  10.188
53994SOL    HW262007  10.322   3.884  10.346
53995SOL     OW62008   9.900   5.211   9.801
53995SOL    HW162009   9.942   5.153   9.731
53995SOL    HW262010   9.856   5.290   9.757
53996SOL     OW62011  11.019   4.109  10.691
53996SOL    HW162012  11.092   4.178  10.695
53996SOL    HW262013  11.047   4.034  10.632
53997SOL     OW62014   9.565   5.072   9.600
53997SOL    HW162015   9.469   5.073   9.573
53997SOL    HW262016   9.577   5.125   9.684
53998SOL     OW62017   9.415   4.737  11.036
53998SOL    HW162018   9.338   4.704  11.090
53998SOL    HW262019   9.500   4.707  11.078
53999SOL     OW62020   9.982   3.927  10.799
53999SOL    HW162021  10.072   3.911  10.759
53999SOL    HW262022   9.990   3.932  10.898
54000SOL     OW62023   9.385   4.069   9.343
54000SOL    HW162024   9.293   4.041   9.314
54000SOL    HW262025   9.416   4.146   9.287
54001SOL     OW62026  10.750   4.580  10.708
54001SOL    HW162027  10.693   4.632  10.645
54001SOL    HW262028  10.846   4.592  10.684
54002SOL     OW62029   9.382   3.890   9.628
54002SOL    HW162030   9.365   3.973   9.574
54002SOL    HW262031   9.472   3.853   9.606
54003SOL     OW62032  10.493   5.059   9.429
54003SOL    HW162033  10.394   5.048   9.431
54003SOL    HW262034  10.527   5.074   9.522
54004SOL     OW62035   9.923   4.566  10.741
54004SOL    HW162036   9.979   4.647  10.724
54004SOL    HW262037   9.982   4.486  10.744
54005SOL     OW62038  10.803   5.491  10.269
54005SOL    HW162039  10.836   5.555  10.200
54005SOL    HW262040  10.869   5.485  10.344
54006SOL     OW62041  10.026   4.289  11.018
54006SOL    HW162042  10.045   4.354  11.092
54006SOL    HW262043  10.086   4.209  11.027
54007SOL     OW62044  10.760   4.944  10.943
54007SOL    HW162045  10.751   4.934  11.042
54007SOL    HW262046  10.856   4.937  10.917
54008SOL     OW62047   9.700   5.465  10.870
54008SOL    HW162048   9.609   5.506  10.868
54008SOL    HW262049   9.693   5.371  10.902
54009SOL     OW62050  10.984   4.607  10.564
54009SOL    HW162051  10.957   4.518  10.527
54009SOL    HW262052  10.985   4.675  10.491
54010SOL     OW62053  10.535   4.049   9.759
54010SOL    HW162054  10.600   3.975   9.748
54010SOL    HW262055  10.555   4.099   9.843
54011SOL     OW62056   9.904   4.469   9.962
54011SOL    HW162057   9.954   4.554   9.943
54011SOL    HW262058   9.816   4.471   9.914
54012SOL     OW62059  11.087   4.066  10.952
54012SOL    HW162060  11.070   4.097  10.858
54012SOL    HW262061  11.003   4.029  10.990
54013SOL     OW62062  11.040   4.658  10.827
54013SOL    HW162063  11.078   4.749  10.842
54013SOL    HW262064  11.032   4.641  10.728
54014SOL     OW62065  10.169   5.098   9.326
54014SOL    HW162066  10.123   5.113   9.414
54014SOL    HW262067  10.213   5.183   9.296
54015SOL     OW62068   9.971   5.514  10.263
54015SOL    HW162069   9.925   5.602  10.250
54015SOL    HW262070  10.070   5.526  10.256
54016SOL     OW62071  10.169   4.680  10.171
54016SOL    HW162072  10.223   4.611  10.219
54016SOL    HW262073  10.137   4.749  10.237
54017SOL     OW62074  10.393   4.708   9.397
54017SOL    HW162075  10.370   4.761   9.315
54017SOL    HW262076  10.474   4.652   9.378
54018SOL     OW62077  11.171   5.293  10.161
54018SOL    HW162078  11.100   5.281  10.091
54018SOL    HW262079  11.172   5.214  10.221
54019SOL     OW62080   9.531   5.038  11.154
54019SOL    HW162081   9.466   4.965  11.133
54019SOL    HW262082   9.535   5.052  11.252
54020SOL     OW62083   9.389   4.964   9.963
54020SOL    HW162084   9.388   4.917  10.051
54020SOL    HW262085   9.471   4.936   9.912
54021SOL     OW62086   9.982   5.115  10.934
54021SOL    HW162087   9.904   5.065  10.972
54021SOL    HW262088   9.979   5.210  10.965
54022SOL     OW62089  11.134   3.916  10.537
54022SOL    HW162090  11.130   3.826  10.581
54022SOL    HW262091  11.137   3.905  10.438
54023SOL     OW62092   9.738   4.148   9.830
54023SOL    HW162093   9.768   4.076   9.768
54023SOL    HW262094   9.699   4.108   9.913
54024SOL     OW62095  11.015   5.211  10.414
54024SOL    HW162096  10.922   5.186  10.387
54024SOL    HW262097  11.041   5.161  10.496
54025SOL     OW62098   9.627   4.271  10.590
54025SOL    HW162099   9.665   4.212  10.662
54025SOL    HW262100   9.667   4.245  10.502
54026SOL     OW62101  10.122   5.310   9.997
54026SOL    HW162102  10.154   5.320   9.903
54026SOL    HW262103  10.043   5.248   9.999
54027SOL     OW62104  10.734   3.938  10.422
54027SOL    HW162105  10.786   3.873  10.477
54027SOL    HW262106  10.685   4.001  10.483
54028SOL     OW62107  10.311   3.758  10.464
54028SOL    HW162108  10.248   3.686  10.433
54028SOL    HW262109  10.404   3.722  10.464
54029SOL     OW62110  10.080   5.054   9.611
54029SOL    HW162111  10.034   4.967   9.628
54029SOL    HW262112  10.171   5.051   9.652
54030SOL     OW62113   9.928   5.291  10.594
54030SOL    HW162114   9.923   5.373  10.651
54030SOL    HW262115  10.017   5.288  10.549
54031SOL     OW62116  10.662   3.776   9.478
54031SOL    HW162117  10.697   3.735   9.394
54031SOL    HW262118  10.572   3.738   9.498
54032SOL     OW62119  10.610   4.177  10.001
54032SOL    HW162120  10.551   4.257  10.005
54032SOL    HW262121  10.625   4.142  10.094
54033SOL     OW62122  10.903   3.945  10.192
54033SOL    HW162123  10.819   3.944  10.246
54033SOL    HW262124  10.905   4.028  10.136
54034SOL     OW62125   9.349   4.801   9.610
54034SOL    HW162126   9.448   4.790   9.601
54034SOL    HW262127   9.309   4.715   9.642
54035SOL     OW62128  10.185   5.370   9.647
54035SOL    HW162129  10.108   5.335   9.593
54035SOL    HW262130  10.153   5.441   9.709
54036SOL     OW62131   9.540   4.352  11.285
54036SOL    HW162132   9.447   4.350  11.322
54036SOL    HW262133   9.541   4.313  11.193
54037SOL     OW62134   9.535   3.999  12.168
54037SOL    HW162135   9.570   3.982  12.260
54037SOL    HW262136   9.447   3.954  12.156
54038SOL     OW62137   9.329   4.092  11.819
54038SOL    HW162138   9.247   4.135  11.858
54038SOL    HW262139   9.301   4.019  11.756
54039SOL     OW62140   9.879   4.999  12.337
54039SOL    HW162141   9.786   4.992  12.300
54039SOL    HW262142   9.890   5.088  12.381
54040SOL     OW62143  10.865   5.235  11.875
54040SOL    HW162144  10.808   5.219  11.956
54040SOL    HW262145  10.806   5.245  11.795
54041SOL     OW62146  10.445   4.427  11.889
54041SOL    HW162147  10.502   4.505  11.864
54041SOL    HW262148  10.385   4.453  11.965
54042SOL     OW62149  11.065   4.331  11.403
54042SOL    HW162150  11.053   4.318  11.304
54042SOL    HW262151  11.035   4.250  11.452
54043SOL     OW62152  10.078   4.868  12.195
54043SOL    HW162153  10.000   4.885  12.255
54043SOL    HW262154  10.112   4.955  12.159
54044SOL     OW62155   9.995   4.736  11.837
54044SOL    HW162156  10.064   4.720  11.907
54044SOL    HW262157   9.922   4.793  11.875
54045SOL     OW62158   9.645   5.159  12.233
54045SOL    HW162159   9.567   5.128  12.180
54045SOL    HW262160   9.703   5.217  12.176
54046SOL     OW62161  10.770   5.229  12.511
54046SOL    HW162162  10.794   5.323  12.537
54046SOL    HW262163  10.754   5.175  12.593
54047SOL     OW62164  10.913   4.171  11.909
54047SOL    HW162165  10.839   4.217  11.859
54047SOL    HW262166  10.964   4.239  11.962
54048SOL     OW62167   9.541   5.437  11.655
54048SOL    HW162168   9.575   5.514  11.709
54048SOL    HW262169   9.585   5.437  11.565
54049SOL     OW62170   9.540   5.158  11.710
54049SOL    HW162171   9.514   5.254  11.710
54049SOL    HW262172   9.469   5.104  11.755
54050SOL     OW62173   9.550   4.815  12.058
54050SOL    HW162174   9.564   4.731  12.110
54050SOL    HW262175   9.495   4.879  12.113
54051SOL     OW62176   9.930   5.510  12.611
54051SOL    HW162177   9.838   5.493  12.646
54051SOL    HW262178   9.958   5.602  12.637
54052SOL     OW62179   9.916   4.688  11.295
54052SOL    HW162180   9.923   4.772  11.241
54052SOL    HW262181   9.962   4.701  11.383
54053SOL     OW62182  10.904   3.838  12.652
54053SOL    HW162183  10.886   3.905  12.580
54053SOL    HW262184  10.901   3.884  12.741
54054SOL     OW62185   9.432   4.367  11.735
54054SOL    HW162186   9.387   4.279  11.752
54054SOL    HW262187   9.431   4.421  11.819
54055SOL     OW62188  11.152   5.491  11.531
54055SOL    HW162189  11.206   5.462  11.611
54055SOL    HW262190  11.182   5.581  11.502
54056SOL     OW62191   9.337   5.320  11.289
54056SOL    HW162192   9.318   5.224  11.310
54056SOL    HW262193   9.304   5.378  11.364
54057SOL     OW62194  10.999   4.646  11.784
54057SOL    HW162195  11.094   4.617  11.792
54057SOL    HW262196  10.991   4.711  11.709
54058SOL     OW62197  10.951   4.832  11.604
54058SOL    HW162198  11.037   4.834  11.552
54058SOL    HW262199  10.965   4.879  11.692
54059SOL     OW62200   9.423   4.461  12.769
54059SOL    HW162201   9.511   4.448  12.814
54059SOL    HW262202   9.410   4.558  12.747
54060SOL     OW62203   9.923   5.089  11.898
54060SOL    HW162204   9.874   5.002  11.907
54060SOL    HW262205   9.900   5.132  11.811
54061SOL     OW62206  10.603   4.952  12.595
54061SOL    HW162207  10.640   4.879  12.537
54061SOL    HW262208  10.655   4.957  12.680
54062SOL     OW62209  10.119   3.728  11.674
54062SOL    HW162210  10.159   3.819  11.665
54062SOL    HW262211  10.019   3.736  11.680
54063SOL     OW62212   9.507   4.700  12.436
54063SOL    HW162213   9.596   4.655  12.422
54063SOL    HW262214   9.434   4.635  12.417
54064SOL     OW62215  10.835   4.723  11.362
54064SOL    HW162216  10.772   4.647  11.375
54064SOL    HW262217  10.883   4.741  11.448
54065SOL     OW62218  10.776   5.141  12.125
54065SOL    HW162219  10.717   5.147  12.205
54065SOL    HW262220  10.761   5.053  12.079
54066SOL     OW62221  10.977   5.438  11.744
54066SOL    HW162222  10.936   5.415  11.656
54066SOL    HW262223  10.959   5.364  11.809
54067SOL     OW62224   9.908   4.453  11.442
54067SOL    HW162225   9.932   4.522  11.374
54067SOL    HW262226   9.830   4.486  11.496
54068SOL     OW62227  10.591   4.069  12.116
54068SOL    HW162228  10.505   4.019  12.103
54068SOL    HW262229  10.653   4.015  12.172
54069SOL     OW62230  10.886   5.386  11.479
54069SOL    HW162231  10.975   5.432  11.482
54069SOL    HW262232  10.865   5.362  11.384
54070SOL     OW62233  10.117   4.329  12.637
54070SOL    HW162234  10.070   4.326  12.726
54070SOL    HW262235  10.066   4.274  12.571
54071SOL     OW62236  10.283   4.614  12.744
54071SOL    HW162237  10.329   4.530  12.715
54071SOL    HW262238  10.227   4.648  12.669
54072SOL     OW62239  10.301   4.134  12.414
54072SOL    HW162240  10.224   4.168  12.468
54072SOL    HW262241  10.267   4.083  12.335
54073SOL     OW62242  10.351   4.425  11.601
54073SOL    HW162243  10.377   4.421  11.697
54073SOL    HW262244  10.266   4.374  11.587
54074SOL     OW62245   9.386   4.535  11.961
54074SOL    HW162246   9.485   4.523  11.970
54074SOL    HW262247   9.362   4.630  11.982
54075SOL     OW62248   9.440   5.545  12.743
54075SOL    HW162249   9.430   5.530  12.842
54075SOL    HW262250   9.354   5.581  12.707
54076SOL     OW62251  10.175   4.072  11.367
54076SOL    HW162252  10.234   4.135  11.318
54076SOL    HW262253  10.194   3.978  11.338
54077SOL     OW62254  10.672   4.868  11.717
54077SOL    HW162255  10.755   4.839  11.669
54077SOL    HW262256  10.623   4.935  11.661
54078SOL     OW62257   9.860   3.920  12.057
54078SOL    HW162258   9.855   3.915  12.157
54078SOL    HW262259   9.862   4.016  12.028
54079SOL     OW62260  10.318   5.180  11.649
54079SOL    HW162261  10.272   5.252  11.597
54079SOL    HW262262  10.314   5.200  11.747
54080SOL     OW62263   9.661   5.525  12.025
54080SOL    HW162264   9.711   5.439  12.031
54080SOL    HW262265   9.726   5.602  12.022
54081SOL     OW62266  11.105   4.790  12.045
54081SOL    HW162267  11.043   4.775  11.969
54081SOL    HW262268  11.053   4.801  12.130
54082SOL     OW62269  10.537   5.274  12.678
54082SOL    HW162270  10.543   5.197  12.742
54082SOL    HW262271  10.485   5.248  12.598
54083SOL     OW62272   9.631   4.667  11.414
54083SOL    HW162273   9.713   4.706  11.372
54083SOL    HW262274   9.604   4.585  11.365
54084SOL     OW62275  10.768   4.459  11.900
54084SOL    HW162276  10.763   4.394  11.975
54084SOL    HW262277  10.848   4.518  11.913
54085SOL     OW62278  10.421   5.500  11.409
54085SOL    HW162279  10.361   5.438  11.459
54085SOL    HW262280  10.452   5.456  11.324
54086SOL     OW62281   9.512   4.009  12.670
54086SOL    HW162282   9.432   4.069  12.657
54086SOL    HW262283   9.502   3.960  12.756
54087SOL     OW62284  10.942   5.101  11.253
54087SOL    HW162285  10.910   5.195  11.243
54087SOL    HW262286  10.866   5.038  11.241
54088SOL     OW62287   9.774   5.467  11.495
54088SOL    HW162288   9.807   5.506  11.581
54088SOL    HW262289   9.850   5.460  11.430
54089SOL     OW62290  10.710   3.831  11.598
54089SOL    HW162291  10.686   3.794  11.508
54089SOL    HW262292  10.809   3.847  11.602
54090SOL     OW62293   9.559   5.509  12.413
54090SOL    HW162294   9.616   5.444  12.463
54090SOL    HW262295   9.543   5.476  12.320
54091SOL     OW62296  10.250   5.422  12.076
54091SOL    HW162297  10.330   5.365  12.097
54091SOL    HW262298  10.201   5.382  11.999
54092SOL     OW62299   9.692   4.424  11.652
54092SOL    HW162300   9.737   4.334  11.649
54092SOL    HW262301   9.598   4.413  11.685
54093SOL     OW62302   9.924   3.846  11.289
54093SOL    HW162303  10.022   3.824  11.296
54093SOL    HW262304   9.893   3.829  11.196
54094SOL     OW62305  10.198   5.238  12.367
54094SOL    HW162306  10.175   5.213  12.273
54094SOL    HW262307  10.259   5.169  12.406
54095SOL     OW62308  10.661   4.314  12.605
54095SOL    HW162309  10.689   4.271  12.690
54095SOL    HW262310  10.686   4.410  12.606
54096SOL     OW62311  10.113   5.126  12.096
54096SOL    HW162312  10.203   5.140  12.054
54096SOL    HW262313  10.042   5.128  12.025
54097SOL     OW62314  10.232   4.227  12.071
54097SOL    HW162315  10.207   4.218  11.975
54097SOL    HW262316  10.280   4.145  12.102
54098SOL     OW62317   9.849   3.788  11.684
54098SOL    HW162318   9.768   3.789  11.742
54098SOL    HW262319   9.852   3.871  11.629
54099SOL     OW62320  10.744   4.912  11.213
54099SOL    HW162321  10.776   4.836  11.270
54099SOL    HW262322  10.652   4.939  11.243
54100SOL     OW62323   9.607   3.759  11.343
54100SOL    HW162324   9.656   3.843  11.322
54100SOL    HW262325   9.669   3.694  11.388
54101SOL     OW62326  10.245   3.960  11.652
54101SOL    HW162327  10.197   4.001  11.574
54101SOL    HW262328  10.344   3.958  11.633
54102SOL     OW62329  10.386   4.407  12.636
54102SOL    HW162330  10.306   4.346  12.639
54102SOL    HW262331  10.467   4.354  12.612
54103SOL     OW62332  10.537   5.294  11.965
54103SOL    HW162333  10.558   5.368  11.900
54103SOL    HW262334  10.605   5.294  12.038
54104SOL     OW62335   9.769   4.876  11.913
54104SOL    HW162336   9.698   4.849  11.978
54104SOL    HW262337   9.743   4.848  11.820
54105SOL     OW62338  10.581   5.521  11.763
54105SOL    HW162339  10.625   5.585  11.699
54105SOL    HW262340  10.531   5.573  11.833
54106SOL     OW62341  10.342   4.273  11.188
54106SOL    HW162342  10.301   4.355  11.149
54106SOL    HW262343  10.406   4.299  11.261
54107SOL     OW62344   9.388   4.280  12.558
54107SOL    HW162345   9.480   4.279  12.517
54107SOL    HW262346   9.382   4.354  12.625
54108SOL     OW62347   9.871   3.946  12.319
54108SOL    HW162348   9.909   3.862  12.356
54108SOL    HW262349   9.783   3.965  12.363
54109SOL     OW62350  10.176   4.178  11.814
54109SOL    HW162351  10.144   4.250  11.752
54109SOL    HW262352  10.200   4.097  11.761
54110SOL     OW62353  10.327   3.763  11.925
54110SOL    HW162354  10.255   3.768  11.856
54110SOL    HW262355  10.303   3.694  11.994
54111SOL     OW62356  10.739   4.897  12.039
54111SOL    HW162357  10.684   4.813  12.032
54111SOL    HW262358  10.765   4.926  11.947
54112SOL     OW62359  10.776   4.314  12.164
54112SOL    HW162360  10.746   4.219  12.171
54112SOL    HW262361  10.849   4.330  12.230
54113SOL     OW62362  11.167   4.557  11.549
54113SOL    HW162363  11.209   4.493  11.613
54113SOL    HW262364  11.129   4.506  11.471
54114SOL     OW62365   9.798   5.109  11.346
54114SOL    HW162366   9.711   5.094  11.393
54114SOL    HW262367   9.781   5.135  11.251
54115SOL     OW62368  10.974   5.004  11.829
54115SOL    HW162369  11.073   5.012  11.843
54115SOL    HW262370  10.929   5.088  11.860
54116SOL     OW62371  10.700   4.299  11.250
54116SOL    HW162372  10.646   4.278  11.331
54116SOL    HW262373  10.791   4.258  11.259
54117SOL     OW62374   9.837   3.980  11.500
54117SOL    HW162375   9.864   3.921  11.425
54117SOL    HW262376   9.837   4.075  11.469
54118SOL     OW62377  11.064   4.947  12.760
54118SOL    HW162378  11.155   4.908  12.747
54118SOL    HW262379  11.072   5.043  12.784
54119SOL     OW62380  10.374   5.071  12.512
54119SOL    HW162381  10.294   5.048  12.567
54119SOL    HW262382  10.457   5.045  12.561
54120SOL     OW62383  10.421   4.919  12.272
54120SOL    HW162384  10.381   4.963  12.353
54120SOL    HW262385  10.380   4.956  12.189
54121SOL     OW62386  10.948   4.823  12.251
54121SOL    HW162387  10.953   4.904  12.310
54121SOL    HW262388  10.862   4.825  12.200
54122SOL     OW62389  10.225   3.813  12.574
54122SOL    HW162390  10.250   3.793  12.479
54122SOL    HW262391  10.297   3.869  12.616
54123SOL     OW62392  10.015   4.774  11.540
54123SOL    HW162393  10.001   4.781  11.639
54123SOL    HW262394  10.099   4.723  11.522
54124SOL     OW62395   9.720   4.537  12.423
54124SOL    HW162396   9.806   4.549  12.473
54124SOL    HW262397   9.678   4.450  12.450
54125SOL     OW62398  10.584   4.110  12.434
54125SOL    HW162399  10.605   4.184  12.498
54125SOL    HW262400  10.495   4.127  12.391
54126SOL     OW62401   9.374   5.288  12.503
54126SOL    HW162402   9.328   5.370  12.469
54126SOL    HW262403   9.472   5.307  12.512
54127SOL     OW62404   9.677   4.824  11.673
54127SOL    HW162405   9.670   4.907  11.617
54127SOL    HW262406   9.681   4.744  11.613
54128SOL     OW62407   9.876   4.261  12.037
54128SOL    HW162408   9.888   4.327  11.963
54128SOL    HW262409   9.922   4.295  12.120
54129SOL     OW62410  10.562   5.072  11.560
54129SOL    HW162411  10.612   5.149  11.600
54129SOL    HW262412  10.467   5.074  11.592
54130SOL     OW62413  10.582   5.169  12.314
54130SOL    HW162414  10.629   5.182  12.401
54130SOL    HW262415  10.516   5.095  12.323
54131SOL     OW62416  10.892   4.363  11.644
54131SOL    HW162417  10.861   4.424  11.717
54131SOL    HW262418  10.942   4.415  11.575
54132SOL     OW62419   9.664   5.234  12.501
54132SOL    HW162420   9.643   5.190  12.414
54132SOL    HW262421   9.761   5.260  12.504
54133SOL     OW62422   9.712   4.475  12.770
54133SOL    HW162423   9.780   4.530  12.723
54133SOL    HW262424   9.752   4.387  12.797
54134SOL     OW62425  10.897   4.503  12.842
54134SOL    HW162426  10.805   4.541  12.837
54134SOL    HW262427  10.957   4.550  12.777
54135SOL     OW62428   9.883   4.594  12.201
54135SOL    HW162429   9.927   4.683  12.192
54135SOL    HW262430   9.820   4.594  12.278
54136SOL     OW62431  10.670   4.586  12.217
54136SOL    HW162432  10.595   4.586  12.151
54136SOL    HW262433  10.707   4.494  12.226
54137SOL     OW62434  10.519   4.249  11.447
54137SOL    HW162435  10.532   4.165  11.501
54137SOL    HW262436  10.490   4.323  11.507
54138SOL     OW62437   9.617   3.937  12.403
54138SOL    HW162438   9.594   3.974  12.493
54138SOL    HW262439   9.587   3.842  12.397
54139SOL     OW62440   9.347   5.034  12.454
54139SOL    HW162441   9.400   4.985  12.522
54139SOL    HW262442   9.369   5.132  12.459
54140SOL     OW62443  10.042   4.358  12.236
54140SOL    HW162444  10.101   4.332  12.160
54140SOL    HW262445  10.014   4.454  12.225
54141SOL     OW62446   9.617   3.787  11.790
54141SOL    HW162447   9.606   3.881  11.823
54141SOL    HW262448   9.612   3.724  11.867
54142SOL     OW62449  10.932   4.091  11.546
54142SOL    HW162450  10.934   4.015  11.610
54142SOL    HW262451  10.884   4.168  11.586
54143SOL     OW62452  10.333   4.490  12.138
54143SOL    HW162453  10.348   4.511  12.234
54143SOL    HW262454  10.303   4.395  12.129
54144SOL     OW62455  10.850   3.998  11.297
54144SOL    HW162456  10.789   3.923  11.320
54144SOL    HW262457  10.872   4.050  11.380
54145SOL     OW62458  10.613   4.562  11.214
54145SOL    HW162459  10.647   4.469  11.229
54145SOL    HW262460  10.631   4.589  11.119
54146SOL     OW62461  10.378   5.057  12.021
54146SOL    HW162462  10.385   4.973  11.966
54146SOL    HW262463  10.440   5.126  11.985
54147SOL     OW62464   9.629   4.534  12.121
54147SOL    HW162465   9.722   4.570  12.126
54147SOL    HW262466   9.623   4.449  12.173
54148SOL     OW62467   9.649   4.233  12.178
54148SOL    HW162468   9.597   4.150  12.161
54148SOL    HW262469   9.726   4.238  12.114
54149SOL     OW62470  10.470   3.931  12.649
54149SOL    HW162471  10.470   3.995  12.726
54149SOL    HW262472  10.498   3.979  12.566
54150SOL     OW62473   9.318   5.050  11.372
54150SOL    HW162474   9.225   5.071  11.341
54150SOL    HW262475   9.328   4.951  11.385
54151SOL     OW62476   9.398   5.525  12.099
54151SOL    HW162477   9.356   5.439  12.072
54151SOL    HW262478   9.492   5.528  12.065
54152SOL     OW62479   9.814   5.292  12.082
54152SOL    HW162480   9.880   5.366  12.091
54152SOL    HW262481   9.858   5.213  12.040
54153SOL     OW62482  10.312   4.520  12.410
54153SOL    HW162483  10.353   4.488  12.496
54153SOL    HW262484  10.216   4.493  12.407
54154SOL     OW62485   9.350   4.268  12.286
54154SOL    HW162486   9.435   4.235  12.245
54154SOL    HW262487   9.363   4.283  12.384
54155SOL     OW62488  10.125   4.296  11.497
54155SOL    HW162489  10.132   4.207  11.451
54155SOL    HW262490  10.031   4.330  11.489
54156SOL     OW62491  10.967   4.328  12.378
54156SOL    HW162492  10.929   4.259  12.440
54156SOL    HW262493  11.049   4.292  12.334
54157SOL     OW62494   9.562   5.288  12.916
54157SOL    HW162495   9.532   5.345  12.992
54157SOL    HW262496   9.555   5.191  12.942
54158SOL     OW62497   9.981   4.188  12.441
54158SOL    HW162498   9.947   4.099  12.411
54158SOL    HW262499  10.007   4.242  12.361
54159SOL     OW62500  10.240   5.402  12.637
54159SOL    HW162501  10.216   5.384  12.542
54159SOL    HW262502  10.270   5.496  12.647
54160SOL     OW62503   9.783   4.224  11.363
54160SOL    HW162504   9.844   4.304  11.367
54160SOL    HW262505   9.688   4.255  11.370
54161SOL     OW62506   9.469   4.861  12.638
54161SOL    HW162507   9.491   4.800  12.714
54161SOL    HW262508   9.479   4.812  12.552
54162SOL     OW62509  10.657   4.783  12.406
54162SOL    HW162510  10.681   4.720  12.332
54162SOL    HW262511  10.567   4.823  12.388
54163SOL     OW62512  10.612   4.579  11.481
54163SOL    HW162513  10.526   4.548  11.523
54163SOL    HW262514  10.608   4.565  11.382
54164SOL     OW62515  11.069   5.471  12.326
54164SOL    HW162516  11.130   5.501  12.253
54164SOL    HW262517  11.031   5.382  12.304
54165SOL     OW62518  10.562   5.455  12.300
54165SOL    HW162519  10.646   5.460  12.246
54165SOL    HW262520  10.539   5.359  12.318
54166SOL     OW62521   9.393   4.982  12.194
54166SOL    HW162522   9.388   4.981  12.294
54166SOL    HW262523   9.310   4.941  12.156
54167SOL     OW62524  11.036   3.859  11.695
54167SOL    HW162525  11.109   3.842  11.628
54167SOL    HW262526  11.005   3.772  11.733
54168SOL     OW62527  10.698   5.297  11.649
54168SOL    HW162528  10.765   5.309  11.575
54168SOL    HW262529  10.658   5.386  11.672
54169SOL     OW62530  10.590   4.651  11.844
54169SOL    HW162531  10.650   4.570  11.846
54169SOL    HW262532  10.630   4.720  11.784
54170SOL     OW62533  10.140   4.997  12.594
54170SOL    HW162534  10.135   5.030  12.689
54170SOL    HW262535  10.054   5.016  12.548
54171SOL     OW62536   9.982   5.340  11.326
54171SOL    HW162537   9.991   5.350  11.227
54171SOL    HW262538   9.942   5.251  11.347
54172SOL     OW62539  10.960   5.444  12.566
54172SOL    HW162540  11.013   5.454  12.482
54172SOL    HW262541  10.933   5.534  12.600
54173SOL     OW62542  11.151   3.899  12.135
54173SOL    HW162543  11.190   3.814  12.099
54173SOL    HW262544  11.053   3.901  12.116
54174SOL     OW62545   9.573   4.050  11.892
54174SOL    HW162546   9.494   4.101  11.858
54174SOL    HW262547   9.564   4.035  11.990
54175SOL     OW62548  10.504   5.336  11.203
54175SOL    HW162549  10.510   5.243  11.240
54175SOL    HW262550  10.445   5.336  11.123
54176SOL     OW62551  10.132   4.726  12.544
54176SOL    HW162552  10.172   4.725  12.452
54176SOL    HW262553  10.142   4.818  12.584
54177SOL     OW62554  10.226   4.634  11.463
54177SOL    HW162555  10.289   4.672  11.395
54177SOL    HW262556  10.266   4.551  11.502
54178SOL     OW62557  10.814   5.331  11.216
54178SOL    HW162558  10.722   5.368  11.223
54178SOL    HW262559  10.852   5.351  11.126
54179SOL     OW62560   9.682   5.012  12.662
54179SOL    HW162561   9.669   5.105  12.628
54179SOL    HW262562   9.598   4.960  12.649
54180SOL     OW62563  10.924   5.016  12.461
54180SOL    HW162564  10.984   5.019  12.541
54180SOL    HW262565  10.849   5.080  12.474
54181SOL     OW62566  10.349   4.822  11.868
54181SOL    HW162567  10.279   4.775  11.922
54181SOL    HW262568  10.408   4.754  11.825
54182SOL     OW62569  10.324   3.960  12.143
54182SOL    HW162570  10.316   3.924  12.050
54182SOL    HW262571  10.322   3.884  12.208
54183SOL     OW62572   9.900   5.211  11.663
54183SOL    HW162573   9.942   5.153  11.593
54183SOL    HW262574   9.856   5.290  11.619
54184SOL     OW62575  11.019   4.109  12.553
54184SOL    HW162576  11.092   4.178  12.557
54184SOL    HW262577  11.047   4.034  12.494
54185SOL     OW62578   9.565   5.072  11.462
54185SOL    HW162579   9.469   5.073  11.435
54185SOL    HW262580   9.577   5.125  11.546
54186SOL     OW62581   9.415   4.737  12.898
54186SOL    HW162582   9.338   4.704  12.952
54186SOL    HW262583   9.500   4.707  12.940
54187SOL     OW62584   9.982   3.927  12.661
54187SOL    HW162585  10.072   3.911  12.621
54187SOL    HW262586   9.990   3.932  12.760
54188SOL     OW62587   9.385   4.069  11.205
54188SOL    HW162588   9.293   4.041  11.176
54188SOL    HW262589   9.416   4.146  11.149
54189SOL     OW62590  10.750   4.580  12.570
54189SOL    HW162591  10.693   4.632  12.507
54189SOL    HW262592  10.846   4.592  12.546
54190SOL     OW62593   9.382   3.890  11.490
54190SOL    HW162594   9.365   3.973  11.436
54190SOL    HW262595   9.472   3.853  11.468
54191SOL     OW62596  10.493   5.059  11.291
54191SOL    HW162597  10.394   5.048  11.293
54191SOL    HW262598  10.527   5.074  11.384
54192SOL     OW62599   9.923   4.566  12.603
54192SOL    HW162600   9.979   4.647  12.586
54192SOL    HW262601   9.982   4.486  12.606
54193SOL     OW62602  10.803   5.491  12.131
54193SOL    HW162603  10.836   5.555  12.062
54193SOL    HW262604  10.869   5.485  12.206
54194SOL     OW62605  10.026   4.289  12.880
54194SOL    HW162606  10.045   4.354  12.954
54194SOL    HW262607  10.086   4.209  12.889
54195SOL     OW62608   9.700   5.465  12.732
54195SOL    HW162609   9.609   5.506  12.730
54195SOL    HW262610   9.693   5.371  12.764
54196SOL     OW62611  10.984   4.607  12.426
54196SOL    HW162612  10.957   4.518  12.389
54196SOL    HW262613  10.985   4.675  12.353
54197SOL     OW62614  10.535   4.049  11.621
54197SOL    HW162615  10.600   3.975  11.610
54197SOL    HW262616  10.555   4.099  11.705
54198SOL     OW62617   9.904   4.469  11.824
54198SOL    HW162618   9.954   4.554  11.805
54198SOL    HW262619   9.816   4.471  11.776
54199SOL     OW62620  11.087   4.066  12.814
54199SOL    HW162621  11.070   4.097  12.720
54199SOL    HW262622  11.003   4.029  12.852
54200SOL     OW62623  11.040   4.658  12.689
54200SOL    HW162624  11.078   4.749  12.704
54200SOL    HW262625  11.032   4.641  12.590
54201SOL     OW62626  10.169   5.098  11.188
54201SOL    HW162627  10.123   5.113  11.276
54201SOL    HW262628  10.213   5.183  11.158
54202SOL     OW62629   9.971   5.514  12.125
54202SOL    HW162630   9.925   5.602  12.112
54202SOL    HW262631  10.070   5.526  12.118
54203SOL     OW62632  10.169   4.680  12.033
54203SOL    HW162633  10.223   4.611  12.081
54203SOL    HW262634  10.137   4.749  12.099
54204SOL     OW62635  10.393   4.708  11.259
54204SOL    HW162636  10.370   4.761  11.177
54204SOL    HW262637  10.474   4.652  11.240
54205SOL     OW62638  11.171   5.293  12.023
54205SOL    HW162639  11.100   5.281  11.953
54205SOL    HW262640  11.172   5.214  12.083
54206SOL     OW62641   9.389   4.964  11.825
54206SOL    HW162642   9.388   4.917  11.913
54206SOL    HW262643   9.471   4.936  11.774
54207SOL     OW62644   9.982   5.115  12.796
54207SOL    HW162645   9.904   5.065  12.834
54207SOL    HW262646   9.979   5.210  12.827
54208SOL     OW62647  11.134   3.916  12.399
54208SOL    HW162648  11.130   3.826  12.443
54208SOL    HW262649  11.137   3.905  12.300
54209SOL     OW62650   9.738   4.148  11.692
54209SOL    HW162651   9.768   4.076  11.630
54209SOL    HW262652   9.699   4.108  11.775
54210SOL     OW62653  11.015   5.211  12.276
54210SOL    HW162654  10.922   5.186  12.249
54210SOL    HW262655  11.041   5.161  12.358
54211SOL     OW62656   9.627   4.271  12.452
54211SOL    HW162657   9.665   4.212  12.524
54211SOL    HW262658   9.667   4.245  12.364
54212SOL     OW62659  10.122   5.310  11.859
54212SOL    HW162660  10.154   5.320  11.765
54212SOL    HW262661  10.043   5.248  11.861
54213SOL     OW62662  10.734   3.938  12.284
54213SOL    HW162663  10.786   3.873  12.339
54213SOL    HW262664  10.685   4.001  12.345
54214SOL     OW62665  10.311   3.758  12.326
54214SOL    HW162666  10.248   3.686  12.295
54214SOL    HW262667  10.404   3.722  12.326
54215SOL     OW62668  10.080   5.054  11.473
54215SOL    HW162669  10.034   4.967  11.490
54215SOL    HW262670  10.171   5.051  11.514
54216SOL     OW62671   9.928   5.291  12.456
54216SOL    HW162672   9.923   5.373  12.513
54216SOL    HW262673  10.017   5.288  12.411
54217SOL     OW62674  10.662   3.776  11.340
54217SOL    HW162675  10.697   3.735  11.256
54217SOL    HW262676  10.572   3.738  11.360
54218SOL     OW62677  10.610   4.177  11.863
54218SOL    HW162678  10.551   4.257  11.867
54218SOL    HW262679  10.625   4.142  11.956
54219SOL     OW62680  10.903   3.945  12.054
54219SOL    HW162681  10.819   3.944  12.108
54219SOL    HW262682  10.905   4.028  11.998
54220SOL     OW62683   9.349   4.801  11.472
54220SOL    HW162684   9.448   4.790  11.463
54220SOL    HW262685   9.309   4.715  11.504
54221SOL     OW62686  10.185   5.370  11.509
54221SOL    HW162687  10.108   5.335  11.455
54221SOL    HW262688  10.153   5.441  11.571
54222SOL     OW62689   9.540   6.214   0.113
54222SOL    HW162690   9.447   6.212   0.150
54222SOL    HW262691   9.541   6.175   0.021
54223SOL     OW62692   9.535   5.861   0.996
54223SOL    HW162693   9.570   5.844   1.088
54223SOL    HW262694   9.447   5.816   0.984
54224SOL     OW62695   9.329   5.954   0.647
54224SOL    HW162696   9.247   5.997   0.686
54224SOL    HW262697   9.301   5.881   0.584
54225SOL     OW62698   9.879   6.861   1.165
54225SOL    HW162699   9.786   6.854   1.128
54225SOL    HW262700   9.890   6.950   1.209
54226SOL     OW62701  10.865   7.097   0.703
54226SOL    HW162702  10.808   7.081   0.784
54226SOL    HW262703  10.806   7.107   0.623
54227SOL     OW62704  10.445   6.289   0.717
54227SOL    HW162705  10.502   6.367   0.692
54227SOL    HW262706  10.385   6.315   0.793
54228SOL     OW62707  11.065   6.193   0.231
54228SOL    HW162708  11.053   6.180   0.132
54228SOL    HW262709  11.035   6.112   0.280
54229SOL     OW62710  10.078   6.730   1.023
54229SOL    HW162711  10.000   6.747   1.083
54229SOL    HW262712  10.112   6.817   0.987
54230SOL     OW62713  10.160   6.384   1.823
54230SOL    HW162714  10.156   6.460   1.888
54230SOL    HW262715  10.182   6.420   1.732
54231SOL     OW62716   9.995   6.598   0.665
54231SOL    HW162717  10.064   6.582   0.735
54231SOL    HW262718   9.922   6.655   0.703
54232SOL     OW62719   9.996   6.747   1.803
54232SOL    HW162720  10.056   6.826   1.817
54232SOL    HW262721   9.910   6.778   1.762
54233SOL     OW62722   9.645   7.021   1.061
54233SOL    HW162723   9.567   6.990   1.008
54233SOL    HW262724   9.703   7.079   1.004
54234SOL     OW62725  10.770   7.091   1.339
54234SOL    HW162726  10.794   7.185   1.365
54234SOL    HW262727  10.754   7.037   1.421
54235SOL     OW62728   9.748   5.978   1.499
54235SOL    HW162729   9.830   5.922   1.508
54235SOL    HW262730   9.667   5.920   1.503
54236SOL     OW62731  10.913   6.033   0.737
54236SOL    HW162732  10.839   6.079   0.687
54236SOL    HW262733  10.964   6.101   0.790
54237SOL     OW62734   9.541   7.299   0.483
54237SOL    HW162735   9.575   7.376   0.537
54237SOL    HW262736   9.585   7.299   0.393
54238SOL     OW62737  10.437   6.927   1.690
54238SOL    HW162738  10.484   6.927   1.778
54238SOL    HW262739  10.389   6.840   1.679
54239SOL     OW62740   9.540   7.020   0.538
54239SOL    HW162741   9.514   7.116   0.538
54239SOL    HW262742   9.469   6.966   0.583
54240SOL     OW62743   9.550   6.677   0.886
54240SOL    HW162744   9.564   6.593   0.938
54240SOL    HW262745   9.495   6.741   0.941
54241SOL     OW62746   9.930   7.372   1.439
54241SOL    HW162747   9.838   7.355   1.474
54241SOL    HW262748   9.958   7.464   1.465
54242SOL     OW62749   9.916   6.550   0.123
54242SOL    HW162750   9.923   6.634   0.069
54242SOL    HW262751   9.962   6.563   0.211
54243SOL     OW62752  10.904   5.700   1.480
54243SOL    HW162753  10.886   5.767   1.408
54243SOL    HW262754  10.901   5.746   1.569
54244SOL     OW62755   9.432   6.229   0.563
54244SOL    HW162756   9.387   6.141   0.580
54244SOL    HW262757   9.431   6.283   0.647
54245SOL     OW62758  11.152   7.353   0.359
54245SOL    HW162759  11.206   7.324   0.439
54245SOL    HW262760  11.182   7.443   0.330
54246SOL     OW62761   9.337   7.182   0.117
54246SOL    HW162762   9.318   7.086   0.138
54246SOL    HW262763   9.304   7.240   0.192
54247SOL     OW62764  10.999   6.508   0.612
54247SOL    HW162765  11.094   6.479   0.620
54247SOL    HW262766  10.991   6.573   0.537
54248SOL     OW62767  10.951   6.694   0.432
54248SOL    HW162768  11.037   6.696   0.380
54248SOL    HW262769  10.965   6.741   0.520
54249SOL     OW62770   9.423   6.323   1.597
54249SOL    HW162771   9.511   6.310   1.642
54249SOL    HW262772   9.410   6.420   1.575
54250SOL     OW62773   9.923   6.951   0.726
54250SOL    HW162774   9.874   6.864   0.735
54250SOL    HW262775   9.900   6.994   0.639
54251SOL     OW62776  10.603   6.814   1.423
54251SOL    HW162777  10.640   6.741   1.365
54251SOL    HW262778  10.655   6.819   1.508
54252SOL     OW62779  10.119   5.590   0.502
54252SOL    HW162780  10.159   5.681   0.493
54252SOL    HW262781  10.019   5.598   0.508
54253SOL     OW62782   9.507   6.562   1.264
54253SOL    HW162783   9.596   6.517   1.250
54253SOL    HW262784   9.434   6.497   1.245
54254SOL     OW62785  10.835   6.585   0.190
54254SOL    HW162786  10.772   6.509   0.203
54254SOL    HW262787  10.883   6.603   0.276
54255SOL     OW62788  10.497   7.378   1.616
54255SOL    HW162789  10.521   7.438   1.540
54255SOL    HW262790  10.504   7.283   1.586
54256SOL     OW62791   9.627   5.837   1.801
54256SOL    HW162792   9.698   5.908   1.807
54256SOL    HW262793   9.539   5.876   1.829
54257SOL     OW62794  10.776   7.003   0.953
54257SOL    HW162795  10.717   7.009   1.033
54257SOL    HW262796  10.761   6.915   0.907
54258SOL     OW62797  10.977   7.300   0.572
54258SOL    HW162798  10.936   7.277   0.484
54258SOL    HW262799  10.959   7.226   0.637
54259SOL     OW62800   9.908   6.315   0.270
54259SOL    HW162801   9.932   6.384   0.202
54259SOL    HW262802   9.830   6.348   0.324
54260SOL     OW62803  10.591   5.931   0.944
54260SOL    HW162804  10.505   5.881   0.931
54260SOL    HW262805  10.653   5.877   1.000
54261SOL     OW62806  10.886   7.248   0.307
54261SOL    HW162807  10.975   7.294   0.310
54261SOL    HW262808  10.865   7.224   0.212
54262SOL     OW62809  10.117   6.191   1.465
54262SOL    HW162810  10.070   6.188   1.554
54262SOL    HW262811  10.066   6.136   1.399
54263SOL     OW62812  10.704   6.055   1.674
54263SOL    HW162813  10.684   6.098   1.762
54263SOL    HW262814  10.782   5.993   1.683
54264SOL     OW62815  10.283   6.476   1.572
54264SOL    HW162816  10.329   6.392   1.543
54264SOL    HW262817  10.227   6.510   1.497
54265SOL     OW62818  10.301   5.996   1.242
54265SOL    HW162819  10.224   6.030   1.296
54265SOL    HW262820  10.267   5.945   1.163
54266SOL     OW62821  10.351   6.287   0.429
54266SOL    HW162822  10.377   6.283   0.525
54266SOL    HW262823  10.266   6.236   0.415
54267SOL     OW62824   9.386   6.397   0.789
54267SOL    HW162825   9.485   6.385   0.798
54267SOL    HW262826   9.362   6.492   0.810
54268SOL     OW62827   9.440   7.407   1.571
54268SOL    HW162828   9.430   7.392   1.670
54268SOL    HW262829   9.354   7.443   1.535
54269SOL     OW62830  10.175   5.934   0.195
54269SOL    HW162831  10.234   5.997   0.146
54269SOL    HW262832  10.194   5.840   0.166
54270SOL     OW62833  11.029   6.171   1.831
54270SOL    HW162834  11.003   6.260   1.795
54270SOL    HW262835  11.027   6.103   1.758
54271SOL     OW62836  10.672   6.730   0.545
54271SOL    HW162837  10.755   6.701   0.497
54271SOL    HW262838  10.623   6.797   0.489
54272SOL     OW62839   9.860   5.782   0.885
54272SOL    HW162840   9.855   5.777   0.985
54272SOL    HW262841   9.862   5.878   0.856
54273SOL     OW62842  10.318   7.042   0.477
54273SOL    HW162843  10.272   7.114   0.425
54273SOL    HW262844  10.314   7.062   0.575
54274SOL     OW62845   9.661   7.387   0.853
54274SOL    HW162846   9.711   7.301   0.859
54274SOL    HW262847   9.726   7.464   0.850
54275SOL     OW62848  11.105   6.652   0.873
54275SOL    HW162849  11.043   6.637   0.797
54275SOL    HW262850  11.053   6.663   0.958
54276SOL     OW62851  10.537   7.136   1.506
54276SOL    HW162852  10.543   7.059   1.570
54276SOL    HW262853  10.485   7.110   1.426
54277SOL     OW62854   9.631   6.529   0.242
54277SOL    HW162855   9.713   6.568   0.200
54277SOL    HW262856   9.604   6.447   0.193
54278SOL     OW62857  10.768   6.321   0.728
54278SOL    HW162858  10.763   6.256   0.803
54278SOL    HW262859  10.848   6.380   0.741
54279SOL     OW62860   9.771   6.852   1.727
54279SOL    HW162861   9.721   6.853   1.641
54279SOL    HW262862   9.708   6.834   1.803
54280SOL     OW62863  10.421   7.362   0.237
54280SOL    HW162864  10.361   7.300   0.287
54280SOL    HW262865  10.452   7.318   0.152
54281SOL     OW62866   9.512   5.871   1.498
54281SOL    HW162867   9.432   5.931   1.485
54281SOL    HW262868   9.502   5.822   1.584
54282SOL     OW62869  10.942   6.963   0.081
54282SOL    HW162870  10.910   7.057   0.071
54282SOL    HW262871  10.866   6.900   0.069
54283SOL     OW62872   9.774   7.329   0.323
54283SOL    HW162873   9.807   7.368   0.409
54283SOL    HW262874   9.850   7.322   0.258
54284SOL     OW62875  10.710   5.693   0.426
54284SOL    HW162876  10.686   5.656   0.336
54284SOL    HW262877  10.809   5.709   0.430
54285SOL     OW62878   9.559   7.371   1.241
54285SOL    HW162879   9.616   7.306   1.291
54285SOL    HW262880   9.543   7.338   1.148
54286SOL     OW62881  10.250   7.284   0.904
54286SOL    HW162882  10.330   7.227   0.925
54286SOL    HW262883  10.201   7.244   0.827
54287SOL     OW62884   9.692   6.286   0.480
54287SOL    HW162885   9.737   6.196   0.477
54287SOL    HW262886   9.598   6.275   0.513
54288SOL     OW62887  10.857   5.808   1.729
54288SOL    HW162888  10.852   5.845   1.821
54288SOL    HW262889  10.785   5.739   1.717
54289SOL     OW62890   9.924   5.708   0.117
54289SOL    HW162891  10.022   5.686   0.124
54289SOL    HW262892   9.893   5.691   0.024
54290SOL     OW62893  10.091   5.850   1.749
54290SOL    HW162894  10.158   5.789   1.792
54290SOL    HW262895  10.018   5.869   1.814
54291SOL     OW62896  10.198   7.100   1.195
54291SOL    HW162897  10.175   7.075   1.101
54291SOL    HW262898  10.259   7.031   1.234
54292SOL     OW62899  10.661   6.176   1.433
54292SOL    HW162900  10.689   6.133   1.518
54292SOL    HW262901  10.686   6.272   1.434
54293SOL     OW62902  10.113   6.988   0.924
54293SOL    HW162903  10.203   7.002   0.882
54293SOL    HW262904  10.042   6.990   0.853
54294SOL     OW62905  10.232   6.089   0.899
54294SOL    HW162906  10.207   6.080   0.803
54294SOL    HW262907  10.280   6.007   0.930
54295SOL     OW62908   9.849   5.650   0.512
54295SOL    HW162909   9.768   5.651   0.570
54295SOL    HW262910   9.852   5.733   0.457
54296SOL     OW62911  10.744   6.774   0.041
54296SOL    HW162912  10.776   6.698   0.098
54296SOL    HW262913  10.652   6.801   0.071
54297SOL     OW62914   9.607   5.621   0.171
54297SOL    HW162915   9.656   5.705   0.150
54297SOL    HW262916   9.669   5.556   0.216
54298SOL     OW62917  10.245   5.822   0.480
54298SOL    HW162918  10.197   5.863   0.402
54298SOL    HW262919  10.344   5.820   0.461
54299SOL     OW62920  10.386   6.269   1.464
54299SOL    HW162921  10.306   6.208   1.467
54299SOL    HW262922  10.467   6.216   1.440
54300SOL     OW62923  10.537   7.156   0.793
54300SOL    HW162924  10.558   7.230   0.728
54300SOL    HW262925  10.605   7.156   0.866
54301SOL     OW62926   9.769   6.738   0.741
54301SOL    HW162927   9.698   6.711   0.806
54301SOL    HW262928   9.743   6.710   0.648
54302SOL     OW62929  10.581   7.383   0.591
54302SOL    HW162930  10.625   7.447   0.527
54302SOL    HW262931  10.531   7.435   0.661
54303SOL     OW62932  10.342   6.135   0.016
54303SOL    HW162933  10.301   6.217  -0.023
54303SOL    HW262934  10.406   6.161   0.089
54304SOL     OW62935   9.388   6.142   1.386
54304SOL    HW162936   9.480   6.141   1.345
54304SOL    HW262937   9.382   6.216   1.453
54305SOL     OW62938   9.871   5.808   1.147
54305SOL    HW162939   9.909   5.724   1.184
54305SOL    HW262940   9.783   5.827   1.191
54306SOL     OW62941  10.176   6.040   0.642
54306SOL    HW162942  10.144   6.112   0.580
54306SOL    HW262943  10.200   5.959   0.589
54307SOL     OW62944  10.327   5.625   0.753
54307SOL    HW162945  10.255   5.630   0.684
54307SOL    HW262946  10.303   5.556   0.822
54308SOL     OW62947  10.739   6.759   0.867
54308SOL    HW162948  10.684   6.675   0.860
54308SOL    HW262949  10.765   6.788   0.775
54309SOL     OW62950  10.776   6.176   0.992
54309SOL    HW162951  10.746   6.081   0.999
54309SOL    HW262952  10.849   6.192   1.058
54310SOL     OW62953  11.167   6.419   0.377
54310SOL    HW162954  11.209   6.355   0.441
54310SOL    HW262955  11.129   6.368   0.299
54311SOL     OW62956   9.798   6.971   0.174
54311SOL    HW162957   9.711   6.956   0.221
54311SOL    HW262958   9.781   6.997   0.079
54312SOL     OW62959  10.974   6.866   0.657
54312SOL    HW162960  11.073   6.874   0.671
54312SOL    HW262961  10.929   6.950   0.688
54313SOL     OW62962  10.700   6.161   0.078
54313SOL    HW162963  10.646   6.140   0.159
54313SOL    HW262964  10.791   6.120   0.087
54314SOL     OW62965   9.837   5.842   0.328
54314SOL    HW162966   9.864   5.783   0.253
54314SOL    HW262967   9.837   5.937   0.297
54315SOL     OW62968  11.064   6.809   1.588
54315SOL    HW162969  11.155   6.770   1.575
54315SOL    HW262970  11.072   6.905   1.612
54316SOL     OW62971  10.374   6.933   1.340
54316SOL    HW162972  10.294   6.910   1.395
54316SOL    HW262973  10.457   6.907   1.389
54317SOL     OW62974  10.902   7.215   1.625
54317SOL    HW162975  10.929   7.249   1.535
54317SOL    HW262976  10.981   7.177   1.671
54318SOL     OW62977  10.421   6.781   1.100
54318SOL    HW162978  10.381   6.825   1.181
54318SOL    HW262979  10.380   6.818   1.017
54319SOL     OW62980  10.948   6.685   1.079
54319SOL    HW162981  10.953   6.766   1.138
54319SOL    HW262982  10.862   6.687   1.028
54320SOL     OW62983  10.225   5.675   1.402
54320SOL    HW162984  10.250   5.655   1.307
54320SOL    HW262985  10.297   5.731   1.444
54321SOL     OW62986  10.290   6.702   1.719
54321SOL    HW162987  10.191   6.708   1.729
54321SOL    HW262988  10.313   6.622   1.663
54322SOL     OW62989  10.015   6.636   0.368
54322SOL    HW162990  10.001   6.643   0.467
54322SOL    HW262991  10.099   6.585   0.350
54323SOL     OW62992   9.720   6.399   1.251
54323SOL    HW162993   9.806   6.411   1.301
54323SOL    HW262994   9.678   6.312   1.278
54324SOL     OW62995  10.584   5.972   1.262
54324SOL    HW162996  10.605   6.046   1.326
54324SOL    HW262997  10.495   5.989   1.219
54325SOL     OW62998   9.374   7.150   1.331
54325SOL    HW162999   9.328   7.232   1.297
54325SOL    HW263000   9.472   7.169   1.340
54326SOL     OW63001   9.677   6.686   0.501
54326SOL    HW163002   9.670   6.769   0.445
54326SOL    HW263003   9.681   6.606   0.441
54327SOL     OW63004   9.876   6.123   0.865
54327SOL    HW163005   9.888   6.189   0.791
54327SOL    HW263006   9.922   6.157   0.948
54328SOL     OW63007  10.562   6.934   0.388
54328SOL    HW163008  10.612   7.011   0.428
54328SOL    HW263009  10.467   6.936   0.420
54329SOL     OW63010  10.582   7.031   1.142
54329SOL    HW163011  10.629   7.044   1.229
54329SOL    HW263012  10.516   6.957   1.151
54330SOL     OW63013  10.892   6.225   0.472
54330SOL    HW163014  10.861   6.286   0.545
54330SOL    HW263015  10.942   6.277   0.403
54331SOL     OW63016   9.664   7.096   1.329
54331SOL    HW163017   9.643   7.052   1.242
54331SOL    HW263018   9.761   7.122   1.332
54332SOL     OW63019   9.712   6.337   1.598
54332SOL    HW163020   9.780   6.392   1.551
54332SOL    HW263021   9.752   6.249   1.625
54333SOL     OW63022  10.897   6.365   1.670
54333SOL    HW163023  10.805   6.403   1.665
54333SOL    HW263024  10.957   6.412   1.605
54334SOL     OW63025  10.323   5.691   1.770
54334SOL    HW163026  10.329   5.776   1.718
54334SOL    HW263027  10.355   5.615   1.713
54335SOL     OW63028   9.814   5.636   1.740
54335SOL    HW163029   9.772   5.579   1.670
54335SOL    HW263030   9.748   5.705   1.772
54336SOL     OW63031   9.883   6.456   1.029
54336SOL    HW163032   9.927   6.545   1.020
54336SOL    HW263033   9.820   6.456   1.106
54337SOL     OW63034  10.670   6.448   1.045
54337SOL    HW163035  10.595   6.448   0.979
54337SOL    HW263036  10.707   6.356   1.054
54338SOL     OW63037  10.519   6.111   0.275
54338SOL    HW163038  10.532   6.027   0.329
54338SOL    HW263039  10.490   6.185   0.335
54339SOL     OW63040   9.617   5.799   1.231
54339SOL    HW163041   9.594   5.836   1.321
54339SOL    HW263042   9.587   5.704   1.225
54340SOL     OW63043   9.347   6.896   1.282
54340SOL    HW163044   9.400   6.847   1.350
54340SOL    HW263045   9.369   6.994   1.287
54341SOL     OW63046  10.042   6.220   1.064
54341SOL    HW163047  10.101   6.194   0.988
54341SOL    HW263048  10.014   6.316   1.053
54342SOL     OW63049  11.038   6.521   1.854
54342SOL    HW163050  10.992   6.514   1.765
54342SOL    HW263051  10.976   6.565   1.920
54343SOL     OW63052   9.617   5.649   0.618
54343SOL    HW163053   9.606   5.743   0.651
54343SOL    HW263054   9.612   5.586   0.695
54344SOL     OW63055  10.932   5.953   0.374
54344SOL    HW163056  10.934   5.877   0.438
54344SOL    HW263057  10.884   6.030   0.414
54345SOL     OW63058  10.333   6.352   0.966
54345SOL    HW163059  10.348   6.373   1.062
54345SOL    HW263060  10.303   6.257   0.957
54346SOL     OW63061  10.290   7.159   1.700
54346SOL    HW163062  10.270   7.203   1.612
54346SOL    HW263063  10.329   7.068   1.684
54347SOL     OW63064   9.660   6.484   1.804
54347SOL    HW163065   9.736   6.528   1.852
54347SOL    HW263066   9.695   6.437   1.722
54348SOL     OW63067  10.850   5.860   0.125
54348SOL    HW163068  10.789   5.785   0.148
54348SOL    HW263069  10.872   5.912   0.208
54349SOL     OW63070  10.613   6.424   0.042
54349SOL    HW163071  10.647   6.331   0.057
54349SOL    HW263072  10.631   6.451  -0.053
54350SOL     OW63073  10.378   6.919   0.849
54350SOL    HW163074  10.385   6.835   0.794
54350SOL    HW263075  10.440   6.988   0.813
54351SOL     OW63076   9.629   6.396   0.949
54351SOL    HW163077   9.722   6.432   0.954
54351SOL    HW263078   9.623   6.311   1.001
54352SOL     OW63079   9.649   6.095   1.006
54352SOL    HW163080   9.597   6.012   0.989
54352SOL    HW263081   9.726   6.100   0.942
54353SOL     OW63082  10.448   5.966   1.678
54353SOL    HW163083  10.403   6.029   1.742
54353SOL    HW263084  10.541   5.997   1.661
54354SOL     OW63085  10.470   5.793   1.477
54354SOL    HW163086  10.470   5.857   1.554
54354SOL    HW263087  10.498   5.841   1.394
54355SOL     OW63088   9.318   6.912   0.200
54355SOL    HW163089   9.225   6.933   0.169
54355SOL    HW263090   9.328   6.813   0.213
54356SOL     OW63091   9.398   7.387   0.927
54356SOL    HW163092   9.356   7.301   0.900
54356SOL    HW263093   9.492   7.390   0.893
54357SOL     OW63094   9.814   7.154   0.910
54357SOL    HW163095   9.880   7.228   0.919
54357SOL    HW263096   9.858   7.075   0.868
54358SOL     OW63097  10.312   6.382   1.238
54358SOL    HW163098  10.353   6.350   1.324
54358SOL    HW263099  10.216   6.355   1.235
54359SOL     OW63100   9.350   6.130   1.114
54359SOL    HW163101   9.435   6.097   1.073
54359SOL    HW263102   9.363   6.145   1.212
54360SOL     OW63103  10.679   6.536   1.660
54360SOL    HW163104  10.718   6.625   1.680
54360SOL    HW263105  10.689   6.516   1.563
54361SOL     OW63106  10.125   6.158   0.325
54361SOL    HW163107  10.132   6.069   0.279
54361SOL    HW263108  10.031   6.192   0.317
54362SOL     OW63109  10.967   6.190   1.206
54362SOL    HW163110  10.929   6.121   1.268
54362SOL    HW263111  11.049   6.154   1.162
54363SOL     OW63112   9.562   7.150   1.744
54363SOL    HW163113   9.532   7.207   1.820
54363SOL    HW263114   9.555   7.053   1.770
54364SOL     OW63115   9.981   6.050   1.269
54364SOL    HW163116   9.947   5.961   1.239
54364SOL    HW263117  10.007   6.104   1.189
54365SOL     OW63118  10.240   7.264   1.465
54365SOL    HW163119  10.216   7.246   1.370
54365SOL    HW263120  10.270   7.358   1.475
54366SOL     OW63121   9.783   6.086   0.191
54366SOL    HW163122   9.844   6.166   0.195
54366SOL    HW263123   9.688   6.117   0.198
54367SOL     OW63124   9.469   6.723   1.466
54367SOL    HW163125   9.491   6.662   1.542
54367SOL    HW263126   9.479   6.674   1.380
54368SOL     OW63127  10.657   6.645   1.234
54368SOL    HW163128  10.681   6.582   1.160
54368SOL    HW263129  10.567   6.685   1.216
54369SOL     OW63130  10.612   6.441   0.309
54369SOL    HW163131  10.526   6.410   0.351
54369SOL    HW263132  10.608   6.427   0.210
54370SOL     OW63133  11.069   7.333   1.154
54370SOL    HW163134  11.130   7.363   1.081
54370SOL    HW263135  11.031   7.244   1.132
54371SOL     OW63136  10.562   7.317   1.128
54371SOL    HW163137  10.646   7.322   1.074
54371SOL    HW263138  10.539   7.221   1.146
54372SOL     OW63139   9.393   6.844   1.022
54372SOL    HW163140   9.388   6.843   1.122
54372SOL    HW263141   9.310   6.803   0.984
54373SOL     OW63142   9.998   7.248   1.716
54373SOL    HW163143   9.942   7.329   1.725
54373SOL    HW263144  10.050   7.252   1.630
54374SOL     OW63145  10.213   5.672   0.133
54374SOL    HW163146  10.264   5.673   0.047
54374SOL    HW263147  10.269   5.630   0.204
54375SOL     OW63148  11.036   5.721   0.523
54375SOL    HW163149  11.109   5.704   0.456
54375SOL    HW263150  11.005   5.634   0.561
54376SOL     OW63151  10.698   7.159   0.477
54376SOL    HW163152  10.765   7.171   0.403
54376SOL    HW263153  10.658   7.248   0.500
54377SOL     OW63154   9.440   7.380   1.851
54377SOL    HW163155   9.399   7.306   1.904
54377SOL    HW263156   9.504   7.431   1.909
54378SOL     OW63157  10.590   6.513   0.672
54378SOL    HW163158  10.650   6.432   0.674
54378SOL    HW263159  10.630   6.582   0.612
54379SOL     OW63160  10.140   6.859   1.422
54379SOL    HW163161  10.135   6.892   1.517
54379SOL    HW263162  10.054   6.878   1.376
54380SOL     OW63163   9.982   7.202   0.154
54380SOL    HW163164   9.991   7.212   0.055
54380SOL    HW263165   9.942   7.113   0.175
54381SOL     OW63166  10.960   7.306   1.394
54381SOL    HW163167  11.013   7.316   1.310
54381SOL    HW263168  10.933   7.396   1.428
54382SOL     OW63169  11.151   5.761   0.963
54382SOL    HW163170  11.190   5.676   0.927
54382SOL    HW263171  11.053   5.763   0.944
54383SOL     OW63172   9.573   5.912   0.720
54383SOL    HW163173   9.494   5.963   0.686
54383SOL    HW263174   9.564   5.897   0.818
54384SOL     OW63175  10.504   7.198   0.031
54384SOL    HW163176  10.510   7.105   0.068
54384SOL    HW263177  10.445   7.198  -0.049
54385SOL     OW63178  10.132   6.588   1.372
54385SOL    HW163179  10.172   6.587   1.280
54385SOL    HW263180  10.142   6.680   1.412
54386SOL     OW63181  10.226   6.496   0.291
54386SOL    HW163182  10.289   6.534   0.223
54386SOL    HW263183  10.266   6.413   0.330
54387SOL     OW63184  10.814   7.193   0.044
54387SOL    HW163185  10.722   7.230   0.051
54387SOL    HW263186  10.852   7.213  -0.046
54388SOL     OW63187   9.682   6.874   1.490
54388SOL    HW163188   9.669   6.967   1.456
54388SOL    HW263189   9.598   6.822   1.477
54389SOL     OW63190  10.924   6.878   1.289
54389SOL    HW163191  10.984   6.881   1.369
54389SOL    HW263192  10.849   6.942   1.302
54390SOL     OW63193  10.349   6.684   0.696
54390SOL    HW163194  10.279   6.637   0.750
54390SOL    HW263195  10.408   6.616   0.653
54391SOL     OW63196  10.324   5.822   0.971
54391SOL    HW163197  10.316   5.786   0.878
54391SOL    HW263198  10.322   5.746   1.036
54392SOL     OW63199   9.900   7.073   0.491
54392SOL    HW163200   9.942   7.015   0.421
54392SOL    HW263201   9.856   7.152   0.447
54393SOL     OW63202  11.019   5.971   1.381
54393SOL    HW163203  11.092   6.040   1.385
54393SOL    HW263204  11.047   5.896   1.322
54394SOL     OW63205   9.565   6.934   0.290
54394SOL    HW163206   9.469   6.935   0.263
54394SOL    HW263207   9.577   6.987   0.374
54395SOL     OW63208   9.415   6.599   1.726
54395SOL    HW163209   9.338   6.566   1.780
54395SOL    HW263210   9.500   6.569   1.768
54396SOL     OW63211   9.982   5.789   1.489
54396SOL    HW163212  10.072   5.773   1.449
54396SOL    HW263213   9.990   5.794   1.588
54397SOL     OW63214  10.750   6.442   1.398
54397SOL    HW163215  10.693   6.494   1.335
54397SOL    HW263216  10.846   6.454   1.374
54398SOL     OW63217   9.382   5.752   0.318
54398SOL    HW163218   9.365   5.835   0.264
54398SOL    HW263219   9.472   5.715   0.296
54399SOL     OW63220  10.493   6.921   0.119
54399SOL    HW163221  10.394   6.910   0.121
54399SOL    HW263222  10.527   6.936   0.212
54400SOL     OW63223   9.923   6.428   1.431
54400SOL    HW163224   9.979   6.509   1.414
54400SOL    HW263225   9.982   6.348   1.434
54401SOL     OW63226  10.803   7.353   0.959
54401SOL    HW163227  10.836   7.417   0.890
54401SOL    HW263228  10.869   7.347   1.034
54402SOL     OW63229  10.026   6.151   1.708
54402SOL    HW163230  10.045   6.216   1.782
54402SOL    HW263231  10.086   6.071   1.717
54403SOL     OW63232  10.760   6.806   1.633
54403SOL    HW163233  10.751   6.796   1.732
54403SOL    HW263234  10.856   6.799   1.607
54404SOL     OW63235   9.700   7.327   1.560
54404SOL    HW163236   9.609   7.368   1.558
54404SOL    HW263237   9.693   7.233   1.592
54405SOL     OW63238  10.984   6.469   1.254
54405SOL    HW163239  10.957   6.380   1.217
54405SOL    HW263240  10.985   6.537   1.181
54406SOL     OW63241  10.535   5.911   0.449
54406SOL    HW163242  10.600   5.837   0.438
54406SOL    HW263243  10.555   5.961   0.533
54407SOL     OW63244   9.904   6.331   0.652
54407SOL    HW163245   9.954   6.416   0.633
54407SOL    HW263246   9.816   6.333   0.604
54408SOL     OW63247  11.087   5.928   1.642
54408SOL    HW163248  11.070   5.959   1.548
54408SOL    HW263249  11.003   5.891   1.680
54409SOL     OW63250  11.040   6.520   1.517
54409SOL    HW163251  11.078   6.611   1.532
54409SOL    HW263252  11.032   6.503   1.418
54410SOL     OW63253  10.169   6.960   0.016
54410SOL    HW163254  10.123   6.975   0.104
54410SOL    HW263255  10.213   7.045  -0.014
54411SOL     OW63256   9.971   7.376   0.953
54411SOL    HW163257   9.925   7.464   0.940
54411SOL    HW263258  10.070   7.388   0.946
54412SOL     OW63259  10.169   6.542   0.861
54412SOL    HW163260  10.223   6.473   0.909
54412SOL    HW263261  10.137   6.611   0.927
54413SOL     OW63262  10.393   6.570   0.087
54413SOL    HW163263  10.370   6.623   0.005
54413SOL    HW263264  10.474   6.514   0.068
54414SOL     OW63265  11.171   7.155   0.851
54414SOL    HW163266  11.100   7.143   0.781
54414SOL    HW263267  11.172   7.076   0.911
54415SOL     OW63268   9.531   6.900   1.844
54415SOL    HW163269   9.466   6.827   1.823
54415SOL    HW263270   9.535   6.914   1.942
54416SOL     OW63271   9.389   6.826   0.653
54416SOL    HW163272   9.388   6.779   0.741
54416SOL    HW263273   9.471   6.798   0.602
54417SOL     OW63274   9.982   6.977   1.624
54417SOL    HW163275   9.904   6.927   1.662
54417SOL    HW263276   9.979   7.072   1.655
54418SOL     OW63277  11.134   5.778   1.227
54418SOL    HW163278  11.130   5.688   1.271
54418SOL    HW263279  11.137   5.767   1.128
54419SOL     OW63280   9.738   6.010   0.520
54419SOL    HW163281   9.768   5.938   0.458
54419SOL    HW263282   9.699   5.970   0.603
54420SOL     OW63283  11.015   7.073   1.104
54420SOL    HW163284  10.922   7.048   1.077
54420SOL    HW263285  11.041   7.023   1.186
54421SOL     OW63286   9.627   6.133   1.280
54421SOL    HW163287   9.665   6.074   1.352
54421SOL    HW263288   9.667   6.107   1.192
54422SOL     OW63289  10.122   7.172   0.687
54422SOL    HW163290  10.154   7.182   0.593
54422SOL    HW263291  10.043   7.110   0.689
54423SOL     OW63292  10.734   5.800   1.112
54423SOL    HW163293  10.786   5.735   1.167
54423SOL    HW263294  10.685   5.863   1.173
54424SOL     OW63295  10.311   5.620   1.154
54424SOL    HW163296  10.248   5.548   1.123
54424SOL    HW263297  10.404   5.584   1.154
54425SOL     OW63298  10.080   6.916   0.301
54425SOL    HW163299  10.034   6.829   0.318
54425SOL    HW263300  10.171   6.913   0.342
54426SOL     OW63301   9.928   7.153   1.284
54426SOL    HW163302   9.923   7.235   1.341
54426SOL    HW263303  10.017   7.150   1.239
54427SOL     OW63304  10.662   5.638   0.168
54427SOL    HW163305  10.697   5.597   0.084
54427SOL    HW263306  10.572   5.600   0.188
54428SOL     OW63307  10.610   6.039   0.691
54428SOL    HW163308  10.551   6.119   0.695
54428SOL    HW263309  10.625   6.004   0.784
54429SOL     OW63310  10.903   5.807   0.882
54429SOL    HW163311  10.819   5.806   0.936
54429SOL    HW263312  10.905   5.890   0.826
54430SOL     OW63313   9.349   6.663   0.300
54430SOL    HW163314   9.448   6.652   0.291
54430SOL    HW263315   9.309   6.577   0.332
54431SOL     OW63316  10.185   7.232   0.337
54431SOL    HW163317  10.108   7.197   0.283
54431SOL    HW263318  10.153   7.303   0.399
54432SOL     OW63319   9.540   6.214   1.975
54432SOL    HW163320   9.447   6.212   2.012
54432SOL    HW263321   9.541   6.175   1.883
54433SOL     OW63322   9.535   5.861   2.858
54433SOL    HW163323   9.570   5.844   2.950
54433SOL    HW263324   9.447   5.816   2.846
54434SOL     OW63325   9.329   5.954   2.509
54434SOL    HW163326   9.247   5.997   2.548
54434SOL    HW263327   9.301   5.881   2.446
54435SOL     OW63328   9.879   6.861   3.027
54435SOL    HW163329   9.786   6.854   2.990
54435SOL    HW263330   9.890   6.950   3.071
54436SOL     OW63331  10.865   7.097   2.565
54436SOL    HW163332  10.808   7.081   2.646
54436SOL    HW263333  10.806   7.107   2.485
54437SOL     OW63334  10.445   6.289   2.579
54437SOL    HW163335  10.502   6.367   2.554
54437SOL    HW263336  10.385   6.315   2.655
54438SOL     OW63337  11.065   6.193   2.093
54438SOL    HW163338  11.053   6.180   1.994
54438SOL    HW263339  11.035   6.112   2.142
54439SOL     OW63340  10.078   6.730   2.885
54439SOL    HW163341  10.000   6.747   2.945
54439SOL    HW263342  10.112   6.817   2.849
54440SOL     OW63343  10.160   6.384   3.685
54440SOL    HW163344  10.156   6.460   3.750
54440SOL    HW263345  10.182   6.420   3.594
54441SOL     OW63346   9.995   6.598   2.527
54441SOL    HW163347  10.064   6.582   2.597
54441SOL    HW263348   9.922   6.655   2.565
54442SOL     OW63349   9.996   6.747   3.665
54442SOL    HW163350  10.056   6.826   3.679
54442SOL    HW263351   9.910   6.778   3.624
54443SOL     OW63352   9.645   7.021   2.923
54443SOL    HW163353   9.567   6.990   2.870
54443SOL    HW263354   9.703   7.079   2.866
54444SOL     OW63355  10.770   7.091   3.201
54444SOL    HW163356  10.794   7.185   3.227
54444SOL    HW263357  10.754   7.037   3.283
54445SOL     OW63358   9.748   5.978   3.361
54445SOL    HW163359   9.830   5.922   3.370
54445SOL    HW263360   9.667   5.920   3.365
54446SOL     OW63361  10.913   6.033   2.599
54446SOL    HW163362  10.839   6.079   2.549
54446SOL    HW263363  10.964   6.101   2.652
54447SOL     OW63364   9.541   7.299   2.345
54447SOL    HW163365   9.575   7.376   2.399
54447SOL    HW263366   9.585   7.299   2.255
54448SOL     OW63367  10.437   6.927   3.552
54448SOL    HW163368  10.484   6.927   3.640
54448SOL    HW263369  10.389   6.840   3.541
54449SOL     OW63370   9.540   7.020   2.400
54449SOL    HW163371   9.514   7.116   2.400
54449SOL    HW263372   9.469   6.966   2.445
54450SOL     OW63373   9.550   6.677   2.748
54450SOL    HW163374   9.564   6.593   2.800
54450SOL    HW263375   9.495   6.741   2.803
54451SOL     OW63376   9.930   7.372   3.301
54451SOL    HW163377   9.838   7.355   3.336
54451SOL    HW263378   9.958   7.464   3.327
54452SOL     OW63379   9.916   6.550   1.985
54452SOL    HW163380   9.923   6.634   1.931
54452SOL    HW263381   9.962   6.563   2.073
54453SOL     OW63382  10.904   5.700   3.342
54453SOL    HW163383  10.886   5.767   3.270
54453SOL    HW263384  10.901   5.746   3.431
54454SOL     OW63385   9.432   6.229   2.425
54454SOL    HW163386   9.387   6.141   2.442
54454SOL    HW263387   9.431   6.283   2.509
54455SOL     OW63388  11.152   7.353   2.221
54455SOL    HW163389  11.206   7.324   2.301
54455SOL    HW263390  11.182   7.443   2.192
54456SOL     OW63391   9.337   7.182   1.979
54456SOL    HW163392   9.318   7.086   2.000
54456SOL    HW263393   9.304   7.240   2.054
54457SOL     OW63394  10.999   6.508   2.474
54457SOL    HW163395  11.094   6.479   2.482
54457SOL    HW263396  10.991   6.573   2.399
54458SOL     OW63397  10.951   6.694   2.294
54458SOL    HW163398  11.037   6.696   2.242
54458SOL    HW263399  10.965   6.741   2.382
54459SOL     OW63400   9.423   6.323   3.459
54459SOL    HW163401   9.511   6.310   3.504
54459SOL    HW263402   9.410   6.420   3.437
54460SOL     OW63403   9.923   6.951   2.588
54460SOL    HW163404   9.874   6.864   2.597
54460SOL    HW263405   9.900   6.994   2.501
54461SOL     OW63406  10.603   6.814   3.285
54461SOL    HW163407  10.640   6.741   3.227
54461SOL    HW263408  10.655   6.819   3.370
54462SOL     OW63409  10.119   5.590   2.364
54462SOL    HW163410  10.159   5.681   2.355
54462SOL    HW263411  10.019   5.598   2.370
54463SOL     OW63412   9.507   6.562   3.126
54463SOL    HW163413   9.596   6.517   3.112
54463SOL    HW263414   9.434   6.497   3.107
54464SOL     OW63415  10.835   6.585   2.052
54464SOL    HW163416  10.772   6.509   2.065
54464SOL    HW263417  10.883   6.603   2.138
54465SOL     OW63418  10.497   7.378   3.478
54465SOL    HW163419  10.521   7.438   3.402
54465SOL    HW263420  10.504   7.283   3.448
54466SOL     OW63421   9.627   5.837   3.663
54466SOL    HW163422   9.698   5.908   3.669
54466SOL    HW263423   9.539   5.876   3.691
54467SOL     OW63424  10.776   7.003   2.815
54467SOL    HW163425  10.717   7.009   2.895
54467SOL    HW263426  10.761   6.915   2.769
54468SOL     OW63427  10.977   7.300   2.434
54468SOL    HW163428  10.936   7.277   2.346
54468SOL    HW263429  10.959   7.226   2.499
54469SOL     OW63430   9.908   6.315   2.132
54469SOL    HW163431   9.932   6.384   2.064
54469SOL    HW263432   9.830   6.348   2.186
54470SOL     OW63433  10.591   5.931   2.806
54470SOL    HW163434  10.505   5.881   2.793
54470SOL    HW263435  10.653   5.877   2.862
54471SOL     OW63436  10.886   7.248   2.169
54471SOL    HW163437  10.975   7.294   2.172
54471SOL    HW263438  10.865   7.224   2.074
54472SOL     OW63439  10.117   6.191   3.327
54472SOL    HW163440  10.070   6.188   3.416
54472SOL    HW263441  10.066   6.136   3.261
54473SOL     OW63442  10.704   6.055   3.536
54473SOL    HW163443  10.684   6.098   3.624
54473SOL    HW263444  10.782   5.993   3.545
54474SOL     OW63445  10.283   6.476   3.434
54474SOL    HW163446  10.329   6.392   3.405
54474SOL    HW263447  10.227   6.510   3.359
54475SOL     OW63448  10.301   5.996   3.104
54475SOL    HW163449  10.224   6.030   3.158
54475SOL    HW263450  10.267   5.945   3.025
54476SOL     OW63451  10.351   6.287   2.291
54476SOL    HW163452  10.377   6.283   2.387
54476SOL    HW263453  10.266   6.236   2.277
54477SOL     OW63454   9.386   6.397   2.651
54477SOL    HW163455   9.485   6.385   2.660
54477SOL    HW263456   9.362   6.492   2.672
54478SOL     OW63457   9.440   7.407   3.433
54478SOL    HW163458   9.430   7.392   3.532
54478SOL    HW263459   9.354   7.443   3.397
54479SOL     OW63460  10.175   5.934   2.057
54479SOL    HW163461  10.234   5.997   2.008
54479SOL    HW263462  10.194   5.840   2.028
54480SOL     OW63463  11.029   6.171   3.693
54480SOL    HW163464  11.003   6.260   3.657
54480SOL    HW263465  11.027   6.103   3.620
54481SOL     OW63466  10.672   6.730   2.407
54481SOL    HW163467  10.755   6.701   2.359
54481SOL    HW263468  10.623   6.797   2.351
54482SOL     OW63469   9.860   5.782   2.747
54482SOL    HW163470   9.855   5.777   2.847
54482SOL    HW263471   9.862   5.878   2.718
54483SOL     OW63472  10.318   7.042   2.339
54483SOL    HW163473  10.272   7.114   2.287
54483SOL    HW263474  10.314   7.062   2.437
54484SOL     OW63475   9.661   7.387   2.715
54484SOL    HW163476   9.711   7.301   2.721
54484SOL    HW263477   9.726   7.464   2.712
54485SOL     OW63478  11.105   6.652   2.735
54485SOL    HW163479  11.043   6.637   2.659
54485SOL    HW263480  11.053   6.663   2.820
54486SOL     OW63481  10.537   7.136   3.368
54486SOL    HW163482  10.543   7.059   3.432
54486SOL    HW263483  10.485   7.110   3.288
54487SOL     OW63484   9.631   6.529   2.104
54487SOL    HW163485   9.713   6.568   2.062
54487SOL    HW263486   9.604   6.447   2.055
54488SOL     OW63487  10.768   6.321   2.590
54488SOL    HW163488  10.763   6.256   2.665
54488SOL    HW263489  10.848   6.380   2.603
54489SOL     OW63490   9.771   6.852   3.589
54489SOL    HW163491   9.721   6.853   3.503
54489SOL    HW263492   9.708   6.834   3.665
54490SOL     OW63493  10.421   7.362   2.099
54490SOL    HW163494  10.361   7.300   2.149
54490SOL    HW263495  10.452   7.318   2.014
54491SOL     OW63496   9.512   5.871   3.360
54491SOL    HW163497   9.432   5.931   3.347
54491SOL    HW263498   9.502   5.822   3.446
54492SOL     OW63499  10.942   6.963   1.943
54492SOL    HW163500  10.910   7.057   1.933
54492SOL    HW263501  10.866   6.900   1.931
54493SOL     OW63502   9.774   7.329   2.185
54493SOL    HW163503   9.807   7.368   2.271
54493SOL    HW263504   9.850   7.322   2.120
54494SOL     OW63505  10.710   5.693   2.288
54494SOL    HW163506  10.686   5.656   2.198
54494SOL    HW263507  10.809   5.709   2.292
54495SOL     OW63508   9.559   7.371   3.103
54495SOL    HW163509   9.616   7.306   3.153
54495SOL    HW263510   9.543   7.338   3.010
54496SOL     OW63511  10.250   7.284   2.766
54496SOL    HW163512  10.330   7.227   2.787
54496SOL    HW263513  10.201   7.244   2.689
54497SOL     OW63514   9.692   6.286   2.342
54497SOL    HW163515   9.737   6.196   2.339
54497SOL    HW263516   9.598   6.275   2.375
54498SOL     OW63517  10.857   5.808   3.591
54498SOL    HW163518  10.852   5.845   3.683
54498SOL    HW263519  10.785   5.739   3.579
54499SOL     OW63520   9.924   5.708   1.979
54499SOL    HW163521  10.022   5.686   1.986
54499SOL    HW263522   9.893   5.691   1.886
54500SOL     OW63523  10.091   5.850   3.611
54500SOL    HW163524  10.158   5.789   3.654
54500SOL    HW263525  10.018   5.869   3.676
54501SOL     OW63526  10.198   7.100   3.057
54501SOL    HW163527  10.175   7.075   2.963
54501SOL    HW263528  10.259   7.031   3.096
54502SOL     OW63529  10.661   6.176   3.295
54502SOL    HW163530  10.689   6.133   3.380
54502SOL    HW263531  10.686   6.272   3.296
54503SOL     OW63532  10.113   6.988   2.786
54503SOL    HW163533  10.203   7.002   2.744
54503SOL    HW263534  10.042   6.990   2.715
54504SOL     OW63535  10.232   6.089   2.761
54504SOL    HW163536  10.207   6.080   2.665
54504SOL    HW263537  10.280   6.007   2.792
54505SOL     OW63538   9.849   5.650   2.374
54505SOL    HW163539   9.768   5.651   2.432
54505SOL    HW263540   9.852   5.733   2.319
54506SOL     OW63541  10.744   6.774   1.903
54506SOL    HW163542  10.776   6.698   1.960
54506SOL    HW263543  10.652   6.801   1.933
54507SOL     OW63544   9.607   5.621   2.033
54507SOL    HW163545   9.656   5.705   2.012
54507SOL    HW263546   9.669   5.556   2.078
54508SOL     OW63547  10.245   5.822   2.342
54508SOL    HW163548  10.197   5.863   2.264
54508SOL    HW263549  10.344   5.820   2.323
54509SOL     OW63550  10.386   6.269   3.326
54509SOL    HW163551  10.306   6.208   3.329
54509SOL    HW263552  10.467   6.216   3.302
54510SOL     OW63553  10.537   7.156   2.655
54510SOL    HW163554  10.558   7.230   2.590
54510SOL    HW263555  10.605   7.156   2.728
54511SOL     OW63556   9.769   6.738   2.603
54511SOL    HW163557   9.698   6.711   2.668
54511SOL    HW263558   9.743   6.710   2.510
54512SOL     OW63559  10.581   7.383   2.453
54512SOL    HW163560  10.625   7.447   2.389
54512SOL    HW263561  10.531   7.435   2.523
54513SOL     OW63562  10.342   6.135   1.878
54513SOL    HW163563  10.301   6.217   1.839
54513SOL    HW263564  10.406   6.161   1.951
54514SOL     OW63565   9.388   6.142   3.248
54514SOL    HW163566   9.480   6.141   3.207
54514SOL    HW263567   9.382   6.216   3.315
54515SOL     OW63568   9.871   5.808   3.009
54515SOL    HW163569   9.909   5.724   3.046
54515SOL    HW263570   9.783   5.827   3.053
54516SOL     OW63571  10.176   6.040   2.504
54516SOL    HW163572  10.144   6.112   2.442
54516SOL    HW263573  10.200   5.959   2.451
54517SOL     OW63574  10.327   5.625   2.615
54517SOL    HW163575  10.255   5.630   2.546
54517SOL    HW263576  10.303   5.556   2.684
54518SOL     OW63577  10.739   6.759   2.729
54518SOL    HW163578  10.684   6.675   2.722
54518SOL    HW263579  10.765   6.788   2.637
54519SOL     OW63580  10.776   6.176   2.854
54519SOL    HW163581  10.746   6.081   2.861
54519SOL    HW263582  10.849   6.192   2.920
54520SOL     OW63583  11.167   6.419   2.239
54520SOL    HW163584  11.209   6.355   2.303
54520SOL    HW263585  11.129   6.368   2.161
54521SOL     OW63586   9.798   6.971   2.036
54521SOL    HW163587   9.711   6.956   2.083
54521SOL    HW263588   9.781   6.997   1.941
54522SOL     OW63589  10.974   6.866   2.519
54522SOL    HW163590  11.073   6.874   2.533
54522SOL    HW263591  10.929   6.950   2.550
54523SOL     OW63592  10.700   6.161   1.940
54523SOL    HW163593  10.646   6.140   2.021
54523SOL    HW263594  10.791   6.120   1.949
54524SOL     OW63595   9.837   5.842   2.190
54524SOL    HW163596   9.864   5.783   2.115
54524SOL    HW263597   9.837   5.937   2.159
54525SOL     OW63598  11.064   6.809   3.450
54525SOL    HW163599  11.155   6.770   3.437
54525SOL    HW263600  11.072   6.905   3.474
54526SOL     OW63601  10.374   6.933   3.202
54526SOL    HW163602  10.294   6.910   3.257
54526SOL    HW263603  10.457   6.907   3.251
54527SOL     OW63604  10.902   7.215   3.487
54527SOL    HW163605  10.929   7.249   3.397
54527SOL    HW263606  10.981   7.177   3.533
54528SOL     OW63607  10.421   6.781   2.962
54528SOL    HW163608  10.381   6.825   3.043
54528SOL    HW263609  10.380   6.818   2.879
54529SOL     OW63610  10.948   6.685   2.941
54529SOL    HW163611  10.953   6.766   3.000
54529SOL    HW263612  10.862   6.687   2.890
54530SOL     OW63613  10.225   5.675   3.264
54530SOL    HW163614  10.250   5.655   3.169
54530SOL    HW263615  10.297   5.731   3.306
54531SOL     OW63616  10.290   6.702   3.581
54531SOL    HW163617  10.191   6.708   3.591
54531SOL    HW263618  10.313   6.622   3.525
54532SOL     OW63619  10.015   6.636   2.230
54532SOL    HW163620  10.001   6.643   2.329
54532SOL    HW263621  10.099   6.585   2.212
54533SOL     OW63622   9.720   6.399   3.113
54533SOL    HW163623   9.806   6.411   3.163
54533SOL    HW263624   9.678   6.312   3.140
54534SOL     OW63625  10.584   5.972   3.124
54534SOL    HW163626  10.605   6.046   3.188
54534SOL    HW263627  10.495   5.989   3.081
54535SOL     OW63628   9.374   7.150   3.193
54535SOL    HW163629   9.328   7.232   3.159
54535SOL    HW263630   9.472   7.169   3.202
54536SOL     OW63631   9.677   6.686   2.363
54536SOL    HW163632   9.670   6.769   2.307
54536SOL    HW263633   9.681   6.606   2.303
54537SOL     OW63634   9.876   6.123   2.727
54537SOL    HW163635   9.888   6.189   2.653
54537SOL    HW263636   9.922   6.157   2.810
54538SOL     OW63637  10.562   6.934   2.250
54538SOL    HW163638  10.612   7.011   2.290
54538SOL    HW263639  10.467   6.936   2.282
54539SOL     OW63640  10.582   7.031   3.004
54539SOL    HW163641  10.629   7.044   3.091
54539SOL    HW263642  10.516   6.957   3.013
54540SOL     OW63643  10.892   6.225   2.334
54540SOL    HW163644  10.861   6.286   2.407
54540SOL    HW263645  10.942   6.277   2.265
54541SOL     OW63646   9.664   7.096   3.191
54541SOL    HW163647   9.643   7.052   3.104
54541SOL    HW263648   9.761   7.122   3.194
54542SOL     OW63649   9.712   6.337   3.460
54542SOL    HW163650   9.780   6.392   3.413
54542SOL    HW263651   9.752   6.249   3.487
54543SOL     OW63652  10.897   6.365   3.532
54543SOL    HW163653  10.805   6.403   3.527
54543SOL    HW263654  10.957   6.412   3.467
54544SOL     OW63655  10.323   5.691   3.632
54544SOL    HW163656  10.329   5.776   3.580
54544SOL    HW263657  10.355   5.615   3.575
54545SOL     OW63658   9.814   5.636   3.602
54545SOL    HW163659   9.772   5.579   3.532
54545SOL    HW263660   9.748   5.705   3.634
54546SOL     OW63661   9.883   6.456   2.891
54546SOL    HW163662   9.927   6.545   2.882
54546SOL    HW263663   9.820   6.456   2.968
54547SOL     OW63664  10.670   6.448   2.907
54547SOL    HW163665  10.595   6.448   2.841
54547SOL    HW263666  10.707   6.356   2.916
54548SOL     OW63667  10.519   6.111   2.137
54548SOL    HW163668  10.532   6.027   2.191
54548SOL    HW263669  10.490   6.185   2.197
54549SOL     OW63670   9.617   5.799   3.093
54549SOL    HW163671   9.594   5.836   3.183
54549SOL    HW263672   9.587   5.704   3.087
54550SOL     OW63673   9.347   6.896   3.144
54550SOL    HW163674   9.400   6.847   3.212
54550SOL    HW263675   9.369   6.994   3.149
54551SOL     OW63676  10.042   6.220   2.926
54551SOL    HW163677  10.101   6.194   2.850
54551SOL    HW263678  10.014   6.316   2.915
54552SOL     OW63679  11.038   6.521   3.716
54552SOL    HW163680  10.992   6.514   3.627
54552SOL    HW263681  10.976   6.565   3.782
54553SOL     OW63682   9.617   5.649   2.480
54553SOL    HW163683   9.606   5.743   2.513
54553SOL    HW263684   9.612   5.586   2.557
54554SOL     OW63685  10.932   5.953   2.236
54554SOL    HW163686  10.934   5.877   2.300
54554SOL    HW263687  10.884   6.030   2.276
54555SOL     OW63688  10.333   6.352   2.828
54555SOL    HW163689  10.348   6.373   2.924
54555SOL    HW263690  10.303   6.257   2.819
54556SOL     OW63691  10.290   7.159   3.562
54556SOL    HW163692  10.270   7.203   3.474
54556SOL    HW263693  10.329   7.068   3.546
54557SOL     OW63694  11.169   7.104   3.467
54557SOL    HW163695  11.183   7.131   3.372
54557SOL    HW263696  11.252   7.126   3.520
54558SOL     OW63697   9.660   6.484   3.666
54558SOL    HW163698   9.736   6.528   3.714
54558SOL    HW263699   9.695   6.437   3.584
54559SOL     OW63700  10.850   5.860   1.987
54559SOL    HW163701  10.789   5.785   2.010
54559SOL    HW263702  10.872   5.912   2.070
54560SOL     OW63703  10.613   6.424   1.904
54560SOL    HW163704  10.647   6.331   1.919
54560SOL    HW263705  10.631   6.451   1.809
54561SOL     OW63706  10.378   6.919   2.711
54561SOL    HW163707  10.385   6.835   2.656
54561SOL    HW263708  10.440   6.988   2.675
54562SOL     OW63709   9.629   6.396   2.811
54562SOL    HW163710   9.722   6.432   2.816
54562SOL    HW263711   9.623   6.311   2.863
54563SOL     OW63712   9.649   6.095   2.868
54563SOL    HW163713   9.597   6.012   2.851
54563SOL    HW263714   9.726   6.100   2.804
54564SOL     OW63715  10.448   5.966   3.540
54564SOL    HW163716  10.403   6.029   3.604
54564SOL    HW263717  10.541   5.997   3.523
54565SOL     OW63718  10.470   5.793   3.339
54565SOL    HW163719  10.470   5.857   3.416
54565SOL    HW263720  10.498   5.841   3.256
54566SOL     OW63721   9.318   6.912   2.062
54566SOL    HW163722   9.225   6.933   2.031
54566SOL    HW263723   9.328   6.813   2.075
54567SOL     OW63724   9.398   7.387   2.789
54567SOL    HW163725   9.356   7.301   2.762
54567SOL    HW263726   9.492   7.390   2.755
54568SOL     OW63727   9.814   7.154   2.772
54568SOL    HW163728   9.880   7.228   2.781
54568SOL    HW263729   9.858   7.075   2.730
54569SOL     OW63730  10.312   6.382   3.100
54569SOL    HW163731  10.353   6.350   3.186
54569SOL    HW263732  10.216   6.355   3.097
54570SOL     OW63733   9.350   6.130   2.976
54570SOL    HW163734   9.435   6.097   2.935
54570SOL    HW263735   9.363   6.145   3.074
54571SOL     OW63736   9.499   6.106   3.584
54571SOL    HW163737   9.558   6.066   3.514
54571SOL    HW263738   9.441   6.177   3.543
54572SOL     OW63739  10.679   6.536   3.522
54572SOL    HW163740  10.718   6.625   3.542
54572SOL    HW263741  10.689   6.516   3.425
54573SOL     OW63742  10.125   6.158   2.187
54573SOL    HW163743  10.132   6.069   2.141
54573SOL    HW263744  10.031   6.192   2.179
54574SOL     OW63745  10.967   6.190   3.068
54574SOL    HW163746  10.929   6.121   3.130
54574SOL    HW263747  11.049   6.154   3.024
54575SOL     OW63748   9.562   7.150   3.606
54575SOL    HW163749   9.532   7.207   3.682
54575SOL    HW263750   9.555   7.053   3.632
54576SOL     OW63751   9.981   6.050   3.131
54576SOL    HW163752   9.947   5.961   3.101
54576SOL    HW263753  10.007   6.104   3.051
54577SOL     OW63754  10.240   7.264   3.327
54577SOL    HW163755  10.216   7.246   3.232
54577SOL    HW263756  10.270   7.358   3.337
54578SOL     OW63757   9.783   6.086   2.053
54578SOL    HW163758   9.844   6.166   2.057
54578SOL    HW263759   9.688   6.117   2.060
54579SOL     OW63760   9.469   6.723   3.328
54579SOL    HW163761   9.491   6.662   3.404
54579SOL    HW263762   9.479   6.674   3.242
54580SOL     OW63763  10.657   6.645   3.096
54580SOL    HW163764  10.681   6.582   3.022
54580SOL    HW263765  10.567   6.685   3.078
54581SOL     OW63766  10.612   6.441   2.171
54581SOL    HW163767  10.526   6.410   2.213
54581SOL    HW263768  10.608   6.427   2.072
54582SOL     OW63769  11.069   7.333   3.016
54582SOL    HW163770  11.130   7.363   2.943
54582SOL    HW263771  11.031   7.244   2.994
54583SOL     OW63772  10.562   7.317   2.990
54583SOL    HW163773  10.646   7.322   2.936
54583SOL    HW263774  10.539   7.221   3.008
54584SOL     OW63775   9.393   6.844   2.884
54584SOL    HW163776   9.388   6.843   2.984
54584SOL    HW263777   9.310   6.803   2.846
54585SOL     OW63778   9.998   7.248   3.578
54585SOL    HW163779   9.942   7.329   3.587
54585SOL    HW263780  10.050   7.252   3.492
54586SOL     OW63781  11.036   5.721   2.385
54586SOL    HW163782  11.109   5.704   2.318
54586SOL    HW263783  11.005   5.634   2.423
54587SOL     OW63784  10.698   7.159   2.339
54587SOL    HW163785  10.765   7.171   2.265
54587SOL    HW263786  10.658   7.248   2.362
54588SOL     OW63787   9.440   7.380   3.713
54588SOL    HW163788   9.399   7.306   3.766
54588SOL    HW263789   9.504   7.431   3.771
54589SOL     OW63790  10.590   6.513   2.534
54589SOL    HW163791  10.650   6.432   2.536
54589SOL    HW263792  10.630   6.582   2.474
54590SOL     OW63793  10.140   6.859   3.284
54590SOL    HW163794  10.135   6.892   3.379
54590SOL    HW263795  10.054   6.878   3.238
54591SOL     OW63796   9.982   7.202   2.016
54591SOL    HW163797   9.991   7.212   1.917
54591SOL    HW263798   9.942   7.113   2.037
54592SOL     OW63799  10.960   7.306   3.256
54592SOL    HW163800  11.013   7.316   3.172
54592SOL    HW263801  10.933   7.396   3.290
54593SOL     OW63802  11.151   5.761   2.825
54593SOL    HW163803  11.190   5.676   2.789
54593SOL    HW263804  11.053   5.763   2.806
54594SOL     OW63805   9.573   5.912   2.582
54594SOL    HW163806   9.494   5.963   2.548
54594SOL    HW263807   9.564   5.897   2.680
54595SOL     OW63808  10.504   7.198   1.893
54595SOL    HW163809  10.510   7.105   1.930
54595SOL    HW263810  10.445   7.198   1.813
54596SOL     OW63811  10.132   6.588   3.234
54596SOL    HW163812  10.172   6.587   3.142
54596SOL    HW263813  10.142   6.680   3.274
54597SOL     OW63814  10.226   6.496   2.153
54597SOL    HW163815  10.289   6.534   2.085
54597SOL    HW263816  10.266   6.413   2.192
54598SOL     OW63817  10.814   7.193   1.906
54598SOL    HW163818  10.722   7.230   1.913
54598SOL    HW263819  10.852   7.213   1.816
54599SOL     OW63820   9.682   6.874   3.352
54599SOL    HW163821   9.669   6.967   3.318
54599SOL    HW263822   9.598   6.822   3.339
54600SOL     OW63823  10.924   6.878   3.151
54600SOL    HW163824  10.984   6.881   3.231
54600SOL    HW263825  10.849   6.942   3.164
54601SOL     OW63826  10.349   6.684   2.558
54601SOL    HW163827  10.279   6.637   2.612
54601SOL    HW263828  10.408   6.616   2.515
54602SOL     OW63829  10.324   5.822   2.833
54602SOL    HW163830  10.316   5.786   2.740
54602SOL    HW263831  10.322   5.746   2.898
54603SOL     OW63832   9.900   7.073   2.353
54603SOL    HW163833   9.942   7.015   2.283
54603SOL    HW263834   9.856   7.152   2.309
54604SOL     OW63835  11.019   5.971   3.243
54604SOL    HW163836  11.092   6.040   3.247
54604SOL    HW263837  11.047   5.896   3.184
54605SOL     OW63838   9.565   6.934   2.152
54605SOL    HW163839   9.469   6.935   2.125
54605SOL    HW263840   9.577   6.987   2.236
54606SOL     OW63841   9.415   6.599   3.588
54606SOL    HW163842   9.338   6.566   3.642
54606SOL    HW263843   9.500   6.569   3.630
54607SOL     OW63844   9.982   5.789   3.351
54607SOL    HW163845  10.072   5.773   3.311
54607SOL    HW263846   9.990   5.794   3.450
54608SOL     OW63847   9.385   5.931   1.895
54608SOL    HW163848   9.293   5.903   1.866
54608SOL    HW263849   9.416   6.008   1.839
54609SOL     OW63850  10.750   6.442   3.260
54609SOL    HW163851  10.693   6.494   3.197
54609SOL    HW263852  10.846   6.454   3.236
54610SOL     OW63853   9.382   5.752   2.180
54610SOL    HW163854   9.365   5.835   2.126
54610SOL    HW263855   9.472   5.715   2.158
54611SOL     OW63856  10.493   6.921   1.981
54611SOL    HW163857  10.394   6.910   1.983
54611SOL    HW263858  10.527   6.936   2.074
54612SOL     OW63859   9.923   6.428   3.293
54612SOL    HW163860   9.979   6.509   3.276
54612SOL    HW263861   9.982   6.348   3.296
54613SOL     OW63862  10.803   7.353   2.821
54613SOL    HW163863  10.836   7.417   2.752
54613SOL    HW263864  10.869   7.347   2.896
54614SOL     OW63865  10.026   6.151   3.570
54614SOL    HW163866  10.045   6.216   3.644
54614SOL    HW263867  10.086   6.071   3.579
54615SOL     OW63868  10.760   6.806   3.495
54615SOL    HW163869  10.751   6.796   3.594
54615SOL    HW263870  10.856   6.799   3.469
54616SOL     OW63871   9.700   7.327   3.422
54616SOL    HW163872   9.609   7.368   3.420
54616SOL    HW263873   9.693   7.233   3.454
54617SOL     OW63874  10.984   6.469   3.116
54617SOL    HW163875  10.957   6.380   3.079
54617SOL    HW263876  10.985   6.537   3.043
54618SOL     OW63877  10.535   5.911   2.311
54618SOL    HW163878  10.600   5.837   2.300
54618SOL    HW263879  10.555   5.961   2.395
54619SOL     OW63880   9.904   6.331   2.514
54619SOL    HW163881   9.954   6.416   2.495
54619SOL    HW263882   9.816   6.333   2.466
54620SOL     OW63883  11.087   5.928   3.504
54620SOL    HW163884  11.070   5.959   3.410
54620SOL    HW263885  11.003   5.891   3.542
54621SOL     OW63886  11.040   6.520   3.379
54621SOL    HW163887  11.078   6.611   3.394
54621SOL    HW263888  11.032   6.503   3.280
54622SOL     OW63889  10.169   6.960   1.878
54622SOL    HW163890  10.123   6.975   1.966
54622SOL    HW263891  10.213   7.045   1.848
54623SOL     OW63892   9.971   7.376   2.815
54623SOL    HW163893   9.925   7.464   2.802
54623SOL    HW263894  10.070   7.388   2.808
54624SOL     OW63895  10.169   6.542   2.723
54624SOL    HW163896  10.223   6.473   2.771
54624SOL    HW263897  10.137   6.611   2.789
54625SOL     OW63898  10.393   6.570   1.949
54625SOL    HW163899  10.370   6.623   1.867
54625SOL    HW263900  10.474   6.514   1.930
54626SOL     OW63901  11.171   7.155   2.713
54626SOL    HW163902  11.100   7.143   2.643
54626SOL    HW263903  11.172   7.076   2.773
54627SOL     OW63904   9.531   6.900   3.706
54627SOL    HW163905   9.466   6.827   3.685
54627SOL    HW263906   9.535   6.914   3.804
54628SOL     OW63907   9.389   6.826   2.515
54628SOL    HW163908   9.388   6.779   2.603
54628SOL    HW263909   9.471   6.798   2.464
54629SOL     OW63910   9.982   6.977   3.486
54629SOL    HW163911   9.904   6.927   3.524
54629SOL    HW263912   9.979   7.072   3.517
54630SOL     OW63913  11.134   5.778   3.089
54630SOL    HW163914  11.130   5.688   3.133
54630SOL    HW263915  11.137   5.767   2.990
54631SOL     OW63916   9.738   6.010   2.382
54631SOL    HW163917   9.768   5.938   2.320
54631SOL    HW263918   9.699   5.970   2.465
54632SOL     OW63919  11.015   7.073   2.966
54632SOL    HW163920  10.922   7.048   2.939
54632SOL    HW263921  11.041   7.023   3.048
54633SOL     OW63922   9.627   6.133   3.142
54633SOL    HW163923   9.665   6.074   3.214
54633SOL    HW263924   9.667   6.107   3.054
54634SOL     OW63925  10.122   7.172   2.549
54634SOL    HW163926  10.154   7.182   2.455
54634SOL    HW263927  10.043   7.110   2.551
54635SOL     OW63928  10.734   5.800   2.974
54635SOL    HW163929  10.786   5.735   3.029
54635SOL    HW263930  10.685   5.863   3.035
54636SOL     OW63931  10.311   5.620   3.016
54636SOL    HW163932  10.248   5.548   2.985
54636SOL    HW263933  10.404   5.584   3.016
54637SOL     OW63934  10.080   6.916   2.163
54637SOL    HW163935  10.034   6.829   2.180
54637SOL    HW263936  10.171   6.913   2.204
54638SOL     OW63937   9.928   7.153   3.146
54638SOL    HW163938   9.923   7.235   3.203
54638SOL    HW263939  10.017   7.150   3.101
54639SOL     OW63940  10.662   5.638   2.030
54639SOL    HW163941  10.697   5.597   1.946
54639SOL    HW263942  10.572   5.600   2.050
54640SOL     OW63943  10.610   6.039   2.553
54640SOL    HW163944  10.551   6.119   2.557
54640SOL    HW263945  10.625   6.004   2.646
54641SOL     OW63946  10.903   5.807   2.744
54641SOL    HW163947  10.819   5.806   2.798
54641SOL    HW263948  10.905   5.890   2.688
54642SOL     OW63949   9.349   6.663   2.162
54642SOL    HW163950   9.448   6.652   2.153
54642SOL    HW263951   9.309   6.577   2.194
54643SOL     OW63952  10.185   7.232   2.199
54643SOL    HW163953  10.108   7.197   2.145
54643SOL    HW263954  10.153   7.303   2.261
54644SOL     OW63955   9.540   6.214   3.837
54644SOL    HW163956   9.447   6.212   3.874
54644SOL    HW263957   9.541   6.175   3.745
54645SOL     OW63958   9.535   5.861   4.720
54645SOL    HW163959   9.570   5.844   4.812
54645SOL    HW263960   9.447   5.816   4.708
54646SOL     OW63961   9.329   5.954   4.371
54646SOL    HW163962   9.247   5.997   4.410
54646SOL    HW263963   9.301   5.881   4.308
54647SOL     OW63964   9.879   6.861   4.889
54647SOL    HW163965   9.786   6.854   4.852
54647SOL    HW263966   9.890   6.950   4.933
54648SOL     OW63967  10.865   7.097   4.427
54648SOL    HW163968  10.808   7.081   4.508
54648SOL    HW263969  10.806   7.107   4.347
54649SOL     OW63970  10.445   6.289   4.441
54649SOL    HW163971  10.502   6.367   4.416
54649SOL    HW263972  10.385   6.315   4.517
54650SOL     OW63973  11.065   6.193   3.955
54650SOL    HW163974  11.053   6.180   3.856
54650SOL    HW263975  11.035   6.112   4.004
54651SOL     OW63976  10.078   6.730   4.747
54651SOL    HW163977  10.000   6.747   4.807
54651SOL    HW263978  10.112   6.817   4.711
54652SOL     OW63979  10.160   6.384   5.547
54652SOL    HW163980  10.156   6.460   5.612
54652SOL    HW263981  10.182   6.420   5.456
54653SOL     OW63982   9.995   6.598   4.389
54653SOL    HW163983  10.064   6.582   4.459
54653SOL    HW263984   9.922   6.655   4.427
54654SOL     OW63985   9.996   6.747   5.527
54654SOL    HW163986  10.056   6.826   5.541
54654SOL    HW263987   9.910   6.778   5.486
54655SOL     OW63988   9.645   7.021   4.785
54655SOL    HW163989   9.567   6.990   4.732
54655SOL    HW263990   9.703   7.079   4.728
54656SOL     OW63991  10.770   7.091   5.063
54656SOL    HW163992  10.794   7.185   5.089
54656SOL    HW263993  10.754   7.037   5.145
54657SOL     OW63994   9.748   5.978   5.223
54657SOL    HW163995   9.830   5.922   5.232
54657SOL    HW263996   9.667   5.920   5.227
54658SOL     OW63997  10.913   6.033   4.461
54658SOL    HW163998  10.839   6.079   4.411
54658SOL    HW263999  10.964   6.101   4.514
54659SOL     OW64000   9.541   7.299   4.207
54659SOL    HW164001   9.575   7.376   4.261
54659SOL    HW264002   9.585   7.299   4.117
54660SOL     OW64003  10.437   6.927   5.414
54660SOL    HW164004  10.484   6.927   5.502
54660SOL    HW264005  10.389   6.840   5.403
54661SOL     OW64006   9.540   7.020   4.262
54661SOL    HW164007   9.514   7.116   4.262
54661SOL    HW264008   9.469   6.966   4.307
54662SOL     OW64009   9.550   6.677   4.610
54662SOL    HW164010   9.564   6.593   4.662
54662SOL    HW264011   9.495   6.741   4.665
54663SOL     OW64012   9.930   7.372   5.163
54663SOL    HW164013   9.838   7.355   5.198
54663SOL    HW264014   9.958   7.464   5.189
54664SOL     OW64015   9.916   6.550   3.847
54664SOL    HW164016   9.923   6.634   3.793
54664SOL    HW264017   9.962   6.563   3.935
54665SOL     OW64018  10.904   5.700   5.204
54665SOL    HW164019  10.886   5.767   5.132
54665SOL    HW264020  10.901   5.746   5.293
54666SOL     OW64021   9.432   6.229   4.287
54666SOL    HW164022   9.387   6.141   4.304
54666SOL    HW264023   9.431   6.283   4.371
54667SOL     OW64024  11.152   7.353   4.083
54667SOL    HW164025  11.206   7.324   4.163
54667SOL    HW264026  11.182   7.443   4.054
54668SOL     OW64027   9.337   7.182   3.841
54668SOL    HW164028   9.318   7.086   3.862
54668SOL    HW264029   9.304   7.240   3.916
54669SOL     OW64030  10.999   6.508   4.336
54669SOL    HW164031  11.094   6.479   4.344
54669SOL    HW264032  10.991   6.573   4.261
54670SOL     OW64033  10.951   6.694   4.156
54670SOL    HW164034  11.037   6.696   4.104
54670SOL    HW264035  10.965   6.741   4.244
54671SOL     OW64036   9.423   6.323   5.321
54671SOL    HW164037   9.511   6.310   5.366
54671SOL    HW264038   9.410   6.420   5.299
54672SOL     OW64039   9.923   6.951   4.450
54672SOL    HW164040   9.874   6.864   4.459
54672SOL    HW264041   9.900   6.994   4.363
54673SOL     OW64042  10.603   6.814   5.147
54673SOL    HW164043  10.640   6.741   5.089
54673SOL    HW264044  10.655   6.819   5.232
54674SOL     OW64045  10.119   5.590   4.226
54674SOL    HW164046  10.159   5.681   4.217
54674SOL    HW264047  10.019   5.598   4.232
54675SOL     OW64048   9.507   6.562   4.988
54675SOL    HW164049   9.596   6.517   4.974
54675SOL    HW264050   9.434   6.497   4.969
54676SOL     OW64051  10.835   6.585   3.914
54676SOL    HW164052  10.772   6.509   3.927
54676SOL    HW264053  10.883   6.603   4.000
54677SOL     OW64054  10.497   7.378   5.340
54677SOL    HW164055  10.521   7.438   5.264
54677SOL    HW264056  10.504   7.283   5.310
54678SOL     OW64057   9.627   5.837   5.525
54678SOL    HW164058   9.698   5.908   5.531
54678SOL    HW264059   9.539   5.876   5.553
54679SOL     OW64060  10.776   7.003   4.677
54679SOL    HW164061  10.717   7.009   4.757
54679SOL    HW264062  10.761   6.915   4.631
54680SOL     OW64063  10.977   7.300   4.296
54680SOL    HW164064  10.936   7.277   4.208
54680SOL    HW264065  10.959   7.226   4.361
54681SOL     OW64066   9.908   6.315   3.994
54681SOL    HW164067   9.932   6.384   3.926
54681SOL    HW264068   9.830   6.348   4.048
54682SOL     OW64069  10.591   5.931   4.668
54682SOL    HW164070  10.505   5.881   4.655
54682SOL    HW264071  10.653   5.877   4.724
54683SOL     OW64072  10.886   7.248   4.031
54683SOL    HW164073  10.975   7.294   4.034
54683SOL    HW264074  10.865   7.224   3.936
54684SOL     OW64075  10.117   6.191   5.189
54684SOL    HW164076  10.070   6.188   5.278
54684SOL    HW264077  10.066   6.136   5.123
54685SOL     OW64078  10.704   6.055   5.398
54685SOL    HW164079  10.684   6.098   5.486
54685SOL    HW264080  10.782   5.993   5.407
54686SOL     OW64081  10.283   6.476   5.296
54686SOL    HW164082  10.329   6.392   5.267
54686SOL    HW264083  10.227   6.510   5.221
54687SOL     OW64084  10.301   5.996   4.966
54687SOL    HW164085  10.224   6.030   5.020
54687SOL    HW264086  10.267   5.945   4.887
54688SOL     OW64087  10.351   6.287   4.153
54688SOL    HW164088  10.377   6.283   4.249
54688SOL    HW264089  10.266   6.236   4.139
54689SOL     OW64090   9.386   6.397   4.513
54689SOL    HW164091   9.485   6.385   4.522
54689SOL    HW264092   9.362   6.492   4.534
54690SOL     OW64093   9.440   7.407   5.295
54690SOL    HW164094   9.430   7.392   5.394
54690SOL    HW264095   9.354   7.443   5.259
54691SOL     OW64096  10.175   5.934   3.919
54691SOL    HW164097  10.234   5.997   3.870
54691SOL    HW264098  10.194   5.840   3.890
54692SOL     OW64099  11.029   6.171   5.555
54692SOL    HW164100  11.003   6.260   5.519
54692SOL    HW264101  11.027   6.103   5.482
54693SOL     OW64102  10.672   6.730   4.269
54693SOL    HW164103  10.755   6.701   4.221
54693SOL    HW264104  10.623   6.797   4.213
54694SOL     OW64105   9.860   5.782   4.609
54694SOL    HW164106   9.855   5.777   4.709
54694SOL    HW264107   9.862   5.878   4.580
54695SOL     OW64108  10.318   7.042   4.201
54695SOL    HW164109  10.272   7.114   4.149
54695SOL    HW264110  10.314   7.062   4.299
54696SOL     OW64111   9.661   7.387   4.577
54696SOL    HW164112   9.711   7.301   4.583
54696SOL    HW264113   9.726   7.464   4.574
54697SOL     OW64114  11.105   6.652   4.597
54697SOL    HW164115  11.043   6.637   4.521
54697SOL    HW264116  11.053   6.663   4.682
54698SOL     OW64117  10.537   7.136   5.230
54698SOL    HW164118  10.543   7.059   5.294
54698SOL    HW264119  10.485   7.110   5.150
54699SOL     OW64120   9.631   6.529   3.966
54699SOL    HW164121   9.713   6.568   3.924
54699SOL    HW264122   9.604   6.447   3.917
54700SOL     OW64123  10.768   6.321   4.452
54700SOL    HW164124  10.763   6.256   4.527
54700SOL    HW264125  10.848   6.380   4.465
54701SOL     OW64126   9.771   6.852   5.451
54701SOL    HW164127   9.721   6.853   5.365
54701SOL    HW264128   9.708   6.834   5.527
54702SOL     OW64129  10.421   7.362   3.961
54702SOL    HW164130  10.361   7.300   4.011
54702SOL    HW264131  10.452   7.318   3.876
54703SOL     OW64132   9.512   5.871   5.222
54703SOL    HW164133   9.432   5.931   5.209
54703SOL    HW264134   9.502   5.822   5.308
54704SOL     OW64135  10.942   6.963   3.805
54704SOL    HW164136  10.910   7.057   3.795
54704SOL    HW264137  10.866   6.900   3.793
54705SOL     OW64138   9.774   7.329   4.047
54705SOL    HW164139   9.807   7.368   4.133
54705SOL    HW264140   9.850   7.322   3.982
54706SOL     OW64141  10.710   5.693   4.150
54706SOL    HW164142  10.686   5.656   4.060
54706SOL    HW264143  10.809   5.709   4.154
54707SOL     OW64144   9.559   7.371   4.965
54707SOL    HW164145   9.616   7.306   5.015
54707SOL    HW264146   9.543   7.338   4.872
54708SOL     OW64147  10.250   7.284   4.628
54708SOL    HW164148  10.330   7.227   4.649
54708SOL    HW264149  10.201   7.244   4.551
54709SOL     OW64150   9.692   6.286   4.204
54709SOL    HW164151   9.737   6.196   4.201
54709SOL    HW264152   9.598   6.275   4.237
54710SOL     OW64153  10.857   5.808   5.453
54710SOL    HW164154  10.852   5.845   5.545
54710SOL    HW264155  10.785   5.739   5.441
54711SOL     OW64156   9.924   5.708   3.841
54711SOL    HW164157  10.022   5.686   3.848
54711SOL    HW264158   9.893   5.691   3.748
54712SOL     OW64159  10.091   5.850   5.473
54712SOL    HW164160  10.158   5.789   5.516
54712SOL    HW264161  10.018   5.869   5.538
54713SOL     OW64162  10.198   7.100   4.919
54713SOL    HW164163  10.175   7.075   4.825
54713SOL    HW264164  10.259   7.031   4.958
54714SOL     OW64165  10.661   6.176   5.157
54714SOL    HW164166  10.689   6.133   5.242
54714SOL    HW264167  10.686   6.272   5.158
54715SOL     OW64168  10.113   6.988   4.648
54715SOL    HW164169  10.203   7.002   4.606
54715SOL    HW264170  10.042   6.990   4.577
54716SOL     OW64171  10.232   6.089   4.623
54716SOL    HW164172  10.207   6.080   4.527
54716SOL    HW264173  10.280   6.007   4.654
54717SOL     OW64174   9.849   5.650   4.236
54717SOL    HW164175   9.768   5.651   4.294
54717SOL    HW264176   9.852   5.733   4.181
54718SOL     OW64177  10.744   6.774   3.765
54718SOL    HW164178  10.776   6.698   3.822
54718SOL    HW264179  10.652   6.801   3.795
54719SOL     OW64180   9.607   5.621   3.895
54719SOL    HW164181   9.656   5.705   3.874
54719SOL    HW264182   9.669   5.556   3.940
54720SOL     OW64183  10.245   5.822   4.204
54720SOL    HW164184  10.197   5.863   4.126
54720SOL    HW264185  10.344   5.820   4.185
54721SOL     OW64186  10.386   6.269   5.188
54721SOL    HW164187  10.306   6.208   5.191
54721SOL    HW264188  10.467   6.216   5.164
54722SOL     OW64189  10.537   7.156   4.517
54722SOL    HW164190  10.558   7.230   4.452
54722SOL    HW264191  10.605   7.156   4.590
54723SOL     OW64192   9.769   6.738   4.465
54723SOL    HW164193   9.698   6.711   4.530
54723SOL    HW264194   9.743   6.710   4.372
54724SOL     OW64195  10.581   7.383   4.315
54724SOL    HW164196  10.625   7.447   4.251
54724SOL    HW264197  10.531   7.435   4.385
54725SOL     OW64198  10.342   6.135   3.740
54725SOL    HW164199  10.301   6.217   3.701
54725SOL    HW264200  10.406   6.161   3.813
54726SOL     OW64201   9.388   6.142   5.110
54726SOL    HW164202   9.480   6.141   5.069
54726SOL    HW264203   9.382   6.216   5.177
54727SOL     OW64204   9.871   5.808   4.871
54727SOL    HW164205   9.909   5.724   4.908
54727SOL    HW264206   9.783   5.827   4.915
54728SOL     OW64207  10.176   6.040   4.366
54728SOL    HW164208  10.144   6.112   4.304
54728SOL    HW264209  10.200   5.959   4.313
54729SOL     OW64210  10.327   5.625   4.477
54729SOL    HW164211  10.255   5.630   4.408
54729SOL    HW264212  10.303   5.556   4.546
54730SOL     OW64213  10.739   6.759   4.591
54730SOL    HW164214  10.684   6.675   4.584
54730SOL    HW264215  10.765   6.788   4.499
54731SOL     OW64216  10.776   6.176   4.716
54731SOL    HW164217  10.746   6.081   4.723
54731SOL    HW264218  10.849   6.192   4.782
54732SOL     OW64219  11.167   6.419   4.101
54732SOL    HW164220  11.209   6.355   4.165
54732SOL    HW264221  11.129   6.368   4.023
54733SOL     OW64222   9.798   6.971   3.898
54733SOL    HW164223   9.711   6.956   3.945
54733SOL    HW264224   9.781   6.997   3.803
54734SOL     OW64225  10.974   6.866   4.381
54734SOL    HW164226  11.073   6.874   4.395
54734SOL    HW264227  10.929   6.950   4.412
54735SOL     OW64228  10.700   6.161   3.802
54735SOL    HW164229  10.646   6.140   3.883
54735SOL    HW264230  10.791   6.120   3.811
54736SOL     OW64231   9.837   5.842   4.052
54736SOL    HW164232   9.864   5.783   3.977
54736SOL    HW264233   9.837   5.937   4.021
54737SOL     OW64234  11.064   6.809   5.312
54737SOL    HW164235  11.155   6.770   5.299
54737SOL    HW264236  11.072   6.905   5.336
54738SOL     OW64237  10.374   6.933   5.064
54738SOL    HW164238  10.294   6.910   5.119
54738SOL    HW264239  10.457   6.907   5.113
54739SOL     OW64240  10.902   7.215   5.349
54739SOL    HW164241  10.929   7.249   5.259
54739SOL    HW264242  10.981   7.177   5.395
54740SOL     OW64243  10.421   6.781   4.824
54740SOL    HW164244  10.381   6.825   4.905
54740SOL    HW264245  10.380   6.818   4.741
54741SOL     OW64246  10.948   6.685   4.803
54741SOL    HW164247  10.953   6.766   4.862
54741SOL    HW264248  10.862   6.687   4.752
54742SOL     OW64249  10.225   5.675   5.126
54742SOL    HW164250  10.250   5.655   5.031
54742SOL    HW264251  10.297   5.731   5.168
54743SOL     OW64252  10.290   6.702   5.443
54743SOL    HW164253  10.191   6.708   5.453
54743SOL    HW264254  10.313   6.622   5.387
54744SOL     OW64255  10.015   6.636   4.092
54744SOL    HW164256  10.001   6.643   4.191
54744SOL    HW264257  10.099   6.585   4.074
54745SOL     OW64258   9.720   6.399   4.975
54745SOL    HW164259   9.806   6.411   5.025
54745SOL    HW264260   9.678   6.312   5.002
54746SOL     OW64261  10.584   5.972   4.986
54746SOL    HW164262  10.605   6.046   5.050
54746SOL    HW264263  10.495   5.989   4.943
54747SOL     OW64264   9.374   7.150   5.055
54747SOL    HW164265   9.328   7.232   5.021
54747SOL    HW264266   9.472   7.169   5.064
54748SOL     OW64267   9.677   6.686   4.225
54748SOL    HW164268   9.670   6.769   4.169
54748SOL    HW264269   9.681   6.606   4.165
54749SOL     OW64270   9.876   6.123   4.589
54749SOL    HW164271   9.888   6.189   4.515
54749SOL    HW264272   9.922   6.157   4.672
54750SOL     OW64273  10.562   6.934   4.112
54750SOL    HW164274  10.612   7.011   4.152
54750SOL    HW264275  10.467   6.936   4.144
54751SOL     OW64276  10.582   7.031   4.866
54751SOL    HW164277  10.629   7.044   4.953
54751SOL    HW264278  10.516   6.957   4.875
54752SOL     OW64279  10.892   6.225   4.196
54752SOL    HW164280  10.861   6.286   4.269
54752SOL    HW264281  10.942   6.277   4.127
54753SOL     OW64282   9.664   7.096   5.053
54753SOL    HW164283   9.643   7.052   4.966
54753SOL    HW264284   9.761   7.122   5.056
54754SOL     OW64285   9.712   6.337   5.322
54754SOL    HW164286   9.780   6.392   5.275
54754SOL    HW264287   9.752   6.249   5.349
54755SOL     OW64288  10.897   6.365   5.394
54755SOL    HW164289  10.805   6.403   5.389
54755SOL    HW264290  10.957   6.412   5.329
54756SOL     OW64291  10.323   5.691   5.494
54756SOL    HW164292  10.329   5.776   5.442
54756SOL    HW264293  10.355   5.615   5.437
54757SOL     OW64294   9.814   5.636   5.464
54757SOL    HW164295   9.772   5.579   5.394
54757SOL    HW264296   9.748   5.705   5.496
54758SOL     OW64297   9.883   6.456   4.753
54758SOL    HW164298   9.927   6.545   4.744
54758SOL    HW264299   9.820   6.456   4.830
54759SOL     OW64300  10.670   6.448   4.769
54759SOL    HW164301  10.595   6.448   4.703
54759SOL    HW264302  10.707   6.356   4.778
54760SOL     OW64303  10.519   6.111   3.999
54760SOL    HW164304  10.532   6.027   4.053
54760SOL    HW264305  10.490   6.185   4.059
54761SOL     OW64306   9.617   5.799   4.955
54761SOL    HW164307   9.594   5.836   5.045
54761SOL    HW264308   9.587   5.704   4.949
54762SOL     OW64309   9.347   6.896   5.006
54762SOL    HW164310   9.400   6.847   5.074
54762SOL    HW264311   9.369   6.994   5.011
54763SOL     OW64312  10.042   6.220   4.788
54763SOL    HW164313  10.101   6.194   4.712
54763SOL    HW264314  10.014   6.316   4.777
54764SOL     OW64315  11.038   6.521   5.578
54764SOL    HW164316  10.992   6.514   5.489
54764SOL    HW264317  10.976   6.565   5.644
54765SOL     OW64318   9.617   5.649   4.342
54765SOL    HW164319   9.606   5.743   4.375
54765SOL    HW264320   9.612   5.586   4.419
54766SOL     OW64321  10.932   5.953   4.098
54766SOL    HW164322  10.934   5.877   4.162
54766SOL    HW264323  10.884   6.030   4.138
54767SOL     OW64324  10.333   6.352   4.690
54767SOL    HW164325  10.348   6.373   4.786
54767SOL    HW264326  10.303   6.257   4.681
54768SOL     OW64327  10.290   7.159   5.424
54768SOL    HW164328  10.270   7.203   5.336
54768SOL    HW264329  10.329   7.068   5.408
54769SOL     OW64330  11.169   7.104   5.329
54769SOL    HW164331  11.183   7.131   5.234
54769SOL    HW264332  11.252   7.126   5.382
54770SOL     OW64333   9.660   6.484   5.528
54770SOL    HW164334   9.736   6.528   5.576
54770SOL    HW264335   9.695   6.437   5.446
54771SOL     OW64336  10.850   5.860   3.849
54771SOL    HW164337  10.789   5.785   3.872
54771SOL    HW264338  10.872   5.912   3.932
54772SOL     OW64339  10.613   6.424   3.766
54772SOL    HW164340  10.647   6.331   3.781
54772SOL    HW264341  10.631   6.451   3.671
54773SOL     OW64342  10.378   6.919   4.573
54773SOL    HW164343  10.385   6.835   4.518
54773SOL    HW264344  10.440   6.988   4.537
54774SOL     OW64345   9.629   6.396   4.673
54774SOL    HW164346   9.722   6.432   4.678
54774SOL    HW264347   9.623   6.311   4.725
54775SOL     OW64348   9.649   6.095   4.730
54775SOL    HW164349   9.597   6.012   4.713
54775SOL    HW264350   9.726   6.100   4.666
54776SOL     OW64351  10.448   5.966   5.402
54776SOL    HW164352  10.403   6.029   5.466
54776SOL    HW264353  10.541   5.997   5.385
54777SOL     OW64354  10.470   5.793   5.201
54777SOL    HW164355  10.470   5.857   5.278
54777SOL    HW264356  10.498   5.841   5.118
54778SOL     OW64357   9.318   6.912   3.924
54778SOL    HW164358   9.225   6.933   3.893
54778SOL    HW264359   9.328   6.813   3.937
54779SOL     OW64360   9.398   7.387   4.651
54779SOL    HW164361   9.356   7.301   4.624
54779SOL    HW264362   9.492   7.390   4.617
54780SOL     OW64363   9.814   7.154   4.634
54780SOL    HW164364   9.880   7.228   4.643
54780SOL    HW264365   9.858   7.075   4.592
54781SOL     OW64366  10.312   6.382   4.962
54781SOL    HW164367  10.353   6.350   5.048
54781SOL    HW264368  10.216   6.355   4.959
54782SOL     OW64369   9.350   6.130   4.838
54782SOL    HW164370   9.435   6.097   4.797
54782SOL    HW264371   9.363   6.145   4.936
54783SOL     OW64372   9.499   6.106   5.446
54783SOL    HW164373   9.558   6.066   5.376
54783SOL    HW264374   9.441   6.177   5.405
54784SOL     OW64375  10.679   6.536   5.384
54784SOL    HW164376  10.718   6.625   5.404
54784SOL    HW264377  10.689   6.516   5.287
54785SOL     OW64378  10.125   6.158   4.049
54785SOL    HW164379  10.132   6.069   4.003
54785SOL    HW264380  10.031   6.192   4.041
54786SOL     OW64381  10.967   6.190   4.930
54786SOL    HW164382  10.929   6.121   4.992
54786SOL    HW264383  11.049   6.154   4.886
54787SOL     OW64384   9.562   7.150   5.468
54787SOL    HW164385   9.532   7.207   5.544
54787SOL    HW264386   9.555   7.053   5.494
54788SOL     OW64387   9.981   6.050   4.993
54788SOL    HW164388   9.947   5.961   4.963
54788SOL    HW264389  10.007   6.104   4.913
54789SOL     OW64390  10.240   7.264   5.189
54789SOL    HW164391  10.216   7.246   5.094
54789SOL    HW264392  10.270   7.358   5.199
54790SOL     OW64393   9.783   6.086   3.915
54790SOL    HW164394   9.844   6.166   3.919
54790SOL    HW264395   9.688   6.117   3.922
54791SOL     OW64396   9.469   6.723   5.190
54791SOL    HW164397   9.491   6.662   5.266
54791SOL    HW264398   9.479   6.674   5.104
54792SOL     OW64399  10.657   6.645   4.958
54792SOL    HW164400  10.681   6.582   4.884
54792SOL    HW264401  10.567   6.685   4.940
54793SOL     OW64402  10.612   6.441   4.033
54793SOL    HW164403  10.526   6.410   4.075
54793SOL    HW264404  10.608   6.427   3.934
54794SOL     OW64405  11.069   7.333   4.878
54794SOL    HW164406  11.130   7.363   4.805
54794SOL    HW264407  11.031   7.244   4.856
54795SOL     OW64408  10.562   7.317   4.852
54795SOL    HW164409  10.646   7.322   4.798
54795SOL    HW264410  10.539   7.221   4.870
54796SOL     OW64411   9.393   6.844   4.746
54796SOL    HW164412   9.388   6.843   4.846
54796SOL    HW264413   9.310   6.803   4.708
54797SOL     OW64414   9.998   7.248   5.440
54797SOL    HW164415   9.942   7.329   5.449
54797SOL    HW264416  10.050   7.252   5.354
54798SOL     OW64417  11.036   5.721   4.247
54798SOL    HW164418  11.109   5.704   4.180
54798SOL    HW264419  11.005   5.634   4.285
54799SOL     OW64420  10.698   7.159   4.201
54799SOL    HW164421  10.765   7.171   4.127
54799SOL    HW264422  10.658   7.248   4.224
54800SOL     OW64423   9.440   7.380   5.575
54800SOL    HW164424   9.399   7.306   5.628
54800SOL    HW264425   9.504   7.431   5.633
54801SOL     OW64426  10.590   6.513   4.396
54801SOL    HW164427  10.650   6.432   4.398
54801SOL    HW264428  10.630   6.582   4.336
54802SOL     OW64429  10.140   6.859   5.146
54802SOL    HW164430  10.135   6.892   5.241
54802SOL    HW264431  10.054   6.878   5.100
54803SOL     OW64432   9.982   7.202   3.878
54803SOL    HW164433   9.991   7.212   3.779
54803SOL    HW264434   9.942   7.113   3.899
54804SOL     OW64435  10.960   7.306   5.118
54804SOL    HW164436  11.013   7.316   5.034
54804SOL    HW264437  10.933   7.396   5.152
54805SOL     OW64438  11.151   5.761   4.687
54805SOL    HW164439  11.190   5.676   4.651
54805SOL    HW264440  11.053   5.763   4.668
54806SOL     OW64441   9.573   5.912   4.444
54806SOL    HW164442   9.494   5.963   4.410
54806SOL    HW264443   9.564   5.897   4.542
54807SOL     OW64444  10.504   7.198   3.755
54807SOL    HW164445  10.510   7.105   3.792
54807SOL    HW264446  10.445   7.198   3.675
54808SOL     OW64447  10.132   6.588   5.096
54808SOL    HW164448  10.172   6.587   5.004
54808SOL    HW264449  10.142   6.680   5.136
54809SOL     OW64450  10.226   6.496   4.015
54809SOL    HW164451  10.289   6.534   3.947
54809SOL    HW264452  10.266   6.413   4.054
54810SOL     OW64453  10.814   7.193   3.768
54810SOL    HW164454  10.722   7.230   3.775
54810SOL    HW264455  10.852   7.213   3.678
54811SOL     OW64456   9.682   6.874   5.214
54811SOL    HW164457   9.669   6.967   5.180
54811SOL    HW264458   9.598   6.822   5.201
54812SOL     OW64459  10.924   6.878   5.013
54812SOL    HW164460  10.984   6.881   5.093
54812SOL    HW264461  10.849   6.942   5.026
54813SOL     OW64462  10.349   6.684   4.420
54813SOL    HW164463  10.279   6.637   4.474
54813SOL    HW264464  10.408   6.616   4.377
54814SOL     OW64465  10.324   5.822   4.695
54814SOL    HW164466  10.316   5.786   4.602
54814SOL    HW264467  10.322   5.746   4.760
54815SOL     OW64468   9.900   7.073   4.215
54815SOL    HW164469   9.942   7.015   4.145
54815SOL    HW264470   9.856   7.152   4.171
54816SOL     OW64471  11.019   5.971   5.105
54816SOL    HW164472  11.092   6.040   5.109
54816SOL    HW264473  11.047   5.896   5.046
54817SOL     OW64474   9.565   6.934   4.014
54817SOL    HW164475   9.469   6.935   3.987
54817SOL    HW264476   9.577   6.987   4.098
54818SOL     OW64477   9.415   6.599   5.450
54818SOL    HW164478   9.338   6.566   5.504
54818SOL    HW264479   9.500   6.569   5.492
54819SOL     OW64480   9.982   5.789   5.213
54819SOL    HW164481  10.072   5.773   5.173
54819SOL    HW264482   9.990   5.794   5.312
54820SOL     OW64483   9.385   5.931   3.757
54820SOL    HW164484   9.293   5.903   3.728
54820SOL    HW264485   9.416   6.008   3.701
54821SOL     OW64486  10.750   6.442   5.122
54821SOL    HW164487  10.693   6.494   5.059
54821SOL    HW264488  10.846   6.454   5.098
54822SOL     OW64489   9.382   5.752   4.042
54822SOL    HW164490   9.365   5.835   3.988
54822SOL    HW264491   9.472   5.715   4.020
54823SOL     OW64492  10.493   6.921   3.843
54823SOL    HW164493  10.394   6.910   3.845
54823SOL    HW264494  10.527   6.936   3.936
54824SOL     OW64495   9.923   6.428   5.155
54824SOL    HW164496   9.979   6.509   5.138
54824SOL    HW264497   9.982   6.348   5.158
54825SOL     OW64498  10.803   7.353   4.683
54825SOL    HW164499  10.836   7.417   4.614
54825SOL    HW264500  10.869   7.347   4.758
54826SOL     OW64501  10.026   6.151   5.432
54826SOL    HW164502  10.045   6.216   5.506
54826SOL    HW264503  10.086   6.071   5.441
54827SOL     OW64504  10.760   6.806   5.357
54827SOL    HW164505  10.751   6.796   5.456
54827SOL    HW264506  10.856   6.799   5.331
54828SOL     OW64507   9.700   7.327   5.284
54828SOL    HW164508   9.609   7.368   5.282
54828SOL    HW264509   9.693   7.233   5.316
54829SOL     OW64510  10.984   6.469   4.978
54829SOL    HW164511  10.957   6.380   4.941
54829SOL    HW264512  10.985   6.537   4.905
54830SOL     OW64513  10.535   5.911   4.173
54830SOL    HW164514  10.600   5.837   4.162
54830SOL    HW264515  10.555   5.961   4.257
54831SOL     OW64516   9.904   6.331   4.376
54831SOL    HW164517   9.954   6.416   4.357
54831SOL    HW264518   9.816   6.333   4.328
54832SOL     OW64519  11.087   5.928   5.366
54832SOL    HW164520  11.070   5.959   5.272
54832SOL    HW264521  11.003   5.891   5.404
54833SOL     OW64522  11.040   6.520   5.241
54833SOL    HW164523  11.078   6.611   5.256
54833SOL    HW264524  11.032   6.503   5.142
54834SOL     OW64525  10.169   6.960   3.740
54834SOL    HW164526  10.123   6.975   3.828
54834SOL    HW264527  10.213   7.045   3.710
54835SOL     OW64528   9.971   7.376   4.677
54835SOL    HW164529   9.925   7.464   4.664
54835SOL    HW264530  10.070   7.388   4.670
54836SOL     OW64531  10.169   6.542   4.585
54836SOL    HW164532  10.223   6.473   4.633
54836SOL    HW264533  10.137   6.611   4.651
54837SOL     OW64534  10.393   6.570   3.811
54837SOL    HW164535  10.370   6.623   3.729
54837SOL    HW264536  10.474   6.514   3.792
54838SOL     OW64537  11.171   7.155   4.575
54838SOL    HW164538  11.100   7.143   4.505
54838SOL    HW264539  11.172   7.076   4.635
54839SOL     OW64540   9.531   6.900   5.568
54839SOL    HW164541   9.466   6.827   5.547
54839SOL    HW264542   9.535   6.914   5.666
54840SOL     OW64543   9.389   6.826   4.377
54840SOL    HW164544   9.388   6.779   4.465
54840SOL    HW264545   9.471   6.798   4.326
54841SOL     OW64546   9.982   6.977   5.348
54841SOL    HW164547   9.904   6.927   5.386
54841SOL    HW264548   9.979   7.072   5.379
54842SOL     OW64549  11.134   5.778   4.951
54842SOL    HW164550  11.130   5.688   4.995
54842SOL    HW264551  11.137   5.767   4.852
54843SOL     OW64552   9.738   6.010   4.244
54843SOL    HW164553   9.768   5.938   4.182
54843SOL    HW264554   9.699   5.970   4.327
54844SOL     OW64555  11.015   7.073   4.828
54844SOL    HW164556  10.922   7.048   4.801
54844SOL    HW264557  11.041   7.023   4.910
54845SOL     OW64558   9.627   6.133   5.004
54845SOL    HW164559   9.665   6.074   5.076
54845SOL    HW264560   9.667   6.107   4.916
54846SOL     OW64561  10.122   7.172   4.411
54846SOL    HW164562  10.154   7.182   4.317
54846SOL    HW264563  10.043   7.110   4.413
54847SOL     OW64564  10.734   5.800   4.836
54847SOL    HW164565  10.786   5.735   4.891
54847SOL    HW264566  10.685   5.863   4.897
54848SOL     OW64567  10.311   5.620   4.878
54848SOL    HW164568  10.248   5.548   4.847
54848SOL    HW264569  10.404   5.584   4.878
54849SOL     OW64570  10.080   6.916   4.025
54849SOL    HW164571  10.034   6.829   4.042
54849SOL    HW264572  10.171   6.913   4.066
54850SOL     OW64573   9.928   7.153   5.008
54850SOL    HW164574   9.923   7.235   5.065
54850SOL    HW264575  10.017   7.150   4.963
54851SOL     OW64576  10.662   5.638   3.892
54851SOL    HW164577  10.697   5.597   3.808
54851SOL    HW264578  10.572   5.600   3.912
54852SOL     OW64579  10.610   6.039   4.415
54852SOL    HW164580  10.551   6.119   4.419
54852SOL    HW264581  10.625   6.004   4.508
54853SOL     OW64582  10.903   5.807   4.606
54853SOL    HW164583  10.819   5.806   4.660
54853SOL    HW264584  10.905   5.890   4.550
54854SOL     OW64585   9.349   6.663   4.024
54854SOL    HW164586   9.448   6.652   4.015
54854SOL    HW264587   9.309   6.577   4.056
54855SOL     OW64588  10.185   7.232   4.061
54855SOL    HW164589  10.108   7.197   4.007
54855SOL    HW264590  10.153   7.303   4.123
54856SOL     OW64591   9.540   6.214   5.699
54856SOL    HW164592   9.447   6.212   5.736
54856SOL    HW264593   9.541   6.175   5.607
54857SOL     OW64594   9.535   5.861   6.582
54857SOL    HW164595   9.570   5.844   6.674
54857SOL    HW264596   9.447   5.816   6.570
54858SOL     OW64597   9.329   5.954   6.233
54858SOL    HW164598   9.247   5.997   6.272
54858SOL    HW264599   9.301   5.881   6.170
54859SOL     OW64600  10.865   7.097   6.289
54859SOL    HW164601  10.808   7.081   6.370
54859SOL    HW264602  10.806   7.107   6.209
54860SOL     OW64603  10.445   6.289   6.303
54860SOL    HW164604  10.502   6.367   6.278
54860SOL    HW264605  10.385   6.315   6.379
54861SOL     OW64606  11.065   6.193   5.817
54861SOL    HW164607  11.053   6.180   5.718
54861SOL    HW264608  11.035   6.112   5.866
54862SOL     OW64609  10.078   6.730   6.609
54862SOL    HW164610  10.000   6.747   6.669
54862SOL    HW264611  10.112   6.817   6.573
54863SOL     OW64612  10.160   6.384   7.409
54863SOL    HW164613  10.156   6.460   7.474
54863SOL    HW264614  10.182   6.420   7.318
54864SOL     OW64615   9.995   6.598   6.251
54864SOL    HW164616  10.064   6.582   6.321
54864SOL    HW264617   9.922   6.655   6.289
54865SOL     OW64618   9.996   6.747   7.389
54865SOL    HW164619  10.056   6.826   7.403
54865SOL    HW264620   9.910   6.778   7.348
54866SOL     OW64621   9.645   7.021   6.647
54866SOL    HW164622   9.567   6.990   6.594
54866SOL    HW264623   9.703   7.079   6.590
54867SOL     OW64624  10.770   7.091   6.925
54867SOL    HW164625  10.794   7.185   6.951
54867SOL    HW264626  10.754   7.037   7.007
54868SOL     OW64627   9.748   5.978   7.085
54868SOL    HW164628   9.830   5.922   7.094
54868SOL    HW264629   9.667   5.920   7.089
54869SOL     OW64630  10.913   6.033   6.323
54869SOL    HW164631  10.839   6.079   6.273
54869SOL    HW264632  10.964   6.101   6.376
54870SOL     OW64633   9.541   7.299   6.069
54870SOL    HW164634   9.575   7.376   6.123
54870SOL    HW264635   9.585   7.299   5.979
54871SOL     OW64636  10.437   6.927   7.276
54871SOL    HW164637  10.484   6.927   7.364
54871SOL    HW264638  10.389   6.840   7.265
54872SOL     OW64639   9.540   7.020   6.124
54872SOL    HW164640   9.514   7.116   6.124
54872SOL    HW264641   9.469   6.966   6.169
54873SOL     OW64642   9.550   6.677   6.472
54873SOL    HW164643   9.564   6.593   6.524
54873SOL    HW264644   9.495   6.741   6.527
54874SOL     OW64645   9.930   7.372   7.025
54874SOL    HW164646   9.838   7.355   7.060
54874SOL    HW264647   9.958   7.464   7.051
54875SOL     OW64648   9.916   6.550   5.709
54875SOL    HW164649   9.923   6.634   5.655
54875SOL    HW264650   9.962   6.563   5.797
54876SOL     OW64651  10.904   5.700   7.066
54876SOL    HW164652  10.886   5.767   6.994
54876SOL    HW264653  10.901   5.746   7.155
54877SOL     OW64654   9.432   6.229   6.149
54877SOL    HW164655   9.387   6.141   6.166
54877SOL    HW264656   9.431   6.283   6.233
54878SOL     OW64657  11.152   7.353   5.945
54878SOL    HW164658  11.206   7.324   6.025
54878SOL    HW264659  11.182   7.443   5.916
54879SOL     OW64660   9.337   7.182   5.703
54879SOL    HW164661   9.318   7.086   5.724
54879SOL    HW264662   9.304   7.240   5.778
54880SOL     OW64663  10.999   6.508   6.198
54880SOL    HW164664  11.094   6.479   6.206
54880SOL    HW264665  10.991   6.573   6.123
54881SOL     OW64666  10.951   6.694   6.018
54881SOL    HW164667  11.037   6.696   5.966
54881SOL    HW264668  10.965   6.741   6.106
54882SOL     OW64669   9.423   6.323   7.183
54882SOL    HW164670   9.511   6.310   7.228
54882SOL    HW264671   9.410   6.420   7.161
54883SOL     OW64672   9.923   6.951   6.312
54883SOL    HW164673   9.874   6.864   6.321
54883SOL    HW264674   9.900   6.994   6.225
54884SOL     OW64675  10.603   6.814   7.009
54884SOL    HW164676  10.640   6.741   6.951
54884SOL    HW264677  10.655   6.819   7.094
54885SOL     OW64678  10.119   5.590   6.088
54885SOL    HW164679  10.159   5.681   6.079
54885SOL    HW264680  10.019   5.598   6.094
54886SOL     OW64681   9.507   6.562   6.850
54886SOL    HW164682   9.596   6.517   6.836
54886SOL    HW264683   9.434   6.497   6.831
54887SOL     OW64684  10.835   6.585   5.776
54887SOL    HW164685  10.772   6.509   5.789
54887SOL    HW264686  10.883   6.603   5.862
54888SOL     OW64687  10.497   7.378   7.202
54888SOL    HW164688  10.521   7.438   7.126
54888SOL    HW264689  10.504   7.283   7.172
54889SOL     OW64690   9.627   5.837   7.387
54889SOL    HW164691   9.698   5.908   7.393
54889SOL    HW264692   9.539   5.876   7.415
54890SOL     OW64693  10.776   7.003   6.539
54890SOL    HW164694  10.717   7.009   6.619
54890SOL    HW264695  10.761   6.915   6.493
54891SOL     OW64696  10.977   7.300   6.158
54891SOL    HW164697  10.936   7.277   6.070
54891SOL    HW264698  10.959   7.226   6.223
54892SOL     OW64699   9.908   6.315   5.856
54892SOL    HW164700   9.932   6.384   5.788
54892SOL    HW264701   9.830   6.348   5.910
54893SOL     OW64702  10.591   5.931   6.530
54893SOL    HW164703  10.505   5.881   6.517
54893SOL    HW264704  10.653   5.877   6.586
54894SOL     OW64705  10.886   7.248   5.893
54894SOL    HW164706  10.975   7.294   5.896
54894SOL    HW264707  10.865   7.224   5.798
54895SOL     OW64708  10.117   6.191   7.051
54895SOL    HW164709  10.070   6.188   7.140
54895SOL    HW264710  10.066   6.136   6.985
54896SOL     OW64711  10.704   6.055   7.260
54896SOL    HW164712  10.684   6.098   7.348
54896SOL    HW264713  10.782   5.993   7.269
54897SOL     OW64714  10.283   6.476   7.158
54897SOL    HW164715  10.329   6.392   7.129
54897SOL    HW264716  10.227   6.510   7.083
54898SOL     OW64717  10.301   5.996   6.828
54898SOL    HW164718  10.224   6.030   6.882
54898SOL    HW264719  10.267   5.945   6.749
54899SOL     OW64720  10.351   6.287   6.015
54899SOL    HW164721  10.377   6.283   6.111
54899SOL    HW264722  10.266   6.236   6.001
54900SOL     OW64723   9.386   6.397   6.375
54900SOL    HW164724   9.485   6.385   6.384
54900SOL    HW264725   9.362   6.492   6.396
54901SOL     OW64726   9.440   7.407   7.157
54901SOL    HW164727   9.430   7.392   7.256
54901SOL    HW264728   9.354   7.443   7.121
54902SOL     OW64729  10.175   5.934   5.781
54902SOL    HW164730  10.234   5.997   5.732
54902SOL    HW264731  10.194   5.840   5.752
54903SOL     OW64732  11.029   6.171   7.417
54903SOL    HW164733  11.003   6.260   7.381
54903SOL    HW264734  11.027   6.103   7.344
54904SOL     OW64735  10.672   6.730   6.131
54904SOL    HW164736  10.755   6.701   6.083
54904SOL    HW264737  10.623   6.797   6.075
54905SOL     OW64738   9.860   5.782   6.471
54905SOL    HW164739   9.855   5.777   6.571
54905SOL    HW264740   9.862   5.878   6.442
54906SOL     OW64741  10.318   7.042   6.063
54906SOL    HW164742  10.272   7.114   6.011
54906SOL    HW264743  10.314   7.062   6.161
54907SOL     OW64744   9.661   7.387   6.439
54907SOL    HW164745   9.711   7.301   6.445
54907SOL    HW264746   9.726   7.464   6.436
54908SOL     OW64747  11.105   6.652   6.459
54908SOL    HW164748  11.043   6.637   6.383
54908SOL    HW264749  11.053   6.663   6.544
54909SOL     OW64750  10.537   7.136   7.092
54909SOL    HW164751  10.543   7.059   7.156
54909SOL    HW264752  10.485   7.110   7.012
54910SOL     OW64753   9.631   6.529   5.828
54910SOL    HW164754   9.713   6.568   5.786
54910SOL    HW264755   9.604   6.447   5.779
54911SOL     OW64756  10.768   6.321   6.314
54911SOL    HW164757  10.763   6.256   6.389
54911SOL    HW264758  10.848   6.380   6.327
54912SOL     OW64759   9.771   6.852   7.313
54912SOL    HW164760   9.721   6.853   7.227
54912SOL    HW264761   9.708   6.834   7.389
54913SOL     OW64762  10.421   7.362   5.823
54913SOL    HW164763  10.361   7.300   5.873
54913SOL    HW264764  10.452   7.318   5.738
54914SOL     OW64765   9.512   5.871   7.084
54914SOL    HW164766   9.432   5.931   7.071
54914SOL    HW264767   9.502   5.822   7.170
54915SOL     OW64768  10.942   6.963   5.667
54915SOL    HW164769  10.910   7.057   5.657
54915SOL    HW264770  10.866   6.900   5.655
54916SOL     OW64771   9.774   7.329   5.909
54916SOL    HW164772   9.807   7.368   5.995
54916SOL    HW264773   9.850   7.322   5.844
54917SOL     OW64774  10.710   5.693   6.012
54917SOL    HW164775  10.686   5.656   5.922
54917SOL    HW264776  10.809   5.709   6.016
54918SOL     OW64777   9.559   7.371   6.827
54918SOL    HW164778   9.616   7.306   6.877
54918SOL    HW264779   9.543   7.338   6.734
54919SOL     OW64780  10.250   7.284   6.490
54919SOL    HW164781  10.330   7.227   6.511
54919SOL    HW264782  10.201   7.244   6.413
54920SOL     OW64783   9.692   6.286   6.066
54920SOL    HW164784   9.737   6.196   6.063
54920SOL    HW264785   9.598   6.275   6.099
54921SOL     OW64786  10.857   5.808   7.315
54921SOL    HW164787  10.852   5.845   7.407
54921SOL    HW264788  10.785   5.739   7.303
54922SOL     OW64789   9.924   5.708   5.703
54922SOL    HW164790  10.022   5.686   5.710
54922SOL    HW264791   9.893   5.691   5.610
54923SOL     OW64792  10.091   5.850   7.335
54923SOL    HW164793  10.158   5.789   7.378
54923SOL    HW264794  10.018   5.869   7.400
54924SOL     OW64795  10.198   7.100   6.781
54924SOL    HW164796  10.175   7.075   6.687
54924SOL    HW264797  10.259   7.031   6.820
54925SOL     OW64798  10.661   6.176   7.019
54925SOL    HW164799  10.689   6.133   7.104
54925SOL    HW264800  10.686   6.272   7.020
54926SOL     OW64801  10.113   6.988   6.510
54926SOL    HW164802  10.203   7.002   6.468
54926SOL    HW264803  10.042   6.990   6.439
54927SOL     OW64804  10.232   6.089   6.485
54927SOL    HW164805  10.207   6.080   6.389
54927SOL    HW264806  10.280   6.007   6.516
54928SOL     OW64807   9.849   5.650   6.098
54928SOL    HW164808   9.768   5.651   6.156
54928SOL    HW264809   9.852   5.733   6.043
54929SOL     OW64810  10.744   6.774   5.627
54929SOL    HW164811  10.776   6.698   5.684
54929SOL    HW264812  10.652   6.801   5.657
54930SOL     OW64813   9.607   5.621   5.757
54930SOL    HW164814   9.656   5.705   5.736
54930SOL    HW264815   9.669   5.556   5.802
54931SOL     OW64816  10.245   5.822   6.066
54931SOL    HW164817  10.197   5.863   5.988
54931SOL    HW264818  10.344   5.820   6.047
54932SOL     OW64819  10.386   6.269   7.050
54932SOL    HW164820  10.306   6.208   7.053
54932SOL    HW264821  10.467   6.216   7.026
54933SOL     OW64822  10.537   7.156   6.379
54933SOL    HW164823  10.558   7.230   6.314
54933SOL    HW264824  10.605   7.156   6.452
54934SOL     OW64825   9.769   6.738   6.327
54934SOL    HW164826   9.698   6.711   6.392
54934SOL    HW264827   9.743   6.710   6.234
54935SOL     OW64828  10.581   7.383   6.177
54935SOL    HW164829  10.625   7.447   6.113
54935SOL    HW264830  10.531   7.435   6.247
54936SOL     OW64831  10.342   6.135   5.602
54936SOL    HW164832  10.301   6.217   5.563
54936SOL    HW264833  10.406   6.161   5.675
54937SOL     OW64834   9.388   6.142   6.972
54937SOL    HW164835   9.480   6.141   6.931
54937SOL    HW264836   9.382   6.216   7.039
54938SOL     OW64837   9.871   5.808   6.733
54938SOL    HW164838   9.909   5.724   6.770
54938SOL    HW264839   9.783   5.827   6.777
54939SOL     OW64840  10.176   6.040   6.228
54939SOL    HW164841  10.144   6.112   6.166
54939SOL    HW264842  10.200   5.959   6.175
54940SOL     OW64843  10.739   6.759   6.453
54940SOL    HW164844  10.684   6.675   6.446
54940SOL    HW264845  10.765   6.788   6.361
54941SOL     OW64846  10.776   6.176   6.578
54941SOL    HW164847  10.746   6.081   6.585
54941SOL    HW264848  10.849   6.192   6.644
54942SOL     OW64849  11.167   6.419   5.963
54942SOL    HW164850  11.209   6.355   6.027
54942SOL    HW264851  11.129   6.368   5.885
54943SOL     OW64852   9.798   6.971   5.760
54943SOL    HW164853   9.711   6.956   5.807
54943SOL    HW264854   9.781   6.997   5.665
54944SOL     OW64855  10.974   6.866   6.243
54944SOL    HW164856  11.073   6.874   6.257
54944SOL    HW264857  10.929   6.950   6.274
54945SOL     OW64858  10.700   6.161   5.664
54945SOL    HW164859  10.646   6.140   5.745
54945SOL    HW264860  10.791   6.120   5.673
54946SOL     OW64861   9.837   5.842   5.914
54946SOL    HW164862   9.864   5.783   5.839
54946SOL    HW264863   9.837   5.937   5.883
54947SOL     OW64864  11.064   6.809   7.174
54947SOL    HW164865  11.155   6.770   7.161
54947SOL    HW264866  11.072   6.905   7.198
54948SOL     OW64867  10.374   6.933   6.926
54948SOL    HW164868  10.294   6.910   6.981
54948SOL    HW264869  10.457   6.907   6.975
54949SOL     OW64870  10.902   7.215   7.211
54949SOL    HW164871  10.929   7.249   7.121
54949SOL    HW264872  10.981   7.177   7.257
54950SOL     OW64873  10.421   6.781   6.686
54950SOL    HW164874  10.381   6.825   6.767
54950SOL    HW264875  10.380   6.818   6.603
54951SOL     OW64876  10.948   6.685   6.665
54951SOL    HW164877  10.953   6.766   6.724
54951SOL    HW264878  10.862   6.687   6.614
54952SOL     OW64879  10.225   5.675   6.988
54952SOL    HW164880  10.250   5.655   6.893
54952SOL    HW264881  10.297   5.731   7.030
54953SOL     OW64882  10.290   6.702   7.305
54953SOL    HW164883  10.191   6.708   7.315
54953SOL    HW264884  10.313   6.622   7.249
54954SOL     OW64885  10.015   6.636   5.954
54954SOL    HW164886  10.001   6.643   6.053
54954SOL    HW264887  10.099   6.585   5.936
54955SOL     OW64888   9.720   6.399   6.837
54955SOL    HW164889   9.806   6.411   6.887
54955SOL    HW264890   9.678   6.312   6.864
54956SOL     OW64891  10.584   5.972   6.848
54956SOL    HW164892  10.605   6.046   6.912
54956SOL    HW264893  10.495   5.989   6.805
54957SOL     OW64894   9.374   7.150   6.917
54957SOL    HW164895   9.328   7.232   6.883
54957SOL    HW264896   9.472   7.169   6.926
54958SOL     OW64897   9.677   6.686   6.087
54958SOL    HW164898   9.670   6.769   6.031
54958SOL    HW264899   9.681   6.606   6.027
54959SOL     OW64900   9.876   6.123   6.451
54959SOL    HW164901   9.888   6.189   6.377
54959SOL    HW264902   9.922   6.157   6.534
54960SOL     OW64903  10.562   6.934   5.974
54960SOL    HW164904  10.612   7.011   6.014
54960SOL    HW264905  10.467   6.936   6.006
54961SOL     OW64906  10.582   7.031   6.728
54961SOL    HW164907  10.629   7.044   6.815
54961SOL    HW264908  10.516   6.957   6.737
54962SOL     OW64909  10.892   6.225   6.058
54962SOL    HW164910  10.861   6.286   6.131
54962SOL    HW264911  10.942   6.277   5.989
54963SOL     OW64912   9.664   7.096   6.915
54963SOL    HW164913   9.643   7.052   6.828
54963SOL    HW264914   9.761   7.122   6.918
54964SOL     OW64915   9.712   6.337   7.184
54964SOL    HW164916   9.780   6.392   7.137
54964SOL    HW264917   9.752   6.249   7.211
54965SOL     OW64918  10.897   6.365   7.256
54965SOL    HW164919  10.805   6.403   7.251
54965SOL    HW264920  10.957   6.412   7.191
54966SOL     OW64921  10.323   5.691   7.356
54966SOL    HW164922  10.329   5.776   7.304
54966SOL    HW264923  10.355   5.615   7.299
54967SOL     OW64924   9.814   5.636   7.326
54967SOL    HW164925   9.772   5.579   7.256
54967SOL    HW264926   9.748   5.705   7.358
54968SOL     OW64927   9.883   6.456   6.615
54968SOL    HW164928   9.927   6.545   6.606
54968SOL    HW264929   9.820   6.456   6.692
54969SOL     OW64930  10.670   6.448   6.631
54969SOL    HW164931  10.595   6.448   6.565
54969SOL    HW264932  10.707   6.356   6.640
54970SOL     OW64933  10.519   6.111   5.861
54970SOL    HW164934  10.532   6.027   5.915
54970SOL    HW264935  10.490   6.185   5.921
54971SOL     OW64936   9.617   5.799   6.817
54971SOL    HW164937   9.594   5.836   6.907
54971SOL    HW264938   9.587   5.704   6.811
54972SOL     OW64939   9.347   6.896   6.868
54972SOL    HW164940   9.400   6.847   6.936
54972SOL    HW264941   9.369   6.994   6.873
54973SOL     OW64942  10.042   6.220   6.650
54973SOL    HW164943  10.101   6.194   6.574
54973SOL    HW264944  10.014   6.316   6.639
54974SOL     OW64945  11.038   6.521   7.440
54974SOL    HW164946  10.992   6.514   7.351
54974SOL    HW264947  10.976   6.565   7.506
54975SOL     OW64948   9.617   5.649   6.204
54975SOL    HW164949   9.606   5.743   6.237
54975SOL    HW264950   9.612   5.586   6.281
54976SOL     OW64951  10.932   5.953   5.960
54976SOL    HW164952  10.934   5.877   6.024
54976SOL    HW264953  10.884   6.030   6.000
54977SOL     OW64954  10.333   6.352   6.552
54977SOL    HW164955  10.348   6.373   6.648
54977SOL    HW264956  10.303   6.257   6.543
54978SOL     OW64957  10.290   7.159   7.286
54978SOL    HW164958  10.270   7.203   7.198
54978SOL    HW264959  10.329   7.068   7.270
54979SOL     OW64960  11.169   7.104   7.191
54979SOL    HW164961  11.183   7.131   7.096
54979SOL    HW264962  11.252   7.126   7.244
54980SOL     OW64963   9.660   6.484   7.390
54980SOL    HW164964   9.736   6.528   7.438
54980SOL    HW264965   9.695   6.437   7.308
54981SOL     OW64966  10.850   5.860   5.711
54981SOL    HW164967  10.789   5.785   5.734
54981SOL    HW264968  10.872   5.912   5.794
54982SOL     OW64969  10.613   6.424   5.628
54982SOL    HW164970  10.647   6.331   5.643
54982SOL    HW264971  10.631   6.451   5.533
54983SOL     OW64972  10.378   6.919   6.435
54983SOL    HW164973  10.385   6.835   6.380
54983SOL    HW264974  10.440   6.988   6.399
54984SOL     OW64975   9.629   6.396   6.535
54984SOL    HW164976   9.722   6.432   6.540
54984SOL    HW264977   9.623   6.311   6.587
54985SOL     OW64978   9.649   6.095   6.592
54985SOL    HW164979   9.597   6.012   6.575
54985SOL    HW264980   9.726   6.100   6.528
54986SOL     OW64981  10.448   5.966   7.264
54986SOL    HW164982  10.403   6.029   7.328
54986SOL    HW264983  10.541   5.997   7.247
54987SOL     OW64984  10.470   5.793   7.063
54987SOL    HW164985  10.470   5.857   7.140
54987SOL    HW264986  10.498   5.841   6.980
54988SOL     OW64987   9.318   6.912   5.786
54988SOL    HW164988   9.225   6.933   5.755
54988SOL    HW264989   9.328   6.813   5.799
54989SOL     OW64990   9.398   7.387   6.513
54989SOL    HW164991   9.356   7.301   6.486
54989SOL    HW264992   9.492   7.390   6.479
54990SOL     OW64993   9.814   7.154   6.496
54990SOL    HW164994   9.880   7.228   6.505
54990SOL    HW264995   9.858   7.075   6.454
54991SOL     OW64996  10.312   6.382   6.824
54991SOL    HW164997  10.353   6.350   6.910
54991SOL    HW264998  10.216   6.355   6.821
54992SOL     OW64999   9.350   6.130   6.700
54992SOL    HW165000   9.435   6.097   6.659
54992SOL    HW265001   9.363   6.145   6.798
54993SOL     OW65002   9.499   6.106   7.308
54993SOL    HW165003   9.558   6.066   7.238
54993SOL    HW265004   9.441   6.177   7.267
54994SOL     OW65005  10.679   6.536   7.246
54994SOL    HW165006  10.718   6.625   7.266
54994SOL    HW265007  10.689   6.516   7.149
54995SOL     OW65008  10.125   6.158   5.911
54995SOL    HW165009  10.132   6.069   5.865
54995SOL    HW265010  10.031   6.192   5.903
54996SOL     OW65011  10.967   6.190   6.792
54996SOL    HW165012  10.929   6.121   6.854
54996SOL    HW265013  11.049   6.154   6.748
54997SOL     OW65014   9.562   7.150   7.330
54997SOL    HW165015   9.532   7.207   7.406
54997SOL    HW265016   9.555   7.053   7.356
54998SOL     OW65017   9.981   6.050   6.855
54998SOL    HW165018   9.947   5.961   6.825
54998SOL    HW265019  10.007   6.104   6.775
54999SOL     OW65020  10.240   7.264   7.051
54999SOL    HW165021  10.216   7.246   6.956
54999SOL    HW265022  10.270   7.358   7.061
55000SOL     OW65023   9.783   6.086   5.777
55000SOL    HW165024   9.844   6.166   5.781
55000SOL    HW265025   9.688   6.117   5.784
55001SOL     OW65026   9.469   6.723   7.052
55001SOL    HW165027   9.491   6.662   7.128
55001SOL    HW265028   9.479   6.674   6.966
55002SOL     OW65029  10.657   6.645   6.820
55002SOL    HW165030  10.681   6.582   6.746
55002SOL    HW265031  10.567   6.685   6.802
55003SOL     OW65032  10.612   6.441   5.895
55003SOL    HW165033  10.526   6.410   5.937
55003SOL    HW265034  10.608   6.427   5.796
55004SOL     OW65035  11.069   7.333   6.740
55004SOL    HW165036  11.130   7.363   6.667
55004SOL    HW265037  11.031   7.244   6.718
55005SOL     OW65038  10.562   7.317   6.714
55005SOL    HW165039  10.646   7.322   6.660
55005SOL    HW265040  10.539   7.221   6.732
55006SOL     OW65041   9.393   6.844   6.608
55006SOL    HW165042   9.388   6.843   6.708
55006SOL    HW265043   9.310   6.803   6.570
55007SOL     OW65044   9.998   7.248   7.302
55007SOL    HW165045   9.942   7.329   7.311
55007SOL    HW265046  10.050   7.252   7.216
55008SOL     OW65047  11.036   5.721   6.109
55008SOL    HW165048  11.109   5.704   6.042
55008SOL    HW265049  11.005   5.634   6.147
55009SOL     OW65050  10.698   7.159   6.063
55009SOL    HW165051  10.765   7.171   5.989
55009SOL    HW265052  10.658   7.248   6.086
55010SOL     OW65053   9.440   7.380   7.437
55010SOL    HW165054   9.399   7.306   7.490
55010SOL    HW265055   9.504   7.431   7.495
55011SOL     OW65056  10.590   6.513   6.258
55011SOL    HW165057  10.650   6.432   6.260
55011SOL    HW265058  10.630   6.582   6.198
55012SOL     OW65059  10.140   6.859   7.008
55012SOL    HW165060  10.135   6.892   7.103
55012SOL    HW265061  10.054   6.878   6.962
55013SOL     OW65062   9.982   7.202   5.740
55013SOL    HW165063   9.991   7.212   5.641
55013SOL    HW265064   9.942   7.113   5.761
55014SOL     OW65065  10.960   7.306   6.980
55014SOL    HW165066  11.013   7.316   6.896
55014SOL    HW265067  10.933   7.396   7.014
55015SOL     OW65068  11.151   5.761   6.549
55015SOL    HW165069  11.190   5.676   6.513
55015SOL    HW265070  11.053   5.763   6.530
55016SOL     OW65071   9.573   5.912   6.306
55016SOL    HW165072   9.494   5.963   6.272
55016SOL    HW265073   9.564   5.897   6.404
55017SOL     OW65074  10.504   7.198   5.617
55017SOL    HW165075  10.510   7.105   5.654
55017SOL    HW265076  10.445   7.198   5.537
55018SOL     OW65077  10.132   6.588   6.958
55018SOL    HW165078  10.172   6.587   6.866
55018SOL    HW265079  10.142   6.680   6.998
55019SOL     OW65080  10.226   6.496   5.877
55019SOL    HW165081  10.289   6.534   5.809
55019SOL    HW265082  10.266   6.413   5.916
55020SOL     OW65083  10.814   7.193   5.630
55020SOL    HW165084  10.722   7.230   5.637
55020SOL    HW265085  10.852   7.213   5.540
55021SOL     OW65086   9.682   6.874   7.076
55021SOL    HW165087   9.669   6.967   7.042
55021SOL    HW265088   9.598   6.822   7.063
55022SOL     OW65089  10.924   6.878   6.875
55022SOL    HW165090  10.984   6.881   6.955
55022SOL    HW265091  10.849   6.942   6.888
55023SOL     OW65092  10.349   6.684   6.282
55023SOL    HW165093  10.279   6.637   6.336
55023SOL    HW265094  10.408   6.616   6.239
55024SOL     OW65095  10.324   5.822   6.557
55024SOL    HW165096  10.316   5.786   6.464
55024SOL    HW265097  10.322   5.746   6.622
55025SOL     OW65098   9.900   7.073   6.077
55025SOL    HW165099   9.942   7.015   6.007
55025SOL    HW265100   9.856   7.152   6.033
55026SOL     OW65101  11.019   5.971   6.967
55026SOL    HW165102  11.092   6.040   6.971
55026SOL    HW265103  11.047   5.896   6.908
55027SOL     OW65104   9.565   6.934   5.876
55027SOL    HW165105   9.469   6.935   5.849
55027SOL    HW265106   9.577   6.987   5.960
55028SOL     OW65107   9.415   6.599   7.312
55028SOL    HW165108   9.338   6.566   7.366
55028SOL    HW265109   9.500   6.569   7.354
55029SOL     OW65110   9.982   5.789   7.075
55029SOL    HW165111  10.072   5.773   7.035
55029SOL    HW265112   9.990   5.794   7.174
55030SOL     OW65113   9.385   5.931   5.619
55030SOL    HW165114   9.293   5.903   5.590
55030SOL    HW265115   9.416   6.008   5.563
55031SOL     OW65116  10.750   6.442   6.984
55031SOL    HW165117  10.693   6.494   6.921
55031SOL    HW265118  10.846   6.454   6.960
55032SOL     OW65119   9.382   5.752   5.904
55032SOL    HW165120   9.365   5.835   5.850
55032SOL    HW265121   9.472   5.715   5.882
55033SOL     OW65122  10.493   6.921   5.705
55033SOL    HW165123  10.394   6.910   5.707
55033SOL    HW265124  10.527   6.936   5.798
55034SOL     OW65125   9.923   6.428   7.017
55034SOL    HW165126   9.979   6.509   7.000
55034SOL    HW265127   9.982   6.348   7.020
55035SOL     OW65128  10.803   7.353   6.545
55035SOL    HW165129  10.836   7.417   6.476
55035SOL    HW265130  10.869   7.347   6.620
55036SOL     OW65131  10.026   6.151   7.294
55036SOL    HW165132  10.045   6.216   7.368
55036SOL    HW265133  10.086   6.071   7.303
55037SOL     OW65134  10.760   6.806   7.219
55037SOL    HW165135  10.751   6.796   7.318
55037SOL    HW265136  10.856   6.799   7.193
55038SOL     OW65137   9.700   7.327   7.146
55038SOL    HW165138   9.609   7.368   7.144
55038SOL    HW265139   9.693   7.233   7.178
55039SOL     OW65140  10.984   6.469   6.840
55039SOL    HW165141  10.957   6.380   6.803
55039SOL    HW265142  10.985   6.537   6.767
55040SOL     OW65143  10.535   5.911   6.035
55040SOL    HW165144  10.600   5.837   6.024
55040SOL    HW265145  10.555   5.961   6.119
55041SOL     OW65146   9.904   6.331   6.238
55041SOL    HW165147   9.954   6.416   6.219
55041SOL    HW265148   9.816   6.333   6.190
55042SOL     OW65149  11.087   5.928   7.228
55042SOL    HW165150  11.070   5.959   7.134
55042SOL    HW265151  11.003   5.891   7.266
55043SOL     OW65152  11.040   6.520   7.103
55043SOL    HW165153  11.078   6.611   7.118
55043SOL    HW265154  11.032   6.503   7.004
55044SOL     OW65155  10.169   6.960   5.602
55044SOL    HW165156  10.123   6.975   5.690
55044SOL    HW265157  10.213   7.045   5.572
55045SOL     OW65158   9.971   7.376   6.539
55045SOL    HW165159   9.925   7.464   6.526
55045SOL    HW265160  10.070   7.388   6.532
55046SOL     OW65161  10.169   6.542   6.447
55046SOL    HW165162  10.223   6.473   6.495
55046SOL    HW265163  10.137   6.611   6.513
55047SOL     OW65164  10.393   6.570   5.673
55047SOL    HW165165  10.370   6.623   5.591
55047SOL    HW265166  10.474   6.514   5.654
55048SOL     OW65167  11.171   7.155   6.437
55048SOL    HW165168  11.100   7.143   6.367
55048SOL    HW265169  11.172   7.076   6.497
55049SOL     OW65170   9.531   6.900   7.430
55049SOL    HW165171   9.466   6.827   7.409
55049SOL    HW265172   9.535   6.914   7.528
55050SOL     OW65173   9.389   6.826   6.239
55050SOL    HW165174   9.388   6.779   6.327
55050SOL    HW265175   9.471   6.798   6.188
55051SOL     OW65176   9.982   6.977   7.210
55051SOL    HW165177   9.904   6.927   7.248
55051SOL    HW265178   9.979   7.072   7.241
55052SOL     OW65179  11.134   5.778   6.813
55052SOL    HW165180  11.130   5.688   6.857
55052SOL    HW265181  11.137   5.767   6.714
55053SOL     OW65182   9.738   6.010   6.106
55053SOL    HW165183   9.768   5.938   6.044
55053SOL    HW265184   9.699   5.970   6.189
55054SOL     OW65185  11.015   7.073   6.690
55054SOL    HW165186  10.922   7.048   6.663
55054SOL    HW265187  11.041   7.023   6.772
55055SOL     OW65188   9.627   6.133   6.866
55055SOL    HW165189   9.665   6.074   6.938
55055SOL    HW265190   9.667   6.107   6.778
55056SOL     OW65191  10.122   7.172   6.273
55056SOL    HW165192  10.154   7.182   6.179
55056SOL    HW265193  10.043   7.110   6.275
55057SOL     OW65194  10.734   5.800   6.698
55057SOL    HW165195  10.786   5.735   6.753
55057SOL    HW265196  10.685   5.863   6.759
55058SOL     OW65197  10.311   5.620   6.740
55058SOL    HW165198  10.248   5.548   6.709
55058SOL    HW265199  10.404   5.584   6.740
55059SOL     OW65200  10.080   6.916   5.887
55059SOL    HW165201  10.034   6.829   5.904
55059SOL    HW265202  10.171   6.913   5.928
55060SOL     OW65203   9.928   7.153   6.870
55060SOL    HW165204   9.923   7.235   6.927
55060SOL    HW265205  10.017   7.150   6.825
55061SOL     OW65206  10.662   5.638   5.754
55061SOL    HW165207  10.697   5.597   5.670
55061SOL    HW265208  10.572   5.600   5.774
55062SOL     OW65209  10.610   6.039   6.277
55062SOL    HW165210  10.551   6.119   6.281
55062SOL    HW265211  10.625   6.004   6.370
55063SOL     OW65212  10.903   5.807   6.468
55063SOL    HW165213  10.819   5.806   6.522
55063SOL    HW265214  10.905   5.890   6.412
55064SOL     OW65215   9.349   6.663   5.886
55064SOL    HW165216   9.448   6.652   5.877
55064SOL    HW265217   9.309   6.577   5.918
55065SOL     OW65218  10.185   7.232   5.923
55065SOL    HW165219  10.108   7.197   5.869
55065SOL    HW265220  10.153   7.303   5.985
55066SOL     OW65221   9.540   6.214   7.561
55066SOL    HW165222   9.447   6.212   7.598
55066SOL    HW265223   9.541   6.175   7.469
55067SOL     OW65224   9.535   5.861   8.444
55067SOL    HW165225   9.570   5.844   8.536
55067SOL    HW265226   9.447   5.816   8.432
55068SOL     OW65227   9.329   5.954   8.095
55068SOL    HW165228   9.247   5.997   8.134
55068SOL    HW265229   9.301   5.881   8.032
55069SOL     OW65230   9.879   6.861   8.613
55069SOL    HW165231   9.786   6.854   8.576
55069SOL    HW265232   9.890   6.950   8.657
55070SOL     OW65233  10.865   7.097   8.151
55070SOL    HW165234  10.808   7.081   8.232
55070SOL    HW265235  10.806   7.107   8.071
55071SOL     OW65236  10.445   6.289   8.165
55071SOL    HW165237  10.502   6.367   8.140
55071SOL    HW265238  10.385   6.315   8.241
55072SOL     OW65239  11.065   6.193   7.679
55072SOL    HW165240  11.053   6.180   7.580
55072SOL    HW265241  11.035   6.112   7.728
55073SOL     OW65242  10.078   6.730   8.471
55073SOL    HW165243  10.000   6.747   8.531
55073SOL    HW265244  10.112   6.817   8.435
55074SOL     OW65245  10.160   6.384   9.271
55074SOL    HW165246  10.156   6.460   9.336
55074SOL    HW265247  10.182   6.420   9.180
55075SOL     OW65248   9.995   6.598   8.113
55075SOL    HW165249  10.064   6.582   8.183
55075SOL    HW265250   9.922   6.655   8.151
55076SOL     OW65251   9.996   6.747   9.251
55076SOL    HW165252  10.056   6.826   9.265
55076SOL    HW265253   9.910   6.778   9.210
55077SOL     OW65254   9.645   7.021   8.509
55077SOL    HW165255   9.567   6.990   8.456
55077SOL    HW265256   9.703   7.079   8.452
55078SOL     OW65257  10.770   7.091   8.787
55078SOL    HW165258  10.794   7.185   8.813
55078SOL    HW265259  10.754   7.037   8.869
55079SOL     OW65260   9.748   5.978   8.947
55079SOL    HW165261   9.830   5.922   8.956
55079SOL    HW265262   9.667   5.920   8.951
55080SOL     OW65263  10.913   6.033   8.185
55080SOL    HW165264  10.839   6.079   8.135
55080SOL    HW265265  10.964   6.101   8.238
55081SOL     OW65266   9.541   7.299   7.931
55081SOL    HW165267   9.575   7.376   7.985
55081SOL    HW265268   9.585   7.299   7.841
55082SOL     OW65269  10.437   6.927   9.138
55082SOL    HW165270  10.484   6.927   9.226
55082SOL    HW265271  10.389   6.840   9.127
55083SOL     OW65272   9.540   7.020   7.986
55083SOL    HW165273   9.514   7.116   7.986
55083SOL    HW265274   9.469   6.966   8.031
55084SOL     OW65275   9.550   6.677   8.334
55084SOL    HW165276   9.564   6.593   8.386
55084SOL    HW265277   9.495   6.741   8.389
55085SOL     OW65278   9.930   7.372   8.887
55085SOL    HW165279   9.838   7.355   8.922
55085SOL    HW265280   9.958   7.464   8.913
55086SOL     OW65281   9.916   6.550   7.571
55086SOL    HW165282   9.923   6.634   7.517
55086SOL    HW265283   9.962   6.563   7.659
55087SOL     OW65284  10.904   5.700   8.928
55087SOL    HW165285  10.886   5.767   8.856
55087SOL    HW265286  10.901   5.746   9.017
55088SOL     OW65287   9.432   6.229   8.011
55088SOL    HW165288   9.387   6.141   8.028
55088SOL    HW265289   9.431   6.283   8.095
55089SOL     OW65290  11.152   7.353   7.807
55089SOL    HW165291  11.206   7.324   7.887
55089SOL    HW265292  11.182   7.443   7.778
55090SOL     OW65293   9.337   7.182   7.565
55090SOL    HW165294   9.318   7.086   7.586
55090SOL    HW265295   9.304   7.240   7.640
55091SOL     OW65296  10.999   6.508   8.060
55091SOL    HW165297  11.094   6.479   8.068
55091SOL    HW265298  10.991   6.573   7.985
55092SOL     OW65299  10.951   6.694   7.880
55092SOL    HW165300  11.037   6.696   7.828
55092SOL    HW265301  10.965   6.741   7.968
55093SOL     OW65302   9.423   6.323   9.045
55093SOL    HW165303   9.511   6.310   9.090
55093SOL    HW265304   9.410   6.420   9.023
55094SOL     OW65305   9.923   6.951   8.174
55094SOL    HW165306   9.874   6.864   8.183
55094SOL    HW265307   9.900   6.994   8.087
55095SOL     OW65308  10.603   6.814   8.871
55095SOL    HW165309  10.640   6.741   8.813
55095SOL    HW265310  10.655   6.819   8.956
55096SOL     OW65311  10.119   5.590   7.950
55096SOL    HW165312  10.159   5.681   7.941
55096SOL    HW265313  10.019   5.598   7.956
55097SOL     OW65314   9.507   6.562   8.712
55097SOL    HW165315   9.596   6.517   8.698
55097SOL    HW265316   9.434   6.497   8.693
55098SOL     OW65317  10.835   6.585   7.638
55098SOL    HW165318  10.772   6.509   7.651
55098SOL    HW265319  10.883   6.603   7.724
55099SOL     OW65320  10.497   7.378   9.064
55099SOL    HW165321  10.521   7.438   8.988
55099SOL    HW265322  10.504   7.283   9.034
55100SOL     OW65323   9.627   5.837   9.249
55100SOL    HW165324   9.698   5.908   9.255
55100SOL    HW265325   9.539   5.876   9.277
55101SOL     OW65326  10.776   7.003   8.401
55101SOL    HW165327  10.717   7.009   8.481
55101SOL    HW265328  10.761   6.915   8.355
55102SOL     OW65329  10.977   7.300   8.020
55102SOL    HW165330  10.936   7.277   7.932
55102SOL    HW265331  10.959   7.226   8.085
55103SOL     OW65332   9.908   6.315   7.718
55103SOL    HW165333   9.932   6.384   7.650
55103SOL    HW265334   9.830   6.348   7.772
55104SOL     OW65335  10.591   5.931   8.392
55104SOL    HW165336  10.505   5.881   8.379
55104SOL    HW265337  10.653   5.877   8.448
55105SOL     OW65338  10.886   7.248   7.755
55105SOL    HW165339  10.975   7.294   7.758
55105SOL    HW265340  10.865   7.224   7.660
55106SOL     OW65341  10.117   6.191   8.913
55106SOL    HW165342  10.070   6.188   9.002
55106SOL    HW265343  10.066   6.136   8.847
55107SOL     OW65344  10.704   6.055   9.122
55107SOL    HW165345  10.684   6.098   9.210
55107SOL    HW265346  10.782   5.993   9.131
55108SOL     OW65347  10.283   6.476   9.020
55108SOL    HW165348  10.329   6.392   8.991
55108SOL    HW265349  10.227   6.510   8.945
55109SOL     OW65350  10.301   5.996   8.690
55109SOL    HW165351  10.224   6.030   8.744
55109SOL    HW265352  10.267   5.945   8.611
55110SOL     OW65353  10.351   6.287   7.877
55110SOL    HW165354  10.377   6.283   7.973
55110SOL    HW265355  10.266   6.236   7.863
55111SOL     OW65356   9.386   6.397   8.237
55111SOL    HW165357   9.485   6.385   8.246
55111SOL    HW265358   9.362   6.492   8.258
55112SOL     OW65359   9.440   7.407   9.019
55112SOL    HW165360   9.430   7.392   9.118
55112SOL    HW265361   9.354   7.443   8.983
55113SOL     OW65362  10.175   5.934   7.643
55113SOL    HW165363  10.234   5.997   7.594
55113SOL    HW265364  10.194   5.840   7.614
55114SOL     OW65365  11.029   6.171   9.279
55114SOL    HW165366  11.003   6.260   9.243
55114SOL    HW265367  11.027   6.103   9.206
55115SOL     OW65368  10.672   6.730   7.993
55115SOL    HW165369  10.755   6.701   7.945
55115SOL    HW265370  10.623   6.797   7.937
55116SOL     OW65371   9.860   5.782   8.333
55116SOL    HW165372   9.855   5.777   8.433
55116SOL    HW265373   9.862   5.878   8.304
55117SOL     OW65374  10.318   7.042   7.925
55117SOL    HW165375  10.272   7.114   7.873
55117SOL    HW265376  10.314   7.062   8.023
55118SOL     OW65377   9.661   7.387   8.301
55118SOL    HW165378   9.711   7.301   8.307
55118SOL    HW265379   9.726   7.464   8.298
55119SOL     OW65380  11.105   6.652   8.321
55119SOL    HW165381  11.043   6.637   8.245
55119SOL    HW265382  11.053   6.663   8.406
55120SOL     OW65383  10.537   7.136   8.954
55120SOL    HW165384  10.543   7.059   9.018
55120SOL    HW265385  10.485   7.110   8.874
55121SOL     OW65386   9.631   6.529   7.690
55121SOL    HW165387   9.713   6.568   7.648
55121SOL    HW265388   9.604   6.447   7.641
55122SOL     OW65389  10.768   6.321   8.176
55122SOL    HW165390  10.763   6.256   8.251
55122SOL    HW265391  10.848   6.380   8.189
55123SOL     OW65392   9.771   6.852   9.175
55123SOL    HW165393   9.721   6.853   9.089
55123SOL    HW265394   9.708   6.834   9.251
55124SOL     OW65395  10.421   7.362   7.685
55124SOL    HW165396  10.361   7.300   7.735
55124SOL    HW265397  10.452   7.318   7.600
55125SOL     OW65398   9.512   5.871   8.946
55125SOL    HW165399   9.432   5.931   8.933
55125SOL    HW265400   9.502   5.822   9.032
55126SOL     OW65401  10.942   6.963   7.529
55126SOL    HW165402  10.910   7.057   7.519
55126SOL    HW265403  10.866   6.900   7.517
55127SOL     OW65404   9.774   7.329   7.771
55127SOL    HW165405   9.807   7.368   7.857
55127SOL    HW265406   9.850   7.322   7.706
55128SOL     OW65407  10.710   5.693   7.874
55128SOL    HW165408  10.686   5.656   7.784
55128SOL    HW265409  10.809   5.709   7.878
55129SOL     OW65410   9.559   7.371   8.689
55129SOL    HW165411   9.616   7.306   8.739
55129SOL    HW265412   9.543   7.338   8.596
55130SOL     OW65413  10.250   7.284   8.352
55130SOL    HW165414  10.330   7.227   8.373
55130SOL    HW265415  10.201   7.244   8.275
55131SOL     OW65416   9.692   6.286   7.928
55131SOL    HW165417   9.737   6.196   7.925
55131SOL    HW265418   9.598   6.275   7.961
55132SOL     OW65419  10.857   5.808   9.177
55132SOL    HW165420  10.852   5.845   9.269
55132SOL    HW265421  10.785   5.739   9.165
55133SOL     OW65422   9.924   5.708   7.565
55133SOL    HW165423  10.022   5.686   7.572
55133SOL    HW265424   9.893   5.691   7.472
55134SOL     OW65425  10.091   5.850   9.197
55134SOL    HW165426  10.158   5.789   9.240
55134SOL    HW265427  10.018   5.869   9.262
55135SOL     OW65428  10.198   7.100   8.643
55135SOL    HW165429  10.175   7.075   8.549
55135SOL    HW265430  10.259   7.031   8.682
55136SOL     OW65431  10.661   6.176   8.881
55136SOL    HW165432  10.689   6.133   8.966
55136SOL    HW265433  10.686   6.272   8.882
55137SOL     OW65434  10.113   6.988   8.372
55137SOL    HW165435  10.203   7.002   8.330
55137SOL    HW265436  10.042   6.990   8.301
55138SOL     OW65437  10.232   6.089   8.347
55138SOL    HW165438  10.207   6.080   8.251
55138SOL    HW265439  10.280   6.007   8.378
55139SOL     OW65440   9.849   5.650   7.960
55139SOL    HW165441   9.768   5.651   8.018
55139SOL    HW265442   9.852   5.733   7.905
55140SOL     OW65443  10.744   6.774   7.489
55140SOL    HW165444  10.776   6.698   7.546
55140SOL    HW265445  10.652   6.801   7.519
55141SOL     OW65446   9.607   5.621   7.619
55141SOL    HW165447   9.656   5.705   7.598
55141SOL    HW265448   9.669   5.556   7.664
55142SOL     OW65449  10.245   5.822   7.928
55142SOL    HW165450  10.197   5.863   7.850
55142SOL    HW265451  10.344   5.820   7.909
55143SOL     OW65452  10.386   6.269   8.912
55143SOL    HW165453  10.306   6.208   8.915
55143SOL    HW265454  10.467   6.216   8.888
55144SOL     OW65455  10.537   7.156   8.241
55144SOL    HW165456  10.558   7.230   8.176
55144SOL    HW265457  10.605   7.156   8.314
55145SOL     OW65458   9.769   6.738   8.189
55145SOL    HW165459   9.698   6.711   8.254
55145SOL    HW265460   9.743   6.710   8.096
55146SOL     OW65461  10.581   7.383   8.039
55146SOL    HW165462  10.625   7.447   7.975
55146SOL    HW265463  10.531   7.435   8.109
55147SOL     OW65464  10.342   6.135   7.464
55147SOL    HW165465  10.301   6.217   7.425
55147SOL    HW265466  10.406   6.161   7.537
55148SOL     OW65467   9.388   6.142   8.834
55148SOL    HW165468   9.480   6.141   8.793
55148SOL    HW265469   9.382   6.216   8.901
55149SOL     OW65470   9.871   5.808   8.595
55149SOL    HW165471   9.909   5.724   8.632
55149SOL    HW265472   9.783   5.827   8.639
55150SOL     OW65473  10.176   6.040   8.090
55150SOL    HW165474  10.144   6.112   8.028
55150SOL    HW265475  10.200   5.959   8.037
55151SOL     OW65476  10.327   5.625   8.201
55151SOL    HW165477  10.255   5.630   8.132
55151SOL    HW265478  10.303   5.556   8.270
55152SOL     OW65479  10.739   6.759   8.315
55152SOL    HW165480  10.684   6.675   8.308
55152SOL    HW265481  10.765   6.788   8.223
55153SOL     OW65482  10.776   6.176   8.440
55153SOL    HW165483  10.746   6.081   8.447
55153SOL    HW265484  10.849   6.192   8.506
55154SOL     OW65485  11.167   6.419   7.825
55154SOL    HW165486  11.209   6.355   7.889
55154SOL    HW265487  11.129   6.368   7.747
55155SOL     OW65488   9.798   6.971   7.622
55155SOL    HW165489   9.711   6.956   7.669
55155SOL    HW265490   9.781   6.997   7.527
55156SOL     OW65491  10.974   6.866   8.105
55156SOL    HW165492  11.073   6.874   8.119
55156SOL    HW265493  10.929   6.950   8.136
55157SOL     OW65494  10.700   6.161   7.526
55157SOL    HW165495  10.646   6.140   7.607
55157SOL    HW265496  10.791   6.120   7.535
55158SOL     OW65497   9.837   5.842   7.776
55158SOL    HW165498   9.864   5.783   7.701
55158SOL    HW265499   9.837   5.937   7.745
55159SOL     OW65500  11.064   6.809   9.036
55159SOL    HW165501  11.155   6.770   9.023
55159SOL    HW265502  11.072   6.905   9.060
55160SOL     OW65503  10.374   6.933   8.788
55160SOL    HW165504  10.294   6.910   8.843
55160SOL    HW265505  10.457   6.907   8.837
55161SOL     OW65506  10.902   7.215   9.073
55161SOL    HW165507  10.929   7.249   8.983
55161SOL    HW265508  10.981   7.177   9.119
55162SOL     OW65509  10.421   6.781   8.548
55162SOL    HW165510  10.381   6.825   8.629
55162SOL    HW265511  10.380   6.818   8.465
55163SOL     OW65512  10.948   6.685   8.527
55163SOL    HW165513  10.953   6.766   8.586
55163SOL    HW265514  10.862   6.687   8.476
55164SOL     OW65515  10.225   5.675   8.850
55164SOL    HW165516  10.250   5.655   8.755
55164SOL    HW265517  10.297   5.731   8.892
55165SOL     OW65518  10.290   6.702   9.167
55165SOL    HW165519  10.191   6.708   9.177
55165SOL    HW265520  10.313   6.622   9.111
55166SOL     OW65521  10.015   6.636   7.816
55166SOL    HW165522  10.001   6.643   7.915
55166SOL    HW265523  10.099   6.585   7.798
55167SOL     OW65524   9.720   6.399   8.699
55167SOL    HW165525   9.806   6.411   8.749
55167SOL    HW265526   9.678   6.312   8.726
55168SOL     OW65527  10.584   5.972   8.710
55168SOL    HW165528  10.605   6.046   8.774
55168SOL    HW265529  10.495   5.989   8.667
55169SOL     OW65530   9.374   7.150   8.779
55169SOL    HW165531   9.328   7.232   8.745
55169SOL    HW265532   9.472   7.169   8.788
55170SOL     OW65533   9.677   6.686   7.949
55170SOL    HW165534   9.670   6.769   7.893
55170SOL    HW265535   9.681   6.606   7.889
55171SOL     OW65536   9.876   6.123   8.313
55171SOL    HW165537   9.888   6.189   8.239
55171SOL    HW265538   9.922   6.157   8.396
55172SOL     OW65539  10.562   6.934   7.836
55172SOL    HW165540  10.612   7.011   7.876
55172SOL    HW265541  10.467   6.936   7.868
55173SOL     OW65542  10.582   7.031   8.590
55173SOL    HW165543  10.629   7.044   8.677
55173SOL    HW265544  10.516   6.957   8.599
55174SOL     OW65545  10.892   6.225   7.920
55174SOL    HW165546  10.861   6.286   7.993
55174SOL    HW265547  10.942   6.277   7.851
55175SOL     OW65548   9.664   7.096   8.777
55175SOL    HW165549   9.643   7.052   8.690
55175SOL    HW265550   9.761   7.122   8.780
55176SOL     OW65551   9.712   6.337   9.046
55176SOL    HW165552   9.780   6.392   8.999
55176SOL    HW265553   9.752   6.249   9.073
55177SOL     OW65554  10.897   6.365   9.118
55177SOL    HW165555  10.805   6.403   9.113
55177SOL    HW265556  10.957   6.412   9.053
55178SOL     OW65557  10.323   5.691   9.218
55178SOL    HW165558  10.329   5.776   9.166
55178SOL    HW265559  10.355   5.615   9.161
55179SOL     OW65560   9.814   5.636   9.188
55179SOL    HW165561   9.772   5.579   9.118
55179SOL    HW265562   9.748   5.705   9.220
55180SOL     OW65563   9.883   6.456   8.477
55180SOL    HW165564   9.927   6.545   8.468
55180SOL    HW265565   9.820   6.456   8.554
55181SOL     OW65566  10.670   6.448   8.493
55181SOL    HW165567  10.595   6.448   8.427
55181SOL    HW265568  10.707   6.356   8.502
55182SOL     OW65569  10.519   6.111   7.723
55182SOL    HW165570  10.532   6.027   7.777
55182SOL    HW265571  10.490   6.185   7.783
55183SOL     OW65572   9.617   5.799   8.679
55183SOL    HW165573   9.594   5.836   8.769
55183SOL    HW265574   9.587   5.704   8.673
55184SOL     OW65575   9.347   6.896   8.730
55184SOL    HW165576   9.400   6.847   8.798
55184SOL    HW265577   9.369   6.994   8.735
55185SOL     OW65578  10.042   6.220   8.512
55185SOL    HW165579  10.101   6.194   8.436
55185SOL    HW265580  10.014   6.316   8.501
55186SOL     OW65581  11.038   6.521   9.302
55186SOL    HW165582  10.992   6.514   9.213
55186SOL    HW265583  10.976   6.565   9.368
55187SOL     OW65584   9.617   5.649   8.066
55187SOL    HW165585   9.606   5.743   8.099
55187SOL    HW265586   9.612   5.586   8.143
55188SOL     OW65587  10.932   5.953   7.822
55188SOL    HW165588  10.934   5.877   7.886
55188SOL    HW265589  10.884   6.030   7.862
55189SOL     OW65590  10.333   6.352   8.414
55189SOL    HW165591  10.348   6.373   8.510
55189SOL    HW265592  10.303   6.257   8.405
55190SOL     OW65593  10.290   7.159   9.148
55190SOL    HW165594  10.270   7.203   9.060
55190SOL    HW265595  10.329   7.068   9.132
55191SOL     OW65596  11.169   7.104   9.053
55191SOL    HW165597  11.183   7.131   8.958
55191SOL    HW265598  11.252   7.126   9.106
55192SOL     OW65599   9.660   6.484   9.252
55192SOL    HW165600   9.736   6.528   9.300
55192SOL    HW265601   9.695   6.437   9.170
55193SOL     OW65602  10.850   5.860   7.573
55193SOL    HW165603  10.789   5.785   7.596
55193SOL    HW265604  10.872   5.912   7.656
55194SOL     OW65605  10.613   6.424   7.490
55194SOL    HW165606  10.647   6.331   7.505
55194SOL    HW265607  10.631   6.451   7.395
55195SOL     OW65608  10.378   6.919   8.297
55195SOL    HW165609  10.385   6.835   8.242
55195SOL    HW265610  10.440   6.988   8.261
55196SOL     OW65611   9.629   6.396   8.397
55196SOL    HW165612   9.722   6.432   8.402
55196SOL    HW265613   9.623   6.311   8.449
55197SOL     OW65614   9.649   6.095   8.454
55197SOL    HW165615   9.597   6.012   8.437
55197SOL    HW265616   9.726   6.100   8.390
55198SOL     OW65617  10.448   5.966   9.126
55198SOL    HW165618  10.403   6.029   9.190
55198SOL    HW265619  10.541   5.997   9.109
55199SOL     OW65620  10.470   5.793   8.925
55199SOL    HW165621  10.470   5.857   9.002
55199SOL    HW265622  10.498   5.841   8.842
55200SOL     OW65623   9.318   6.912   7.648
55200SOL    HW165624   9.225   6.933   7.617
55200SOL    HW265625   9.328   6.813   7.661
55201SOL     OW65626   9.398   7.387   8.375
55201SOL    HW165627   9.356   7.301   8.348
55201SOL    HW265628   9.492   7.390   8.341
55202SOL     OW65629   9.814   7.154   8.358
55202SOL    HW165630   9.880   7.228   8.367
55202SOL    HW265631   9.858   7.075   8.316
55203SOL     OW65632  10.312   6.382   8.686
55203SOL    HW165633  10.353   6.350   8.772
55203SOL    HW265634  10.216   6.355   8.683
55204SOL     OW65635   9.350   6.130   8.562
55204SOL    HW165636   9.435   6.097   8.521
55204SOL    HW265637   9.363   6.145   8.660
55205SOL     OW65638   9.499   6.106   9.170
55205SOL    HW165639   9.558   6.066   9.100
55205SOL    HW265640   9.441   6.177   9.129
55206SOL     OW65641  10.679   6.536   9.108
55206SOL    HW165642  10.718   6.625   9.128
55206SOL    HW265643  10.689   6.516   9.011
55207SOL     OW65644  10.125   6.158   7.773
55207SOL    HW165645  10.132   6.069   7.727
55207SOL    HW265646  10.031   6.192   7.765
55208SOL     OW65647  10.967   6.190   8.654
55208SOL    HW165648  10.929   6.121   8.716
55208SOL    HW265649  11.049   6.154   8.610
55209SOL     OW65650   9.562   7.150   9.192
55209SOL    HW165651   9.532   7.207   9.268
55209SOL    HW265652   9.555   7.053   9.218
55210SOL     OW65653   9.981   6.050   8.717
55210SOL    HW165654   9.947   5.961   8.687
55210SOL    HW265655  10.007   6.104   8.637
55211SOL     OW65656  10.240   7.264   8.913
55211SOL    HW165657  10.216   7.246   8.818
55211SOL    HW265658  10.270   7.358   8.923
55212SOL     OW65659   9.783   6.086   7.639
55212SOL    HW165660   9.844   6.166   7.643
55212SOL    HW265661   9.688   6.117   7.646
55213SOL     OW65662   9.469   6.723   8.914
55213SOL    HW165663   9.491   6.662   8.990
55213SOL    HW265664   9.479   6.674   8.828
55214SOL     OW65665  10.657   6.645   8.682
55214SOL    HW165666  10.681   6.582   8.608
55214SOL    HW265667  10.567   6.685   8.664
55215SOL     OW65668  10.612   6.441   7.757
55215SOL    HW165669  10.526   6.410   7.799
55215SOL    HW265670  10.608   6.427   7.658
55216SOL     OW65671  11.069   7.333   8.602
55216SOL    HW165672  11.130   7.363   8.529
55216SOL    HW265673  11.031   7.244   8.580
55217SOL     OW65674  10.562   7.317   8.576
55217SOL    HW165675  10.646   7.322   8.522
55217SOL    HW265676  10.539   7.221   8.594
55218SOL     OW65677   9.998   7.248   9.164
55218SOL    HW165678   9.942   7.329   9.173
55218SOL    HW265679  10.050   7.252   9.078
55219SOL     OW65680  11.036   5.721   7.971
55219SOL    HW165681  11.109   5.704   7.904
55219SOL    HW265682  11.005   5.634   8.009
55220SOL     OW65683  10.698   7.159   7.925
55220SOL    HW165684  10.765   7.171   7.851
55220SOL    HW265685  10.658   7.248   7.948
55221SOL     OW65686   9.440   7.380   9.299
55221SOL    HW165687   9.399   7.306   9.352
55221SOL    HW265688   9.504   7.431   9.357
55222SOL     OW65689  10.590   6.513   8.120
55222SOL    HW165690  10.650   6.432   8.122
55222SOL    HW265691  10.630   6.582   8.060
55223SOL     OW65692  10.140   6.859   8.870
55223SOL    HW165693  10.135   6.892   8.965
55223SOL    HW265694  10.054   6.878   8.824
55224SOL     OW65695   9.982   7.202   7.602
55224SOL    HW165696   9.991   7.212   7.503
55224SOL    HW265697   9.942   7.113   7.623
55225SOL     OW65698  10.960   7.306   8.842
55225SOL    HW165699  11.013   7.316   8.758
55225SOL    HW265700  10.933   7.396   8.876
55226SOL     OW65701  11.151   5.761   8.411
55226SOL    HW165702  11.190   5.676   8.375
55226SOL    HW265703  11.053   5.763   8.392
55227SOL     OW65704   9.573   5.912   8.168
55227SOL    HW165705   9.494   5.963   8.134
55227SOL    HW265706   9.564   5.897   8.266
55228SOL     OW65707  10.504   7.198   7.479
55228SOL    HW165708  10.510   7.105   7.516
55228SOL    HW265709  10.445   7.198   7.399
55229SOL     OW65710  10.132   6.588   8.820
55229SOL    HW165711  10.172   6.587   8.728
55229SOL    HW265712  10.142   6.680   8.860
55230SOL     OW65713  10.226   6.496   7.739
55230SOL    HW165714  10.289   6.534   7.671
55230SOL    HW265715  10.266   6.413   7.778
55231SOL     OW65716  10.814   7.193   7.492
55231SOL    HW165717  10.722   7.230   7.499
55231SOL    HW265718  10.852   7.213   7.402
55232SOL     OW65719   9.682   6.874   8.938
55232SOL    HW165720   9.669   6.967   8.904
55232SOL    HW265721   9.598   6.822   8.925
55233SOL     OW65722  10.924   6.878   8.737
55233SOL    HW165723  10.984   6.881   8.817
55233SOL    HW265724  10.849   6.942   8.750
55234SOL     OW65725  10.349   6.684   8.144
55234SOL    HW165726  10.279   6.637   8.198
55234SOL    HW265727  10.408   6.616   8.101
55235SOL     OW65728  10.324   5.822   8.419
55235SOL    HW165729  10.316   5.786   8.326
55235SOL    HW265730  10.322   5.746   8.484
55236SOL     OW65731   9.900   7.073   7.939
55236SOL    HW165732   9.942   7.015   7.869
55236SOL    HW265733   9.856   7.152   7.895
55237SOL     OW65734  11.019   5.971   8.829
55237SOL    HW165735  11.092   6.040   8.833
55237SOL    HW265736  11.047   5.896   8.770
55238SOL     OW65737   9.565   6.934   7.738
55238SOL    HW165738   9.469   6.935   7.711
55238SOL    HW265739   9.577   6.987   7.822
55239SOL     OW65740   9.415   6.599   9.174
55239SOL    HW165741   9.338   6.566   9.228
55239SOL    HW265742   9.500   6.569   9.216
55240SOL     OW65743   9.982   5.789   8.937
55240SOL    HW165744  10.072   5.773   8.897
55240SOL    HW265745   9.990   5.794   9.036
55241SOL     OW65746   9.385   5.931   7.481
55241SOL    HW165747   9.293   5.903   7.452
55241SOL    HW265748   9.416   6.008   7.425
55242SOL     OW65749  10.750   6.442   8.846
55242SOL    HW165750  10.693   6.494   8.783
55242SOL    HW265751  10.846   6.454   8.822
55243SOL     OW65752   9.382   5.752   7.766
55243SOL    HW165753   9.365   5.835   7.712
55243SOL    HW265754   9.472   5.715   7.744
55244SOL     OW65755  10.493   6.921   7.567
55244SOL    HW165756  10.394   6.910   7.569
55244SOL    HW265757  10.527   6.936   7.660
55245SOL     OW65758   9.923   6.428   8.879
55245SOL    HW165759   9.979   6.509   8.862
55245SOL    HW265760   9.982   6.348   8.882
55246SOL     OW65761  10.803   7.353   8.407
55246SOL    HW165762  10.836   7.417   8.338
55246SOL    HW265763  10.869   7.347   8.482
55247SOL     OW65764  10.026   6.151   9.156
55247SOL    HW165765  10.045   6.216   9.230
55247SOL    HW265766  10.086   6.071   9.165
55248SOL     OW65767  10.760   6.806   9.081
55248SOL    HW165768  10.751   6.796   9.180
55248SOL    HW265769  10.856   6.799   9.055
55249SOL     OW65770   9.700   7.327   9.008
55249SOL    HW165771   9.609   7.368   9.006
55249SOL    HW265772   9.693   7.233   9.040
55250SOL     OW65773  10.984   6.469   8.702
55250SOL    HW165774  10.957   6.380   8.665
55250SOL    HW265775  10.985   6.537   8.629
55251SOL     OW65776  10.535   5.911   7.897
55251SOL    HW165777  10.600   5.837   7.886
55251SOL    HW265778  10.555   5.961   7.981
55252SOL     OW65779   9.904   6.331   8.100
55252SOL    HW165780   9.954   6.416   8.081
55252SOL    HW265781   9.816   6.333   8.052
55253SOL     OW65782  11.087   5.928   9.090
55253SOL    HW165783  11.070   5.959   8.996
55253SOL    HW265784  11.003   5.891   9.128
55254SOL     OW65785  11.040   6.520   8.965
55254SOL    HW165786  11.078   6.611   8.980
55254SOL    HW265787  11.032   6.503   8.866
55255SOL     OW65788  10.169   6.960   7.464
55255SOL    HW165789  10.123   6.975   7.552
55255SOL    HW265790  10.213   7.045   7.434
55256SOL     OW65791   9.971   7.376   8.401
55256SOL    HW165792   9.925   7.464   8.388
55256SOL    HW265793  10.070   7.388   8.394
55257SOL     OW65794  10.169   6.542   8.309
55257SOL    HW165795  10.223   6.473   8.357
55257SOL    HW265796  10.137   6.611   8.375
55258SOL     OW65797  10.393   6.570   7.535
55258SOL    HW165798  10.370   6.623   7.453
55258SOL    HW265799  10.474   6.514   7.516
55259SOL     OW65800  11.171   7.155   8.299
55259SOL    HW165801  11.100   7.143   8.229
55259SOL    HW265802  11.172   7.076   8.359
55260SOL     OW65803   9.531   6.900   9.292
55260SOL    HW165804   9.466   6.827   9.271
55260SOL    HW265805   9.535   6.914   9.390
55261SOL     OW65806   9.389   6.826   8.101
55261SOL    HW165807   9.388   6.779   8.189
55261SOL    HW265808   9.471   6.798   8.050
55262SOL     OW65809   9.982   6.977   9.072
55262SOL    HW165810   9.904   6.927   9.110
55262SOL    HW265811   9.979   7.072   9.103
55263SOL     OW65812  11.134   5.778   8.675
55263SOL    HW165813  11.130   5.688   8.719
55263SOL    HW265814  11.137   5.767   8.576
55264SOL     OW65815   9.738   6.010   7.968
55264SOL    HW165816   9.768   5.938   7.906
55264SOL    HW265817   9.699   5.970   8.051
55265SOL     OW65818  11.015   7.073   8.552
55265SOL    HW165819  10.922   7.048   8.525
55265SOL    HW265820  11.041   7.023   8.634
55266SOL     OW65821   9.627   6.133   8.728
55266SOL    HW165822   9.665   6.074   8.800
55266SOL    HW265823   9.667   6.107   8.640
55267SOL     OW65824  10.122   7.172   8.135
55267SOL    HW165825  10.154   7.182   8.041
55267SOL    HW265826  10.043   7.110   8.137
55268SOL     OW65827  10.734   5.800   8.560
55268SOL    HW165828  10.786   5.735   8.615
55268SOL    HW265829  10.685   5.863   8.621
55269SOL     OW65830  10.311   5.620   8.602
55269SOL    HW165831  10.248   5.548   8.571
55269SOL    HW265832  10.404   5.584   8.602
55270SOL     OW65833  10.080   6.916   7.749
55270SOL    HW165834  10.034   6.829   7.766
55270SOL    HW265835  10.171   6.913   7.790
55271SOL     OW65836   9.928   7.153   8.732
55271SOL    HW165837   9.923   7.235   8.789
55271SOL    HW265838  10.017   7.150   8.687
55272SOL     OW65839  10.662   5.638   7.616
55272SOL    HW165840  10.697   5.597   7.532
55272SOL    HW265841  10.572   5.600   7.636
55273SOL     OW65842  10.610   6.039   8.139
55273SOL    HW165843  10.551   6.119   8.143
55273SOL    HW265844  10.625   6.004   8.232
55274SOL     OW65845  10.903   5.807   8.330
55274SOL    HW165846  10.819   5.806   8.384
55274SOL    HW265847  10.905   5.890   8.274
55275SOL     OW65848  10.185   7.232   7.785
55275SOL    HW165849  10.108   7.197   7.731
55275SOL    HW265850  10.153   7.303   7.847
55276SOL     OW65851   9.540   6.214   9.423
55276SOL    HW165852   9.447   6.212   9.460
55276SOL    HW265853   9.541   6.175   9.331
55277SOL     OW65854   9.535   5.861  10.306
55277SOL    HW165855   9.570   5.844  10.398
55277SOL    HW265856   9.447   5.816  10.294
55278SOL     OW65857   9.329   5.954   9.957
55278SOL    HW165858   9.247   5.997   9.996
55278SOL    HW265859   9.301   5.881   9.894
55279SOL     OW65860   9.879   6.861  10.475
55279SOL    HW165861   9.786   6.854  10.438
55279SOL    HW265862   9.890   6.950  10.519
55280SOL     OW65863  10.865   7.097  10.013
55280SOL    HW165864  10.808   7.081  10.094
55280SOL    HW265865  10.806   7.107   9.933
55281SOL     OW65866  10.445   6.289  10.027
55281SOL    HW165867  10.502   6.367  10.002
55281SOL    HW265868  10.385   6.315  10.103
55282SOL     OW65869  11.065   6.193   9.541
55282SOL    HW165870  11.053   6.180   9.442
55282SOL    HW265871  11.035   6.112   9.590
55283SOL     OW65872  10.078   6.730  10.333
55283SOL    HW165873  10.000   6.747  10.393
55283SOL    HW265874  10.112   6.817  10.297
55284SOL     OW65875  10.160   6.384  11.133
55284SOL    HW165876  10.156   6.460  11.198
55284SOL    HW265877  10.182   6.420  11.042
55285SOL     OW65878   9.995   6.598   9.975
55285SOL    HW165879  10.064   6.582  10.045
55285SOL    HW265880   9.922   6.655  10.013
55286SOL     OW65881   9.996   6.747  11.113
55286SOL    HW165882  10.056   6.826  11.127
55286SOL    HW265883   9.910   6.778  11.072
55287SOL     OW65884   9.645   7.021  10.371
55287SOL    HW165885   9.567   6.990  10.318
55287SOL    HW265886   9.703   7.079  10.314
55288SOL     OW65887  10.770   7.091  10.649
55288SOL    HW165888  10.794   7.185  10.675
55288SOL    HW265889  10.754   7.037  10.731
55289SOL     OW65890   9.748   5.978  10.809
55289SOL    HW165891   9.830   5.922  10.818
55289SOL    HW265892   9.667   5.920  10.813
55290SOL     OW65893  10.913   6.033  10.047
55290SOL    HW165894  10.839   6.079   9.997
55290SOL    HW265895  10.964   6.101  10.100
55291SOL     OW65896   9.541   7.299   9.793
55291SOL    HW165897   9.575   7.376   9.847
55291SOL    HW265898   9.585   7.299   9.703
55292SOL     OW65899  10.437   6.927  11.000
55292SOL    HW165900  10.484   6.927  11.088
55292SOL    HW265901  10.389   6.840  10.989
55293SOL     OW65902   9.540   7.020   9.848
55293SOL    HW165903   9.514   7.116   9.848
55293SOL    HW265904   9.469   6.966   9.893
55294SOL     OW65905   9.550   6.677  10.196
55294SOL    HW165906   9.564   6.593  10.248
55294SOL    HW265907   9.495   6.741  10.251
55295SOL     OW65908   9.930   7.372  10.749
55295SOL    HW165909   9.838   7.355  10.784
55295SOL    HW265910   9.958   7.464  10.775
55296SOL     OW65911   9.916   6.550   9.433
55296SOL    HW165912   9.923   6.634   9.379
55296SOL    HW265913   9.962   6.563   9.521
55297SOL     OW65914  10.904   5.700  10.790
55297SOL    HW165915  10.886   5.767  10.718
55297SOL    HW265916  10.901   5.746  10.879
55298SOL     OW65917   9.432   6.229   9.873
55298SOL    HW165918   9.387   6.141   9.890
55298SOL    HW265919   9.431   6.283   9.957
55299SOL     OW65920  11.152   7.353   9.669
55299SOL    HW165921  11.206   7.324   9.749
55299SOL    HW265922  11.182   7.443   9.640
55300SOL     OW65923   9.337   7.182   9.427
55300SOL    HW165924   9.318   7.086   9.448
55300SOL    HW265925   9.304   7.240   9.502
55301SOL     OW65926  10.999   6.508   9.922
55301SOL    HW165927  11.094   6.479   9.930
55301SOL    HW265928  10.991   6.573   9.847
55302SOL     OW65929  10.951   6.694   9.742
55302SOL    HW165930  11.037   6.696   9.690
55302SOL    HW265931  10.965   6.741   9.830
55303SOL     OW65932   9.423   6.323  10.907
55303SOL    HW165933   9.511   6.310  10.952
55303SOL    HW265934   9.410   6.420  10.885
55304SOL     OW65935   9.923   6.951  10.036
55304SOL    HW165936   9.874   6.864  10.045
55304SOL    HW265937   9.900   6.994   9.949
55305SOL     OW65938  10.603   6.814  10.733
55305SOL    HW165939  10.640   6.741  10.675
55305SOL    HW265940  10.655   6.819  10.818
55306SOL     OW65941  10.119   5.590   9.812
55306SOL    HW165942  10.159   5.681   9.803
55306SOL    HW265943  10.019   5.598   9.818
55307SOL     OW65944   9.507   6.562  10.574
55307SOL    HW165945   9.596   6.517  10.560
55307SOL    HW265946   9.434   6.497  10.555
55308SOL     OW65947  10.835   6.585   9.500
55308SOL    HW165948  10.772   6.509   9.513
55308SOL    HW265949  10.883   6.603   9.586
55309SOL     OW65950  10.497   7.378  10.926
55309SOL    HW165951  10.521   7.438  10.850
55309SOL    HW265952  10.504   7.283  10.896
55310SOL     OW65953   9.627   5.837  11.111
55310SOL    HW165954   9.698   5.908  11.117
55310SOL    HW265955   9.539   5.876  11.139
55311SOL     OW65956  10.776   7.003  10.263
55311SOL    HW165957  10.717   7.009  10.343
55311SOL    HW265958  10.761   6.915  10.217
55312SOL     OW65959  10.977   7.300   9.882
55312SOL    HW165960  10.936   7.277   9.794
55312SOL    HW265961  10.959   7.226   9.947
55313SOL     OW65962   9.908   6.315   9.580
55313SOL    HW165963   9.932   6.384   9.512
55313SOL    HW265964   9.830   6.348   9.634
55314SOL     OW65965  10.591   5.931  10.254
55314SOL    HW165966  10.505   5.881  10.241
55314SOL    HW265967  10.653   5.877  10.310
55315SOL     OW65968  10.886   7.248   9.617
55315SOL    HW165969  10.975   7.294   9.620
55315SOL    HW265970  10.865   7.224   9.522
55316SOL     OW65971  10.117   6.191  10.775
55316SOL    HW165972  10.070   6.188  10.864
55316SOL    HW265973  10.066   6.136  10.709
55317SOL     OW65974  10.704   6.055  10.984
55317SOL    HW165975  10.684   6.098  11.072
55317SOL    HW265976  10.782   5.993  10.993
55318SOL     OW65977  10.283   6.476  10.882
55318SOL    HW165978  10.329   6.392  10.853
55318SOL    HW265979  10.227   6.510  10.807
55319SOL     OW65980  10.301   5.996  10.552
55319SOL    HW165981  10.224   6.030  10.606
55319SOL    HW265982  10.267   5.945  10.473
55320SOL     OW65983  10.351   6.287   9.739
55320SOL    HW165984  10.377   6.283   9.835
55320SOL    HW265985  10.266   6.236   9.725
55321SOL     OW65986   9.386   6.397  10.099
55321SOL    HW165987   9.485   6.385  10.108
55321SOL    HW265988   9.362   6.492  10.120
55322SOL     OW65989   9.440   7.407  10.881
55322SOL    HW165990   9.430   7.392  10.980
55322SOL    HW265991   9.354   7.443  10.845
55323SOL     OW65992  10.175   5.934   9.505
55323SOL    HW165993  10.234   5.997   9.456
55323SOL    HW265994  10.194   5.840   9.476
55324SOL     OW65995  11.029   6.171  11.141
55324SOL    HW165996  11.003   6.260  11.105
55324SOL    HW265997  11.027   6.103  11.068
55325SOL     OW65998  10.672   6.730   9.855
55325SOL    HW165999  10.755   6.701   9.807
55325SOL    HW266000  10.623   6.797   9.799
55326SOL     OW66001   9.860   5.782  10.195
55326SOL    HW166002   9.855   5.777  10.295
55326SOL    HW266003   9.862   5.878  10.166
55327SOL     OW66004  10.318   7.042   9.787
55327SOL    HW166005  10.272   7.114   9.735
55327SOL    HW266006  10.314   7.062   9.885
55328SOL     OW66007   9.661   7.387  10.163
55328SOL    HW166008   9.711   7.301  10.169
55328SOL    HW266009   9.726   7.464  10.160
55329SOL     OW66010  11.105   6.652  10.183
55329SOL    HW166011  11.043   6.637  10.107
55329SOL    HW266012  11.053   6.663  10.268
55330SOL     OW66013  10.537   7.136  10.816
55330SOL    HW166014  10.543   7.059  10.880
55330SOL    HW266015  10.485   7.110  10.736
55331SOL     OW66016   9.631   6.529   9.552
55331SOL    HW166017   9.713   6.568   9.510
55331SOL    HW266018   9.604   6.447   9.503
55332SOL     OW66019  10.768   6.321  10.038
55332SOL    HW166020  10.763   6.256  10.113
55332SOL    HW266021  10.848   6.380  10.051
55333SOL     OW66022   9.771   6.852  11.037
55333SOL    HW166023   9.721   6.853  10.951
55333SOL    HW266024   9.708   6.834  11.113
55334SOL     OW66025  10.421   7.362   9.547
55334SOL    HW166026  10.361   7.300   9.597
55334SOL    HW266027  10.452   7.318   9.462
55335SOL     OW66028   9.512   5.871  10.808
55335SOL    HW166029   9.432   5.931  10.795
55335SOL    HW266030   9.502   5.822  10.894
55336SOL     OW66031  10.942   6.963   9.391
55336SOL    HW166032  10.910   7.057   9.381
55336SOL    HW266033  10.866   6.900   9.379
55337SOL     OW66034   9.774   7.329   9.633
55337SOL    HW166035   9.807   7.368   9.719
55337SOL    HW266036   9.850   7.322   9.568
55338SOL     OW66037  10.710   5.693   9.736
55338SOL    HW166038  10.686   5.656   9.646
55338SOL    HW266039  10.809   5.709   9.740
55339SOL     OW66040   9.559   7.371  10.551
55339SOL    HW166041   9.616   7.306  10.601
55339SOL    HW266042   9.543   7.338  10.458
55340SOL     OW66043  10.250   7.284  10.214
55340SOL    HW166044  10.330   7.227  10.235
55340SOL    HW266045  10.201   7.244  10.137
55341SOL     OW66046   9.692   6.286   9.790
55341SOL    HW166047   9.737   6.196   9.787
55341SOL    HW266048   9.598   6.275   9.823
55342SOL     OW66049  10.857   5.808  11.039
55342SOL    HW166050  10.852   5.845  11.131
55342SOL    HW266051  10.785   5.739  11.027
55343SOL     OW66052   9.924   5.708   9.427
55343SOL    HW166053  10.022   5.686   9.434
55343SOL    HW266054   9.893   5.691   9.334
55344SOL     OW66055  10.091   5.850  11.059
55344SOL    HW166056  10.158   5.789  11.102
55344SOL    HW266057  10.018   5.869  11.124
55345SOL     OW66058  10.198   7.100  10.505
55345SOL    HW166059  10.175   7.075  10.411
55345SOL    HW266060  10.259   7.031  10.544
55346SOL     OW66061  10.661   6.176  10.743
55346SOL    HW166062  10.689   6.133  10.828
55346SOL    HW266063  10.686   6.272  10.744
55347SOL     OW66064  10.113   6.988  10.234
55347SOL    HW166065  10.203   7.002  10.192
55347SOL    HW266066  10.042   6.990  10.163
55348SOL     OW66067  10.232   6.089  10.209
55348SOL    HW166068  10.207   6.080  10.113
55348SOL    HW266069  10.280   6.007  10.240
55349SOL     OW66070   9.849   5.650   9.822
55349SOL    HW166071   9.768   5.651   9.880
55349SOL    HW266072   9.852   5.733   9.767
55350SOL     OW66073  10.744   6.774   9.351
55350SOL    HW166074  10.776   6.698   9.408
55350SOL    HW266075  10.652   6.801   9.381
55351SOL     OW66076  10.245   5.822   9.790
55351SOL    HW166077  10.197   5.863   9.712
55351SOL    HW266078  10.344   5.820   9.771
55352SOL     OW66079  10.386   6.269  10.774
55352SOL    HW166080  10.306   6.208  10.777
55352SOL    HW266081  10.467   6.216  10.750
55353SOL     OW66082  10.537   7.156  10.103
55353SOL    HW166083  10.558   7.230  10.038
55353SOL    HW266084  10.605   7.156  10.176
55354SOL     OW66085   9.769   6.738  10.051
55354SOL    HW166086   9.698   6.711  10.116
55354SOL    HW266087   9.743   6.710   9.958
55355SOL     OW66088  10.581   7.383   9.901
55355SOL    HW166089  10.625   7.447   9.837
55355SOL    HW266090  10.531   7.435   9.971
55356SOL     OW66091  10.342   6.135   9.326
55356SOL    HW166092  10.301   6.217   9.287
55356SOL    HW266093  10.406   6.161   9.399
55357SOL     OW66094   9.388   6.142  10.696
55357SOL    HW166095   9.480   6.141  10.655
55357SOL    HW266096   9.382   6.216  10.763
55358SOL     OW66097   9.871   5.808  10.457
55358SOL    HW166098   9.909   5.724  10.494
55358SOL    HW266099   9.783   5.827  10.501
55359SOL     OW66100  10.176   6.040   9.952
55359SOL    HW166101  10.144   6.112   9.890
55359SOL    HW266102  10.200   5.959   9.899
55360SOL     OW66103  10.327   5.625  10.063
55360SOL    HW166104  10.255   5.630   9.994
55360SOL    HW266105  10.303   5.556  10.132
55361SOL     OW66106  10.739   6.759  10.177
55361SOL    HW166107  10.684   6.675  10.170
55361SOL    HW266108  10.765   6.788  10.085
55362SOL     OW66109  10.776   6.176  10.302
55362SOL    HW166110  10.746   6.081  10.309
55362SOL    HW266111  10.849   6.192  10.368
55363SOL     OW66112  11.167   6.419   9.687
55363SOL    HW166113  11.209   6.355   9.751
55363SOL    HW266114  11.129   6.368   9.609
55364SOL     OW66115   9.798   6.971   9.484
55364SOL    HW166116   9.711   6.956   9.531
55364SOL    HW266117   9.781   6.997   9.389
55365SOL     OW66118  10.974   6.866   9.967
55365SOL    HW166119  11.073   6.874   9.981
55365SOL    HW266120  10.929   6.950   9.998
55366SOL     OW66121  10.700   6.161   9.388
55366SOL    HW166122  10.646   6.140   9.469
55366SOL    HW266123  10.791   6.120   9.397
55367SOL     OW66124   9.837   5.842   9.638
55367SOL    HW166125   9.864   5.783   9.563
55367SOL    HW266126   9.837   5.937   9.607
55368SOL     OW66127  11.064   6.809  10.898
55368SOL    HW166128  11.155   6.770  10.885
55368SOL    HW266129  11.072   6.905  10.922
55369SOL     OW66130  10.374   6.933  10.650
55369SOL    HW166131  10.294   6.910  10.705
55369SOL    HW266132  10.457   6.907  10.699
55370SOL     OW66133  10.902   7.215  10.935
55370SOL    HW166134  10.929   7.249  10.845
55370SOL    HW266135  10.981   7.177  10.981
55371SOL     OW66136  10.421   6.781  10.410
55371SOL    HW166137  10.381   6.825  10.491
55371SOL    HW266138  10.380   6.818  10.327
55372SOL     OW66139  10.948   6.685  10.389
55372SOL    HW166140  10.953   6.766  10.448
55372SOL    HW266141  10.862   6.687  10.338
55373SOL     OW66142  10.225   5.675  10.712
55373SOL    HW166143  10.250   5.655  10.617
55373SOL    HW266144  10.297   5.731  10.754
55374SOL     OW66145  10.290   6.702  11.029
55374SOL    HW166146  10.191   6.708  11.039
55374SOL    HW266147  10.313   6.622  10.973
55375SOL     OW66148  10.015   6.636   9.678
55375SOL    HW166149  10.001   6.643   9.777
55375SOL    HW266150  10.099   6.585   9.660
55376SOL     OW66151   9.720   6.399  10.561
55376SOL    HW166152   9.806   6.411  10.611
55376SOL    HW266153   9.678   6.312  10.588
55377SOL     OW66154  10.584   5.972  10.572
55377SOL    HW166155  10.605   6.046  10.636
55377SOL    HW266156  10.495   5.989  10.529
55378SOL     OW66157   9.374   7.150  10.641
55378SOL    HW166158   9.328   7.232  10.607
55378SOL    HW266159   9.472   7.169  10.650
55379SOL     OW66160   9.677   6.686   9.811
55379SOL    HW166161   9.670   6.769   9.755
55379SOL    HW266162   9.681   6.606   9.751
55380SOL     OW66163   9.876   6.123  10.175
55380SOL    HW166164   9.888   6.189  10.101
55380SOL    HW266165   9.922   6.157  10.258
55381SOL     OW66166  10.562   6.934   9.698
55381SOL    HW166167  10.612   7.011   9.738
55381SOL    HW266168  10.467   6.936   9.730
55382SOL     OW66169  10.582   7.031  10.452
55382SOL    HW166170  10.629   7.044  10.539
55382SOL    HW266171  10.516   6.957  10.461
55383SOL     OW66172  10.892   6.225   9.782
55383SOL    HW166173  10.861   6.286   9.855
55383SOL    HW266174  10.942   6.277   9.713
55384SOL     OW66175   9.664   7.096  10.639
55384SOL    HW166176   9.643   7.052  10.552
55384SOL    HW266177   9.761   7.122  10.642
55385SOL     OW66178   9.712   6.337  10.908
55385SOL    HW166179   9.780   6.392  10.861
55385SOL    HW266180   9.752   6.249  10.935
55386SOL     OW66181  10.897   6.365  10.980
55386SOL    HW166182  10.805   6.403  10.975
55386SOL    HW266183  10.957   6.412  10.915
55387SOL     OW66184  10.323   5.691  11.080
55387SOL    HW166185  10.329   5.776  11.028
55387SOL    HW266186  10.355   5.615  11.023
55388SOL     OW66187   9.814   5.636  11.050
55388SOL    HW166188   9.772   5.579  10.980
55388SOL    HW266189   9.748   5.705  11.082
55389SOL     OW66190   9.883   6.456  10.339
55389SOL    HW166191   9.927   6.545  10.330
55389SOL    HW266192   9.820   6.456  10.416
55390SOL     OW66193  10.670   6.448  10.355
55390SOL    HW166194  10.595   6.448  10.289
55390SOL    HW266195  10.707   6.356  10.364
55391SOL     OW66196  10.519   6.111   9.585
55391SOL    HW166197  10.532   6.027   9.639
55391SOL    HW266198  10.490   6.185   9.645
55392SOL     OW66199   9.617   5.799  10.541
55392SOL    HW166200   9.594   5.836  10.631
55392SOL    HW266201   9.587   5.704  10.535
55393SOL     OW66202   9.347   6.896  10.592
55393SOL    HW166203   9.400   6.847  10.660
55393SOL    HW266204   9.369   6.994  10.597
55394SOL     OW66205  10.042   6.220  10.374
55394SOL    HW166206  10.101   6.194  10.298
55394SOL    HW266207  10.014   6.316  10.363
55395SOL     OW66208  11.038   6.521  11.164
55395SOL    HW166209  10.992   6.514  11.075
55395SOL    HW266210  10.976   6.565  11.230
55396SOL     OW66211   9.617   5.649   9.928
55396SOL    HW166212   9.606   5.743   9.961
55396SOL    HW266213   9.612   5.586  10.005
55397SOL     OW66214  10.932   5.953   9.684
55397SOL    HW166215  10.934   5.877   9.748
55397SOL    HW266216  10.884   6.030   9.724
55398SOL     OW66217  10.333   6.352  10.276
55398SOL    HW166218  10.348   6.373  10.372
55398SOL    HW266219  10.303   6.257  10.267
55399SOL     OW66220  10.290   7.159  11.010
55399SOL    HW166221  10.270   7.203  10.922
55399SOL    HW266222  10.329   7.068  10.994
55400SOL     OW66223  11.169   7.104  10.915
55400SOL    HW166224  11.183   7.131  10.820
55400SOL    HW266225  11.252   7.126  10.968
55401SOL     OW66226   9.660   6.484  11.114
55401SOL    HW166227   9.736   6.528  11.162
55401SOL    HW266228   9.695   6.437  11.032
55402SOL     OW66229  10.850   5.860   9.435
55402SOL    HW166230  10.789   5.785   9.458
55402SOL    HW266231  10.872   5.912   9.518
55403SOL     OW66232  10.613   6.424   9.352
55403SOL    HW166233  10.647   6.331   9.367
55403SOL    HW266234  10.631   6.451   9.257
55404SOL     OW66235  10.378   6.919  10.159
55404SOL    HW166236  10.385   6.835  10.104
55404SOL    HW266237  10.440   6.988  10.123
55405SOL     OW66238   9.629   6.396  10.259
55405SOL    HW166239   9.722   6.432  10.264
55405SOL    HW266240   9.623   6.311  10.311
55406SOL     OW66241   9.649   6.095  10.316
55406SOL    HW166242   9.597   6.012  10.299
55406SOL    HW266243   9.726   6.100  10.252
55407SOL     OW66244  10.448   5.966  10.988
55407SOL    HW166245  10.403   6.029  11.052
55407SOL    HW266246  10.541   5.997  10.971
55408SOL     OW66247  10.470   5.793  10.787
55408SOL    HW166248  10.470   5.857  10.864
55408SOL    HW266249  10.498   5.841  10.704
55409SOL     OW66250   9.318   6.912   9.510
55409SOL    HW166251   9.225   6.933   9.479
55409SOL    HW266252   9.328   6.813   9.523
55410SOL     OW66253   9.398   7.387  10.237
55410SOL    HW166254   9.356   7.301  10.210
55410SOL    HW266255   9.492   7.390  10.203
55411SOL     OW66256   9.814   7.154  10.220
55411SOL    HW166257   9.880   7.228  10.229
55411SOL    HW266258   9.858   7.075  10.178
55412SOL     OW66259  10.312   6.382  10.548
55412SOL    HW166260  10.353   6.350  10.634
55412SOL    HW266261  10.216   6.355  10.545
55413SOL     OW66262   9.350   6.130  10.424
55413SOL    HW166263   9.435   6.097  10.383
55413SOL    HW266264   9.363   6.145  10.522
55414SOL     OW66265   9.499   6.106  11.032
55414SOL    HW166266   9.558   6.066  10.962
55414SOL    HW266267   9.441   6.177  10.991
55415SOL     OW66268  10.679   6.536  10.970
55415SOL    HW166269  10.718   6.625  10.990
55415SOL    HW266270  10.689   6.516  10.873
55416SOL     OW66271  10.125   6.158   9.635
55416SOL    HW166272  10.132   6.069   9.589
55416SOL    HW266273  10.031   6.192   9.627
55417SOL     OW66274  10.967   6.190  10.516
55417SOL    HW166275  10.929   6.121  10.578
55417SOL    HW266276  11.049   6.154  10.472
55418SOL     OW66277   9.562   7.150  11.054
55418SOL    HW166278   9.532   7.207  11.130
55418SOL    HW266279   9.555   7.053  11.080
55419SOL     OW66280   9.981   6.050  10.579
55419SOL    HW166281   9.947   5.961  10.549
55419SOL    HW266282  10.007   6.104  10.499
55420SOL     OW66283  10.240   7.264  10.775
55420SOL    HW166284  10.216   7.246  10.680
55420SOL    HW266285  10.270   7.358  10.785
55421SOL     OW66286   9.783   6.086   9.501
55421SOL    HW166287   9.844   6.166   9.505
55421SOL    HW266288   9.688   6.117   9.508
55422SOL     OW66289   9.469   6.723  10.776
55422SOL    HW166290   9.491   6.662  10.852
55422SOL    HW266291   9.479   6.674  10.690
55423SOL     OW66292  10.657   6.645  10.544
55423SOL    HW166293  10.681   6.582  10.470
55423SOL    HW266294  10.567   6.685  10.526
55424SOL     OW66295  10.612   6.441   9.619
55424SOL    HW166296  10.526   6.410   9.661
55424SOL    HW266297  10.608   6.427   9.520
55425SOL     OW66298  11.069   7.333  10.464
55425SOL    HW166299  11.130   7.363  10.391
55425SOL    HW266300  11.031   7.244  10.442
55426SOL     OW66301  10.562   7.317  10.438
55426SOL    HW166302  10.646   7.322  10.384
55426SOL    HW266303  10.539   7.221  10.456
55427SOL     OW66304   9.393   6.844  10.332
55427SOL    HW166305   9.388   6.843  10.432
55427SOL    HW266306   9.310   6.803  10.294
55428SOL     OW66307   9.998   7.248  11.026
55428SOL    HW166308   9.942   7.329  11.035
55428SOL    HW266309  10.050   7.252  10.940
55429SOL     OW66310  11.036   5.721   9.833
55429SOL    HW166311  11.109   5.704   9.766
55429SOL    HW266312  11.005   5.634   9.871
55430SOL     OW66313  10.698   7.159   9.787
55430SOL    HW166314  10.765   7.171   9.713
55430SOL    HW266315  10.658   7.248   9.810
55431SOL     OW66316   9.440   7.380  11.161
55431SOL    HW166317   9.399   7.306  11.214
55431SOL    HW266318   9.504   7.431  11.219
55432SOL     OW66319  10.590   6.513   9.982
55432SOL    HW166320  10.650   6.432   9.984
55432SOL    HW266321  10.630   6.582   9.922
55433SOL     OW66322  10.140   6.859  10.732
55433SOL    HW166323  10.135   6.892  10.827
55433SOL    HW266324  10.054   6.878  10.686
55434SOL     OW66325   9.982   7.202   9.464
55434SOL    HW166326   9.991   7.212   9.365
55434SOL    HW266327   9.942   7.113   9.485
55435SOL     OW66328  10.960   7.306  10.704
55435SOL    HW166329  11.013   7.316  10.620
55435SOL    HW266330  10.933   7.396  10.738
55436SOL     OW66331  11.151   5.761  10.273
55436SOL    HW166332  11.190   5.676  10.237
55436SOL    HW266333  11.053   5.763  10.254
55437SOL     OW66334   9.573   5.912  10.030
55437SOL    HW166335   9.494   5.963   9.996
55437SOL    HW266336   9.564   5.897  10.128
55438SOL     OW66337  10.504   7.198   9.341
55438SOL    HW166338  10.510   7.105   9.378
55438SOL    HW266339  10.445   7.198   9.261
55439SOL     OW66340  10.132   6.588  10.682
55439SOL    HW166341  10.172   6.587  10.590
55439SOL    HW266342  10.142   6.680  10.722
55440SOL     OW66343  10.226   6.496   9.601
55440SOL    HW166344  10.289   6.534   9.533
55440SOL    HW266345  10.266   6.413   9.640
55441SOL     OW66346  10.814   7.193   9.354
55441SOL    HW166347  10.722   7.230   9.361
55441SOL    HW266348  10.852   7.213   9.264
55442SOL     OW66349   9.682   6.874  10.800
55442SOL    HW166350   9.669   6.967  10.766
55442SOL    HW266351   9.598   6.822  10.787
55443SOL     OW66352  10.924   6.878  10.599
55443SOL    HW166353  10.984   6.881  10.679
55443SOL    HW266354  10.849   6.942  10.612
55444SOL     OW66355  10.349   6.684  10.006
55444SOL    HW166356  10.279   6.637  10.060
55444SOL    HW266357  10.408   6.616   9.963
55445SOL     OW66358  10.324   5.822  10.281
55445SOL    HW166359  10.316   5.786  10.188
55445SOL    HW266360  10.322   5.746  10.346
55446SOL     OW66361   9.900   7.073   9.801
55446SOL    HW166362   9.942   7.015   9.731
55446SOL    HW266363   9.856   7.152   9.757
55447SOL     OW66364  11.019   5.971  10.691
55447SOL    HW166365  11.092   6.040  10.695
55447SOL    HW266366  11.047   5.896  10.632
55448SOL     OW66367   9.565   6.934   9.600
55448SOL    HW166368   9.469   6.935   9.573
55448SOL    HW266369   9.577   6.987   9.684
55449SOL     OW66370   9.415   6.599  11.036
55449SOL    HW166371   9.338   6.566  11.090
55449SOL    HW266372   9.500   6.569  11.078
55450SOL     OW66373   9.982   5.789  10.799
55450SOL    HW166374  10.072   5.773  10.759
55450SOL    HW266375   9.990   5.794  10.898
55451SOL     OW66376   9.385   5.931   9.343
55451SOL    HW166377   9.293   5.903   9.314
55451SOL    HW266378   9.416   6.008   9.287
55452SOL     OW66379  10.750   6.442  10.708
55452SOL    HW166380  10.693   6.494  10.645
55452SOL    HW266381  10.846   6.454  10.684
55453SOL     OW66382   9.382   5.752   9.628
55453SOL    HW166383   9.365   5.835   9.574
55453SOL    HW266384   9.472   5.715   9.606
55454SOL     OW66385  10.493   6.921   9.429
55454SOL    HW166386  10.394   6.910   9.431
55454SOL    HW266387  10.527   6.936   9.522
55455SOL     OW66388   9.923   6.428  10.741
55455SOL    HW166389   9.979   6.509  10.724
55455SOL    HW266390   9.982   6.348  10.744
55456SOL     OW66391  10.803   7.353  10.269
55456SOL    HW166392  10.836   7.417  10.200
55456SOL    HW266393  10.869   7.347  10.344
55457SOL     OW66394  10.026   6.151  11.018
55457SOL    HW166395  10.045   6.216  11.092
55457SOL    HW266396  10.086   6.071  11.027
55458SOL     OW66397  10.760   6.806  10.943
55458SOL    HW166398  10.751   6.796  11.042
55458SOL    HW266399  10.856   6.799  10.917
55459SOL     OW66400   9.700   7.327  10.870
55459SOL    HW166401   9.609   7.368  10.868
55459SOL    HW266402   9.693   7.233  10.902
55460SOL     OW66403  10.984   6.469  10.564
55460SOL    HW166404  10.957   6.380  10.527
55460SOL    HW266405  10.985   6.537  10.491
55461SOL     OW66406  10.535   5.911   9.759
55461SOL    HW166407  10.600   5.837   9.748
55461SOL    HW266408  10.555   5.961   9.843
55462SOL     OW66409   9.904   6.331   9.962
55462SOL    HW166410   9.954   6.416   9.943
55462SOL    HW266411   9.816   6.333   9.914
55463SOL     OW66412  11.087   5.928  10.952
55463SOL    HW166413  11.070   5.959  10.858
55463SOL    HW266414  11.003   5.891  10.990
55464SOL     OW66415  11.040   6.520  10.827
55464SOL    HW166416  11.078   6.611  10.842
55464SOL    HW266417  11.032   6.503  10.728
55465SOL     OW66418  10.169   6.960   9.326
55465SOL    HW166419  10.123   6.975   9.414
55465SOL    HW266420  10.213   7.045   9.296
55466SOL     OW66421   9.971   7.376  10.263
55466SOL    HW166422   9.925   7.464  10.250
55466SOL    HW266423  10.070   7.388  10.256
55467SOL     OW66424  10.169   6.542  10.171
55467SOL    HW166425  10.223   6.473  10.219
55467SOL    HW266426  10.137   6.611  10.237
55468SOL     OW66427  10.393   6.570   9.397
55468SOL    HW166428  10.370   6.623   9.315
55468SOL    HW266429  10.474   6.514   9.378
55469SOL     OW66430  11.171   7.155  10.161
55469SOL    HW166431  11.100   7.143  10.091
55469SOL    HW266432  11.172   7.076  10.221
55470SOL     OW66433   9.531   6.900  11.154
55470SOL    HW166434   9.466   6.827  11.133
55470SOL    HW266435   9.535   6.914  11.252
55471SOL     OW66436   9.389   6.826   9.963
55471SOL    HW166437   9.388   6.779  10.051
55471SOL    HW266438   9.471   6.798   9.912
55472SOL     OW66439   9.982   6.977  10.934
55472SOL    HW166440   9.904   6.927  10.972
55472SOL    HW266441   9.979   7.072  10.965
55473SOL     OW66442  11.134   5.778  10.537
55473SOL    HW166443  11.130   5.688  10.581
55473SOL    HW266444  11.137   5.767  10.438
55474SOL     OW66445   9.738   6.010   9.830
55474SOL    HW166446   9.768   5.938   9.768
55474SOL    HW266447   9.699   5.970   9.913
55475SOL     OW66448  11.015   7.073  10.414
55475SOL    HW166449  10.922   7.048  10.387
55475SOL    HW266450  11.041   7.023  10.496
55476SOL     OW66451   9.627   6.133  10.590
55476SOL    HW166452   9.665   6.074  10.662
55476SOL    HW266453   9.667   6.107  10.502
55477SOL     OW66454  10.122   7.172   9.997
55477SOL    HW166455  10.154   7.182   9.903
55477SOL    HW266456  10.043   7.110   9.999
55478SOL     OW66457  10.734   5.800  10.422
55478SOL    HW166458  10.786   5.735  10.477
55478SOL    HW266459  10.685   5.863  10.483
55479SOL     OW66460  10.311   5.620  10.464
55479SOL    HW166461  10.248   5.548  10.433
55479SOL    HW266462  10.404   5.584  10.464
55480SOL     OW66463  10.080   6.916   9.611
55480SOL    HW166464  10.034   6.829   9.628
55480SOL    HW266465  10.171   6.913   9.652
55481SOL     OW66466   9.928   7.153  10.594
55481SOL    HW166467   9.923   7.235  10.651
55481SOL    HW266468  10.017   7.150  10.549
55482SOL     OW66469  10.662   5.638   9.478
55482SOL    HW166470  10.697   5.597   9.394
55482SOL    HW266471  10.572   5.600   9.498
55483SOL     OW66472  10.610   6.039  10.001
55483SOL    HW166473  10.551   6.119  10.005
55483SOL    HW266474  10.625   6.004  10.094
55484SOL     OW66475  10.903   5.807  10.192
55484SOL    HW166476  10.819   5.806  10.246
55484SOL    HW266477  10.905   5.890  10.136
55485SOL     OW66478   9.349   6.663   9.610
55485SOL    HW166479   9.448   6.652   9.601
55485SOL    HW266480   9.309   6.577   9.642
55486SOL     OW66481  10.185   7.232   9.647
55486SOL    HW166482  10.108   7.197   9.593
55486SOL    HW266483  10.153   7.303   9.709
55487SOL     OW66484   9.540   6.214  11.285
55487SOL    HW166485   9.447   6.212  11.322
55487SOL    HW266486   9.541   6.175  11.193
55488SOL     OW66487   9.535   5.861  12.168
55488SOL    HW166488   9.570   5.844  12.260
55488SOL    HW266489   9.447   5.816  12.156
55489SOL     OW66490   9.329   5.954  11.819
55489SOL    HW166491   9.247   5.997  11.858
55489SOL    HW266492   9.301   5.881  11.756
55490SOL     OW66493   9.879   6.861  12.337
55490SOL    HW166494   9.786   6.854  12.300
55490SOL    HW266495   9.890   6.950  12.381
55491SOL     OW66496  10.865   7.097  11.875
55491SOL    HW166497  10.808   7.081  11.956
55491SOL    HW266498  10.806   7.107  11.795
55492SOL     OW66499  10.445   6.289  11.889
55492SOL    HW166500  10.502   6.367  11.864
55492SOL    HW266501  10.385   6.315  11.965
55493SOL     OW66502  11.065   6.193  11.403
55493SOL    HW166503  11.053   6.180  11.304
55493SOL    HW266504  11.035   6.112  11.452
55494SOL     OW66505  10.078   6.730  12.195
55494SOL    HW166506  10.000   6.747  12.255
55494SOL    HW266507  10.112   6.817  12.159
55495SOL     OW66508   9.995   6.598  11.837
55495SOL    HW166509  10.064   6.582  11.907
55495SOL    HW266510   9.922   6.655  11.875
55496SOL     OW66511   9.645   7.021  12.233
55496SOL    HW166512   9.567   6.990  12.180
55496SOL    HW266513   9.703   7.079  12.176
55497SOL     OW66514  10.770   7.091  12.511
55497SOL    HW166515  10.794   7.185  12.537
55497SOL    HW266516  10.754   7.037  12.593
55498SOL     OW66517   9.748   5.978  12.671
55498SOL    HW166518   9.830   5.922  12.680
55498SOL    HW266519   9.667   5.920  12.675
55499SOL     OW66520  10.913   6.033  11.909
55499SOL    HW166521  10.839   6.079  11.859
55499SOL    HW266522  10.964   6.101  11.962
55500SOL     OW66523   9.541   7.299  11.655
55500SOL    HW166524   9.575   7.376  11.709
55500SOL    HW266525   9.585   7.299  11.565
55501SOL     OW66526   9.540   7.020  11.710
55501SOL    HW166527   9.514   7.116  11.710
55501SOL    HW266528   9.469   6.966  11.755
55502SOL     OW66529   9.550   6.677  12.058
55502SOL    HW166530   9.564   6.593  12.110
55502SOL    HW266531   9.495   6.741  12.113
55503SOL     OW66532   9.930   7.372  12.611
55503SOL    HW166533   9.838   7.355  12.646
55503SOL    HW266534   9.958   7.464  12.637
55504SOL     OW66535   9.916   6.550  11.295
55504SOL    HW166536   9.923   6.634  11.241
55504SOL    HW266537   9.962   6.563  11.383
55505SOL     OW66538  10.904   5.700  12.652
55505SOL    HW166539  10.886   5.767  12.580
55505SOL    HW266540  10.901   5.746  12.741
55506SOL     OW66541   9.432   6.229  11.735
55506SOL    HW166542   9.387   6.141  11.752
55506SOL    HW266543   9.431   6.283  11.819
55507SOL     OW66544  11.152   7.353  11.531
55507SOL    HW166545  11.206   7.324  11.611
55507SOL    HW266546  11.182   7.443  11.502
55508SOL     OW66547   9.337   7.182  11.289
55508SOL    HW166548   9.318   7.086  11.310
55508SOL    HW266549   9.304   7.240  11.364
55509SOL     OW66550  10.999   6.508  11.784
55509SOL    HW166551  11.094   6.479  11.792
55509SOL    HW266552  10.991   6.573  11.709
55510SOL     OW66553  10.951   6.694  11.604
55510SOL    HW166554  11.037   6.696  11.552
55510SOL    HW266555  10.965   6.741  11.692
55511SOL     OW66556   9.423   6.323  12.769
55511SOL    HW166557   9.511   6.310  12.814
55511SOL    HW266558   9.410   6.420  12.747
55512SOL     OW66559   9.923   6.951  11.898
55512SOL    HW166560   9.874   6.864  11.907
55512SOL    HW266561   9.900   6.994  11.811
55513SOL     OW66562  10.119   5.590  11.674
55513SOL    HW166563  10.159   5.681  11.665
55513SOL    HW266564  10.019   5.598  11.680
55514SOL     OW66565   9.507   6.562  12.436
55514SOL    HW166566   9.596   6.517  12.422
55514SOL    HW266567   9.434   6.497  12.417
55515SOL     OW66568  10.835   6.585  11.362
55515SOL    HW166569  10.772   6.509  11.375
55515SOL    HW266570  10.883   6.603  11.448
55516SOL     OW66571  10.776   7.003  12.125
55516SOL    HW166572  10.717   7.009  12.205
55516SOL    HW266573  10.761   6.915  12.079
55517SOL     OW66574  10.977   7.300  11.744
55517SOL    HW166575  10.936   7.277  11.656
55517SOL    HW266576  10.959   7.226  11.809
55518SOL     OW66577   9.908   6.315  11.442
55518SOL    HW166578   9.932   6.384  11.374
55518SOL    HW266579   9.830   6.348  11.496
55519SOL     OW66580  10.591   5.931  12.116
55519SOL    HW166581  10.505   5.881  12.103
55519SOL    HW266582  10.653   5.877  12.172
55520SOL     OW66583  10.886   7.248  11.479
55520SOL    HW166584  10.975   7.294  11.482
55520SOL    HW266585  10.865   7.224  11.384
55521SOL     OW66586  10.117   6.191  12.637
55521SOL    HW166587  10.070   6.188  12.726
55521SOL    HW266588  10.066   6.136  12.571
55522SOL     OW66589  10.283   6.476  12.744
55522SOL    HW166590  10.329   6.392  12.715
55522SOL    HW266591  10.227   6.510  12.669
55523SOL     OW66592  10.301   5.996  12.414
55523SOL    HW166593  10.224   6.030  12.468
55523SOL    HW266594  10.267   5.945  12.335
55524SOL     OW66595  10.351   6.287  11.601
55524SOL    HW166596  10.377   6.283  11.697
55524SOL    HW266597  10.266   6.236  11.587
55525SOL     OW66598   9.386   6.397  11.961
55525SOL    HW166599   9.485   6.385  11.970
55525SOL    HW266600   9.362   6.492  11.982
55526SOL     OW66601   9.440   7.407  12.743
55526SOL    HW166602   9.430   7.392  12.842
55526SOL    HW266603   9.354   7.443  12.707
55527SOL     OW66604  10.175   5.934  11.367
55527SOL    HW166605  10.234   5.997  11.318
55527SOL    HW266606  10.194   5.840  11.338
55528SOL     OW66607  10.672   6.730  11.717
55528SOL    HW166608  10.755   6.701  11.669
55528SOL    HW266609  10.623   6.797  11.661
55529SOL     OW66610   9.860   5.782  12.057
55529SOL    HW166611   9.855   5.777  12.157
55529SOL    HW266612   9.862   5.878  12.028
55530SOL     OW66613  10.318   7.042  11.649
55530SOL    HW166614  10.272   7.114  11.597
55530SOL    HW266615  10.314   7.062  11.747
55531SOL     OW66616   9.661   7.387  12.025
55531SOL    HW166617   9.711   7.301  12.031
55531SOL    HW266618   9.726   7.464  12.022
55532SOL     OW66619  11.105   6.652  12.045
55532SOL    HW166620  11.043   6.637  11.969
55532SOL    HW266621  11.053   6.663  12.130
55533SOL     OW66622  10.537   7.136  12.678
55533SOL    HW166623  10.543   7.059  12.742
55533SOL    HW266624  10.485   7.110  12.598
55534SOL     OW66625   9.631   6.529  11.414
55534SOL    HW166626   9.713   6.568  11.372
55534SOL    HW266627   9.604   6.447  11.365
55535SOL     OW66628  10.768   6.321  11.900
55535SOL    HW166629  10.763   6.256  11.975
55535SOL    HW266630  10.848   6.380  11.913
55536SOL     OW66631  10.421   7.362  11.409
55536SOL    HW166632  10.361   7.300  11.459
55536SOL    HW266633  10.452   7.318  11.324
55537SOL     OW66634   9.512   5.871  12.670
55537SOL    HW166635   9.432   5.931  12.657
55537SOL    HW266636   9.502   5.822  12.756
55538SOL     OW66637  10.942   6.963  11.253
55538SOL    HW166638  10.910   7.057  11.243
55538SOL    HW266639  10.866   6.900  11.241
55539SOL     OW66640   9.774   7.329  11.495
55539SOL    HW166641   9.807   7.368  11.581
55539SOL    HW266642   9.850   7.322  11.430
55540SOL     OW66643  10.710   5.693  11.598
55540SOL    HW166644  10.686   5.656  11.508
55540SOL    HW266645  10.809   5.709  11.602
55541SOL     OW66646   9.559   7.371  12.413
55541SOL    HW166647   9.616   7.306  12.463
55541SOL    HW266648   9.543   7.338  12.320
55542SOL     OW66649  10.250   7.284  12.076
55542SOL    HW166650  10.330   7.227  12.097
55542SOL    HW266651  10.201   7.244  11.999
55543SOL     OW66652   9.692   6.286  11.652
55543SOL    HW166653   9.737   6.196  11.649
55543SOL    HW266654   9.598   6.275  11.685
55544SOL     OW66655   9.924   5.708  11.289
55544SOL    HW166656  10.022   5.686  11.296
55544SOL    HW266657   9.893   5.691  11.196
55545SOL     OW66658  10.198   7.100  12.367
55545SOL    HW166659  10.175   7.075  12.273
55545SOL    HW266660  10.259   7.031  12.406
55546SOL     OW66661  10.661   6.176  12.605
55546SOL    HW166662  10.689   6.133  12.690
55546SOL    HW266663  10.686   6.272  12.606
55547SOL     OW66664  10.113   6.988  12.096
55547SOL    HW166665  10.203   7.002  12.054
55547SOL    HW266666  10.042   6.990  12.025
55548SOL     OW66667  10.232   6.089  12.071
55548SOL    HW166668  10.207   6.080  11.975
55548SOL    HW266669  10.280   6.007  12.102
55549SOL     OW66670   9.849   5.650  11.684
55549SOL    HW166671   9.768   5.651  11.742
55549SOL    HW266672   9.852   5.733  11.629
55550SOL     OW66673  10.744   6.774  11.213
55550SOL    HW166674  10.776   6.698  11.270
55550SOL    HW266675  10.652   6.801  11.243
55551SOL     OW66676   9.607   5.621  11.343
55551SOL    HW166677   9.656   5.705  11.322
55551SOL    HW266678   9.669   5.556  11.388
55552SOL     OW66679  10.245   5.822  11.652
55552SOL    HW166680  10.197   5.863  11.574
55552SOL    HW266681  10.344   5.820  11.633
55553SOL     OW66682  10.386   6.269  12.636
55553SOL    HW166683  10.306   6.208  12.639
55553SOL    HW266684  10.467   6.216  12.612
55554SOL     OW66685  10.537   7.156  11.965
55554SOL    HW166686  10.558   7.230  11.900
55554SOL    HW266687  10.605   7.156  12.038
55555SOL     OW66688   9.769   6.738  11.913
55555SOL    HW166689   9.698   6.711  11.978
55555SOL    HW266690   9.743   6.710  11.820
55556SOL     OW66691  10.581   7.383  11.763
55556SOL    HW166692  10.625   7.447  11.699
55556SOL    HW266693  10.531   7.435  11.833
55557SOL     OW66694  10.342   6.135  11.188
55557SOL    HW166695  10.301   6.217  11.149
55557SOL    HW266696  10.406   6.161  11.261
55558SOL     OW66697   9.388   6.142  12.558
55558SOL    HW166698   9.480   6.141  12.517
55558SOL    HW266699   9.382   6.216  12.625
55559SOL     OW66700   9.871   5.808  12.319
55559SOL    HW166701   9.909   5.724  12.356
55559SOL    HW266702   9.783   5.827  12.363
55560SOL     OW66703  10.176   6.040  11.814
55560SOL    HW166704  10.144   6.112  11.752
55560SOL    HW266705  10.200   5.959  11.761
55561SOL     OW66706  10.327   5.625  11.925
55561SOL    HW166707  10.255   5.630  11.856
55561SOL    HW266708  10.303   5.556  11.994
55562SOL     OW66709  10.739   6.759  12.039
55562SOL    HW166710  10.684   6.675  12.032
55562SOL    HW266711  10.765   6.788  11.947
55563SOL     OW66712  10.776   6.176  12.164
55563SOL    HW166713  10.746   6.081  12.171
55563SOL    HW266714  10.849   6.192  12.230
55564SOL     OW66715  11.167   6.419  11.549
55564SOL    HW166716  11.209   6.355  11.613
55564SOL    HW266717  11.129   6.368  11.471
55565SOL     OW66718   9.798   6.971  11.346
55565SOL    HW166719   9.711   6.956  11.393
55565SOL    HW266720   9.781   6.997  11.251
55566SOL     OW66721  10.974   6.866  11.829
55566SOL    HW166722  11.073   6.874  11.843
55566SOL    HW266723  10.929   6.950  11.860
55567SOL     OW66724  10.700   6.161  11.250
55567SOL    HW166725  10.646   6.140  11.331
55567SOL    HW266726  10.791   6.120  11.259
55568SOL     OW66727   9.837   5.842  11.500
55568SOL    HW166728   9.864   5.783  11.425
55568SOL    HW266729   9.837   5.937  11.469
55569SOL     OW66730  11.064   6.809  12.760
55569SOL    HW166731  11.155   6.770  12.747
55569SOL    HW266732  11.072   6.905  12.784
55570SOL     OW66733  10.374   6.933  12.512
55570SOL    HW166734  10.294   6.910  12.567
55570SOL    HW266735  10.457   6.907  12.561
55571SOL     OW66736  10.421   6.781  12.272
55571SOL    HW166737  10.381   6.825  12.353
55571SOL    HW266738  10.380   6.818  12.189
55572SOL     OW66739  10.948   6.685  12.251
55572SOL    HW166740  10.953   6.766  12.310
55572SOL    HW266741  10.862   6.687  12.200
55573SOL     OW66742  10.225   5.675  12.574
55573SOL    HW166743  10.250   5.655  12.479
55573SOL    HW266744  10.297   5.731  12.616
55574SOL     OW66745  10.015   6.636  11.540
55574SOL    HW166746  10.001   6.643  11.639
55574SOL    HW266747  10.099   6.585  11.522
55575SOL     OW66748   9.720   6.399  12.423
55575SOL    HW166749   9.806   6.411  12.473
55575SOL    HW266750   9.678   6.312  12.450
55576SOL     OW66751  10.584   5.972  12.434
55576SOL    HW166752  10.605   6.046  12.498
55576SOL    HW266753  10.495   5.989  12.391
55577SOL     OW66754   9.374   7.150  12.503
55577SOL    HW166755   9.328   7.232  12.469
55577SOL    HW266756   9.472   7.169  12.512
55578SOL     OW66757   9.677   6.686  11.673
55578SOL    HW166758   9.670   6.769  11.617
55578SOL    HW266759   9.681   6.606  11.613
55579SOL     OW66760   9.876   6.123  12.037
55579SOL    HW166761   9.888   6.189  11.963
55579SOL    HW266762   9.922   6.157  12.120
55580SOL     OW66763  10.562   6.934  11.560
55580SOL    HW166764  10.612   7.011  11.600
55580SOL    HW266765  10.467   6.936  11.592
55581SOL     OW66766  10.582   7.031  12.314
55581SOL    HW166767  10.629   7.044  12.401
55581SOL    HW266768  10.516   6.957  12.323
55582SOL     OW66769  10.892   6.225  11.644
55582SOL    HW166770  10.861   6.286  11.717
55582SOL    HW266771  10.942   6.277  11.575
55583SOL     OW66772   9.664   7.096  12.501
55583SOL    HW166773   9.643   7.052  12.414
55583SOL    HW266774   9.761   7.122  12.504
55584SOL     OW66775   9.712   6.337  12.770
55584SOL    HW166776   9.780   6.392  12.723
55584SOL    HW266777   9.752   6.249  12.797
55585SOL     OW66778  10.897   6.365  12.842
55585SOL    HW166779  10.805   6.403  12.837
55585SOL    HW266780  10.957   6.412  12.777
55586SOL     OW66781   9.883   6.456  12.201
55586SOL    HW166782   9.927   6.545  12.192
55586SOL    HW266783   9.820   6.456  12.278
55587SOL     OW66784  10.670   6.448  12.217
55587SOL    HW166785  10.595   6.448  12.151
55587SOL    HW266786  10.707   6.356  12.226
55588SOL     OW66787  10.519   6.111  11.447
55588SOL    HW166788  10.532   6.027  11.501
55588SOL    HW266789  10.490   6.185  11.507
55589SOL     OW66790   9.617   5.799  12.403
55589SOL    HW166791   9.594   5.836  12.493
55589SOL    HW266792   9.587   5.704  12.397
55590SOL     OW66793   9.347   6.896  12.454
55590SOL    HW166794   9.400   6.847  12.522
55590SOL    HW266795   9.369   6.994  12.459
55591SOL     OW66796  10.042   6.220  12.236
55591SOL    HW166797  10.101   6.194  12.160
55591SOL    HW266798  10.014   6.316  12.225
55592SOL     OW66799   9.617   5.649  11.790
55592SOL    HW166800   9.606   5.743  11.823
55592SOL    HW266801   9.612   5.586  11.867
55593SOL     OW66802  10.932   5.953  11.546
55593SOL    HW166803  10.934   5.877  11.610
55593SOL    HW266804  10.884   6.030  11.586
55594SOL     OW66805  10.333   6.352  12.138
55594SOL    HW166806  10.348   6.373  12.234
55594SOL    HW266807  10.303   6.257  12.129
55595SOL     OW66808  10.850   5.860  11.297
55595SOL    HW166809  10.789   5.785  11.320
55595SOL    HW266810  10.872   5.912  11.380
55596SOL     OW66811  10.613   6.424  11.214
55596SOL    HW166812  10.647   6.331  11.229
55596SOL    HW266813  10.631   6.451  11.119
55597SOL     OW66814  10.378   6.919  12.021
55597SOL    HW166815  10.385   6.835  11.966
55597SOL    HW266816  10.440   6.988  11.985
55598SOL     OW66817   9.629   6.396  12.121
55598SOL    HW166818   9.722   6.432  12.126
55598SOL    HW266819   9.623   6.311  12.173
55599SOL     OW66820   9.649   6.095  12.178
55599SOL    HW166821   9.597   6.012  12.161
55599SOL    HW266822   9.726   6.100  12.114
55600SOL     OW66823  10.470   5.793  12.649
55600SOL    HW166824  10.470   5.857  12.726
55600SOL    HW266825  10.498   5.841  12.566
55601SOL     OW66826   9.318   6.912  11.372
55601SOL    HW166827   9.225   6.933  11.341
55601SOL    HW266828   9.328   6.813  11.385
55602SOL     OW66829   9.398   7.387  12.099
55602SOL    HW166830   9.356   7.301  12.072
55602SOL    HW266831   9.492   7.390  12.065
55603SOL     OW66832   9.814   7.154  12.082
55603SOL    HW166833   9.880   7.228  12.091
55603SOL    HW266834   9.858   7.075  12.040
55604SOL     OW66835  10.312   6.382  12.410
55604SOL    HW166836  10.353   6.350  12.496
55604SOL    HW266837  10.216   6.355  12.407
55605SOL     OW66838   9.350   6.130  12.286
55605SOL    HW166839   9.435   6.097  12.245
55605SOL    HW266840   9.363   6.145  12.384
55606SOL     OW66841  10.125   6.158  11.497
55606SOL    HW166842  10.132   6.069  11.451
55606SOL    HW266843  10.031   6.192  11.489
55607SOL     OW66844  10.967   6.190  12.378
55607SOL    HW166845  10.929   6.121  12.440
55607SOL    HW266846  11.049   6.154  12.334
55608SOL     OW66847   9.562   7.150  12.916
55608SOL    HW166848   9.532   7.207  12.992
55608SOL    HW266849   9.555   7.053  12.942
55609SOL     OW66850   9.981   6.050  12.441
55609SOL    HW166851   9.947   5.961  12.411
55609SOL    HW266852  10.007   6.104  12.361
55610SOL     OW66853  10.240   7.264  12.637
55610SOL    HW166854  10.216   7.246  12.542
55610SOL    HW266855  10.270   7.358  12.647
55611SOL     OW66856   9.783   6.086  11.363
55611SOL    HW166857   9.844   6.166  11.367
55611SOL    HW266858   9.688   6.117  11.370
55612SOL     OW66859   9.469   6.723  12.638
55612SOL    HW166860   9.491   6.662  12.714
55612SOL    HW266861   9.479   6.674  12.552
55613SOL     OW66862  10.657   6.645  12.406
55613SOL    HW166863  10.681   6.582  12.332
55613SOL    HW266864  10.567   6.685  12.388
55614SOL     OW66865  10.612   6.441  11.481
55614SOL    HW166866  10.526   6.410  11.523
55614SOL    HW266867  10.608   6.427  11.382
55615SOL     OW66868  11.069   7.333  12.326
55615SOL    HW166869  11.130   7.363  12.253
55615SOL    HW266870  11.031   7.244  12.304
55616SOL     OW66871  10.562   7.317  12.300
55616SOL    HW166872  10.646   7.322  12.246
55616SOL    HW266873  10.539   7.221  12.318
55617SOL     OW66874   9.393   6.844  12.194
55617SOL    HW166875   9.388   6.843  12.294
55617SOL    HW266876   9.310   6.803  12.156
55618SOL     OW66877  11.036   5.721  11.695
55618SOL    HW166878  11.109   5.704  11.628
55618SOL    HW266879  11.005   5.634  11.733
55619SOL     OW66880  10.698   7.159  11.649
55619SOL    HW166881  10.765   7.171  11.575
55619SOL    HW266882  10.658   7.248  11.672
55620SOL     OW66883  10.590   6.513  11.844
55620SOL    HW166884  10.650   6.432  11.846
55620SOL    HW266885  10.630   6.582  11.784
55621SOL     OW66886  10.140   6.859  12.594
55621SOL    HW166887  10.135   6.892  12.689
55621SOL    HW266888  10.054   6.878  12.548
55622SOL     OW66889   9.982   7.202  11.326
55622SOL    HW166890   9.991   7.212  11.227
55622SOL    HW266891   9.942   7.113  11.347
55623SOL     OW66892  10.960   7.306  12.566
55623SOL    HW166893  11.013   7.316  12.482
55623SOL    HW266894  10.933   7.396  12.600
55624SOL     OW66895  11.151   5.761  12.135
55624SOL    HW166896  11.190   5.676  12.099
55624SOL    HW266897  11.053   5.763  12.116
55625SOL     OW66898   9.573   5.912  11.892
55625SOL    HW166899   9.494   5.963  11.858
55625SOL    HW266900   9.564   5.897  11.990
55626SOL     OW66901  10.504   7.198  11.203
55626SOL    HW166902  10.510   7.105  11.240
55626SOL    HW266903  10.445   7.198  11.123
55627SOL     OW66904  10.132   6.588  12.544
55627SOL    HW166905  10.172   6.587  12.452
55627SOL    HW266906  10.142   6.680  12.584
55628SOL     OW66907  10.226   6.496  11.463
55628SOL    HW166908  10.289   6.534  11.395
55628SOL    HW266909  10.266   6.413  11.502
55629SOL     OW66910  10.814   7.193  11.216
55629SOL    HW166911  10.722   7.230  11.223
55629SOL    HW266912  10.852   7.213  11.126
55630SOL     OW66913   9.682   6.874  12.662
55630SOL    HW166914   9.669   6.967  12.628
55630SOL    HW266915   9.598   6.822  12.649
55631SOL     OW66916  10.924   6.878  12.461
55631SOL    HW166917  10.984   6.881  12.541
55631SOL    HW266918  10.849   6.942  12.474
55632SOL     OW66919  10.349   6.684  11.868
55632SOL    HW166920  10.279   6.637  11.922
55632SOL    HW266921  10.408   6.616  11.825
55633SOL     OW66922  10.324   5.822  12.143
55633SOL    HW166923  10.316   5.786  12.050
55633SOL    HW266924  10.322   5.746  12.208
55634SOL     OW66925   9.900   7.073  11.663
55634SOL    HW166926   9.942   7.015  11.593
55634SOL    HW266927   9.856   7.152  11.619
55635SOL     OW66928  11.019   5.971  12.553
55635SOL    HW166929  11.092   6.040  12.557
55635SOL    HW266930  11.047   5.896  12.494
55636SOL     OW66931   9.565   6.934  11.462
55636SOL    HW166932   9.469   6.935  11.435
55636SOL    HW266933   9.577   6.987  11.546
55637SOL     OW66934   9.415   6.599  12.898
55637SOL    HW166935   9.338   6.566  12.952
55637SOL    HW266936   9.500   6.569  12.940
55638SOL     OW66937   9.982   5.789  12.661
55638SOL    HW166938  10.072   5.773  12.621
55638SOL    HW266939   9.990   5.794  12.760
55639SOL     OW66940   9.385   5.931  11.205
55639SOL    HW166941   9.293   5.903  11.176
55639SOL    HW266942   9.416   6.008  11.149
55640SOL     OW66943  10.750   6.442  12.570
55640SOL    HW166944  10.693   6.494  12.507
55640SOL    HW266945  10.846   6.454  12.546
55641SOL     OW66946  10.493   6.921  11.291
55641SOL    HW166947  10.394   6.910  11.293
55641SOL    HW266948  10.527   6.936  11.384
55642SOL     OW66949   9.923   6.428  12.603
55642SOL    HW166950   9.979   6.509  12.586
55642SOL    HW266951   9.982   6.348  12.606
55643SOL     OW66952  10.803   7.353  12.131
55643SOL    HW166953  10.836   7.417  12.062
55643SOL    HW266954  10.869   7.347  12.206
55644SOL     OW66955  10.026   6.151  12.880
55644SOL    HW166956  10.045   6.216  12.954
55644SOL    HW266957  10.086   6.071  12.889
55645SOL     OW66958   9.700   7.327  12.732
55645SOL    HW166959   9.609   7.368  12.730
55645SOL    HW266960   9.693   7.233  12.764
55646SOL     OW66961  10.984   6.469  12.426
55646SOL    HW166962  10.957   6.380  12.389
55646SOL    HW266963  10.985   6.537  12.353
55647SOL     OW66964  10.535   5.911  11.621
55647SOL    HW166965  10.600   5.837  11.610
55647SOL    HW266966  10.555   5.961  11.705
55648SOL     OW66967   9.904   6.331  11.824
55648SOL    HW166968   9.954   6.416  11.805
55648SOL    HW266969   9.816   6.333  11.776
55649SOL     OW66970  11.087   5.928  12.814
55649SOL    HW166971  11.070   5.959  12.720
55649SOL    HW266972  11.003   5.891  12.852
55650SOL     OW66973  11.040   6.520  12.689
55650SOL    HW166974  11.078   6.611  12.704
55650SOL    HW266975  11.032   6.503  12.590
55651SOL     OW66976  10.169   6.960  11.188
55651SOL    HW166977  10.123   6.975  11.276
55651SOL    HW266978  10.213   7.045  11.158
55652SOL     OW66979   9.971   7.376  12.125
55652SOL    HW166980   9.925   7.464  12.112
55652SOL    HW266981  10.070   7.388  12.118
55653SOL     OW66982  10.169   6.542  12.033
55653SOL    HW166983  10.223   6.473  12.081
55653SOL    HW266984  10.137   6.611  12.099
55654SOL     OW66985  10.393   6.570  11.259
55654SOL    HW166986  10.370   6.623  11.177
55654SOL    HW266987  10.474   6.514  11.240
55655SOL     OW66988  11.171   7.155  12.023
55655SOL    HW166989  11.100   7.143  11.953
55655SOL    HW266990  11.172   7.076  12.083
55656SOL     OW66991   9.389   6.826  11.825
55656SOL    HW166992   9.388   6.779  11.913
55656SOL    HW266993   9.471   6.798  11.774
55657SOL     OW66994   9.982   6.977  12.796
55657SOL    HW166995   9.904   6.927  12.834
55657SOL    HW266996   9.979   7.072  12.827
55658SOL     OW66997  11.134   5.778  12.399
55658SOL    HW166998  11.130   5.688  12.443
55658SOL    HW266999  11.137   5.767  12.300
55659SOL     OW67000   9.738   6.010  11.692
55659SOL    HW167001   9.768   5.938  11.630
55659SOL    HW267002   9.699   5.970  11.775
55660SOL     OW67003  11.015   7.073  12.276
55660SOL    HW167004  10.922   7.048  12.249
55660SOL    HW267005  11.041   7.023  12.358
55661SOL     OW67006   9.627   6.133  12.452
55661SOL    HW167007   9.665   6.074  12.524
55661SOL    HW267008   9.667   6.107  12.364
55662SOL     OW67009  10.122   7.172  11.859
55662SOL    HW167010  10.154   7.182  11.765
55662SOL    HW267011  10.043   7.110  11.861
55663SOL     OW67012  10.734   5.800  12.284
55663SOL    HW167013  10.786   5.735  12.339
55663SOL    HW267014  10.685   5.863  12.345
55664SOL     OW67015  10.311   5.620  12.326
55664SOL    HW167016  10.248   5.548  12.295
55664SOL    HW267017  10.404   5.584  12.326
55665SOL     OW67018  10.080   6.916  11.473
55665SOL    HW167019  10.034   6.829  11.490
55665SOL    HW267020  10.171   6.913  11.514
55666SOL     OW67021   9.928   7.153  12.456
55666SOL    HW167022   9.923   7.235  12.513
55666SOL    HW267023  10.017   7.150  12.411
55667SOL     OW67024  10.662   5.638  11.340
55667SOL    HW167025  10.697   5.597  11.256
55667SOL    HW267026  10.572   5.600  11.360
55668SOL     OW67027  10.610   6.039  11.863
55668SOL    HW167028  10.551   6.119  11.867
55668SOL    HW267029  10.625   6.004  11.956
55669SOL     OW67030  10.903   5.807  12.054
55669SOL    HW167031  10.819   5.806  12.108
55669SOL    HW267032  10.905   5.890  11.998
55670SOL     OW67033   9.349   6.663  11.472
55670SOL    HW167034   9.448   6.652  11.463
55670SOL    HW267035   9.309   6.577  11.504
55671SOL     OW67036  10.185   7.232  11.509
55671SOL    HW167037  10.108   7.197  11.455
55671SOL    HW267038  10.153   7.303  11.571
55672SOL     OW67039   9.540   8.076   0.113
55672SOL    HW167040   9.447   8.074   0.150
55672SOL    HW267041   9.541   8.037   0.021
55673SOL     OW67042   9.535   7.723   0.996
55673SOL    HW167043   9.570   7.706   1.088
55673SOL    HW267044   9.447   7.678   0.984
55674SOL     OW67045   9.329   7.816   0.647
55674SOL    HW167046   9.247   7.859   0.686
55674SOL    HW267047   9.301   7.743   0.584
55675SOL     OW67048   9.879   8.723   1.165
55675SOL    HW167049   9.786   8.716   1.128
55675SOL    HW267050   9.890   8.812   1.209
55676SOL     OW67051  10.865   8.959   0.703
55676SOL    HW167052  10.808   8.943   0.784
55676SOL    HW267053  10.806   8.969   0.623
55677SOL     OW67054  10.445   8.151   0.717
55677SOL    HW167055  10.502   8.229   0.692
55677SOL    HW267056  10.385   8.177   0.793
55678SOL     OW67057  11.065   8.055   0.231
55678SOL    HW167058  11.053   8.042   0.132
55678SOL    HW267059  11.035   7.974   0.280
55679SOL     OW67060  10.078   8.592   1.023
55679SOL    HW167061  10.000   8.609   1.083
55679SOL    HW267062  10.112   8.679   0.987
55680SOL     OW67063  10.160   8.246   1.823
55680SOL    HW167064  10.156   8.322   1.888
55680SOL    HW267065  10.182   8.282   1.732
55681SOL     OW67066   9.995   8.460   0.665
55681SOL    HW167067  10.064   8.444   0.735
55681SOL    HW267068   9.922   8.517   0.703
55682SOL     OW67069   9.996   8.609   1.803
55682SOL    HW167070  10.056   8.688   1.817
55682SOL    HW267071   9.910   8.640   1.762
55683SOL     OW67072   9.645   8.883   1.061
55683SOL    HW167073   9.567   8.852   1.008
55683SOL    HW267074   9.703   8.941   1.004
55684SOL     OW67075  10.770   8.953   1.339
55684SOL    HW167076  10.794   9.047   1.365
55684SOL    HW267077  10.754   8.899   1.421
55685SOL     OW67078   9.748   7.840   1.499
55685SOL    HW167079   9.830   7.784   1.508
55685SOL    HW267080   9.667   7.782   1.503
55686SOL     OW67081  10.913   7.895   0.737
55686SOL    HW167082  10.839   7.941   0.687
55686SOL    HW267083  10.964   7.963   0.790
55687SOL     OW67084   9.541   9.161   0.483
55687SOL    HW167085   9.575   9.238   0.537
55687SOL    HW267086   9.585   9.161   0.393
55688SOL     OW67087  10.437   8.789   1.690
55688SOL    HW167088  10.484   8.789   1.778
55688SOL    HW267089  10.389   8.702   1.679
55689SOL     OW67090   9.540   8.882   0.538
55689SOL    HW167091   9.514   8.978   0.538
55689SOL    HW267092   9.469   8.828   0.583
55690SOL     OW67093   9.550   8.539   0.886
55690SOL    HW167094   9.564   8.455   0.938
55690SOL    HW267095   9.495   8.603   0.941
55691SOL     OW67096   9.930   9.234   1.439
55691SOL    HW167097   9.838   9.217   1.474
55691SOL    HW267098   9.958   9.326   1.465
55692SOL     OW67099   9.916   8.412   0.123
55692SOL    HW167100   9.923   8.496   0.069
55692SOL    HW267101   9.962   8.425   0.211
55693SOL     OW67102  10.904   7.562   1.480
55693SOL    HW167103  10.886   7.629   1.408
55693SOL    HW267104  10.901   7.608   1.569
55694SOL     OW67105   9.432   8.091   0.563
55694SOL    HW167106   9.387   8.003   0.580
55694SOL    HW267107   9.431   8.145   0.647
55695SOL     OW67108  11.152   9.215   0.359
55695SOL    HW167109  11.206   9.186   0.439
55695SOL    HW267110  11.182   9.305   0.330
55696SOL     OW67111   9.337   9.044   0.117
55696SOL    HW167112   9.318   8.948   0.138
55696SOL    HW267113   9.304   9.102   0.192
55697SOL     OW67114  10.999   8.370   0.612
55697SOL    HW167115  11.094   8.341   0.620
55697SOL    HW267116  10.991   8.435   0.537
55698SOL     OW67117  10.951   8.556   0.432
55698SOL    HW167118  11.037   8.558   0.380
55698SOL    HW267119  10.965   8.603   0.520
55699SOL     OW67120   9.423   8.185   1.597
55699SOL    HW167121   9.511   8.172   1.642
55699SOL    HW267122   9.410   8.282   1.575
55700SOL     OW67123   9.923   8.813   0.726
55700SOL    HW167124   9.874   8.726   0.735
55700SOL    HW267125   9.900   8.856   0.639
55701SOL     OW67126  10.603   8.676   1.423
55701SOL    HW167127  10.640   8.603   1.365
55701SOL    HW267128  10.655   8.681   1.508
55702SOL     OW67129  10.119   7.452   0.502
55702SOL    HW167130  10.159   7.543   0.493
55702SOL    HW267131  10.019   7.460   0.508
55703SOL     OW67132   9.507   8.424   1.264
55703SOL    HW167133   9.596   8.379   1.250
55703SOL    HW267134   9.434   8.359   1.245
55704SOL     OW67135  10.835   8.447   0.190
55704SOL    HW167136  10.772   8.371   0.203
55704SOL    HW267137  10.883   8.465   0.276
55705SOL     OW67138  10.497   9.240   1.616
55705SOL    HW167139  10.521   9.300   1.540
55705SOL    HW267140  10.504   9.145   1.586
55706SOL     OW67141   9.627   7.699   1.801
55706SOL    HW167142   9.698   7.770   1.807
55706SOL    HW267143   9.539   7.738   1.829
55707SOL     OW67144  10.776   8.865   0.953
55707SOL    HW167145  10.717   8.871   1.033
55707SOL    HW267146  10.761   8.777   0.907
55708SOL     OW67147  10.977   9.162   0.572
55708SOL    HW167148  10.936   9.139   0.484
55708SOL    HW267149  10.959   9.088   0.637
55709SOL     OW67150   9.908   8.177   0.270
55709SOL    HW167151   9.932   8.246   0.202
55709SOL    HW267152   9.830   8.210   0.324
55710SOL     OW67153  10.591   7.793   0.944
55710SOL    HW167154  10.505   7.743   0.931
55710SOL    HW267155  10.653   7.739   1.000
55711SOL     OW67156  10.886   9.110   0.307
55711SOL    HW167157  10.975   9.156   0.310
55711SOL    HW267158  10.865   9.086   0.212
55712SOL     OW67159  10.117   8.053   1.465
55712SOL    HW167160  10.070   8.050   1.554
55712SOL    HW267161  10.066   7.998   1.399
55713SOL     OW67162  10.704   7.917   1.674
55713SOL    HW167163  10.684   7.960   1.762
55713SOL    HW267164  10.782   7.855   1.683
55714SOL     OW67165  10.283   8.338   1.572
55714SOL    HW167166  10.329   8.254   1.543
55714SOL    HW267167  10.227   8.372   1.497
55715SOL     OW67168  10.301   7.858   1.242
55715SOL    HW167169  10.224   7.892   1.296
55715SOL    HW267170  10.267   7.807   1.163
55716SOL     OW67171  10.351   8.149   0.429
55716SOL    HW167172  10.377   8.145   0.525
55716SOL    HW267173  10.266   8.098   0.415
55717SOL     OW67174   9.386   8.259   0.789
55717SOL    HW167175   9.485   8.247   0.798
55717SOL    HW267176   9.362   8.354   0.810
55718SOL     OW67177   9.440   9.269   1.571
55718SOL    HW167178   9.430   9.254   1.670
55718SOL    HW267179   9.354   9.305   1.535
55719SOL     OW67180  10.175   7.796   0.195
55719SOL    HW167181  10.234   7.859   0.146
55719SOL    HW267182  10.194   7.702   0.166
55720SOL     OW67183  11.029   8.033   1.831
55720SOL    HW167184  11.003   8.122   1.795
55720SOL    HW267185  11.027   7.965   1.758
55721SOL     OW67186  10.672   8.592   0.545
55721SOL    HW167187  10.755   8.563   0.497
55721SOL    HW267188  10.623   8.659   0.489
55722SOL     OW67189   9.860   7.644   0.885
55722SOL    HW167190   9.855   7.639   0.985
55722SOL    HW267191   9.862   7.740   0.856
55723SOL     OW67192  10.318   8.904   0.477
55723SOL    HW167193  10.272   8.976   0.425
55723SOL    HW267194  10.314   8.924   0.575
55724SOL     OW67195   9.661   9.249   0.853
55724SOL    HW167196   9.711   9.163   0.859
55724SOL    HW267197   9.726   9.326   0.850
55725SOL     OW67198  11.105   8.514   0.873
55725SOL    HW167199  11.043   8.499   0.797
55725SOL    HW267200  11.053   8.525   0.958
55726SOL     OW67201  10.537   8.998   1.506
55726SOL    HW167202  10.543   8.921   1.570
55726SOL    HW267203  10.485   8.972   1.426
55727SOL     OW67204   9.631   8.391   0.242
55727SOL    HW167205   9.713   8.430   0.200
55727SOL    HW267206   9.604   8.309   0.193
55728SOL     OW67207  10.768   8.183   0.728
55728SOL    HW167208  10.763   8.118   0.803
55728SOL    HW267209  10.848   8.242   0.741
55729SOL     OW67210   9.771   8.714   1.727
55729SOL    HW167211   9.721   8.715   1.641
55729SOL    HW267212   9.708   8.696   1.803
55730SOL     OW67213  10.421   9.224   0.237
55730SOL    HW167214  10.361   9.162   0.287
55730SOL    HW267215  10.452   9.180   0.152
55731SOL     OW67216   9.512   7.733   1.498
55731SOL    HW167217   9.432   7.793   1.485
55731SOL    HW267218   9.502   7.684   1.584
55732SOL     OW67219  10.942   8.825   0.081
55732SOL    HW167220  10.910   8.919   0.071
55732SOL    HW267221  10.866   8.762   0.069
55733SOL     OW67222   9.774   9.191   0.323
55733SOL    HW167223   9.807   9.230   0.409
55733SOL    HW267224   9.850   9.184   0.258
55734SOL     OW67225  10.710   7.555   0.426
55734SOL    HW167226  10.686   7.518   0.336
55734SOL    HW267227  10.809   7.571   0.430
55735SOL     OW67228   9.559   9.233   1.241
55735SOL    HW167229   9.616   9.168   1.291
55735SOL    HW267230   9.543   9.200   1.148
55736SOL     OW67231  10.250   9.146   0.904
55736SOL    HW167232  10.330   9.089   0.925
55736SOL    HW267233  10.201   9.106   0.827
55737SOL     OW67234   9.692   8.148   0.480
55737SOL    HW167235   9.737   8.058   0.477
55737SOL    HW267236   9.598   8.137   0.513
55738SOL     OW67237  10.857   7.670   1.729
55738SOL    HW167238  10.852   7.707   1.821
55738SOL    HW267239  10.785   7.601   1.717
55739SOL     OW67240   9.924   7.570   0.117
55739SOL    HW167241  10.022   7.548   0.124
55739SOL    HW267242   9.893   7.553   0.024
55740SOL     OW67243  10.091   7.712   1.749
55740SOL    HW167244  10.158   7.651   1.792
55740SOL    HW267245  10.018   7.731   1.814
55741SOL     OW67246  10.198   8.962   1.195
55741SOL    HW167247  10.175   8.937   1.101
55741SOL    HW267248  10.259   8.893   1.234
55742SOL     OW67249  10.661   8.038   1.433
55742SOL    HW167250  10.689   7.995   1.518
55742SOL    HW267251  10.686   8.134   1.434
55743SOL     OW67252  10.113   8.850   0.924
55743SOL    HW167253  10.203   8.864   0.882
55743SOL    HW267254  10.042   8.852   0.853
55744SOL     OW67255  10.232   7.951   0.899
55744SOL    HW167256  10.207   7.942   0.803
55744SOL    HW267257  10.280   7.869   0.930
55745SOL     OW67258   9.849   7.512   0.512
55745SOL    HW167259   9.768   7.513   0.570
55745SOL    HW267260   9.852   7.595   0.457
55746SOL     OW67261  10.744   8.636   0.041
55746SOL    HW167262  10.776   8.560   0.098
55746SOL    HW267263  10.652   8.663   0.071
55747SOL     OW67264   9.607   7.483   0.171
55747SOL    HW167265   9.656   7.567   0.150
55747SOL    HW267266   9.669   7.418   0.216
55748SOL     OW67267  10.245   7.684   0.480
55748SOL    HW167268  10.197   7.725   0.402
55748SOL    HW267269  10.344   7.682   0.461
55749SOL     OW67270  10.386   8.131   1.464
55749SOL    HW167271  10.306   8.070   1.467
55749SOL    HW267272  10.467   8.078   1.440
55750SOL     OW67273  10.537   9.018   0.793
55750SOL    HW167274  10.558   9.092   0.728
55750SOL    HW267275  10.605   9.018   0.866
55751SOL     OW67276   9.769   8.600   0.741
55751SOL    HW167277   9.698   8.573   0.806
55751SOL    HW267278   9.743   8.572   0.648
55752SOL     OW67279  10.581   9.245   0.591
55752SOL    HW167280  10.625   9.309   0.527
55752SOL    HW267281  10.531   9.297   0.661
55753SOL     OW67282  10.342   7.997   0.016
55753SOL    HW167283  10.301   8.079  -0.023
55753SOL    HW267284  10.406   8.023   0.089
55754SOL     OW67285   9.388   8.004   1.386
55754SOL    HW167286   9.480   8.003   1.345
55754SOL    HW267287   9.382   8.078   1.453
55755SOL     OW67288   9.871   7.670   1.147
55755SOL    HW167289   9.909   7.586   1.184
55755SOL    HW267290   9.783   7.689   1.191
55756SOL     OW67291  10.176   7.902   0.642
55756SOL    HW167292  10.144   7.974   0.580
55756SOL    HW267293  10.200   7.821   0.589
55757SOL     OW67294  10.327   7.487   0.753
55757SOL    HW167295  10.255   7.492   0.684
55757SOL    HW267296  10.303   7.418   0.822
55758SOL     OW67297  10.739   8.621   0.867
55758SOL    HW167298  10.684   8.537   0.860
55758SOL    HW267299  10.765   8.650   0.775
55759SOL     OW67300  10.776   8.038   0.992
55759SOL    HW167301  10.746   7.943   0.999
55759SOL    HW267302  10.849   8.054   1.058
55760SOL     OW67303  11.167   8.281   0.377
55760SOL    HW167304  11.209   8.217   0.441
55760SOL    HW267305  11.129   8.230   0.299
55761SOL     OW67306   9.798   8.833   0.174
55761SOL    HW167307   9.711   8.818   0.221
55761SOL    HW267308   9.781   8.859   0.079
55762SOL     OW67309  10.974   8.728   0.657
55762SOL    HW167310  11.073   8.736   0.671
55762SOL    HW267311  10.929   8.812   0.688
55763SOL     OW67312  10.700   8.023   0.078
55763SOL    HW167313  10.646   8.002   0.159
55763SOL    HW267314  10.791   7.982   0.087
55764SOL     OW67315   9.837   7.704   0.328
55764SOL    HW167316   9.864   7.645   0.253
55764SOL    HW267317   9.837   7.799   0.297
55765SOL     OW67318  11.064   8.671   1.588
55765SOL    HW167319  11.155   8.632   1.575
55765SOL    HW267320  11.072   8.767   1.612
55766SOL     OW67321  10.374   8.795   1.340
55766SOL    HW167322  10.294   8.772   1.395
55766SOL    HW267323  10.457   8.769   1.389
55767SOL     OW67324  10.902   9.077   1.625
55767SOL    HW167325  10.929   9.111   1.535
55767SOL    HW267326  10.981   9.039   1.671
55768SOL     OW67327  10.421   8.643   1.100
55768SOL    HW167328  10.381   8.687   1.181
55768SOL    HW267329  10.380   8.680   1.017
55769SOL     OW67330  10.948   8.547   1.079
55769SOL    HW167331  10.953   8.628   1.138
55769SOL    HW267332  10.862   8.549   1.028
55770SOL     OW67333  10.225   7.537   1.402
55770SOL    HW167334  10.250   7.517   1.307
55770SOL    HW267335  10.297   7.593   1.444
55771SOL     OW67336  10.015   8.498   0.368
55771SOL    HW167337  10.001   8.505   0.467
55771SOL    HW267338  10.099   8.447   0.350
55772SOL     OW67339   9.720   8.261   1.251
55772SOL    HW167340   9.806   8.273   1.301
55772SOL    HW267341   9.678   8.174   1.278
55773SOL     OW67342  10.584   7.834   1.262
55773SOL    HW167343  10.605   7.908   1.326
55773SOL    HW267344  10.495   7.851   1.219
55774SOL     OW67345   9.374   9.012   1.331
55774SOL    HW167346   9.328   9.094   1.297
55774SOL    HW267347   9.472   9.031   1.340
55775SOL     OW67348   9.677   8.548   0.501
55775SOL    HW167349   9.670   8.631   0.445
55775SOL    HW267350   9.681   8.468   0.441
55776SOL     OW67351   9.876   7.985   0.865
55776SOL    HW167352   9.888   8.051   0.791
55776SOL    HW267353   9.922   8.019   0.948
55777SOL     OW67354  10.562   8.796   0.388
55777SOL    HW167355  10.612   8.873   0.428
55777SOL    HW267356  10.467   8.798   0.420
55778SOL     OW67357  10.582   8.893   1.142
55778SOL    HW167358  10.629   8.906   1.229
55778SOL    HW267359  10.516   8.819   1.151
55779SOL     OW67360  10.892   8.087   0.472
55779SOL    HW167361  10.861   8.148   0.545
55779SOL    HW267362  10.942   8.139   0.403
55780SOL     OW67363   9.664   8.958   1.329
55780SOL    HW167364   9.643   8.914   1.242
55780SOL    HW267365   9.761   8.984   1.332
55781SOL     OW67366   9.712   8.199   1.598
55781SOL    HW167367   9.780   8.254   1.551
55781SOL    HW267368   9.752   8.111   1.625
55782SOL     OW67369  10.897   8.227   1.670
55782SOL    HW167370  10.805   8.265   1.665
55782SOL    HW267371  10.957   8.274   1.605
55783SOL     OW67372  10.323   7.553   1.770
55783SOL    HW167373  10.329   7.638   1.718
55783SOL    HW267374  10.355   7.477   1.713
55784SOL     OW67375   9.814   7.498   1.740
55784SOL    HW167376   9.772   7.441   1.670
55784SOL    HW267377   9.748   7.567   1.772
55785SOL     OW67378   9.883   8.318   1.029
55785SOL    HW167379   9.927   8.407   1.020
55785SOL    HW267380   9.820   8.318   1.106
55786SOL     OW67381  10.670   8.310   1.045
55786SOL    HW167382  10.595   8.310   0.979
55786SOL    HW267383  10.707   8.218   1.054
55787SOL     OW67384  10.519   7.973   0.275
55787SOL    HW167385  10.532   7.889   0.329
55787SOL    HW267386  10.490   8.047   0.335
55788SOL     OW67387   9.617   7.661   1.231
55788SOL    HW167388   9.594   7.698   1.321
55788SOL    HW267389   9.587   7.566   1.225
55789SOL     OW67390   9.347   8.758   1.282
55789SOL    HW167391   9.400   8.709   1.350
55789SOL    HW267392   9.369   8.856   1.287
55790SOL     OW67393  10.042   8.082   1.064
55790SOL    HW167394  10.101   8.056   0.988
55790SOL    HW267395  10.014   8.178   1.053
55791SOL     OW67396  11.038   8.383   1.854
55791SOL    HW167397  10.992   8.376   1.765
55791SOL    HW267398  10.976   8.427   1.920
55792SOL     OW67399   9.617   7.511   0.618
55792SOL    HW167400   9.606   7.605   0.651
55792SOL    HW267401   9.612   7.448   0.695
55793SOL     OW67402  10.932   7.815   0.374
55793SOL    HW167403  10.934   7.739   0.438
55793SOL    HW267404  10.884   7.892   0.414
55794SOL     OW67405  10.333   8.214   0.966
55794SOL    HW167406  10.348   8.235   1.062
55794SOL    HW267407  10.303   8.119   0.957
55795SOL     OW67408  10.290   9.021   1.700
55795SOL    HW167409  10.270   9.065   1.612
55795SOL    HW267410  10.329   8.930   1.684
55796SOL     OW67411  11.169   8.966   1.605
55796SOL    HW167412  11.183   8.993   1.510
55796SOL    HW267413  11.252   8.988   1.658
55797SOL     OW67414   9.660   8.346   1.804
55797SOL    HW167415   9.736   8.390   1.852
55797SOL    HW267416   9.695   8.299   1.722
55798SOL     OW67417  10.850   7.722   0.125
55798SOL    HW167418  10.789   7.647   0.148
55798SOL    HW267419  10.872   7.774   0.208
55799SOL     OW67420  10.613   8.286   0.042
55799SOL    HW167421  10.647   8.193   0.057
55799SOL    HW267422  10.631   8.313  -0.053
55800SOL     OW67423  10.378   8.781   0.849
55800SOL    HW167424  10.385   8.697   0.794
55800SOL    HW267425  10.440   8.850   0.813
55801SOL     OW67426   9.629   8.258   0.949
55801SOL    HW167427   9.722   8.294   0.954
55801SOL    HW267428   9.623   8.173   1.001
55802SOL     OW67429   9.649   7.957   1.006
55802SOL    HW167430   9.597   7.874   0.989
55802SOL    HW267431   9.726   7.962   0.942
55803SOL     OW67432  10.448   7.828   1.678
55803SOL    HW167433  10.403   7.891   1.742
55803SOL    HW267434  10.541   7.859   1.661
55804SOL     OW67435  10.470   7.655   1.477
55804SOL    HW167436  10.470   7.719   1.554
55804SOL    HW267437  10.498   7.703   1.394
55805SOL     OW67438   9.318   8.774   0.200
55805SOL    HW167439   9.225   8.795   0.169
55805SOL    HW267440   9.328   8.675   0.213
55806SOL     OW67441   9.398   9.249   0.927
55806SOL    HW167442   9.356   9.163   0.900
55806SOL    HW267443   9.492   9.252   0.893
55807SOL     OW67444   9.814   9.016   0.910
55807SOL    HW167445   9.880   9.090   0.919
55807SOL    HW267446   9.858   8.937   0.868
55808SOL     OW67447  10.312   8.244   1.238
55808SOL    HW167448  10.353   8.212   1.324
55808SOL    HW267449  10.216   8.217   1.235
55809SOL     OW67450   9.350   7.992   1.114
55809SOL    HW167451   9.435   7.959   1.073
55809SOL    HW267452   9.363   8.007   1.212
55810SOL     OW67453   9.499   7.968   1.722
55810SOL    HW167454   9.558   7.928   1.652
55810SOL    HW267455   9.441   8.039   1.681
55811SOL     OW67456  10.679   8.398   1.660
55811SOL    HW167457  10.718   8.487   1.680
55811SOL    HW267458  10.689   8.378   1.563
55812SOL     OW67459  10.125   8.020   0.325
55812SOL    HW167460  10.132   7.931   0.279
55812SOL    HW267461  10.031   8.054   0.317
55813SOL     OW67462  10.967   8.052   1.206
55813SOL    HW167463  10.929   7.983   1.268
55813SOL    HW267464  11.049   8.016   1.162
55814SOL     OW67465   9.562   9.012   1.744
55814SOL    HW167466   9.532   9.069   1.820
55814SOL    HW267467   9.555   8.915   1.770
55815SOL     OW67468   9.981   7.912   1.269
55815SOL    HW167469   9.947   7.823   1.239
55815SOL    HW267470  10.007   7.966   1.189
55816SOL     OW67471  10.240   9.126   1.465
55816SOL    HW167472  10.216   9.108   1.370
55816SOL    HW267473  10.270   9.220   1.475
55817SOL     OW67474   9.783   7.948   0.191
55817SOL    HW167475   9.844   8.028   0.195
55817SOL    HW267476   9.688   7.979   0.198
55818SOL     OW67477   9.469   8.585   1.466
55818SOL    HW167478   9.491   8.524   1.542
55818SOL    HW267479   9.479   8.536   1.380
55819SOL     OW67480  10.657   8.507   1.234
55819SOL    HW167481  10.681   8.444   1.160
55819SOL    HW267482  10.567   8.547   1.216
55820SOL     OW67483  10.612   8.303   0.309
55820SOL    HW167484  10.526   8.272   0.351
55820SOL    HW267485  10.608   8.289   0.210
55821SOL     OW67486  11.069   9.195   1.154
55821SOL    HW167487  11.130   9.225   1.081
55821SOL    HW267488  11.031   9.106   1.132
55822SOL     OW67489  10.562   9.179   1.128
55822SOL    HW167490  10.646   9.184   1.074
55822SOL    HW267491  10.539   9.083   1.146
55823SOL     OW67492   9.393   8.706   1.022
55823SOL    HW167493   9.388   8.705   1.122
55823SOL    HW267494   9.310   8.665   0.984
55824SOL     OW67495   9.998   9.110   1.716
55824SOL    HW167496   9.942   9.191   1.725
55824SOL    HW267497  10.050   9.114   1.630
55825SOL     OW67498  10.213   7.534   0.133
55825SOL    HW167499  10.264   7.535   0.047
55825SOL    HW267500  10.269   7.492   0.204
55826SOL     OW67501  11.036   7.583   0.523
55826SOL    HW167502  11.109   7.566   0.456
55826SOL    HW267503  11.005   7.496   0.561
55827SOL     OW67504  10.698   9.021   0.477
55827SOL    HW167505  10.765   9.033   0.403
55827SOL    HW267506  10.658   9.110   0.500
55828SOL     OW67507   9.440   9.242   1.851
55828SOL    HW167508   9.399   9.168   1.904
55828SOL    HW267509   9.504   9.293   1.909
55829SOL     OW67510  10.590   8.375   0.672
55829SOL    HW167511  10.650   8.294   0.674
55829SOL    HW267512  10.630   8.444   0.612
55830SOL     OW67513  10.140   8.721   1.422
55830SOL    HW167514  10.135   8.754   1.517
55830SOL    HW267515  10.054   8.740   1.376
55831SOL     OW67516   9.982   9.064   0.154
55831SOL    HW167517   9.991   9.074   0.055
55831SOL    HW267518   9.942   8.975   0.175
55832SOL     OW67519  10.960   9.168   1.394
55832SOL    HW167520  11.013   9.178   1.310
55832SOL    HW267521  10.933   9.258   1.428
55833SOL     OW67522  11.151   7.623   0.963
55833SOL    HW167523  11.190   7.538   0.927
55833SOL    HW267524  11.053   7.625   0.944
55834SOL     OW67525   9.573   7.774   0.720
55834SOL    HW167526   9.494   7.825   0.686
55834SOL    HW267527   9.564   7.759   0.818
55835SOL     OW67528  10.504   9.060   0.031
55835SOL    HW167529  10.510   8.967   0.068
55835SOL    HW267530  10.445   9.060  -0.049
55836SOL     OW67531  10.132   8.450   1.372
55836SOL    HW167532  10.172   8.449   1.280
55836SOL    HW267533  10.142   8.542   1.412
55837SOL     OW67534  10.226   8.358   0.291
55837SOL    HW167535  10.289   8.396   0.223
55837SOL    HW267536  10.266   8.275   0.330
55838SOL     OW67537  10.814   9.055   0.044
55838SOL    HW167538  10.722   9.092   0.051
55838SOL    HW267539  10.852   9.075  -0.046
55839SOL     OW67540   9.682   8.736   1.490
55839SOL    HW167541   9.669   8.829   1.456
55839SOL    HW267542   9.598   8.684   1.477
55840SOL     OW67543  10.924   8.740   1.289
55840SOL    HW167544  10.984   8.743   1.369
55840SOL    HW267545  10.849   8.804   1.302
55841SOL     OW67546  10.349   8.546   0.696
55841SOL    HW167547  10.279   8.499   0.750
55841SOL    HW267548  10.408   8.478   0.653
55842SOL     OW67549  10.324   7.684   0.971
55842SOL    HW167550  10.316   7.648   0.878
55842SOL    HW267551  10.322   7.608   1.036
55843SOL     OW67552   9.900   8.935   0.491
55843SOL    HW167553   9.942   8.877   0.421
55843SOL    HW267554   9.856   9.014   0.447
55844SOL     OW67555  11.019   7.833   1.381
55844SOL    HW167556  11.092   7.902   1.385
55844SOL    HW267557  11.047   7.758   1.322
55845SOL     OW67558   9.565   8.796   0.290
55845SOL    HW167559   9.469   8.797   0.263
55845SOL    HW267560   9.577   8.849   0.374
55846SOL     OW67561   9.415   8.461   1.726
55846SOL    HW167562   9.338   8.428   1.780
55846SOL    HW267563   9.500   8.431   1.768
55847SOL     OW67564   9.982   7.651   1.489
55847SOL    HW167565  10.072   7.635   1.449
55847SOL    HW267566   9.990   7.656   1.588
55848SOL     OW67567  10.750   8.304   1.398
55848SOL    HW167568  10.693   8.356   1.335
55848SOL    HW267569  10.846   8.316   1.374
55849SOL     OW67570   9.382   7.614   0.318
55849SOL    HW167571   9.365   7.697   0.264
55849SOL    HW267572   9.472   7.577   0.296
55850SOL     OW67573  10.493   8.783   0.119
55850SOL    HW167574  10.394   8.772   0.121
55850SOL    HW267575  10.527   8.798   0.212
55851SOL     OW67576   9.923   8.290   1.431
55851SOL    HW167577   9.979   8.371   1.414
55851SOL    HW267578   9.982   8.210   1.434
55852SOL     OW67579  10.803   9.215   0.959
55852SOL    HW167580  10.836   9.279   0.890
55852SOL    HW267581  10.869   9.209   1.034
55853SOL     OW67582  10.026   8.013   1.708
55853SOL    HW167583  10.045   8.078   1.782
55853SOL    HW267584  10.086   7.933   1.717
55854SOL     OW67585  10.760   8.668   1.633
55854SOL    HW167586  10.751   8.658   1.732
55854SOL    HW267587  10.856   8.661   1.607
55855SOL     OW67588   9.700   9.189   1.560
55855SOL    HW167589   9.609   9.230   1.558
55855SOL    HW267590   9.693   9.095   1.592
55856SOL     OW67591  10.984   8.331   1.254
55856SOL    HW167592  10.957   8.242   1.217
55856SOL    HW267593  10.985   8.399   1.181
55857SOL     OW67594  10.535   7.773   0.449
55857SOL    HW167595  10.600   7.699   0.438
55857SOL    HW267596  10.555   7.823   0.533
55858SOL     OW67597   9.904   8.193   0.652
55858SOL    HW167598   9.954   8.278   0.633
55858SOL    HW267599   9.816   8.195   0.604
55859SOL     OW67600  11.087   7.790   1.642
55859SOL    HW167601  11.070   7.821   1.548
55859SOL    HW267602  11.003   7.753   1.680
55860SOL     OW67603  11.040   8.382   1.517
55860SOL    HW167604  11.078   8.473   1.532
55860SOL    HW267605  11.032   8.365   1.418
55861SOL     OW67606  10.169   8.822   0.016
55861SOL    HW167607  10.123   8.837   0.104
55861SOL    HW267608  10.213   8.907  -0.014
55862SOL     OW67609   9.971   9.238   0.953
55862SOL    HW167610   9.925   9.326   0.940
55862SOL    HW267611  10.070   9.250   0.946
55863SOL     OW67612  10.169   8.404   0.861
55863SOL    HW167613  10.223   8.335   0.909
55863SOL    HW267614  10.137   8.473   0.927
55864SOL     OW67615  10.393   8.432   0.087
55864SOL    HW167616  10.370   8.485   0.005
55864SOL    HW267617  10.474   8.376   0.068
55865SOL     OW67618  11.171   9.017   0.851
55865SOL    HW167619  11.100   9.005   0.781
55865SOL    HW267620  11.172   8.938   0.911
55866SOL     OW67621   9.531   8.762   1.844
55866SOL    HW167622   9.466   8.689   1.823
55866SOL    HW267623   9.535   8.776   1.942
55867SOL     OW67624   9.389   8.688   0.653
55867SOL    HW167625   9.388   8.641   0.741
55867SOL    HW267626   9.471   8.660   0.602
55868SOL     OW67627   9.982   8.839   1.624
55868SOL    HW167628   9.904   8.789   1.662
55868SOL    HW267629   9.979   8.934   1.655
55869SOL     OW67630  11.134   7.640   1.227
55869SOL    HW167631  11.130   7.550   1.271
55869SOL    HW267632  11.137   7.629   1.128
55870SOL     OW67633  11.015   8.935   1.104
55870SOL    HW167634  10.922   8.910   1.077
55870SOL    HW267635  11.041   8.885   1.186
55871SOL     OW67636   9.627   7.995   1.280
55871SOL    HW167637   9.665   7.936   1.352
55871SOL    HW267638   9.667   7.969   1.192
55872SOL     OW67639  10.122   9.034   0.687
55872SOL    HW167640  10.154   9.044   0.593
55872SOL    HW267641  10.043   8.972   0.689
55873SOL     OW67642  10.734   7.662   1.112
55873SOL    HW167643  10.786   7.597   1.167
55873SOL    HW267644  10.685   7.725   1.173
55874SOL     OW67645  10.311   7.482   1.154
55874SOL    HW167646  10.248   7.410   1.123
55874SOL    HW267647  10.404   7.446   1.154
55875SOL     OW67648  10.080   8.778   0.301
55875SOL    HW167649  10.034   8.691   0.318
55875SOL    HW267650  10.171   8.775   0.342
55876SOL     OW67651   9.928   9.015   1.284
55876SOL    HW167652   9.923   9.097   1.341
55876SOL    HW267653  10.017   9.012   1.239
55877SOL     OW67654  10.662   7.500   0.168
55877SOL    HW167655  10.697   7.459   0.084
55877SOL    HW267656  10.572   7.462   0.188
55878SOL     OW67657  10.610   7.901   0.691
55878SOL    HW167658  10.551   7.981   0.695
55878SOL    HW267659  10.625   7.866   0.784
55879SOL     OW67660  10.903   7.669   0.882
55879SOL    HW167661  10.819   7.668   0.936
55879SOL    HW267662  10.905   7.752   0.826
55880SOL     OW67663   9.349   8.525   0.300
55880SOL    HW167664   9.448   8.514   0.291
55880SOL    HW267665   9.309   8.439   0.332
55881SOL     OW67666  10.185   9.094   0.337
55881SOL    HW167667  10.108   9.059   0.283
55881SOL    HW267668  10.153   9.165   0.399
55882SOL     OW67669   9.540   8.076   1.975
55882SOL    HW167670   9.447   8.074   2.012
55882SOL    HW267671   9.541   8.037   1.883
55883SOL     OW67672   9.535   7.723   2.858
55883SOL    HW167673   9.570   7.706   2.950
55883SOL    HW267674   9.447   7.678   2.846
55884SOL     OW67675   9.329   7.816   2.509
55884SOL    HW167676   9.247   7.859   2.548
55884SOL    HW267677   9.301   7.743   2.446
55885SOL     OW67678   9.879   8.723   3.027
55885SOL    HW167679   9.786   8.716   2.990
55885SOL    HW267680   9.890   8.812   3.071
55886SOL     OW67681  10.865   8.959   2.565
55886SOL    HW167682  10.808   8.943   2.646
55886SOL    HW267683  10.806   8.969   2.485
55887SOL     OW67684  10.445   8.151   2.579
55887SOL    HW167685  10.502   8.229   2.554
55887SOL    HW267686  10.385   8.177   2.655
55888SOL     OW67687  11.065   8.055   2.093
55888SOL    HW167688  11.053   8.042   1.994
55888SOL    HW267689  11.035   7.974   2.142
55889SOL     OW67690  10.078   8.592   2.885
55889SOL    HW167691  10.000   8.609   2.945
55889SOL    HW267692  10.112   8.679   2.849
55890SOL     OW67693  10.160   8.246   3.685
55890SOL    HW167694  10.156   8.322   3.750
55890SOL    HW267695  10.182   8.282   3.594
55891SOL     OW67696   9.995   8.460   2.527
55891SOL    HW167697  10.064   8.444   2.597
55891SOL    HW267698   9.922   8.517   2.565
55892SOL     OW67699   9.996   8.609   3.665
55892SOL    HW167700  10.056   8.688   3.679
55892SOL    HW267701   9.910   8.640   3.624
55893SOL     OW67702   9.645   8.883   2.923
55893SOL    HW167703   9.567   8.852   2.870
55893SOL    HW267704   9.703   8.941   2.866
55894SOL     OW67705  10.770   8.953   3.201
55894SOL    HW167706  10.794   9.047   3.227
55894SOL    HW267707  10.754   8.899   3.283
55895SOL     OW67708   9.748   7.840   3.361
55895SOL    HW167709   9.830   7.784   3.370
55895SOL    HW267710   9.667   7.782   3.365
55896SOL     OW67711  10.913   7.895   2.599
55896SOL    HW167712  10.839   7.941   2.549
55896SOL    HW267713  10.964   7.963   2.652
55897SOL     OW67714   9.541   9.161   2.345
55897SOL    HW167715   9.575   9.238   2.399
55897SOL    HW267716   9.585   9.161   2.255
55898SOL     OW67717  10.437   8.789   3.552
55898SOL    HW167718  10.484   8.789   3.640
55898SOL    HW267719  10.389   8.702   3.541
55899SOL     OW67720   9.540   8.882   2.400
55899SOL    HW167721   9.514   8.978   2.400
55899SOL    HW267722   9.469   8.828   2.445
55900SOL     OW67723   9.550   8.539   2.748
55900SOL    HW167724   9.564   8.455   2.800
55900SOL    HW267725   9.495   8.603   2.803
55901SOL     OW67726   9.930   9.234   3.301
55901SOL    HW167727   9.838   9.217   3.336
55901SOL    HW267728   9.958   9.326   3.327
55902SOL     OW67729   9.916   8.412   1.985
55902SOL    HW167730   9.923   8.496   1.931
55902SOL    HW267731   9.962   8.425   2.073
55903SOL     OW67732  10.904   7.562   3.342
55903SOL    HW167733  10.886   7.629   3.270
55903SOL    HW267734  10.901   7.608   3.431
55904SOL     OW67735   9.432   8.091   2.425
55904SOL    HW167736   9.387   8.003   2.442
55904SOL    HW267737   9.431   8.145   2.509
55905SOL     OW67738  11.152   9.215   2.221
55905SOL    HW167739  11.206   9.186   2.301
55905SOL    HW267740  11.182   9.305   2.192
55906SOL     OW67741   9.337   9.044   1.979
55906SOL    HW167742   9.318   8.948   2.000
55906SOL    HW267743   9.304   9.102   2.054
55907SOL     OW67744  10.999   8.370   2.474
55907SOL    HW167745  11.094   8.341   2.482
55907SOL    HW267746  10.991   8.435   2.399
55908SOL     OW67747  10.951   8.556   2.294
55908SOL    HW167748  11.037   8.558   2.242
55908SOL    HW267749  10.965   8.603   2.382
55909SOL     OW67750   9.423   8.185   3.459
55909SOL    HW167751   9.511   8.172   3.504
55909SOL    HW267752   9.410   8.282   3.437
55910SOL     OW67753   9.923   8.813   2.588
55910SOL    HW167754   9.874   8.726   2.597
55910SOL    HW267755   9.900   8.856   2.501
55911SOL     OW67756  10.603   8.676   3.285
55911SOL    HW167757  10.640   8.603   3.227
55911SOL    HW267758  10.655   8.681   3.370
55912SOL     OW67759  10.119   7.452   2.364
55912SOL    HW167760  10.159   7.543   2.355
55912SOL    HW267761  10.019   7.460   2.370
55913SOL     OW67762   9.507   8.424   3.126
55913SOL    HW167763   9.596   8.379   3.112
55913SOL    HW267764   9.434   8.359   3.107
55914SOL     OW67765  10.835   8.447   2.052
55914SOL    HW167766  10.772   8.371   2.065
55914SOL    HW267767  10.883   8.465   2.138
55915SOL     OW67768  10.497   9.240   3.478
55915SOL    HW167769  10.521   9.300   3.402
55915SOL    HW267770  10.504   9.145   3.448
55916SOL     OW67771   9.627   7.699   3.663
55916SOL    HW167772   9.698   7.770   3.669
55916SOL    HW267773   9.539   7.738   3.691
55917SOL     OW67774  10.776   8.865   2.815
55917SOL    HW167775  10.717   8.871   2.895
55917SOL    HW267776  10.761   8.777   2.769
55918SOL     OW67777  10.977   9.162   2.434
55918SOL    HW167778  10.936   9.139   2.346
55918SOL    HW267779  10.959   9.088   2.499
55919SOL     OW67780   9.908   8.177   2.132
55919SOL    HW167781   9.932   8.246   2.064
55919SOL    HW267782   9.830   8.210   2.186
55920SOL     OW67783  10.591   7.793   2.806
55920SOL    HW167784  10.505   7.743   2.793
55920SOL    HW267785  10.653   7.739   2.862
55921SOL     OW67786  10.886   9.110   2.169
55921SOL    HW167787  10.975   9.156   2.172
55921SOL    HW267788  10.865   9.086   2.074
55922SOL     OW67789  10.117   8.053   3.327
55922SOL    HW167790  10.070   8.050   3.416
55922SOL    HW267791  10.066   7.998   3.261
55923SOL     OW67792  10.704   7.917   3.536
55923SOL    HW167793  10.684   7.960   3.624
55923SOL    HW267794  10.782   7.855   3.545
55924SOL     OW67795  10.283   8.338   3.434
55924SOL    HW167796  10.329   8.254   3.405
55924SOL    HW267797  10.227   8.372   3.359
55925SOL     OW67798  10.301   7.858   3.104
55925SOL    HW167799  10.224   7.892   3.158
55925SOL    HW267800  10.267   7.807   3.025
55926SOL     OW67801  10.351   8.149   2.291
55926SOL    HW167802  10.377   8.145   2.387
55926SOL    HW267803  10.266   8.098   2.277
55927SOL     OW67804   9.386   8.259   2.651
55927SOL    HW167805   9.485   8.247   2.660
55927SOL    HW267806   9.362   8.354   2.672
55928SOL     OW67807   9.440   9.269   3.433
55928SOL    HW167808   9.430   9.254   3.532
55928SOL    HW267809   9.354   9.305   3.397
55929SOL     OW67810  10.175   7.796   2.057
55929SOL    HW167811  10.234   7.859   2.008
55929SOL    HW267812  10.194   7.702   2.028
55930SOL     OW67813  11.029   8.033   3.693
55930SOL    HW167814  11.003   8.122   3.657
55930SOL    HW267815  11.027   7.965   3.620
55931SOL     OW67816  10.672   8.592   2.407
55931SOL    HW167817  10.755   8.563   2.359
55931SOL    HW267818  10.623   8.659   2.351
55932SOL     OW67819   9.860   7.644   2.747
55932SOL    HW167820   9.855   7.639   2.847
55932SOL    HW267821   9.862   7.740   2.718
55933SOL     OW67822  10.318   8.904   2.339
55933SOL    HW167823  10.272   8.976   2.287
55933SOL    HW267824  10.314   8.924   2.437
55934SOL     OW67825   9.661   9.249   2.715
55934SOL    HW167826   9.711   9.163   2.721
55934SOL    HW267827   9.726   9.326   2.712
55935SOL     OW67828  11.105   8.514   2.735
55935SOL    HW167829  11.043   8.499   2.659
55935SOL    HW267830  11.053   8.525   2.820
55936SOL     OW67831  10.537   8.998   3.368
55936SOL    HW167832  10.543   8.921   3.432
55936SOL    HW267833  10.485   8.972   3.288
55937SOL     OW67834   9.631   8.391   2.104
55937SOL    HW167835   9.713   8.430   2.062
55937SOL    HW267836   9.604   8.309   2.055
55938SOL     OW67837  10.768   8.183   2.590
55938SOL    HW167838  10.763   8.118   2.665
55938SOL    HW267839  10.848   8.242   2.603
55939SOL     OW67840   9.771   8.714   3.589
55939SOL    HW167841   9.721   8.715   3.503
55939SOL    HW267842   9.708   8.696   3.665
55940SOL     OW67843  10.421   9.224   2.099
55940SOL    HW167844  10.361   9.162   2.149
55940SOL    HW267845  10.452   9.180   2.014
55941SOL     OW67846   9.512   7.733   3.360
55941SOL    HW167847   9.432   7.793   3.347
55941SOL    HW267848   9.502   7.684   3.446
55942SOL     OW67849  10.942   8.825   1.943
55942SOL    HW167850  10.910   8.919   1.933
55942SOL    HW267851  10.866   8.762   1.931
55943SOL     OW67852   9.774   9.191   2.185
55943SOL    HW167853   9.807   9.230   2.271
55943SOL    HW267854   9.850   9.184   2.120
55944SOL     OW67855  10.710   7.555   2.288
55944SOL    HW167856  10.686   7.518   2.198
55944SOL    HW267857  10.809   7.571   2.292
55945SOL     OW67858   9.559   9.233   3.103
55945SOL    HW167859   9.616   9.168   3.153
55945SOL    HW267860   9.543   9.200   3.010
55946SOL     OW67861  10.250   9.146   2.766
55946SOL    HW167862  10.330   9.089   2.787
55946SOL    HW267863  10.201   9.106   2.689
55947SOL     OW67864   9.692   8.148   2.342
55947SOL    HW167865   9.737   8.058   2.339
55947SOL    HW267866   9.598   8.137   2.375
55948SOL     OW67867  10.857   7.670   3.591
55948SOL    HW167868  10.852   7.707   3.683
55948SOL    HW267869  10.785   7.601   3.579
55949SOL     OW67870   9.924   7.570   1.979
55949SOL    HW167871  10.022   7.548   1.986
55949SOL    HW267872   9.893   7.553   1.886
55950SOL     OW67873  10.091   7.712   3.611
55950SOL    HW167874  10.158   7.651   3.654
55950SOL    HW267875  10.018   7.731   3.676
55951SOL     OW67876  10.198   8.962   3.057
55951SOL    HW167877  10.175   8.937   2.963
55951SOL    HW267878  10.259   8.893   3.096
55952SOL     OW67879  10.661   8.038   3.295
55952SOL    HW167880  10.689   7.995   3.380
55952SOL    HW267881  10.686   8.134   3.296
55953SOL     OW67882  10.113   8.850   2.786
55953SOL    HW167883  10.203   8.864   2.744
55953SOL    HW267884  10.042   8.852   2.715
55954SOL     OW67885  10.232   7.951   2.761
55954SOL    HW167886  10.207   7.942   2.665
55954SOL    HW267887  10.280   7.869   2.792
55955SOL     OW67888   9.849   7.512   2.374
55955SOL    HW167889   9.768   7.513   2.432
55955SOL    HW267890   9.852   7.595   2.319
55956SOL     OW67891  10.744   8.636   1.903
55956SOL    HW167892  10.776   8.560   1.960
55956SOL    HW267893  10.652   8.663   1.933
55957SOL     OW67894   9.607   7.483   2.033
55957SOL    HW167895   9.656   7.567   2.012
55957SOL    HW267896   9.669   7.418   2.078
55958SOL     OW67897  10.245   7.684   2.342
55958SOL    HW167898  10.197   7.725   2.264
55958SOL    HW267899  10.344   7.682   2.323
55959SOL     OW67900  10.386   8.131   3.326
55959SOL    HW167901  10.306   8.070   3.329
55959SOL    HW267902  10.467   8.078   3.302
55960SOL     OW67903  10.537   9.018   2.655
55960SOL    HW167904  10.558   9.092   2.590
55960SOL    HW267905  10.605   9.018   2.728
55961SOL     OW67906   9.769   8.600   2.603
55961SOL    HW167907   9.698   8.573   2.668
55961SOL    HW267908   9.743   8.572   2.510
55962SOL     OW67909  10.581   9.245   2.453
55962SOL    HW167910  10.625   9.309   2.389
55962SOL    HW267911  10.531   9.297   2.523
55963SOL     OW67912  10.342   7.997   1.878
55963SOL    HW167913  10.301   8.079   1.839
55963SOL    HW267914  10.406   8.023   1.951
55964SOL     OW67915   9.388   8.004   3.248
55964SOL    HW167916   9.480   8.003   3.207
55964SOL    HW267917   9.382   8.078   3.315
55965SOL     OW67918   9.871   7.670   3.009
55965SOL    HW167919   9.909   7.586   3.046
55965SOL    HW267920   9.783   7.689   3.053
55966SOL     OW67921  10.176   7.902   2.504
55966SOL    HW167922  10.144   7.974   2.442
55966SOL    HW267923  10.200   7.821   2.451
55967SOL     OW67924  10.327   7.487   2.615
55967SOL    HW167925  10.255   7.492   2.546
55967SOL    HW267926  10.303   7.418   2.684
55968SOL     OW67927  10.739   8.621   2.729
55968SOL    HW167928  10.684   8.537   2.722
55968SOL    HW267929  10.765   8.650   2.637
55969SOL     OW67930  10.776   8.038   2.854
55969SOL    HW167931  10.746   7.943   2.861
55969SOL    HW267932  10.849   8.054   2.920
55970SOL     OW67933  11.167   8.281   2.239
55970SOL    HW167934  11.209   8.217   2.303
55970SOL    HW267935  11.129   8.230   2.161
55971SOL     OW67936   9.798   8.833   2.036
55971SOL    HW167937   9.711   8.818   2.083
55971SOL    HW267938   9.781   8.859   1.941
55972SOL     OW67939  10.974   8.728   2.519
55972SOL    HW167940  11.073   8.736   2.533
55972SOL    HW267941  10.929   8.812   2.550
55973SOL     OW67942  10.700   8.023   1.940
55973SOL    HW167943  10.646   8.002   2.021
55973SOL    HW267944  10.791   7.982   1.949
55974SOL     OW67945   9.837   7.704   2.190
55974SOL    HW167946   9.864   7.645   2.115
55974SOL    HW267947   9.837   7.799   2.159
55975SOL     OW67948  11.064   8.671   3.450
55975SOL    HW167949  11.155   8.632   3.437
55975SOL    HW267950  11.072   8.767   3.474
55976SOL     OW67951  10.374   8.795   3.202
55976SOL    HW167952  10.294   8.772   3.257
55976SOL    HW267953  10.457   8.769   3.251
55977SOL     OW67954  10.902   9.077   3.487
55977SOL    HW167955  10.929   9.111   3.397
55977SOL    HW267956  10.981   9.039   3.533
55978SOL     OW67957  10.421   8.643   2.962
55978SOL    HW167958  10.381   8.687   3.043
55978SOL    HW267959  10.380   8.680   2.879
55979SOL     OW67960  10.948   8.547   2.941
55979SOL    HW167961  10.953   8.628   3.000
55979SOL    HW267962  10.862   8.549   2.890
55980SOL     OW67963  10.225   7.537   3.264
55980SOL    HW167964  10.250   7.517   3.169
55980SOL    HW267965  10.297   7.593   3.306
55981SOL     OW67966  10.290   8.564   3.581
55981SOL    HW167967  10.191   8.570   3.591
55981SOL    HW267968  10.313   8.484   3.525
55982SOL     OW67969  10.015   8.498   2.230
55982SOL    HW167970  10.001   8.505   2.329
55982SOL    HW267971  10.099   8.447   2.212
55983SOL     OW67972   9.720   8.261   3.113
55983SOL    HW167973   9.806   8.273   3.163
55983SOL    HW267974   9.678   8.174   3.140
55984SOL     OW67975  10.584   7.834   3.124
55984SOL    HW167976  10.605   7.908   3.188
55984SOL    HW267977  10.495   7.851   3.081
55985SOL     OW67978   9.374   9.012   3.193
55985SOL    HW167979   9.328   9.094   3.159
55985SOL    HW267980   9.472   9.031   3.202
55986SOL     OW67981   9.677   8.548   2.363
55986SOL    HW167982   9.670   8.631   2.307
55986SOL    HW267983   9.681   8.468   2.303
55987SOL     OW67984   9.876   7.985   2.727
55987SOL    HW167985   9.888   8.051   2.653
55987SOL    HW267986   9.922   8.019   2.810
55988SOL     OW67987  10.562   8.796   2.250
55988SOL    HW167988  10.612   8.873   2.290
55988SOL    HW267989  10.467   8.798   2.282
55989SOL     OW67990  10.582   8.893   3.004
55989SOL    HW167991  10.629   8.906   3.091
55989SOL    HW267992  10.516   8.819   3.013
55990SOL     OW67993  10.892   8.087   2.334
55990SOL    HW167994  10.861   8.148   2.407
55990SOL    HW267995  10.942   8.139   2.265
55991SOL     OW67996   9.664   8.958   3.191
55991SOL    HW167997   9.643   8.914   3.104
55991SOL    HW267998   9.761   8.984   3.194
55992SOL     OW67999   9.712   8.199   3.460
55992SOL    HW168000   9.780   8.254   3.413
55992SOL    HW268001   9.752   8.111   3.487
55993SOL     OW68002  10.897   8.227   3.532
55993SOL    HW168003  10.805   8.265   3.527
55993SOL    HW268004  10.957   8.274   3.467
55994SOL     OW68005  10.323   7.553   3.632
55994SOL    HW168006  10.329   7.638   3.580
55994SOL    HW268007  10.355   7.477   3.575
55995SOL     OW68008   9.814   7.498   3.602
55995SOL    HW168009   9.772   7.441   3.532
55995SOL    HW268010   9.748   7.567   3.634
55996SOL     OW68011  10.670   8.310   2.907
55996SOL    HW168012  10.595   8.310   2.841
55996SOL    HW268013  10.707   8.218   2.916
55997SOL     OW68014  10.519   7.973   2.137
55997SOL    HW168015  10.532   7.889   2.191
55997SOL    HW268016  10.490   8.047   2.197
55998SOL     OW68017   9.617   7.661   3.093
55998SOL    HW168018   9.594   7.698   3.183
55998SOL    HW268019   9.587   7.566   3.087
55999SOL     OW68020   9.347   8.758   3.144
55999SOL    HW168021   9.400   8.709   3.212
55999SOL    HW268022   9.369   8.856   3.149
56000SOL     OW68023  10.042   8.082   2.926
56000SOL    HW168024  10.101   8.056   2.850
56000SOL    HW268025  10.014   8.178   2.915
56001SOL     OW68026  11.038   8.383   3.716
56001SOL    HW168027  10.992   8.376   3.627
56001SOL    HW268028  10.976   8.427   3.782
56002SOL     OW68029   9.617   7.511   2.480
56002SOL    HW168030   9.606   7.605   2.513
56002SOL    HW268031   9.612   7.448   2.557
56003SOL     OW68032  10.932   7.815   2.236
56003SOL    HW168033  10.934   7.739   2.300
56003SOL    HW268034  10.884   7.892   2.276
56004SOL     OW68035  10.333   8.214   2.828
56004SOL    HW168036  10.348   8.235   2.924
56004SOL    HW268037  10.303   8.119   2.819
56005SOL     OW68038  10.290   9.021   3.562
56005SOL    HW168039  10.270   9.065   3.474
56005SOL    HW268040  10.329   8.930   3.546
56006SOL     OW68041  11.169   8.966   3.467
56006SOL    HW168042  11.183   8.993   3.372
56006SOL    HW268043  11.252   8.988   3.520
56007SOL     OW68044   9.660   8.346   3.666
56007SOL    HW168045   9.736   8.390   3.714
56007SOL    HW268046   9.695   8.299   3.584
56008SOL     OW68047  10.850   7.722   1.987
56008SOL    HW168048  10.789   7.647   2.010
56008SOL    HW268049  10.872   7.774   2.070
56009SOL     OW68050  10.613   8.286   1.904
56009SOL    HW168051  10.647   8.193   1.919
56009SOL    HW268052  10.631   8.313   1.809
56010SOL     OW68053  10.378   8.781   2.711
56010SOL    HW168054  10.385   8.697   2.656
56010SOL    HW268055  10.440   8.850   2.675
56011SOL     OW68056   9.629   8.258   2.811
56011SOL    HW168057   9.722   8.294   2.816
56011SOL    HW268058   9.623   8.173   2.863
56012SOL     OW68059   9.649   7.957   2.868
56012SOL    HW168060   9.597   7.874   2.851
56012SOL    HW268061   9.726   7.962   2.804
56013SOL     OW68062  10.448   7.828   3.540
56013SOL    HW168063  10.403   7.891   3.604
56013SOL    HW268064  10.541   7.859   3.523
56014SOL     OW68065  10.470   7.655   3.339
56014SOL    HW168066  10.470   7.719   3.416
56014SOL    HW268067  10.498   7.703   3.256
56015SOL     OW68068   9.318   8.774   2.062
56015SOL    HW168069   9.225   8.795   2.031
56015SOL    HW268070   9.328   8.675   2.075
56016SOL     OW68071   9.398   9.249   2.789
56016SOL    HW168072   9.356   9.163   2.762
56016SOL    HW268073   9.492   9.252   2.755
56017SOL     OW68074   9.814   9.016   2.772
56017SOL    HW168075   9.880   9.090   2.781
56017SOL    HW268076   9.858   8.937   2.730
56018SOL     OW68077  10.312   8.244   3.100
56018SOL    HW168078  10.353   8.212   3.186
56018SOL    HW268079  10.216   8.217   3.097
56019SOL     OW68080   9.350   7.992   2.976
56019SOL    HW168081   9.435   7.959   2.935
56019SOL    HW268082   9.363   8.007   3.074
56020SOL     OW68083   9.499   7.968   3.584
56020SOL    HW168084   9.558   7.928   3.514
56020SOL    HW268085   9.441   8.039   3.543
56021SOL     OW68086  10.679   8.398   3.522
56021SOL    HW168087  10.718   8.487   3.542
56021SOL    HW268088  10.689   8.378   3.425
56022SOL     OW68089  10.125   8.020   2.187
56022SOL    HW168090  10.132   7.931   2.141
56022SOL    HW268091  10.031   8.054   2.179
56023SOL     OW68092  10.967   8.052   3.068
56023SOL    HW168093  10.929   7.983   3.130
56023SOL    HW268094  11.049   8.016   3.024
56024SOL     OW68095   9.562   9.012   3.606
56024SOL    HW168096   9.532   9.069   3.682
56024SOL    HW268097   9.555   8.915   3.632
56025SOL     OW68098   9.981   7.912   3.131
56025SOL    HW168099   9.947   7.823   3.101
56025SOL    HW268100  10.007   7.966   3.051
56026SOL     OW68101  10.240   9.126   3.327
56026SOL    HW168102  10.216   9.108   3.232
56026SOL    HW268103  10.270   9.220   3.337
56027SOL     OW68104   9.783   7.948   2.053
56027SOL    HW168105   9.844   8.028   2.057
56027SOL    HW268106   9.688   7.979   2.060
56028SOL     OW68107   9.469   8.585   3.328
56028SOL    HW168108   9.491   8.524   3.404
56028SOL    HW268109   9.479   8.536   3.242
56029SOL     OW68110  10.657   8.507   3.096
56029SOL    HW168111  10.681   8.444   3.022
56029SOL    HW268112  10.567   8.547   3.078
56030SOL     OW68113  10.612   8.303   2.171
56030SOL    HW168114  10.526   8.272   2.213
56030SOL    HW268115  10.608   8.289   2.072
56031SOL     OW68116  11.069   9.195   3.016
56031SOL    HW168117  11.130   9.225   2.943
56031SOL    HW268118  11.031   9.106   2.994
56032SOL     OW68119  10.562   9.179   2.990
56032SOL    HW168120  10.646   9.184   2.936
56032SOL    HW268121  10.539   9.083   3.008
56033SOL     OW68122   9.393   8.706   2.884
56033SOL    HW168123   9.388   8.705   2.984
56033SOL    HW268124   9.310   8.665   2.846
56034SOL     OW68125   9.998   9.110   3.578
56034SOL    HW168126   9.942   9.191   3.587
56034SOL    HW268127  10.050   9.114   3.492
56035SOL     OW68128  11.036   7.583   2.385
56035SOL    HW168129  11.109   7.566   2.318
56035SOL    HW268130  11.005   7.496   2.423
56036SOL     OW68131  10.698   9.021   2.339
56036SOL    HW168132  10.765   9.033   2.265
56036SOL    HW268133  10.658   9.110   2.362
56037SOL     OW68134   9.440   9.242   3.713
56037SOL    HW168135   9.399   9.168   3.766
56037SOL    HW268136   9.504   9.293   3.771
56038SOL     OW68137  10.590   8.375   2.534
56038SOL    HW168138  10.650   8.294   2.536
56038SOL    HW268139  10.630   8.444   2.474
56039SOL     OW68140  10.140   8.721   3.284
56039SOL    HW168141  10.135   8.754   3.379
56039SOL    HW268142  10.054   8.740   3.238
56040SOL     OW68143   9.982   9.064   2.016
56040SOL    HW168144   9.991   9.074   1.917
56040SOL    HW268145   9.942   8.975   2.037
56041SOL     OW68146  10.960   9.168   3.256
56041SOL    HW168147  11.013   9.178   3.172
56041SOL    HW268148  10.933   9.258   3.290
56042SOL     OW68149  11.151   7.623   2.825
56042SOL    HW168150  11.190   7.538   2.789
56042SOL    HW268151  11.053   7.625   2.806
56043SOL     OW68152   9.573   7.774   2.582
56043SOL    HW168153   9.494   7.825   2.548
56043SOL    HW268154   9.564   7.759   2.680
56044SOL     OW68155  10.504   9.060   1.893
56044SOL    HW168156  10.510   8.967   1.930
56044SOL    HW268157  10.445   9.060   1.813
56045SOL     OW68158  10.132   8.450   3.234
56045SOL    HW168159  10.172   8.449   3.142
56045SOL    HW268160  10.142   8.542   3.274
56046SOL     OW68161  10.226   8.358   2.153
56046SOL    HW168162  10.289   8.396   2.085
56046SOL    HW268163  10.266   8.275   2.192
56047SOL     OW68164  10.814   9.055   1.906
56047SOL    HW168165  10.722   9.092   1.913
56047SOL    HW268166  10.852   9.075   1.816
56048SOL     OW68167   9.682   8.736   3.352
56048SOL    HW168168   9.669   8.829   3.318
56048SOL    HW268169   9.598   8.684   3.339
56049SOL     OW68170  10.924   8.740   3.151
56049SOL    HW168171  10.984   8.743   3.231
56049SOL    HW268172  10.849   8.804   3.164
56050SOL     OW68173  10.349   8.546   2.558
56050SOL    HW168174  10.279   8.499   2.612
56050SOL    HW268175  10.408   8.478   2.515
56051SOL     OW68176  10.324   7.684   2.833
56051SOL    HW168177  10.316   7.648   2.740
56051SOL    HW268178  10.322   7.608   2.898
56052SOL     OW68179   9.900   8.935   2.353
56052SOL    HW168180   9.942   8.877   2.283
56052SOL    HW268181   9.856   9.014   2.309
56053SOL     OW68182  11.019   7.833   3.243
56053SOL    HW168183  11.092   7.902   3.247
56053SOL    HW268184  11.047   7.758   3.184
56054SOL     OW68185   9.565   8.796   2.152
56054SOL    HW168186   9.469   8.797   2.125
56054SOL    HW268187   9.577   8.849   2.236
56055SOL     OW68188   9.415   8.461   3.588
56055SOL    HW168189   9.338   8.428   3.642
56055SOL    HW268190   9.500   8.431   3.630
56056SOL     OW68191   9.982   7.651   3.351
56056SOL    HW168192  10.072   7.635   3.311
56056SOL    HW268193   9.990   7.656   3.450
56057SOL     OW68194   9.385   7.793   1.895
56057SOL    HW168195   9.293   7.765   1.866
56057SOL    HW268196   9.416   7.870   1.839
56058SOL     OW68197  10.750   8.304   3.260
56058SOL    HW168198  10.693   8.356   3.197
56058SOL    HW268199  10.846   8.316   3.236
56059SOL     OW68200   9.382   7.614   2.180
56059SOL    HW168201   9.365   7.697   2.126
56059SOL    HW268202   9.472   7.577   2.158
56060SOL     OW68203  10.493   8.783   1.981
56060SOL    HW168204  10.394   8.772   1.983
56060SOL    HW268205  10.527   8.798   2.074
56061SOL     OW68206   9.923   8.290   3.293
56061SOL    HW168207   9.979   8.371   3.276
56061SOL    HW268208   9.982   8.210   3.296
56062SOL     OW68209  10.803   9.215   2.821
56062SOL    HW168210  10.836   9.279   2.752
56062SOL    HW268211  10.869   9.209   2.896
56063SOL     OW68212  10.026   8.013   3.570
56063SOL    HW168213  10.045   8.078   3.644
56063SOL    HW268214  10.086   7.933   3.579
56064SOL     OW68215  10.760   8.668   3.495
56064SOL    HW168216  10.751   8.658   3.594
56064SOL    HW268217  10.856   8.661   3.469
56065SOL     OW68218   9.700   9.189   3.422
56065SOL    HW168219   9.609   9.230   3.420
56065SOL    HW268220   9.693   9.095   3.454
56066SOL     OW68221  10.984   8.331   3.116
56066SOL    HW168222  10.957   8.242   3.079
56066SOL    HW268223  10.985   8.399   3.043
56067SOL     OW68224  10.535   7.773   2.311
56067SOL    HW168225  10.600   7.699   2.300
56067SOL    HW268226  10.555   7.823   2.395
56068SOL     OW68227   9.904   8.193   2.514
56068SOL    HW168228   9.954   8.278   2.495
56068SOL    HW268229   9.816   8.195   2.466
56069SOL     OW68230  11.087   7.790   3.504
56069SOL    HW168231  11.070   7.821   3.410
56069SOL    HW268232  11.003   7.753   3.542
56070SOL     OW68233  11.040   8.382   3.379
56070SOL    HW168234  11.078   8.473   3.394
56070SOL    HW268235  11.032   8.365   3.280
56071SOL     OW68236  10.169   8.822   1.878
56071SOL    HW168237  10.123   8.837   1.966
56071SOL    HW268238  10.213   8.907   1.848
56072SOL     OW68239   9.971   9.238   2.815
56072SOL    HW168240   9.925   9.326   2.802
56072SOL    HW268241  10.070   9.250   2.808
56073SOL     OW68242  10.169   8.404   2.723
56073SOL    HW168243  10.223   8.335   2.771
56073SOL    HW268244  10.137   8.473   2.789
56074SOL     OW68245  10.393   8.432   1.949
56074SOL    HW168246  10.370   8.485   1.867
56074SOL    HW268247  10.474   8.376   1.930
56075SOL     OW68248  11.171   9.017   2.713
56075SOL    HW168249  11.100   9.005   2.643
56075SOL    HW268250  11.172   8.938   2.773
56076SOL     OW68251   9.531   8.762   3.706
56076SOL    HW168252   9.466   8.689   3.685
56076SOL    HW268253   9.535   8.776   3.804
56077SOL     OW68254   9.389   8.688   2.515
56077SOL    HW168255   9.388   8.641   2.603
56077SOL    HW268256   9.471   8.660   2.464
56078SOL     OW68257   9.982   8.839   3.486
56078SOL    HW168258   9.904   8.789   3.524
56078SOL    HW268259   9.979   8.934   3.517
56079SOL     OW68260  11.134   7.640   3.089
56079SOL    HW168261  11.130   7.550   3.133
56079SOL    HW268262  11.137   7.629   2.990
56080SOL     OW68263   9.738   7.872   2.382
56080SOL    HW168264   9.768   7.800   2.320
56080SOL    HW268265   9.699   7.832   2.465
56081SOL     OW68266  11.015   8.935   2.966
56081SOL    HW168267  10.922   8.910   2.939
56081SOL    HW268268  11.041   8.885   3.048
56082SOL     OW68269   9.627   7.995   3.142
56082SOL    HW168270   9.665   7.936   3.214
56082SOL    HW268271   9.667   7.969   3.054
56083SOL     OW68272  10.122   9.034   2.549
56083SOL    HW168273  10.154   9.044   2.455
56083SOL    HW268274  10.043   8.972   2.551
56084SOL     OW68275  10.734   7.662   2.974
56084SOL    HW168276  10.786   7.597   3.029
56084SOL    HW268277  10.685   7.725   3.035
56085SOL     OW68278  10.311   7.482   3.016
56085SOL    HW168279  10.248   7.410   2.985
56085SOL    HW268280  10.404   7.446   3.016
56086SOL     OW68281  10.080   8.778   2.163
56086SOL    HW168282  10.034   8.691   2.180
56086SOL    HW268283  10.171   8.775   2.204
56087SOL     OW68284   9.928   9.015   3.146
56087SOL    HW168285   9.923   9.097   3.203
56087SOL    HW268286  10.017   9.012   3.101
56088SOL     OW68287  10.662   7.500   2.030
56088SOL    HW168288  10.697   7.459   1.946
56088SOL    HW268289  10.572   7.462   2.050
56089SOL     OW68290  10.610   7.901   2.553
56089SOL    HW168291  10.551   7.981   2.557
56089SOL    HW268292  10.625   7.866   2.646
56090SOL     OW68293  10.903   7.669   2.744
56090SOL    HW168294  10.819   7.668   2.798
56090SOL    HW268295  10.905   7.752   2.688
56091SOL     OW68296   9.349   8.525   2.162
56091SOL    HW168297   9.448   8.514   2.153
56091SOL    HW268298   9.309   8.439   2.194
56092SOL     OW68299  10.185   9.094   2.199
56092SOL    HW168300  10.108   9.059   2.145
56092SOL    HW268301  10.153   9.165   2.261
56093SOL     OW68302   9.540   8.076   3.837
56093SOL    HW168303   9.447   8.074   3.874
56093SOL    HW268304   9.541   8.037   3.745
56094SOL     OW68305   9.535   7.723   4.720
56094SOL    HW168306   9.570   7.706   4.812
56094SOL    HW268307   9.447   7.678   4.708
56095SOL     OW68308   9.329   7.816   4.371
56095SOL    HW168309   9.247   7.859   4.410
56095SOL    HW268310   9.301   7.743   4.308
56096SOL     OW68311   9.879   8.723   4.889
56096SOL    HW168312   9.786   8.716   4.852
56096SOL    HW268313   9.890   8.812   4.933
56097SOL     OW68314  10.865   8.959   4.427
56097SOL    HW168315  10.808   8.943   4.508
56097SOL    HW268316  10.806   8.969   4.347
56098SOL     OW68317  10.445   8.151   4.441
56098SOL    HW168318  10.502   8.229   4.416
56098SOL    HW268319  10.385   8.177   4.517
56099SOL     OW68320  11.065   8.055   3.955
56099SOL    HW168321  11.053   8.042   3.856
56099SOL    HW268322  11.035   7.974   4.004
56100SOL     OW68323  10.078   8.592   4.747
56100SOL    HW168324  10.000   8.609   4.807
56100SOL    HW268325  10.112   8.679   4.711
56101SOL     OW68326  10.160   8.246   5.547
56101SOL    HW168327  10.156   8.322   5.612
56101SOL    HW268328  10.182   8.282   5.456
56102SOL     OW68329   9.995   8.460   4.389
56102SOL    HW168330  10.064   8.444   4.459
56102SOL    HW268331   9.922   8.517   4.427
56103SOL     OW68332   9.996   8.609   5.527
56103SOL    HW168333  10.056   8.688   5.541
56103SOL    HW268334   9.910   8.640   5.486
56104SOL     OW68335   9.645   8.883   4.785
56104SOL    HW168336   9.567   8.852   4.732
56104SOL    HW268337   9.703   8.941   4.728
56105SOL     OW68338  10.770   8.953   5.063
56105SOL    HW168339  10.794   9.047   5.089
56105SOL    HW268340  10.754   8.899   5.145
56106SOL     OW68341   9.748   7.840   5.223
56106SOL    HW168342   9.830   7.784   5.232
56106SOL    HW268343   9.667   7.782   5.227
56107SOL     OW68344  10.913   7.895   4.461
56107SOL    HW168345  10.839   7.941   4.411
56107SOL    HW268346  10.964   7.963   4.514
56108SOL     OW68347   9.541   9.161   4.207
56108SOL    HW168348   9.575   9.238   4.261
56108SOL    HW268349   9.585   9.161   4.117
56109SOL     OW68350  10.437   8.789   5.414
56109SOL    HW168351  10.484   8.789   5.502
56109SOL    HW268352  10.389   8.702   5.403
56110SOL     OW68353   9.540   8.882   4.262
56110SOL    HW168354   9.514   8.978   4.262
56110SOL    HW268355   9.469   8.828   4.307
56111SOL     OW68356   9.550   8.539   4.610
56111SOL    HW168357   9.564   8.455   4.662
56111SOL    HW268358   9.495   8.603   4.665
56112SOL     OW68359   9.930   9.234   5.163
56112SOL    HW168360   9.838   9.217   5.198
56112SOL    HW268361   9.958   9.326   5.189
56113SOL     OW68362   9.916   8.412   3.847
56113SOL    HW168363   9.923   8.496   3.793
56113SOL    HW268364   9.962   8.425   3.935
56114SOL     OW68365  10.904   7.562   5.204
56114SOL    HW168366  10.886   7.629   5.132
56114SOL    HW268367  10.901   7.608   5.293
56115SOL     OW68368   9.432   8.091   4.287
56115SOL    HW168369   9.387   8.003   4.304
56115SOL    HW268370   9.431   8.145   4.371
56116SOL     OW68371  11.152   9.215   4.083
56116SOL    HW168372  11.206   9.186   4.163
56116SOL    HW268373  11.182   9.305   4.054
56117SOL     OW68374   9.337   9.044   3.841
56117SOL    HW168375   9.318   8.948   3.862
56117SOL    HW268376   9.304   9.102   3.916
56118SOL     OW68377  10.999   8.370   4.336
56118SOL    HW168378  11.094   8.341   4.344
56118SOL    HW268379  10.991   8.435   4.261
56119SOL     OW68380  10.951   8.556   4.156
56119SOL    HW168381  11.037   8.558   4.104
56119SOL    HW268382  10.965   8.603   4.244
56120SOL     OW68383   9.423   8.185   5.321
56120SOL    HW168384   9.511   8.172   5.366
56120SOL    HW268385   9.410   8.282   5.299
56121SOL     OW68386   9.923   8.813   4.450
56121SOL    HW168387   9.874   8.726   4.459
56121SOL    HW268388   9.900   8.856   4.363
56122SOL     OW68389  10.603   8.676   5.147
56122SOL    HW168390  10.640   8.603   5.089
56122SOL    HW268391  10.655   8.681   5.232
56123SOL     OW68392  10.119   7.452   4.226
56123SOL    HW168393  10.159   7.543   4.217
56123SOL    HW268394  10.019   7.460   4.232
56124SOL     OW68395   9.507   8.424   4.988
56124SOL    HW168396   9.596   8.379   4.974
56124SOL    HW268397   9.434   8.359   4.969
56125SOL     OW68398  10.835   8.447   3.914
56125SOL    HW168399  10.772   8.371   3.927
56125SOL    HW268400  10.883   8.465   4.000
56126SOL     OW68401  10.497   9.240   5.340
56126SOL    HW168402  10.521   9.300   5.264
56126SOL    HW268403  10.504   9.145   5.310
56127SOL     OW68404   9.627   7.699   5.525
56127SOL    HW168405   9.698   7.770   5.531
56127SOL    HW268406   9.539   7.738   5.553
56128SOL     OW68407  10.776   8.865   4.677
56128SOL    HW168408  10.717   8.871   4.757
56128SOL    HW268409  10.761   8.777   4.631
56129SOL     OW68410  10.977   9.162   4.296
56129SOL    HW168411  10.936   9.139   4.208
56129SOL    HW268412  10.959   9.088   4.361
56130SOL     OW68413   9.908   8.177   3.994
56130SOL    HW168414   9.932   8.246   3.926
56130SOL    HW268415   9.830   8.210   4.048
56131SOL     OW68416  10.591   7.793   4.668
56131SOL    HW168417  10.505   7.743   4.655
56131SOL    HW268418  10.653   7.739   4.724
56132SOL     OW68419  10.886   9.110   4.031
56132SOL    HW168420  10.975   9.156   4.034
56132SOL    HW268421  10.865   9.086   3.936
56133SOL     OW68422  10.117   8.053   5.189
56133SOL    HW168423  10.070   8.050   5.278
56133SOL    HW268424  10.066   7.998   5.123
56134SOL     OW68425  10.704   7.917   5.398
56134SOL    HW168426  10.684   7.960   5.486
56134SOL    HW268427  10.782   7.855   5.407
56135SOL     OW68428  10.283   8.338   5.296
56135SOL    HW168429  10.329   8.254   5.267
56135SOL    HW268430  10.227   8.372   5.221
56136SOL     OW68431  10.301   7.858   4.966
56136SOL    HW168432  10.224   7.892   5.020
56136SOL    HW268433  10.267   7.807   4.887
56137SOL     OW68434  10.351   8.149   4.153
56137SOL    HW168435  10.377   8.145   4.249
56137SOL    HW268436  10.266   8.098   4.139
56138SOL     OW68437   9.386   8.259   4.513
56138SOL    HW168438   9.485   8.247   4.522
56138SOL    HW268439   9.362   8.354   4.534
56139SOL     OW68440   9.440   9.269   5.295
56139SOL    HW168441   9.430   9.254   5.394
56139SOL    HW268442   9.354   9.305   5.259
56140SOL     OW68443  10.175   7.796   3.919
56140SOL    HW168444  10.234   7.859   3.870
56140SOL    HW268445  10.194   7.702   3.890
56141SOL     OW68446  11.029   8.033   5.555
56141SOL    HW168447  11.003   8.122   5.519
56141SOL    HW268448  11.027   7.965   5.482
56142SOL     OW68449  10.672   8.592   4.269
56142SOL    HW168450  10.755   8.563   4.221
56142SOL    HW268451  10.623   8.659   4.213
56143SOL     OW68452   9.860   7.644   4.609
56143SOL    HW168453   9.855   7.639   4.709
56143SOL    HW268454   9.862   7.740   4.580
56144SOL     OW68455  10.318   8.904   4.201
56144SOL    HW168456  10.272   8.976   4.149
56144SOL    HW268457  10.314   8.924   4.299
56145SOL     OW68458   9.661   9.249   4.577
56145SOL    HW168459   9.711   9.163   4.583
56145SOL    HW268460   9.726   9.326   4.574
56146SOL     OW68461  11.105   8.514   4.597
56146SOL    HW168462  11.043   8.499   4.521
56146SOL    HW268463  11.053   8.525   4.682
56147SOL     OW68464  10.537   8.998   5.230
56147SOL    HW168465  10.543   8.921   5.294
56147SOL    HW268466  10.485   8.972   5.150
56148SOL     OW68467   9.631   8.391   3.966
56148SOL    HW168468   9.713   8.430   3.924
56148SOL    HW268469   9.604   8.309   3.917
56149SOL     OW68470  10.768   8.183   4.452
56149SOL    HW168471  10.763   8.118   4.527
56149SOL    HW268472  10.848   8.242   4.465
56150SOL     OW68473   9.771   8.714   5.451
56150SOL    HW168474   9.721   8.715   5.365
56150SOL    HW268475   9.708   8.696   5.527
56151SOL     OW68476  10.421   9.224   3.961
56151SOL    HW168477  10.361   9.162   4.011
56151SOL    HW268478  10.452   9.180   3.876
56152SOL     OW68479   9.512   7.733   5.222
56152SOL    HW168480   9.432   7.793   5.209
56152SOL    HW268481   9.502   7.684   5.308
56153SOL     OW68482  10.942   8.825   3.805
56153SOL    HW168483  10.910   8.919   3.795
56153SOL    HW268484  10.866   8.762   3.793
56154SOL     OW68485   9.774   9.191   4.047
56154SOL    HW168486   9.807   9.230   4.133
56154SOL    HW268487   9.850   9.184   3.982
56155SOL     OW68488  10.710   7.555   4.150
56155SOL    HW168489  10.686   7.518   4.060
56155SOL    HW268490  10.809   7.571   4.154
56156SOL     OW68491   9.559   9.233   4.965
56156SOL    HW168492   9.616   9.168   5.015
56156SOL    HW268493   9.543   9.200   4.872
56157SOL     OW68494  10.250   9.146   4.628
56157SOL    HW168495  10.330   9.089   4.649
56157SOL    HW268496  10.201   9.106   4.551
56158SOL     OW68497   9.692   8.148   4.204
56158SOL    HW168498   9.737   8.058   4.201
56158SOL    HW268499   9.598   8.137   4.237
56159SOL     OW68500  10.857   7.670   5.453
56159SOL    HW168501  10.852   7.707   5.545
56159SOL    HW268502  10.785   7.601   5.441
56160SOL     OW68503   9.924   7.570   3.841
56160SOL    HW168504  10.022   7.548   3.848
56160SOL    HW268505   9.893   7.553   3.748
56161SOL     OW68506  10.091   7.712   5.473
56161SOL    HW168507  10.158   7.651   5.516
56161SOL    HW268508  10.018   7.731   5.538
56162SOL     OW68509  10.198   8.962   4.919
56162SOL    HW168510  10.175   8.937   4.825
56162SOL    HW268511  10.259   8.893   4.958
56163SOL     OW68512  10.661   8.038   5.157
56163SOL    HW168513  10.689   7.995   5.242
56163SOL    HW268514  10.686   8.134   5.158
56164SOL     OW68515  10.113   8.850   4.648
56164SOL    HW168516  10.203   8.864   4.606
56164SOL    HW268517  10.042   8.852   4.577
56165SOL     OW68518  10.232   7.951   4.623
56165SOL    HW168519  10.207   7.942   4.527
56165SOL    HW268520  10.280   7.869   4.654
56166SOL     OW68521   9.849   7.512   4.236
56166SOL    HW168522   9.768   7.513   4.294
56166SOL    HW268523   9.852   7.595   4.181
56167SOL     OW68524  10.744   8.636   3.765
56167SOL    HW168525  10.776   8.560   3.822
56167SOL    HW268526  10.652   8.663   3.795
56168SOL     OW68527   9.607   7.483   3.895
56168SOL    HW168528   9.656   7.567   3.874
56168SOL    HW268529   9.669   7.418   3.940
56169SOL     OW68530  10.245   7.684   4.204
56169SOL    HW168531  10.197   7.725   4.126
56169SOL    HW268532  10.344   7.682   4.185
56170SOL     OW68533  10.386   8.131   5.188
56170SOL    HW168534  10.306   8.070   5.191
56170SOL    HW268535  10.467   8.078   5.164
56171SOL     OW68536  10.537   9.018   4.517
56171SOL    HW168537  10.558   9.092   4.452
56171SOL    HW268538  10.605   9.018   4.590
56172SOL     OW68539   9.769   8.600   4.465
56172SOL    HW168540   9.698   8.573   4.530
56172SOL    HW268541   9.743   8.572   4.372
56173SOL     OW68542  10.581   9.245   4.315
56173SOL    HW168543  10.625   9.309   4.251
56173SOL    HW268544  10.531   9.297   4.385
56174SOL     OW68545  10.342   7.997   3.740
56174SOL    HW168546  10.301   8.079   3.701
56174SOL    HW268547  10.406   8.023   3.813
56175SOL     OW68548   9.388   8.004   5.110
56175SOL    HW168549   9.480   8.003   5.069
56175SOL    HW268550   9.382   8.078   5.177
56176SOL     OW68551   9.871   7.670   4.871
56176SOL    HW168552   9.909   7.586   4.908
56176SOL    HW268553   9.783   7.689   4.915
56177SOL     OW68554  10.176   7.902   4.366
56177SOL    HW168555  10.144   7.974   4.304
56177SOL    HW268556  10.200   7.821   4.313
56178SOL     OW68557  10.327   7.487   4.477
56178SOL    HW168558  10.255   7.492   4.408
56178SOL    HW268559  10.303   7.418   4.546
56179SOL     OW68560  10.739   8.621   4.591
56179SOL    HW168561  10.684   8.537   4.584
56179SOL    HW268562  10.765   8.650   4.499
56180SOL     OW68563  10.776   8.038   4.716
56180SOL    HW168564  10.746   7.943   4.723
56180SOL    HW268565  10.849   8.054   4.782
56181SOL     OW68566  11.167   8.281   4.101
56181SOL    HW168567  11.209   8.217   4.165
56181SOL    HW268568  11.129   8.230   4.023
56182SOL     OW68569   9.798   8.833   3.898
56182SOL    HW168570   9.711   8.818   3.945
56182SOL    HW268571   9.781   8.859   3.803
56183SOL     OW68572  10.974   8.728   4.381
56183SOL    HW168573  11.073   8.736   4.395
56183SOL    HW268574  10.929   8.812   4.412
56184SOL     OW68575  10.700   8.023   3.802
56184SOL    HW168576  10.646   8.002   3.883
56184SOL    HW268577  10.791   7.982   3.811
56185SOL     OW68578   9.837   7.704   4.052
56185SOL    HW168579   9.864   7.645   3.977
56185SOL    HW268580   9.837   7.799   4.021
56186SOL     OW68581  11.064   8.671   5.312
56186SOL    HW168582  11.155   8.632   5.299
56186SOL    HW268583  11.072   8.767   5.336
56187SOL     OW68584  10.374   8.795   5.064
56187SOL    HW168585  10.294   8.772   5.119
56187SOL    HW268586  10.457   8.769   5.113
56188SOL     OW68587  10.902   9.077   5.349
56188SOL    HW168588  10.929   9.111   5.259
56188SOL    HW268589  10.981   9.039   5.395
56189SOL     OW68590  10.421   8.643   4.824
56189SOL    HW168591  10.381   8.687   4.905
56189SOL    HW268592  10.380   8.680   4.741
56190SOL     OW68593  10.948   8.547   4.803
56190SOL    HW168594  10.953   8.628   4.862
56190SOL    HW268595  10.862   8.549   4.752
56191SOL     OW68596  10.225   7.537   5.126
56191SOL    HW168597  10.250   7.517   5.031
56191SOL    HW268598  10.297   7.593   5.168
56192SOL     OW68599  10.290   8.564   5.443
56192SOL    HW168600  10.191   8.570   5.453
56192SOL    HW268601  10.313   8.484   5.387
56193SOL     OW68602  10.015   8.498   4.092
56193SOL    HW168603  10.001   8.505   4.191
56193SOL    HW268604  10.099   8.447   4.074
56194SOL     OW68605   9.720   8.261   4.975
56194SOL    HW168606   9.806   8.273   5.025
56194SOL    HW268607   9.678   8.174   5.002
56195SOL     OW68608  10.584   7.834   4.986
56195SOL    HW168609  10.605   7.908   5.050
56195SOL    HW268610  10.495   7.851   4.943
56196SOL     OW68611   9.374   9.012   5.055
56196SOL    HW168612   9.328   9.094   5.021
56196SOL    HW268613   9.472   9.031   5.064
56197SOL     OW68614   9.677   8.548   4.225
56197SOL    HW168615   9.670   8.631   4.169
56197SOL    HW268616   9.681   8.468   4.165
56198SOL     OW68617   9.876   7.985   4.589
56198SOL    HW168618   9.888   8.051   4.515
56198SOL    HW268619   9.922   8.019   4.672
56199SOL     OW68620  10.562   8.796   4.112
56199SOL    HW168621  10.612   8.873   4.152
56199SOL    HW268622  10.467   8.798   4.144
56200SOL     OW68623  10.582   8.893   4.866
56200SOL    HW168624  10.629   8.906   4.953
56200SOL    HW268625  10.516   8.819   4.875
56201SOL     OW68626  10.892   8.087   4.196
56201SOL    HW168627  10.861   8.148   4.269
56201SOL    HW268628  10.942   8.139   4.127
56202SOL     OW68629   9.664   8.958   5.053
56202SOL    HW168630   9.643   8.914   4.966
56202SOL    HW268631   9.761   8.984   5.056
56203SOL     OW68632   9.712   8.199   5.322
56203SOL    HW168633   9.780   8.254   5.275
56203SOL    HW268634   9.752   8.111   5.349
56204SOL     OW68635  10.897   8.227   5.394
56204SOL    HW168636  10.805   8.265   5.389
56204SOL    HW268637  10.957   8.274   5.329
56205SOL     OW68638  10.323   7.553   5.494
56205SOL    HW168639  10.329   7.638   5.442
56205SOL    HW268640  10.355   7.477   5.437
56206SOL     OW68641   9.814   7.498   5.464
56206SOL    HW168642   9.772   7.441   5.394
56206SOL    HW268643   9.748   7.567   5.496
56207SOL     OW68644   9.883   8.318   4.753
56207SOL    HW168645   9.927   8.407   4.744
56207SOL    HW268646   9.820   8.318   4.830
56208SOL     OW68647  10.670   8.310   4.769
56208SOL    HW168648  10.595   8.310   4.703
56208SOL    HW268649  10.707   8.218   4.778
56209SOL     OW68650  10.519   7.973   3.999
56209SOL    HW168651  10.532   7.889   4.053
56209SOL    HW268652  10.490   8.047   4.059
56210SOL     OW68653   9.617   7.661   4.955
56210SOL    HW168654   9.594   7.698   5.045
56210SOL    HW268655   9.587   7.566   4.949
56211SOL     OW68656   9.347   8.758   5.006
56211SOL    HW168657   9.400   8.709   5.074
56211SOL    HW268658   9.369   8.856   5.011
56212SOL     OW68659  10.042   8.082   4.788
56212SOL    HW168660  10.101   8.056   4.712
56212SOL    HW268661  10.014   8.178   4.777
56213SOL     OW68662  11.038   8.383   5.578
56213SOL    HW168663  10.992   8.376   5.489
56213SOL    HW268664  10.976   8.427   5.644
56214SOL     OW68665   9.617   7.511   4.342
56214SOL    HW168666   9.606   7.605   4.375
56214SOL    HW268667   9.612   7.448   4.419
56215SOL     OW68668  10.932   7.815   4.098
56215SOL    HW168669  10.934   7.739   4.162
56215SOL    HW268670  10.884   7.892   4.138
56216SOL     OW68671  10.333   8.214   4.690
56216SOL    HW168672  10.348   8.235   4.786
56216SOL    HW268673  10.303   8.119   4.681
56217SOL     OW68674  10.290   9.021   5.424
56217SOL    HW168675  10.270   9.065   5.336
56217SOL    HW268676  10.329   8.930   5.408
56218SOL     OW68677  11.169   8.966   5.329
56218SOL    HW168678  11.183   8.993   5.234
56218SOL    HW268679  11.252   8.988   5.382
56219SOL     OW68680   9.660   8.346   5.528
56219SOL    HW168681   9.736   8.390   5.576
56219SOL    HW268682   9.695   8.299   5.446
56220SOL     OW68683  10.850   7.722   3.849
56220SOL    HW168684  10.789   7.647   3.872
56220SOL    HW268685  10.872   7.774   3.932
56221SOL     OW68686  10.613   8.286   3.766
56221SOL    HW168687  10.647   8.193   3.781
56221SOL    HW268688  10.631   8.313   3.671
56222SOL     OW68689  10.378   8.781   4.573
56222SOL    HW168690  10.385   8.697   4.518
56222SOL    HW268691  10.440   8.850   4.537
56223SOL     OW68692   9.629   8.258   4.673
56223SOL    HW168693   9.722   8.294   4.678
56223SOL    HW268694   9.623   8.173   4.725
56224SOL     OW68695   9.649   7.957   4.730
56224SOL    HW168696   9.597   7.874   4.713
56224SOL    HW268697   9.726   7.962   4.666
56225SOL     OW68698  10.448   7.828   5.402
56225SOL    HW168699  10.403   7.891   5.466
56225SOL    HW268700  10.541   7.859   5.385
56226SOL     OW68701  10.470   7.655   5.201
56226SOL    HW168702  10.470   7.719   5.278
56226SOL    HW268703  10.498   7.703   5.118
56227SOL     OW68704   9.318   8.774   3.924
56227SOL    HW168705   9.225   8.795   3.893
56227SOL    HW268706   9.328   8.675   3.937
56228SOL     OW68707   9.398   9.249   4.651
56228SOL    HW168708   9.356   9.163   4.624
56228SOL    HW268709   9.492   9.252   4.617
56229SOL     OW68710   9.814   9.016   4.634
56229SOL    HW168711   9.880   9.090   4.643
56229SOL    HW268712   9.858   8.937   4.592
56230SOL     OW68713  10.312   8.244   4.962
56230SOL    HW168714  10.353   8.212   5.048
56230SOL    HW268715  10.216   8.217   4.959
56231SOL     OW68716   9.350   7.992   4.838
56231SOL    HW168717   9.435   7.959   4.797
56231SOL    HW268718   9.363   8.007   4.936
56232SOL     OW68719   9.499   7.968   5.446
56232SOL    HW168720   9.558   7.928   5.376
56232SOL    HW268721   9.441   8.039   5.405
56233SOL     OW68722  10.679   8.398   5.384
56233SOL    HW168723  10.718   8.487   5.404
56233SOL    HW268724  10.689   8.378   5.287
56234SOL     OW68725  10.125   8.020   4.049
56234SOL    HW168726  10.132   7.931   4.003
56234SOL    HW268727  10.031   8.054   4.041
56235SOL     OW68728  10.967   8.052   4.930
56235SOL    HW168729  10.929   7.983   4.992
56235SOL    HW268730  11.049   8.016   4.886
56236SOL     OW68731   9.562   9.012   5.468
56236SOL    HW168732   9.532   9.069   5.544
56236SOL    HW268733   9.555   8.915   5.494
56237SOL     OW68734   9.981   7.912   4.993
56237SOL    HW168735   9.947   7.823   4.963
56237SOL    HW268736  10.007   7.966   4.913
56238SOL     OW68737  10.240   9.126   5.189
56238SOL    HW168738  10.216   9.108   5.094
56238SOL    HW268739  10.270   9.220   5.199
56239SOL     OW68740   9.783   7.948   3.915
56239SOL    HW168741   9.844   8.028   3.919
56239SOL    HW268742   9.688   7.979   3.922
56240SOL     OW68743   9.469   8.585   5.190
56240SOL    HW168744   9.491   8.524   5.266
56240SOL    HW268745   9.479   8.536   5.104
56241SOL     OW68746  10.657   8.507   4.958
56241SOL    HW168747  10.681   8.444   4.884
56241SOL    HW268748  10.567   8.547   4.940
56242SOL     OW68749  10.612   8.303   4.033
56242SOL    HW168750  10.526   8.272   4.075
56242SOL    HW268751  10.608   8.289   3.934
56243SOL     OW68752  11.069   9.195   4.878
56243SOL    HW168753  11.130   9.225   4.805
56243SOL    HW268754  11.031   9.106   4.856
56244SOL     OW68755  10.562   9.179   4.852
56244SOL    HW168756  10.646   9.184   4.798
56244SOL    HW268757  10.539   9.083   4.870
56245SOL     OW68758   9.393   8.706   4.746
56245SOL    HW168759   9.388   8.705   4.846
56245SOL    HW268760   9.310   8.665   4.708
56246SOL     OW68761   9.998   9.110   5.440
56246SOL    HW168762   9.942   9.191   5.449
56246SOL    HW268763  10.050   9.114   5.354
56247SOL     OW68764  11.036   7.583   4.247
56247SOL    HW168765  11.109   7.566   4.180
56247SOL    HW268766  11.005   7.496   4.285
56248SOL     OW68767  10.698   9.021   4.201
56248SOL    HW168768  10.765   9.033   4.127
56248SOL    HW268769  10.658   9.110   4.224
56249SOL     OW68770   9.440   9.242   5.575
56249SOL    HW168771   9.399   9.168   5.628
56249SOL    HW268772   9.504   9.293   5.633
56250SOL     OW68773  10.590   8.375   4.396
56250SOL    HW168774  10.650   8.294   4.398
56250SOL    HW268775  10.630   8.444   4.336
56251SOL     OW68776  10.140   8.721   5.146
56251SOL    HW168777  10.135   8.754   5.241
56251SOL    HW268778  10.054   8.740   5.100
56252SOL     OW68779   9.982   9.064   3.878
56252SOL    HW168780   9.991   9.074   3.779
56252SOL    HW268781   9.942   8.975   3.899
56253SOL     OW68782  10.960   9.168   5.118
56253SOL    HW168783  11.013   9.178   5.034
56253SOL    HW268784  10.933   9.258   5.152
56254SOL     OW68785  11.151   7.623   4.687
56254SOL    HW168786  11.190   7.538   4.651
56254SOL    HW268787  11.053   7.625   4.668
56255SOL     OW68788   9.573   7.774   4.444
56255SOL    HW168789   9.494   7.825   4.410
56255SOL    HW268790   9.564   7.759   4.542
56256SOL     OW68791  10.504   9.060   3.755
56256SOL    HW168792  10.510   8.967   3.792
56256SOL    HW268793  10.445   9.060   3.675
56257SOL     OW68794  10.132   8.450   5.096
56257SOL    HW168795  10.172   8.449   5.004
56257SOL    HW268796  10.142   8.542   5.136
56258SOL     OW68797  10.226   8.358   4.015
56258SOL    HW168798  10.289   8.396   3.947
56258SOL    HW268799  10.266   8.275   4.054
56259SOL     OW68800  10.814   9.055   3.768
56259SOL    HW168801  10.722   9.092   3.775
56259SOL    HW268802  10.852   9.075   3.678
56260SOL     OW68803   9.682   8.736   5.214
56260SOL    HW168804   9.669   8.829   5.180
56260SOL    HW268805   9.598   8.684   5.201
56261SOL     OW68806  10.924   8.740   5.013
56261SOL    HW168807  10.984   8.743   5.093
56261SOL    HW268808  10.849   8.804   5.026
56262SOL     OW68809  10.349   8.546   4.420
56262SOL    HW168810  10.279   8.499   4.474
56262SOL    HW268811  10.408   8.478   4.377
56263SOL     OW68812  10.324   7.684   4.695
56263SOL    HW168813  10.316   7.648   4.602
56263SOL    HW268814  10.322   7.608   4.760
56264SOL     OW68815   9.900   8.935   4.215
56264SOL    HW168816   9.942   8.877   4.145
56264SOL    HW268817   9.856   9.014   4.171
56265SOL     OW68818  11.019   7.833   5.105
56265SOL    HW168819  11.092   7.902   5.109
56265SOL    HW268820  11.047   7.758   5.046
56266SOL     OW68821   9.565   8.796   4.014
56266SOL    HW168822   9.469   8.797   3.987
56266SOL    HW268823   9.577   8.849   4.098
56267SOL     OW68824   9.415   8.461   5.450
56267SOL    HW168825   9.338   8.428   5.504
56267SOL    HW268826   9.500   8.431   5.492
56268SOL     OW68827   9.982   7.651   5.213
56268SOL    HW168828  10.072   7.635   5.173
56268SOL    HW268829   9.990   7.656   5.312
56269SOL     OW68830   9.385   7.793   3.757
56269SOL    HW168831   9.293   7.765   3.728
56269SOL    HW268832   9.416   7.870   3.701
56270SOL     OW68833  10.750   8.304   5.122
56270SOL    HW168834  10.693   8.356   5.059
56270SOL    HW268835  10.846   8.316   5.098
56271SOL     OW68836   9.382   7.614   4.042
56271SOL    HW168837   9.365   7.697   3.988
56271SOL    HW268838   9.472   7.577   4.020
56272SOL     OW68839  10.493   8.783   3.843
56272SOL    HW168840  10.394   8.772   3.845
56272SOL    HW268841  10.527   8.798   3.936
56273SOL     OW68842   9.923   8.290   5.155
56273SOL    HW168843   9.979   8.371   5.138
56273SOL    HW268844   9.982   8.210   5.158
56274SOL     OW68845  10.803   9.215   4.683
56274SOL    HW168846  10.836   9.279   4.614
56274SOL    HW268847  10.869   9.209   4.758
56275SOL     OW68848  10.026   8.013   5.432
56275SOL    HW168849  10.045   8.078   5.506
56275SOL    HW268850  10.086   7.933   5.441
56276SOL     OW68851  10.760   8.668   5.357
56276SOL    HW168852  10.751   8.658   5.456
56276SOL    HW268853  10.856   8.661   5.331
56277SOL     OW68854   9.700   9.189   5.284
56277SOL    HW168855   9.609   9.230   5.282
56277SOL    HW268856   9.693   9.095   5.316
56278SOL     OW68857  10.984   8.331   4.978
56278SOL    HW168858  10.957   8.242   4.941
56278SOL    HW268859  10.985   8.399   4.905
56279SOL     OW68860  10.535   7.773   4.173
56279SOL    HW168861  10.600   7.699   4.162
56279SOL    HW268862  10.555   7.823   4.257
56280SOL     OW68863   9.904   8.193   4.376
56280SOL    HW168864   9.954   8.278   4.357
56280SOL    HW268865   9.816   8.195   4.328
56281SOL     OW68866  11.087   7.790   5.366
56281SOL    HW168867  11.070   7.821   5.272
56281SOL    HW268868  11.003   7.753   5.404
56282SOL     OW68869  11.040   8.382   5.241
56282SOL    HW168870  11.078   8.473   5.256
56282SOL    HW268871  11.032   8.365   5.142
56283SOL     OW68872  10.169   8.822   3.740
56283SOL    HW168873  10.123   8.837   3.828
56283SOL    HW268874  10.213   8.907   3.710
56284SOL     OW68875   9.971   9.238   4.677
56284SOL    HW168876   9.925   9.326   4.664
56284SOL    HW268877  10.070   9.250   4.670
56285SOL     OW68878  10.169   8.404   4.585
56285SOL    HW168879  10.223   8.335   4.633
56285SOL    HW268880  10.137   8.473   4.651
56286SOL     OW68881  10.393   8.432   3.811
56286SOL    HW168882  10.370   8.485   3.729
56286SOL    HW268883  10.474   8.376   3.792
56287SOL     OW68884  11.171   9.017   4.575
56287SOL    HW168885  11.100   9.005   4.505
56287SOL    HW268886  11.172   8.938   4.635
56288SOL     OW68887   9.531   8.762   5.568
56288SOL    HW168888   9.466   8.689   5.547
56288SOL    HW268889   9.535   8.776   5.666
56289SOL     OW68890   9.389   8.688   4.377
56289SOL    HW168891   9.388   8.641   4.465
56289SOL    HW268892   9.471   8.660   4.326
56290SOL     OW68893   9.982   8.839   5.348
56290SOL    HW168894   9.904   8.789   5.386
56290SOL    HW268895   9.979   8.934   5.379
56291SOL     OW68896  11.134   7.640   4.951
56291SOL    HW168897  11.130   7.550   4.995
56291SOL    HW268898  11.137   7.629   4.852
56292SOL     OW68899   9.738   7.872   4.244
56292SOL    HW168900   9.768   7.800   4.182
56292SOL    HW268901   9.699   7.832   4.327
56293SOL     OW68902  11.015   8.935   4.828
56293SOL    HW168903  10.922   8.910   4.801
56293SOL    HW268904  11.041   8.885   4.910
56294SOL     OW68905   9.627   7.995   5.004
56294SOL    HW168906   9.665   7.936   5.076
56294SOL    HW268907   9.667   7.969   4.916
56295SOL     OW68908  10.122   9.034   4.411
56295SOL    HW168909  10.154   9.044   4.317
56295SOL    HW268910  10.043   8.972   4.413
56296SOL     OW68911  10.734   7.662   4.836
56296SOL    HW168912  10.786   7.597   4.891
56296SOL    HW268913  10.685   7.725   4.897
56297SOL     OW68914  10.311   7.482   4.878
56297SOL    HW168915  10.248   7.410   4.847
56297SOL    HW268916  10.404   7.446   4.878
56298SOL     OW68917  10.080   8.778   4.025
56298SOL    HW168918  10.034   8.691   4.042
56298SOL    HW268919  10.171   8.775   4.066
56299SOL     OW68920   9.928   9.015   5.008
56299SOL    HW168921   9.923   9.097   5.065
56299SOL    HW268922  10.017   9.012   4.963
56300SOL     OW68923  10.662   7.500   3.892
56300SOL    HW168924  10.697   7.459   3.808
56300SOL    HW268925  10.572   7.462   3.912
56301SOL     OW68926  10.610   7.901   4.415
56301SOL    HW168927  10.551   7.981   4.419
56301SOL    HW268928  10.625   7.866   4.508
56302SOL     OW68929  10.903   7.669   4.606
56302SOL    HW168930  10.819   7.668   4.660
56302SOL    HW268931  10.905   7.752   4.550
56303SOL     OW68932   9.349   8.525   4.024
56303SOL    HW168933   9.448   8.514   4.015
56303SOL    HW268934   9.309   8.439   4.056
56304SOL     OW68935  10.185   9.094   4.061
56304SOL    HW168936  10.108   9.059   4.007
56304SOL    HW268937  10.153   9.165   4.123
56305SOL     OW68938   9.540   8.076   5.699
56305SOL    HW168939   9.447   8.074   5.736
56305SOL    HW268940   9.541   8.037   5.607
56306SOL     OW68941   9.535   7.723   6.582
56306SOL    HW168942   9.570   7.706   6.674
56306SOL    HW268943   9.447   7.678   6.570
56307SOL     OW68944   9.329   7.816   6.233
56307SOL    HW168945   9.247   7.859   6.272
56307SOL    HW268946   9.301   7.743   6.170
56308SOL     OW68947   9.879   8.723   6.751
56308SOL    HW168948   9.786   8.716   6.714
56308SOL    HW268949   9.890   8.812   6.795
56309SOL     OW68950  10.865   8.959   6.289
56309SOL    HW168951  10.808   8.943   6.370
56309SOL    HW268952  10.806   8.969   6.209
56310SOL     OW68953  10.445   8.151   6.303
56310SOL    HW168954  10.502   8.229   6.278
56310SOL    HW268955  10.385   8.177   6.379
56311SOL     OW68956  11.065   8.055   5.817
56311SOL    HW168957  11.053   8.042   5.718
56311SOL    HW268958  11.035   7.974   5.866
56312SOL     OW68959  10.078   8.592   6.609
56312SOL    HW168960  10.000   8.609   6.669
56312SOL    HW268961  10.112   8.679   6.573
56313SOL     OW68962  10.160   8.246   7.409
56313SOL    HW168963  10.156   8.322   7.474
56313SOL    HW268964  10.182   8.282   7.318
56314SOL     OW68965   9.995   8.460   6.251
56314SOL    HW168966  10.064   8.444   6.321
56314SOL    HW268967   9.922   8.517   6.289
56315SOL     OW68968   9.996   8.609   7.389
56315SOL    HW168969  10.056   8.688   7.403
56315SOL    HW268970   9.910   8.640   7.348
56316SOL     OW68971   9.645   8.883   6.647
56316SOL    HW168972   9.567   8.852   6.594
56316SOL    HW268973   9.703   8.941   6.590
56317SOL     OW68974  10.770   8.953   6.925
56317SOL    HW168975  10.794   9.047   6.951
56317SOL    HW268976  10.754   8.899   7.007
56318SOL     OW68977   9.748   7.840   7.085
56318SOL    HW168978   9.830   7.784   7.094
56318SOL    HW268979   9.667   7.782   7.089
56319SOL     OW68980  10.913   7.895   6.323
56319SOL    HW168981  10.839   7.941   6.273
56319SOL    HW268982  10.964   7.963   6.376
56320SOL     OW68983   9.541   9.161   6.069
56320SOL    HW168984   9.575   9.238   6.123
56320SOL    HW268985   9.585   9.161   5.979
56321SOL     OW68986  10.437   8.789   7.276
56321SOL    HW168987  10.484   8.789   7.364
56321SOL    HW268988  10.389   8.702   7.265
56322SOL     OW68989   9.540   8.882   6.124
56322SOL    HW168990   9.514   8.978   6.124
56322SOL    HW268991   9.469   8.828   6.169
56323SOL     OW68992   9.550   8.539   6.472
56323SOL    HW168993   9.564   8.455   6.524
56323SOL    HW268994   9.495   8.603   6.527
56324SOL     OW68995   9.930   9.234   7.025
56324SOL    HW168996   9.838   9.217   7.060
56324SOL    HW268997   9.958   9.326   7.051
56325SOL     OW68998   9.916   8.412   5.709
56325SOL    HW168999   9.923   8.496   5.655
56325SOL    HW269000   9.962   8.425   5.797
56326SOL     OW69001  10.904   7.562   7.066
56326SOL    HW169002  10.886   7.629   6.994
56326SOL    HW269003  10.901   7.608   7.155
56327SOL     OW69004   9.432   8.091   6.149
56327SOL    HW169005   9.387   8.003   6.166
56327SOL    HW269006   9.431   8.145   6.233
56328SOL     OW69007  11.152   9.215   5.945
56328SOL    HW169008  11.206   9.186   6.025
56328SOL    HW269009  11.182   9.305   5.916
56329SOL     OW69010   9.337   9.044   5.703
56329SOL    HW169011   9.318   8.948   5.724
56329SOL    HW269012   9.304   9.102   5.778
56330SOL     OW69013  10.999   8.370   6.198
56330SOL    HW169014  11.094   8.341   6.206
56330SOL    HW269015  10.991   8.435   6.123
56331SOL     OW69016  10.951   8.556   6.018
56331SOL    HW169017  11.037   8.558   5.966
56331SOL    HW269018  10.965   8.603   6.106
56332SOL     OW69019   9.423   8.185   7.183
56332SOL    HW169020   9.511   8.172   7.228
56332SOL    HW269021   9.410   8.282   7.161
56333SOL     OW69022   9.923   8.813   6.312
56333SOL    HW169023   9.874   8.726   6.321
56333SOL    HW269024   9.900   8.856   6.225
56334SOL     OW69025  10.603   8.676   7.009
56334SOL    HW169026  10.640   8.603   6.951
56334SOL    HW269027  10.655   8.681   7.094
56335SOL     OW69028  10.119   7.452   6.088
56335SOL    HW169029  10.159   7.543   6.079
56335SOL    HW269030  10.019   7.460   6.094
56336SOL     OW69031   9.507   8.424   6.850
56336SOL    HW169032   9.596   8.379   6.836
56336SOL    HW269033   9.434   8.359   6.831
56337SOL     OW69034  10.835   8.447   5.776
56337SOL    HW169035  10.772   8.371   5.789
56337SOL    HW269036  10.883   8.465   5.862
56338SOL     OW69037  10.497   9.240   7.202
56338SOL    HW169038  10.521   9.300   7.126
56338SOL    HW269039  10.504   9.145   7.172
56339SOL     OW69040   9.627   7.699   7.387
56339SOL    HW169041   9.698   7.770   7.393
56339SOL    HW269042   9.539   7.738   7.415
56340SOL     OW69043  10.776   8.865   6.539
56340SOL    HW169044  10.717   8.871   6.619
56340SOL    HW269045  10.761   8.777   6.493
56341SOL     OW69046  10.977   9.162   6.158
56341SOL    HW169047  10.936   9.139   6.070
56341SOL    HW269048  10.959   9.088   6.223
56342SOL     OW69049   9.908   8.177   5.856
56342SOL    HW169050   9.932   8.246   5.788
56342SOL    HW269051   9.830   8.210   5.910
56343SOL     OW69052  10.591   7.793   6.530
56343SOL    HW169053  10.505   7.743   6.517
56343SOL    HW269054  10.653   7.739   6.586
56344SOL     OW69055  10.886   9.110   5.893
56344SOL    HW169056  10.975   9.156   5.896
56344SOL    HW269057  10.865   9.086   5.798
56345SOL     OW69058  10.117   8.053   7.051
56345SOL    HW169059  10.070   8.050   7.140
56345SOL    HW269060  10.066   7.998   6.985
56346SOL     OW69061  10.704   7.917   7.260
56346SOL    HW169062  10.684   7.960   7.348
56346SOL    HW269063  10.782   7.855   7.269
56347SOL     OW69064  10.283   8.338   7.158
56347SOL    HW169065  10.329   8.254   7.129
56347SOL    HW269066  10.227   8.372   7.083
56348SOL     OW69067  10.301   7.858   6.828
56348SOL    HW169068  10.224   7.892   6.882
56348SOL    HW269069  10.267   7.807   6.749
56349SOL     OW69070  10.351   8.149   6.015
56349SOL    HW169071  10.377   8.145   6.111
56349SOL    HW269072  10.266   8.098   6.001
56350SOL     OW69073   9.386   8.259   6.375
56350SOL    HW169074   9.485   8.247   6.384
56350SOL    HW269075   9.362   8.354   6.396
56351SOL     OW69076   9.440   9.269   7.157
56351SOL    HW169077   9.430   9.254   7.256
56351SOL    HW269078   9.354   9.305   7.121
56352SOL     OW69079  10.175   7.796   5.781
56352SOL    HW169080  10.234   7.859   5.732
56352SOL    HW269081  10.194   7.702   5.752
56353SOL     OW69082  11.029   8.033   7.417
56353SOL    HW169083  11.003   8.122   7.381
56353SOL    HW269084  11.027   7.965   7.344
56354SOL     OW69085  10.672   8.592   6.131
56354SOL    HW169086  10.755   8.563   6.083
56354SOL    HW269087  10.623   8.659   6.075
56355SOL     OW69088   9.860   7.644   6.471
56355SOL    HW169089   9.855   7.639   6.571
56355SOL    HW269090   9.862   7.740   6.442
56356SOL     OW69091  10.318   8.904   6.063
56356SOL    HW169092  10.272   8.976   6.011
56356SOL    HW269093  10.314   8.924   6.161
56357SOL     OW69094   9.661   9.249   6.439
56357SOL    HW169095   9.711   9.163   6.445
56357SOL    HW269096   9.726   9.326   6.436
56358SOL     OW69097  11.105   8.514   6.459
56358SOL    HW169098  11.043   8.499   6.383
56358SOL    HW269099  11.053   8.525   6.544
56359SOL     OW69100  10.537   8.998   7.092
56359SOL    HW169101  10.543   8.921   7.156
56359SOL    HW269102  10.485   8.972   7.012
56360SOL     OW69103   9.631   8.391   5.828
56360SOL    HW169104   9.713   8.430   5.786
56360SOL    HW269105   9.604   8.309   5.779
56361SOL     OW69106  10.768   8.183   6.314
56361SOL    HW169107  10.763   8.118   6.389
56361SOL    HW269108  10.848   8.242   6.327
56362SOL     OW69109   9.771   8.714   7.313
56362SOL    HW169110   9.721   8.715   7.227
56362SOL    HW269111   9.708   8.696   7.389
56363SOL     OW69112  10.421   9.224   5.823
56363SOL    HW169113  10.361   9.162   5.873
56363SOL    HW269114  10.452   9.180   5.738
56364SOL     OW69115   9.512   7.733   7.084
56364SOL    HW169116   9.432   7.793   7.071
56364SOL    HW269117   9.502   7.684   7.170
56365SOL     OW69118  10.942   8.825   5.667
56365SOL    HW169119  10.910   8.919   5.657
56365SOL    HW269120  10.866   8.762   5.655
56366SOL     OW69121   9.774   9.191   5.909
56366SOL    HW169122   9.807   9.230   5.995
56366SOL    HW269123   9.850   9.184   5.844
56367SOL     OW69124  10.710   7.555   6.012
56367SOL    HW169125  10.686   7.518   5.922
56367SOL    HW269126  10.809   7.571   6.016
56368SOL     OW69127   9.559   9.233   6.827
56368SOL    HW169128   9.616   9.168   6.877
56368SOL    HW269129   9.543   9.200   6.734
56369SOL     OW69130  10.250   9.146   6.490
56369SOL    HW169131  10.330   9.089   6.511
56369SOL    HW269132  10.201   9.106   6.413
56370SOL     OW69133   9.692   8.148   6.066
56370SOL    HW169134   9.737   8.058   6.063
56370SOL    HW269135   9.598   8.137   6.099
56371SOL     OW69136  10.857   7.670   7.315
56371SOL    HW169137  10.852   7.707   7.407
56371SOL    HW269138  10.785   7.601   7.303
56372SOL     OW69139   9.924   7.570   5.703
56372SOL    HW169140  10.022   7.548   5.710
56372SOL    HW269141   9.893   7.553   5.610
56373SOL     OW69142  10.091   7.712   7.335
56373SOL    HW169143  10.158   7.651   7.378
56373SOL    HW269144  10.018   7.731   7.400
56374SOL     OW69145  10.198   8.962   6.781
56374SOL    HW169146  10.175   8.937   6.687
56374SOL    HW269147  10.259   8.893   6.820
56375SOL     OW69148  10.661   8.038   7.019
56375SOL    HW169149  10.689   7.995   7.104
56375SOL    HW269150  10.686   8.134   7.020
56376SOL     OW69151  10.113   8.850   6.510
56376SOL    HW169152  10.203   8.864   6.468
56376SOL    HW269153  10.042   8.852   6.439
56377SOL     OW69154  10.232   7.951   6.485
56377SOL    HW169155  10.207   7.942   6.389
56377SOL    HW269156  10.280   7.869   6.516
56378SOL     OW69157   9.849   7.512   6.098
56378SOL    HW169158   9.768   7.513   6.156
56378SOL    HW269159   9.852   7.595   6.043
56379SOL     OW69160  10.744   8.636   5.627
56379SOL    HW169161  10.776   8.560   5.684
56379SOL    HW269162  10.652   8.663   5.657
56380SOL     OW69163   9.607   7.483   5.757
56380SOL    HW169164   9.656   7.567   5.736
56380SOL    HW269165   9.669   7.418   5.802
56381SOL     OW69166  10.386   8.131   7.050
56381SOL    HW169167  10.306   8.070   7.053
56381SOL    HW269168  10.467   8.078   7.026
56382SOL     OW69169  10.537   9.018   6.379
56382SOL    HW169170  10.558   9.092   6.314
56382SOL    HW269171  10.605   9.018   6.452
56383SOL     OW69172   9.769   8.600   6.327
56383SOL    HW169173   9.698   8.573   6.392
56383SOL    HW269174   9.743   8.572   6.234
56384SOL     OW69175  10.581   9.245   6.177
56384SOL    HW169176  10.625   9.309   6.113
56384SOL    HW269177  10.531   9.297   6.247
56385SOL     OW69178  10.342   7.997   5.602
56385SOL    HW169179  10.301   8.079   5.563
56385SOL    HW269180  10.406   8.023   5.675
56386SOL     OW69181   9.388   8.004   6.972
56386SOL    HW169182   9.480   8.003   6.931
56386SOL    HW269183   9.382   8.078   7.039
56387SOL     OW69184   9.871   7.670   6.733
56387SOL    HW169185   9.909   7.586   6.770
56387SOL    HW269186   9.783   7.689   6.777
56388SOL     OW69187  10.176   7.902   6.228
56388SOL    HW169188  10.144   7.974   6.166
56388SOL    HW269189  10.200   7.821   6.175
56389SOL     OW69190  10.327   7.487   6.339
56389SOL    HW169191  10.255   7.492   6.270
56389SOL    HW269192  10.303   7.418   6.408
56390SOL     OW69193  10.739   8.621   6.453
56390SOL    HW169194  10.684   8.537   6.446
56390SOL    HW269195  10.765   8.650   6.361
56391SOL     OW69196  10.776   8.038   6.578
56391SOL    HW169197  10.746   7.943   6.585
56391SOL    HW269198  10.849   8.054   6.644
56392SOL     OW69199  11.167   8.281   5.963
56392SOL    HW169200  11.209   8.217   6.027
56392SOL    HW269201  11.129   8.230   5.885
56393SOL     OW69202   9.798   8.833   5.760
56393SOL    HW169203   9.711   8.818   5.807
56393SOL    HW269204   9.781   8.859   5.665
56394SOL     OW69205  10.974   8.728   6.243
56394SOL    HW169206  11.073   8.736   6.257
56394SOL    HW269207  10.929   8.812   6.274
56395SOL     OW69208  10.700   8.023   5.664
56395SOL    HW169209  10.646   8.002   5.745
56395SOL    HW269210  10.791   7.982   5.673
56396SOL     OW69211   9.837   7.704   5.914
56396SOL    HW169212   9.864   7.645   5.839
56396SOL    HW269213   9.837   7.799   5.883
56397SOL     OW69214  11.064   8.671   7.174
56397SOL    HW169215  11.155   8.632   7.161
56397SOL    HW269216  11.072   8.767   7.198
56398SOL     OW69217  10.374   8.795   6.926
56398SOL    HW169218  10.294   8.772   6.981
56398SOL    HW269219  10.457   8.769   6.975
56399SOL     OW69220  10.902   9.077   7.211
56399SOL    HW169221  10.929   9.111   7.121
56399SOL    HW269222  10.981   9.039   7.257
56400SOL     OW69223  10.421   8.643   6.686
56400SOL    HW169224  10.381   8.687   6.767
56400SOL    HW269225  10.380   8.680   6.603
56401SOL     OW69226  10.948   8.547   6.665
56401SOL    HW169227  10.953   8.628   6.724
56401SOL    HW269228  10.862   8.549   6.614
56402SOL     OW69229  10.225   7.537   6.988
56402SOL    HW169230  10.250   7.517   6.893
56402SOL    HW269231  10.297   7.593   7.030
56403SOL     OW69232  10.290   8.564   7.305
56403SOL    HW169233  10.191   8.570   7.315
56403SOL    HW269234  10.313   8.484   7.249
56404SOL     OW69235  10.015   8.498   5.954
56404SOL    HW169236  10.001   8.505   6.053
56404SOL    HW269237  10.099   8.447   5.936
56405SOL     OW69238   9.720   8.261   6.837
56405SOL    HW169239   9.806   8.273   6.887
56405SOL    HW269240   9.678   8.174   6.864
56406SOL     OW69241  10.584   7.834   6.848
56406SOL    HW169242  10.605   7.908   6.912
56406SOL    HW269243  10.495   7.851   6.805
56407SOL     OW69244   9.374   9.012   6.917
56407SOL    HW169245   9.328   9.094   6.883
56407SOL    HW269246   9.472   9.031   6.926
56408SOL     OW69247   9.677   8.548   6.087
56408SOL    HW169248   9.670   8.631   6.031
56408SOL    HW269249   9.681   8.468   6.027
56409SOL     OW69250   9.876   7.985   6.451
56409SOL    HW169251   9.888   8.051   6.377
56409SOL    HW269252   9.922   8.019   6.534
56410SOL     OW69253  10.562   8.796   5.974
56410SOL    HW169254  10.612   8.873   6.014
56410SOL    HW269255  10.467   8.798   6.006
56411SOL     OW69256  10.582   8.893   6.728
56411SOL    HW169257  10.629   8.906   6.815
56411SOL    HW269258  10.516   8.819   6.737
56412SOL     OW69259  10.892   8.087   6.058
56412SOL    HW169260  10.861   8.148   6.131
56412SOL    HW269261  10.942   8.139   5.989
56413SOL     OW69262   9.664   8.958   6.915
56413SOL    HW169263   9.643   8.914   6.828
56413SOL    HW269264   9.761   8.984   6.918
56414SOL     OW69265   9.712   8.199   7.184
56414SOL    HW169266   9.780   8.254   7.137
56414SOL    HW269267   9.752   8.111   7.211
56415SOL     OW69268  10.897   8.227   7.256
56415SOL    HW169269  10.805   8.265   7.251
56415SOL    HW269270  10.957   8.274   7.191
56416SOL     OW69271  10.323   7.553   7.356
56416SOL    HW169272  10.329   7.638   7.304
56416SOL    HW269273  10.355   7.477   7.299
56417SOL     OW69274   9.814   7.498   7.326
56417SOL    HW169275   9.772   7.441   7.256
56417SOL    HW269276   9.748   7.567   7.358
56418SOL     OW69277   9.883   8.318   6.615
56418SOL    HW169278   9.927   8.407   6.606
56418SOL    HW269279   9.820   8.318   6.692
56419SOL     OW69280  10.519   7.973   5.861
56419SOL    HW169281  10.532   7.889   5.915
56419SOL    HW269282  10.490   8.047   5.921
56420SOL     OW69283   9.617   7.661   6.817
56420SOL    HW169284   9.594   7.698   6.907
56420SOL    HW269285   9.587   7.566   6.811
56421SOL     OW69286   9.347   8.758   6.868
56421SOL    HW169287   9.400   8.709   6.936
56421SOL    HW269288   9.369   8.856   6.873
56422SOL     OW69289  10.042   8.082   6.650
56422SOL    HW169290  10.101   8.056   6.574
56422SOL    HW269291  10.014   8.178   6.639
56423SOL     OW69292  11.038   8.383   7.440
56423SOL    HW169293  10.992   8.376   7.351
56423SOL    HW269294  10.976   8.427   7.506
56424SOL     OW69295   9.617   7.511   6.204
56424SOL    HW169296   9.606   7.605   6.237
56424SOL    HW269297   9.612   7.448   6.281
56425SOL     OW69298  10.932   7.815   5.960
56425SOL    HW169299  10.934   7.739   6.024
56425SOL    HW269300  10.884   7.892   6.000
56426SOL     OW69301  10.333   8.214   6.552
56426SOL    HW169302  10.348   8.235   6.648
56426SOL    HW269303  10.303   8.119   6.543
56427SOL     OW69304  10.290   9.021   7.286
56427SOL    HW169305  10.270   9.065   7.198
56427SOL    HW269306  10.329   8.930   7.270
56428SOL     OW69307  11.169   8.966   7.191
56428SOL    HW169308  11.183   8.993   7.096
56428SOL    HW269309  11.252   8.988   7.244
56429SOL     OW69310   9.660   8.346   7.390
56429SOL    HW169311   9.736   8.390   7.438
56429SOL    HW269312   9.695   8.299   7.308
56430SOL     OW69313  10.850   7.722   5.711
56430SOL    HW169314  10.789   7.647   5.734
56430SOL    HW269315  10.872   7.774   5.794
56431SOL     OW69316  10.613   8.286   5.628
56431SOL    HW169317  10.647   8.193   5.643
56431SOL    HW269318  10.631   8.313   5.533
56432SOL     OW69319  10.378   8.781   6.435
56432SOL    HW169320  10.385   8.697   6.380
56432SOL    HW269321  10.440   8.850   6.399
56433SOL     OW69322   9.629   8.258   6.535
56433SOL    HW169323   9.722   8.294   6.540
56433SOL    HW269324   9.623   8.173   6.587
56434SOL     OW69325   9.649   7.957   6.592
56434SOL    HW169326   9.597   7.874   6.575
56434SOL    HW269327   9.726   7.962   6.528
56435SOL     OW69328  10.448   7.828   7.264
56435SOL    HW169329  10.403   7.891   7.328
56435SOL    HW269330  10.541   7.859   7.247
56436SOL     OW69331  10.470   7.655   7.063
56436SOL    HW169332  10.470   7.719   7.140
56436SOL    HW269333  10.498   7.703   6.980
56437SOL     OW69334   9.318   8.774   5.786
56437SOL    HW169335   9.225   8.795   5.755
56437SOL    HW269336   9.328   8.675   5.799
56438SOL     OW69337   9.398   9.249   6.513
56438SOL    HW169338   9.356   9.163   6.486
56438SOL    HW269339   9.492   9.252   6.479
56439SOL     OW69340   9.814   9.016   6.496
56439SOL    HW169341   9.880   9.090   6.505
56439SOL    HW269342   9.858   8.937   6.454
56440SOL     OW69343  10.312   8.244   6.824
56440SOL    HW169344  10.353   8.212   6.910
56440SOL    HW269345  10.216   8.217   6.821
56441SOL     OW69346   9.350   7.992   6.700
56441SOL    HW169347   9.435   7.959   6.659
56441SOL    HW269348   9.363   8.007   6.798
56442SOL     OW69349   9.499   7.968   7.308
56442SOL    HW169350   9.558   7.928   7.238
56442SOL    HW269351   9.441   8.039   7.267
56443SOL     OW69352  10.679   8.398   7.246
56443SOL    HW169353  10.718   8.487   7.266
56443SOL    HW269354  10.689   8.378   7.149
56444SOL     OW69355  10.125   8.020   5.911
56444SOL    HW169356  10.132   7.931   5.865
56444SOL    HW269357  10.031   8.054   5.903
56445SOL     OW69358  10.967   8.052   6.792
56445SOL    HW169359  10.929   7.983   6.854
56445SOL    HW269360  11.049   8.016   6.748
56446SOL     OW69361   9.562   9.012   7.330
56446SOL    HW169362   9.532   9.069   7.406
56446SOL    HW269363   9.555   8.915   7.356
56447SOL     OW69364   9.981   7.912   6.855
56447SOL    HW169365   9.947   7.823   6.825
56447SOL    HW269366  10.007   7.966   6.775
56448SOL     OW69367  10.240   9.126   7.051
56448SOL    HW169368  10.216   9.108   6.956
56448SOL    HW269369  10.270   9.220   7.061
56449SOL     OW69370   9.783   7.948   5.777
56449SOL    HW169371   9.844   8.028   5.781
56449SOL    HW269372   9.688   7.979   5.784
56450SOL     OW69373   9.469   8.585   7.052
56450SOL    HW169374   9.491   8.524   7.128
56450SOL    HW269375   9.479   8.536   6.966
56451SOL     OW69376  10.657   8.507   6.820
56451SOL    HW169377  10.681   8.444   6.746
56451SOL    HW269378  10.567   8.547   6.802
56452SOL     OW69379  10.612   8.303   5.895
56452SOL    HW169380  10.526   8.272   5.937
56452SOL    HW269381  10.608   8.289   5.796
56453SOL     OW69382  11.069   9.195   6.740
56453SOL    HW169383  11.130   9.225   6.667
56453SOL    HW269384  11.031   9.106   6.718
56454SOL     OW69385  10.562   9.179   6.714
56454SOL    HW169386  10.646   9.184   6.660
56454SOL    HW269387  10.539   9.083   6.732
56455SOL     OW69388   9.393   8.706   6.608
56455SOL    HW169389   9.388   8.705   6.708
56455SOL    HW269390   9.310   8.665   6.570
56456SOL     OW69391   9.998   9.110   7.302
56456SOL    HW169392   9.942   9.191   7.311
56456SOL    HW269393  10.050   9.114   7.216
56457SOL     OW69394  11.036   7.583   6.109
56457SOL    HW169395  11.109   7.566   6.042
56457SOL    HW269396  11.005   7.496   6.147
56458SOL     OW69397  10.698   9.021   6.063
56458SOL    HW169398  10.765   9.033   5.989
56458SOL    HW269399  10.658   9.110   6.086
56459SOL     OW69400   9.440   9.242   7.437
56459SOL    HW169401   9.399   9.168   7.490
56459SOL    HW269402   9.504   9.293   7.495
56460SOL     OW69403  10.590   8.375   6.258
56460SOL    HW169404  10.650   8.294   6.260
56460SOL    HW269405  10.630   8.444   6.198
56461SOL     OW69406  10.140   8.721   7.008
56461SOL    HW169407  10.135   8.754   7.103
56461SOL    HW269408  10.054   8.740   6.962
56462SOL     OW69409   9.982   9.064   5.740
56462SOL    HW169410   9.991   9.074   5.641
56462SOL    HW269411   9.942   8.975   5.761
56463SOL     OW69412  10.960   9.168   6.980
56463SOL    HW169413  11.013   9.178   6.896
56463SOL    HW269414  10.933   9.258   7.014
56464SOL     OW69415  11.151   7.623   6.549
56464SOL    HW169416  11.190   7.538   6.513
56464SOL    HW269417  11.053   7.625   6.530
56465SOL     OW69418   9.573   7.774   6.306
56465SOL    HW169419   9.494   7.825   6.272
56465SOL    HW269420   9.564   7.759   6.404
56466SOL     OW69421  10.504   9.060   5.617
56466SOL    HW169422  10.510   8.967   5.654
56466SOL    HW269423  10.445   9.060   5.537
56467SOL     OW69424  10.132   8.450   6.958
56467SOL    HW169425  10.172   8.449   6.866
56467SOL    HW269426  10.142   8.542   6.998
56468SOL     OW69427  10.226   8.358   5.877
56468SOL    HW169428  10.289   8.396   5.809
56468SOL    HW269429  10.266   8.275   5.916
56469SOL     OW69430  10.814   9.055   5.630
56469SOL    HW169431  10.722   9.092   5.637
56469SOL    HW269432  10.852   9.075   5.540
56470SOL     OW69433   9.682   8.736   7.076
56470SOL    HW169434   9.669   8.829   7.042
56470SOL    HW269435   9.598   8.684   7.063
56471SOL     OW69436  10.924   8.740   6.875
56471SOL    HW169437  10.984   8.743   6.955
56471SOL    HW269438  10.849   8.804   6.888
56472SOL     OW69439  10.349   8.546   6.282
56472SOL    HW169440  10.279   8.499   6.336
56472SOL    HW269441  10.408   8.478   6.239
56473SOL     OW69442  10.324   7.684   6.557
56473SOL    HW169443  10.316   7.648   6.464
56473SOL    HW269444  10.322   7.608   6.622
56474SOL     OW69445   9.900   8.935   6.077
56474SOL    HW169446   9.942   8.877   6.007
56474SOL    HW269447   9.856   9.014   6.033
56475SOL     OW69448  11.019   7.833   6.967
56475SOL    HW169449  11.092   7.902   6.971
56475SOL    HW269450  11.047   7.758   6.908
56476SOL     OW69451   9.565   8.796   5.876
56476SOL    HW169452   9.469   8.797   5.849
56476SOL    HW269453   9.577   8.849   5.960
56477SOL     OW69454   9.415   8.461   7.312
56477SOL    HW169455   9.338   8.428   7.366
56477SOL    HW269456   9.500   8.431   7.354
56478SOL     OW69457   9.982   7.651   7.075
56478SOL    HW169458  10.072   7.635   7.035
56478SOL    HW269459   9.990   7.656   7.174
56479SOL     OW69460   9.385   7.793   5.619
56479SOL    HW169461   9.293   7.765   5.590
56479SOL    HW269462   9.416   7.870   5.563
56480SOL     OW69463  10.750   8.304   6.984
56480SOL    HW169464  10.693   8.356   6.921
56480SOL    HW269465  10.846   8.316   6.960
56481SOL     OW69466   9.382   7.614   5.904
56481SOL    HW169467   9.365   7.697   5.850
56481SOL    HW269468   9.472   7.577   5.882
56482SOL     OW69469  10.493   8.783   5.705
56482SOL    HW169470  10.394   8.772   5.707
56482SOL    HW269471  10.527   8.798   5.798
56483SOL     OW69472   9.923   8.290   7.017
56483SOL    HW169473   9.979   8.371   7.000
56483SOL    HW269474   9.982   8.210   7.020
56484SOL     OW69475  10.803   9.215   6.545
56484SOL    HW169476  10.836   9.279   6.476
56484SOL    HW269477  10.869   9.209   6.620
56485SOL     OW69478  10.026   8.013   7.294
56485SOL    HW169479  10.045   8.078   7.368
56485SOL    HW269480  10.086   7.933   7.303
56486SOL     OW69481  10.760   8.668   7.219
56486SOL    HW169482  10.751   8.658   7.318
56486SOL    HW269483  10.856   8.661   7.193
56487SOL     OW69484   9.700   9.189   7.146
56487SOL    HW169485   9.609   9.230   7.144
56487SOL    HW269486   9.693   9.095   7.178
56488SOL     OW69487  10.984   8.331   6.840
56488SOL    HW169488  10.957   8.242   6.803
56488SOL    HW269489  10.985   8.399   6.767
56489SOL     OW69490  10.535   7.773   6.035
56489SOL    HW169491  10.600   7.699   6.024
56489SOL    HW269492  10.555   7.823   6.119
56490SOL     OW69493   9.904   8.193   6.238
56490SOL    HW169494   9.954   8.278   6.219
56490SOL    HW269495   9.816   8.195   6.190
56491SOL     OW69496  11.087   7.790   7.228
56491SOL    HW169497  11.070   7.821   7.134
56491SOL    HW269498  11.003   7.753   7.266
56492SOL     OW69499  11.040   8.382   7.103
56492SOL    HW169500  11.078   8.473   7.118
56492SOL    HW269501  11.032   8.365   7.004
56493SOL     OW69502  10.169   8.822   5.602
56493SOL    HW169503  10.123   8.837   5.690
56493SOL    HW269504  10.213   8.907   5.572
56494SOL     OW69505   9.971   9.238   6.539
56494SOL    HW169506   9.925   9.326   6.526
56494SOL    HW269507  10.070   9.250   6.532
56495SOL     OW69508  10.169   8.404   6.447
56495SOL    HW169509  10.223   8.335   6.495
56495SOL    HW269510  10.137   8.473   6.513
56496SOL     OW69511  10.393   8.432   5.673
56496SOL    HW169512  10.370   8.485   5.591
56496SOL    HW269513  10.474   8.376   5.654
56497SOL     OW69514  11.171   9.017   6.437
56497SOL    HW169515  11.100   9.005   6.367
56497SOL    HW269516  11.172   8.938   6.497
56498SOL     OW69517   9.531   8.762   7.430
56498SOL    HW169518   9.466   8.689   7.409
56498SOL    HW269519   9.535   8.776   7.528
56499SOL     OW69520   9.389   8.688   6.239
56499SOL    HW169521   9.388   8.641   6.327
56499SOL    HW269522   9.471   8.660   6.188
56500SOL     OW69523   9.982   8.839   7.210
56500SOL    HW169524   9.904   8.789   7.248
56500SOL    HW269525   9.979   8.934   7.241
56501SOL     OW69526  11.134   7.640   6.813
56501SOL    HW169527  11.130   7.550   6.857
56501SOL    HW269528  11.137   7.629   6.714
56502SOL     OW69529   9.738   7.872   6.106
56502SOL    HW169530   9.768   7.800   6.044
56502SOL    HW269531   9.699   7.832   6.189
56503SOL     OW69532  11.015   8.935   6.690
56503SOL    HW169533  10.922   8.910   6.663
56503SOL    HW269534  11.041   8.885   6.772
56504SOL     OW69535   9.627   7.995   6.866
56504SOL    HW169536   9.665   7.936   6.938
56504SOL    HW269537   9.667   7.969   6.778
56505SOL     OW69538  10.122   9.034   6.273
56505SOL    HW169539  10.154   9.044   6.179
56505SOL    HW269540  10.043   8.972   6.275
56506SOL     OW69541  10.734   7.662   6.698
56506SOL    HW169542  10.786   7.597   6.753
56506SOL    HW269543  10.685   7.725   6.759
56507SOL     OW69544  10.311   7.482   6.740
56507SOL    HW169545  10.248   7.410   6.709
56507SOL    HW269546  10.404   7.446   6.740
56508SOL     OW69547  10.080   8.778   5.887
56508SOL    HW169548  10.034   8.691   5.904
56508SOL    HW269549  10.171   8.775   5.928
56509SOL     OW69550   9.928   9.015   6.870
56509SOL    HW169551   9.923   9.097   6.927
56509SOL    HW269552  10.017   9.012   6.825
56510SOL     OW69553  10.662   7.500   5.754
56510SOL    HW169554  10.697   7.459   5.670
56510SOL    HW269555  10.572   7.462   5.774
56511SOL     OW69556  10.610   7.901   6.277
56511SOL    HW169557  10.551   7.981   6.281
56511SOL    HW269558  10.625   7.866   6.370
56512SOL     OW69559  10.903   7.669   6.468
56512SOL    HW169560  10.819   7.668   6.522
56512SOL    HW269561  10.905   7.752   6.412
56513SOL     OW69562   9.349   8.525   5.886
56513SOL    HW169563   9.448   8.514   5.877
56513SOL    HW269564   9.309   8.439   5.918
56514SOL     OW69565  10.185   9.094   5.923
56514SOL    HW169566  10.108   9.059   5.869
56514SOL    HW269567  10.153   9.165   5.985
56515SOL     OW69568   9.540   8.076   7.561
56515SOL    HW169569   9.447   8.074   7.598
56515SOL    HW269570   9.541   8.037   7.469
56516SOL     OW69571   9.535   7.723   8.444
56516SOL    HW169572   9.570   7.706   8.536
56516SOL    HW269573   9.447   7.678   8.432
56517SOL     OW69574   9.329   7.816   8.095
56517SOL    HW169575   9.247   7.859   8.134
56517SOL    HW269576   9.301   7.743   8.032
56518SOL     OW69577   9.879   8.723   8.613
56518SOL    HW169578   9.786   8.716   8.576
56518SOL    HW269579   9.890   8.812   8.657
56519SOL     OW69580  10.865   8.959   8.151
56519SOL    HW169581  10.808   8.943   8.232
56519SOL    HW269582  10.806   8.969   8.071
56520SOL     OW69583  10.445   8.151   8.165
56520SOL    HW169584  10.502   8.229   8.140
56520SOL    HW269585  10.385   8.177   8.241
56521SOL     OW69586  11.065   8.055   7.679
56521SOL    HW169587  11.053   8.042   7.580
56521SOL    HW269588  11.035   7.974   7.728
56522SOL     OW69589  10.078   8.592   8.471
56522SOL    HW169590  10.000   8.609   8.531
56522SOL    HW269591  10.112   8.679   8.435
56523SOL     OW69592  10.160   8.246   9.271
56523SOL    HW169593  10.156   8.322   9.336
56523SOL    HW269594  10.182   8.282   9.180
56524SOL     OW69595   9.995   8.460   8.113
56524SOL    HW169596  10.064   8.444   8.183
56524SOL    HW269597   9.922   8.517   8.151
56525SOL     OW69598   9.996   8.609   9.251
56525SOL    HW169599  10.056   8.688   9.265
56525SOL    HW269600   9.910   8.640   9.210
56526SOL     OW69601   9.645   8.883   8.509
56526SOL    HW169602   9.567   8.852   8.456
56526SOL    HW269603   9.703   8.941   8.452
56527SOL     OW69604  10.770   8.953   8.787
56527SOL    HW169605  10.794   9.047   8.813
56527SOL    HW269606  10.754   8.899   8.869
56528SOL     OW69607   9.748   7.840   8.947
56528SOL    HW169608   9.830   7.784   8.956
56528SOL    HW269609   9.667   7.782   8.951
56529SOL     OW69610  10.913   7.895   8.185
56529SOL    HW169611  10.839   7.941   8.135
56529SOL    HW269612  10.964   7.963   8.238
56530SOL     OW69613   9.541   9.161   7.931
56530SOL    HW169614   9.575   9.238   7.985
56530SOL    HW269615   9.585   9.161   7.841
56531SOL     OW69616  10.437   8.789   9.138
56531SOL    HW169617  10.484   8.789   9.226
56531SOL    HW269618  10.389   8.702   9.127
56532SOL     OW69619   9.540   8.882   7.986
56532SOL    HW169620   9.514   8.978   7.986
56532SOL    HW269621   9.469   8.828   8.031
56533SOL     OW69622   9.550   8.539   8.334
56533SOL    HW169623   9.564   8.455   8.386
56533SOL    HW269624   9.495   8.603   8.389
56534SOL     OW69625   9.930   9.234   8.887
56534SOL    HW169626   9.838   9.217   8.922
56534SOL    HW269627   9.958   9.326   8.913
56535SOL     OW69628   9.916   8.412   7.571
56535SOL    HW169629   9.923   8.496   7.517
56535SOL    HW269630   9.962   8.425   7.659
56536SOL     OW69631  10.904   7.562   8.928
56536SOL    HW169632  10.886   7.629   8.856
56536SOL    HW269633  10.901   7.608   9.017
56537SOL     OW69634   9.432   8.091   8.011
56537SOL    HW169635   9.387   8.003   8.028
56537SOL    HW269636   9.431   8.145   8.095
56538SOL     OW69637  11.152   9.215   7.807
56538SOL    HW169638  11.206   9.186   7.887
56538SOL    HW269639  11.182   9.305   7.778
56539SOL     OW69640   9.337   9.044   7.565
56539SOL    HW169641   9.318   8.948   7.586
56539SOL    HW269642   9.304   9.102   7.640
56540SOL     OW69643  10.999   8.370   8.060
56540SOL    HW169644  11.094   8.341   8.068
56540SOL    HW269645  10.991   8.435   7.985
56541SOL     OW69646  10.951   8.556   7.880
56541SOL    HW169647  11.037   8.558   7.828
56541SOL    HW269648  10.965   8.603   7.968
56542SOL     OW69649   9.423   8.185   9.045
56542SOL    HW169650   9.511   8.172   9.090
56542SOL    HW269651   9.410   8.282   9.023
56543SOL     OW69652   9.923   8.813   8.174
56543SOL    HW169653   9.874   8.726   8.183
56543SOL    HW269654   9.900   8.856   8.087
56544SOL     OW69655  10.603   8.676   8.871
56544SOL    HW169656  10.640   8.603   8.813
56544SOL    HW269657  10.655   8.681   8.956
56545SOL     OW69658  10.119   7.452   7.950
56545SOL    HW169659  10.159   7.543   7.941
56545SOL    HW269660  10.019   7.460   7.956
56546SOL     OW69661   9.507   8.424   8.712
56546SOL    HW169662   9.596   8.379   8.698
56546SOL    HW269663   9.434   8.359   8.693
56547SOL     OW69664  10.835   8.447   7.638
56547SOL    HW169665  10.772   8.371   7.651
56547SOL    HW269666  10.883   8.465   7.724
56548SOL     OW69667  10.497   9.240   9.064
56548SOL    HW169668  10.521   9.300   8.988
56548SOL    HW269669  10.504   9.145   9.034
56549SOL     OW69670   9.627   7.699   9.249
56549SOL    HW169671   9.698   7.770   9.255
56549SOL    HW269672   9.539   7.738   9.277
56550SOL     OW69673  10.776   8.865   8.401
56550SOL    HW169674  10.717   8.871   8.481
56550SOL    HW269675  10.761   8.777   8.355
56551SOL     OW69676  10.977   9.162   8.020
56551SOL    HW169677  10.936   9.139   7.932
56551SOL    HW269678  10.959   9.088   8.085
56552SOL     OW69679   9.908   8.177   7.718
56552SOL    HW169680   9.932   8.246   7.650
56552SOL    HW269681   9.830   8.210   7.772
56553SOL     OW69682  10.591   7.793   8.392
56553SOL    HW169683  10.505   7.743   8.379
56553SOL    HW269684  10.653   7.739   8.448
56554SOL     OW69685  10.886   9.110   7.755
56554SOL    HW169686  10.975   9.156   7.758
56554SOL    HW269687  10.865   9.086   7.660
56555SOL     OW69688  10.117   8.053   8.913
56555SOL    HW169689  10.070   8.050   9.002
56555SOL    HW269690  10.066   7.998   8.847
56556SOL     OW69691  10.704   7.917   9.122
56556SOL    HW169692  10.684   7.960   9.210
56556SOL    HW269693  10.782   7.855   9.131
56557SOL     OW69694  10.283   8.338   9.020
56557SOL    HW169695  10.329   8.254   8.991
56557SOL    HW269696  10.227   8.372   8.945
56558SOL     OW69697  10.301   7.858   8.690
56558SOL    HW169698  10.224   7.892   8.744
56558SOL    HW269699  10.267   7.807   8.611
56559SOL     OW69700  10.351   8.149   7.877
56559SOL    HW169701  10.377   8.145   7.973
56559SOL    HW269702  10.266   8.098   7.863
56560SOL     OW69703   9.386   8.259   8.237
56560SOL    HW169704   9.485   8.247   8.246
56560SOL    HW269705   9.362   8.354   8.258
56561SOL     OW69706   9.440   9.269   9.019
56561SOL    HW169707   9.430   9.254   9.118
56561SOL    HW269708   9.354   9.305   8.983
56562SOL     OW69709  10.175   7.796   7.643
56562SOL    HW169710  10.234   7.859   7.594
56562SOL    HW269711  10.194   7.702   7.614
56563SOL     OW69712  11.029   8.033   9.279
56563SOL    HW169713  11.003   8.122   9.243
56563SOL    HW269714  11.027   7.965   9.206
56564SOL     OW69715  10.672   8.592   7.993
56564SOL    HW169716  10.755   8.563   7.945
56564SOL    HW269717  10.623   8.659   7.937
56565SOL     OW69718   9.860   7.644   8.333
56565SOL    HW169719   9.855   7.639   8.433
56565SOL    HW269720   9.862   7.740   8.304
56566SOL     OW69721  10.318   8.904   7.925
56566SOL    HW169722  10.272   8.976   7.873
56566SOL    HW269723  10.314   8.924   8.023
56567SOL     OW69724   9.661   9.249   8.301
56567SOL    HW169725   9.711   9.163   8.307
56567SOL    HW269726   9.726   9.326   8.298
56568SOL     OW69727  11.105   8.514   8.321
56568SOL    HW169728  11.043   8.499   8.245
56568SOL    HW269729  11.053   8.525   8.406
56569SOL     OW69730  10.537   8.998   8.954
56569SOL    HW169731  10.543   8.921   9.018
56569SOL    HW269732  10.485   8.972   8.874
56570SOL     OW69733   9.631   8.391   7.690
56570SOL    HW169734   9.713   8.430   7.648
56570SOL    HW269735   9.604   8.309   7.641
56571SOL     OW69736  10.768   8.183   8.176
56571SOL    HW169737  10.763   8.118   8.251
56571SOL    HW269738  10.848   8.242   8.189
56572SOL     OW69739   9.771   8.714   9.175
56572SOL    HW169740   9.721   8.715   9.089
56572SOL    HW269741   9.708   8.696   9.251
56573SOL     OW69742  10.421   9.224   7.685
56573SOL    HW169743  10.361   9.162   7.735
56573SOL    HW269744  10.452   9.180   7.600
56574SOL     OW69745   9.512   7.733   8.946
56574SOL    HW169746   9.432   7.793   8.933
56574SOL    HW269747   9.502   7.684   9.032
56575SOL     OW69748  10.942   8.825   7.529
56575SOL    HW169749  10.910   8.919   7.519
56575SOL    HW269750  10.866   8.762   7.517
56576SOL     OW69751   9.774   9.191   7.771
56576SOL    HW169752   9.807   9.230   7.857
56576SOL    HW269753   9.850   9.184   7.706
56577SOL     OW69754  10.710   7.555   7.874
56577SOL    HW169755  10.686   7.518   7.784
56577SOL    HW269756  10.809   7.571   7.878
56578SOL     OW69757   9.559   9.233   8.689
56578SOL    HW169758   9.616   9.168   8.739
56578SOL    HW269759   9.543   9.200   8.596
56579SOL     OW69760  10.250   9.146   8.352
56579SOL    HW169761  10.330   9.089   8.373
56579SOL    HW269762  10.201   9.106   8.275
56580SOL     OW69763   9.692   8.148   7.928
56580SOL    HW169764   9.737   8.058   7.925
56580SOL    HW269765   9.598   8.137   7.961
56581SOL     OW69766  10.857   7.670   9.177
56581SOL    HW169767  10.852   7.707   9.269
56581SOL    HW269768  10.785   7.601   9.165
56582SOL     OW69769   9.924   7.570   7.565
56582SOL    HW169770  10.022   7.548   7.572
56582SOL    HW269771   9.893   7.553   7.472
56583SOL     OW69772  10.091   7.712   9.197
56583SOL    HW169773  10.158   7.651   9.240
56583SOL    HW269774  10.018   7.731   9.262
56584SOL     OW69775  10.198   8.962   8.643
56584SOL    HW169776  10.175   8.937   8.549
56584SOL    HW269777  10.259   8.893   8.682
56585SOL     OW69778  10.661   8.038   8.881
56585SOL    HW169779  10.689   7.995   8.966
56585SOL    HW269780  10.686   8.134   8.882
56586SOL     OW69781  10.113   8.850   8.372
56586SOL    HW169782  10.203   8.864   8.330
56586SOL    HW269783  10.042   8.852   8.301
56587SOL     OW69784  10.232   7.951   8.347
56587SOL    HW169785  10.207   7.942   8.251
56587SOL    HW269786  10.280   7.869   8.378
56588SOL     OW69787   9.849   7.512   7.960
56588SOL    HW169788   9.768   7.513   8.018
56588SOL    HW269789   9.852   7.595   7.905
56589SOL     OW69790  10.744   8.636   7.489
56589SOL    HW169791  10.776   8.560   7.546
56589SOL    HW269792  10.652   8.663   7.519
56590SOL     OW69793   9.607   7.483   7.619
56590SOL    HW169794   9.656   7.567   7.598
56590SOL    HW269795   9.669   7.418   7.664
56591SOL     OW69796  10.245   7.684   7.928
56591SOL    HW169797  10.197   7.725   7.850
56591SOL    HW269798  10.344   7.682   7.909
56592SOL     OW69799  10.386   8.131   8.912
56592SOL    HW169800  10.306   8.070   8.915
56592SOL    HW269801  10.467   8.078   8.888
56593SOL     OW69802  10.537   9.018   8.241
56593SOL    HW169803  10.558   9.092   8.176
56593SOL    HW269804  10.605   9.018   8.314
56594SOL     OW69805   9.769   8.600   8.189
56594SOL    HW169806   9.698   8.573   8.254
56594SOL    HW269807   9.743   8.572   8.096
56595SOL     OW69808  10.581   9.245   8.039
56595SOL    HW169809  10.625   9.309   7.975
56595SOL    HW269810  10.531   9.297   8.109
56596SOL     OW69811  10.342   7.997   7.464
56596SOL    HW169812  10.301   8.079   7.425
56596SOL    HW269813  10.406   8.023   7.537
56597SOL     OW69814   9.388   8.004   8.834
56597SOL    HW169815   9.480   8.003   8.793
56597SOL    HW269816   9.382   8.078   8.901
56598SOL     OW69817   9.871   7.670   8.595
56598SOL    HW169818   9.909   7.586   8.632
56598SOL    HW269819   9.783   7.689   8.639
56599SOL     OW69820  10.176   7.902   8.090
56599SOL    HW169821  10.144   7.974   8.028
56599SOL    HW269822  10.200   7.821   8.037
56600SOL     OW69823  10.327   7.487   8.201
56600SOL    HW169824  10.255   7.492   8.132
56600SOL    HW269825  10.303   7.418   8.270
56601SOL     OW69826  10.739   8.621   8.315
56601SOL    HW169827  10.684   8.537   8.308
56601SOL    HW269828  10.765   8.650   8.223
56602SOL     OW69829  10.776   8.038   8.440
56602SOL    HW169830  10.746   7.943   8.447
56602SOL    HW269831  10.849   8.054   8.506
56603SOL     OW69832  11.167   8.281   7.825
56603SOL    HW169833  11.209   8.217   7.889
56603SOL    HW269834  11.129   8.230   7.747
56604SOL     OW69835   9.798   8.833   7.622
56604SOL    HW169836   9.711   8.818   7.669
56604SOL    HW269837   9.781   8.859   7.527
56605SOL     OW69838  10.974   8.728   8.105
56605SOL    HW169839  11.073   8.736   8.119
56605SOL    HW269840  10.929   8.812   8.136
56606SOL     OW69841  10.700   8.023   7.526
56606SOL    HW169842  10.646   8.002   7.607
56606SOL    HW269843  10.791   7.982   7.535
56607SOL     OW69844   9.837   7.704   7.776
56607SOL    HW169845   9.864   7.645   7.701
56607SOL    HW269846   9.837   7.799   7.745
56608SOL     OW69847  11.064   8.671   9.036
56608SOL    HW169848  11.155   8.632   9.023
56608SOL    HW269849  11.072   8.767   9.060
56609SOL     OW69850  10.374   8.795   8.788
56609SOL    HW169851  10.294   8.772   8.843
56609SOL    HW269852  10.457   8.769   8.837
56610SOL     OW69853  10.902   9.077   9.073
56610SOL    HW169854  10.929   9.111   8.983
56610SOL    HW269855  10.981   9.039   9.119
56611SOL     OW69856  10.421   8.643   8.548
56611SOL    HW169857  10.381   8.687   8.629
56611SOL    HW269858  10.380   8.680   8.465
56612SOL     OW69859  10.948   8.547   8.527
56612SOL    HW169860  10.953   8.628   8.586
56612SOL    HW269861  10.862   8.549   8.476
56613SOL     OW69862  10.225   7.537   8.850
56613SOL    HW169863  10.250   7.517   8.755
56613SOL    HW269864  10.297   7.593   8.892
56614SOL     OW69865  10.290   8.564   9.167
56614SOL    HW169866  10.191   8.570   9.177
56614SOL    HW269867  10.313   8.484   9.111
56615SOL     OW69868  10.015   8.498   7.816
56615SOL    HW169869  10.001   8.505   7.915
56615SOL    HW269870  10.099   8.447   7.798
56616SOL     OW69871   9.720   8.261   8.699
56616SOL    HW169872   9.806   8.273   8.749
56616SOL    HW269873   9.678   8.174   8.726
56617SOL     OW69874  10.584   7.834   8.710
56617SOL    HW169875  10.605   7.908   8.774
56617SOL    HW269876  10.495   7.851   8.667
56618SOL     OW69877   9.374   9.012   8.779
56618SOL    HW169878   9.328   9.094   8.745
56618SOL    HW269879   9.472   9.031   8.788
56619SOL     OW69880   9.677   8.548   7.949
56619SOL    HW169881   9.670   8.631   7.893
56619SOL    HW269882   9.681   8.468   7.889
56620SOL     OW69883   9.876   7.985   8.313
56620SOL    HW169884   9.888   8.051   8.239
56620SOL    HW269885   9.922   8.019   8.396
56621SOL     OW69886  10.562   8.796   7.836
56621SOL    HW169887  10.612   8.873   7.876
56621SOL    HW269888  10.467   8.798   7.868
56622SOL     OW69889  10.582   8.893   8.590
56622SOL    HW169890  10.629   8.906   8.677
56622SOL    HW269891  10.516   8.819   8.599
56623SOL     OW69892  10.892   8.087   7.920
56623SOL    HW169893  10.861   8.148   7.993
56623SOL    HW269894  10.942   8.139   7.851
56624SOL     OW69895   9.664   8.958   8.777
56624SOL    HW169896   9.643   8.914   8.690
56624SOL    HW269897   9.761   8.984   8.780
56625SOL     OW69898   9.712   8.199   9.046
56625SOL    HW169899   9.780   8.254   8.999
56625SOL    HW269900   9.752   8.111   9.073
56626SOL     OW69901  10.897   8.227   9.118
56626SOL    HW169902  10.805   8.265   9.113
56626SOL    HW269903  10.957   8.274   9.053
56627SOL     OW69904  10.323   7.553   9.218
56627SOL    HW169905  10.329   7.638   9.166
56627SOL    HW269906  10.355   7.477   9.161
56628SOL     OW69907   9.814   7.498   9.188
56628SOL    HW169908   9.772   7.441   9.118
56628SOL    HW269909   9.748   7.567   9.220
56629SOL     OW69910   9.883   8.318   8.477
56629SOL    HW169911   9.927   8.407   8.468
56629SOL    HW269912   9.820   8.318   8.554
56630SOL     OW69913  10.670   8.310   8.493
56630SOL    HW169914  10.595   8.310   8.427
56630SOL    HW269915  10.707   8.218   8.502
56631SOL     OW69916  10.519   7.973   7.723
56631SOL    HW169917  10.532   7.889   7.777
56631SOL    HW269918  10.490   8.047   7.783
56632SOL     OW69919   9.617   7.661   8.679
56632SOL    HW169920   9.594   7.698   8.769
56632SOL    HW269921   9.587   7.566   8.673
56633SOL     OW69922   9.347   8.758   8.730
56633SOL    HW169923   9.400   8.709   8.798
56633SOL    HW269924   9.369   8.856   8.735
56634SOL     OW69925  10.042   8.082   8.512
56634SOL    HW169926  10.101   8.056   8.436
56634SOL    HW269927  10.014   8.178   8.501
56635SOL     OW69928  11.038   8.383   9.302
56635SOL    HW169929  10.992   8.376   9.213
56635SOL    HW269930  10.976   8.427   9.368
56636SOL     OW69931   9.617   7.511   8.066
56636SOL    HW169932   9.606   7.605   8.099
56636SOL    HW269933   9.612   7.448   8.143
56637SOL     OW69934  10.932   7.815   7.822
56637SOL    HW169935  10.934   7.739   7.886
56637SOL    HW269936  10.884   7.892   7.862
56638SOL     OW69937  10.333   8.214   8.414
56638SOL    HW169938  10.348   8.235   8.510
56638SOL    HW269939  10.303   8.119   8.405
56639SOL     OW69940  10.290   9.021   9.148
56639SOL    HW169941  10.270   9.065   9.060
56639SOL    HW269942  10.329   8.930   9.132
56640SOL     OW69943  11.169   8.966   9.053
56640SOL    HW169944  11.183   8.993   8.958
56640SOL    HW269945  11.252   8.988   9.106
56641SOL     OW69946   9.660   8.346   9.252
56641SOL    HW169947   9.736   8.390   9.300
56641SOL    HW269948   9.695   8.299   9.170
56642SOL     OW69949  10.850   7.722   7.573
56642SOL    HW169950  10.789   7.647   7.596
56642SOL    HW269951  10.872   7.774   7.656
56643SOL     OW69952  10.613   8.286   7.490
56643SOL    HW169953  10.647   8.193   7.505
56643SOL    HW269954  10.631   8.313   7.395
56644SOL     OW69955  10.378   8.781   8.297
56644SOL    HW169956  10.385   8.697   8.242
56644SOL    HW269957  10.440   8.850   8.261
56645SOL     OW69958   9.629   8.258   8.397
56645SOL    HW169959   9.722   8.294   8.402
56645SOL    HW269960   9.623   8.173   8.449
56646SOL     OW69961   9.649   7.957   8.454
56646SOL    HW169962   9.597   7.874   8.437
56646SOL    HW269963   9.726   7.962   8.390
56647SOL     OW69964  10.448   7.828   9.126
56647SOL    HW169965  10.403   7.891   9.190
56647SOL    HW269966  10.541   7.859   9.109
56648SOL     OW69967  10.470   7.655   8.925
56648SOL    HW169968  10.470   7.719   9.002
56648SOL    HW269969  10.498   7.703   8.842
56649SOL     OW69970   9.318   8.774   7.648
56649SOL    HW169971   9.225   8.795   7.617
56649SOL    HW269972   9.328   8.675   7.661
56650SOL     OW69973   9.398   9.249   8.375
56650SOL    HW169974   9.356   9.163   8.348
56650SOL    HW269975   9.492   9.252   8.341
56651SOL     OW69976   9.814   9.016   8.358
56651SOL    HW169977   9.880   9.090   8.367
56651SOL    HW269978   9.858   8.937   8.316
56652SOL     OW69979  10.312   8.244   8.686
56652SOL    HW169980  10.353   8.212   8.772
56652SOL    HW269981  10.216   8.217   8.683
56653SOL     OW69982   9.350   7.992   8.562
56653SOL    HW169983   9.435   7.959   8.521
56653SOL    HW269984   9.363   8.007   8.660
56654SOL     OW69985   9.499   7.968   9.170
56654SOL    HW169986   9.558   7.928   9.100
56654SOL    HW269987   9.441   8.039   9.129
56655SOL     OW69988  10.679   8.398   9.108
56655SOL    HW169989  10.718   8.487   9.128
56655SOL    HW269990  10.689   8.378   9.011
56656SOL     OW69991  10.125   8.020   7.773
56656SOL    HW169992  10.132   7.931   7.727
56656SOL    HW269993  10.031   8.054   7.765
56657SOL     OW69994  10.967   8.052   8.654
56657SOL    HW169995  10.929   7.983   8.716
56657SOL    HW269996  11.049   8.016   8.610
56658SOL     OW69997   9.562   9.012   9.192
56658SOL    HW169998   9.532   9.069   9.268
56658SOL    HW269999   9.555   8.915   9.218
56659SOL     OW70000   9.981   7.912   8.717
56659SOL    HW170001   9.947   7.823   8.687
56659SOL    HW270002  10.007   7.966   8.637
56660SOL     OW70003  10.240   9.126   8.913
56660SOL    HW170004  10.216   9.108   8.818
56660SOL    HW270005  10.270   9.220   8.923
56661SOL     OW70006   9.783   7.948   7.639
56661SOL    HW170007   9.844   8.028   7.643
56661SOL    HW270008   9.688   7.979   7.646
56662SOL     OW70009   9.469   8.585   8.914
56662SOL    HW170010   9.491   8.524   8.990
56662SOL    HW270011   9.479   8.536   8.828
56663SOL     OW70012  10.657   8.507   8.682
56663SOL    HW170013  10.681   8.444   8.608
56663SOL    HW270014  10.567   8.547   8.664
56664SOL     OW70015  10.612   8.303   7.757
56664SOL    HW170016  10.526   8.272   7.799
56664SOL    HW270017  10.608   8.289   7.658
56665SOL     OW70018  11.069   9.195   8.602
56665SOL    HW170019  11.130   9.225   8.529
56665SOL    HW270020  11.031   9.106   8.580
56666SOL     OW70021  10.562   9.179   8.576
56666SOL    HW170022  10.646   9.184   8.522
56666SOL    HW270023  10.539   9.083   8.594
56667SOL     OW70024   9.393   8.706   8.470
56667SOL    HW170025   9.388   8.705   8.570
56667SOL    HW270026   9.310   8.665   8.432
56668SOL     OW70027   9.998   9.110   9.164
56668SOL    HW170028   9.942   9.191   9.173
56668SOL    HW270029  10.050   9.114   9.078
56669SOL     OW70030  11.036   7.583   7.971
56669SOL    HW170031  11.109   7.566   7.904
56669SOL    HW270032  11.005   7.496   8.009
56670SOL     OW70033  10.698   9.021   7.925
56670SOL    HW170034  10.765   9.033   7.851
56670SOL    HW270035  10.658   9.110   7.948
56671SOL     OW70036   9.440   9.242   9.299
56671SOL    HW170037   9.399   9.168   9.352
56671SOL    HW270038   9.504   9.293   9.357
56672SOL     OW70039  10.590   8.375   8.120
56672SOL    HW170040  10.650   8.294   8.122
56672SOL    HW270041  10.630   8.444   8.060
56673SOL     OW70042  10.140   8.721   8.870
56673SOL    HW170043  10.135   8.754   8.965
56673SOL    HW270044  10.054   8.740   8.824
56674SOL     OW70045   9.982   9.064   7.602
56674SOL    HW170046   9.991   9.074   7.503
56674SOL    HW270047   9.942   8.975   7.623
56675SOL     OW70048  10.960   9.168   8.842
56675SOL    HW170049  11.013   9.178   8.758
56675SOL    HW270050  10.933   9.258   8.876
56676SOL     OW70051  11.151   7.623   8.411
56676SOL    HW170052  11.190   7.538   8.375
56676SOL    HW270053  11.053   7.625   8.392
56677SOL     OW70054   9.573   7.774   8.168
56677SOL    HW170055   9.494   7.825   8.134
56677SOL    HW270056   9.564   7.759   8.266
56678SOL     OW70057  10.504   9.060   7.479
56678SOL    HW170058  10.510   8.967   7.516
56678SOL    HW270059  10.445   9.060   7.399
56679SOL     OW70060  10.132   8.450   8.820
56679SOL    HW170061  10.172   8.449   8.728
56679SOL    HW270062  10.142   8.542   8.860
56680SOL     OW70063  10.226   8.358   7.739
56680SOL    HW170064  10.289   8.396   7.671
56680SOL    HW270065  10.266   8.275   7.778
56681SOL     OW70066  10.814   9.055   7.492
56681SOL    HW170067  10.722   9.092   7.499
56681SOL    HW270068  10.852   9.075   7.402
56682SOL     OW70069   9.682   8.736   8.938
56682SOL    HW170070   9.669   8.829   8.904
56682SOL    HW270071   9.598   8.684   8.925
56683SOL     OW70072  10.924   8.740   8.737
56683SOL    HW170073  10.984   8.743   8.817
56683SOL    HW270074  10.849   8.804   8.750
56684SOL     OW70075  10.349   8.546   8.144
56684SOL    HW170076  10.279   8.499   8.198
56684SOL    HW270077  10.408   8.478   8.101
56685SOL     OW70078  10.324   7.684   8.419
56685SOL    HW170079  10.316   7.648   8.326
56685SOL    HW270080  10.322   7.608   8.484
56686SOL     OW70081   9.900   8.935   7.939
56686SOL    HW170082   9.942   8.877   7.869
56686SOL    HW270083   9.856   9.014   7.895
56687SOL     OW70084  11.019   7.833   8.829
56687SOL    HW170085  11.092   7.902   8.833
56687SOL    HW270086  11.047   7.758   8.770
56688SOL     OW70087   9.565   8.796   7.738
56688SOL    HW170088   9.469   8.797   7.711
56688SOL    HW270089   9.577   8.849   7.822
56689SOL     OW70090   9.415   8.461   9.174
56689SOL    HW170091   9.338   8.428   9.228
56689SOL    HW270092   9.500   8.431   9.216
56690SOL     OW70093   9.982   7.651   8.937
56690SOL    HW170094  10.072   7.635   8.897
56690SOL    HW270095   9.990   7.656   9.036
56691SOL     OW70096   9.385   7.793   7.481
56691SOL    HW170097   9.293   7.765   7.452
56691SOL    HW270098   9.416   7.870   7.425
56692SOL     OW70099  10.750   8.304   8.846
56692SOL    HW170100  10.693   8.356   8.783
56692SOL    HW270101  10.846   8.316   8.822
56693SOL     OW70102  10.493   8.783   7.567
56693SOL    HW170103  10.394   8.772   7.569
56693SOL    HW270104  10.527   8.798   7.660
56694SOL     OW70105   9.923   8.290   8.879
56694SOL    HW170106   9.979   8.371   8.862
56694SOL    HW270107   9.982   8.210   8.882
56695SOL     OW70108  10.803   9.215   8.407
56695SOL    HW170109  10.836   9.279   8.338
56695SOL    HW270110  10.869   9.209   8.482
56696SOL     OW70111  10.026   8.013   9.156
56696SOL    HW170112  10.045   8.078   9.230
56696SOL    HW270113  10.086   7.933   9.165
56697SOL     OW70114  10.760   8.668   9.081
56697SOL    HW170115  10.751   8.658   9.180
56697SOL    HW270116  10.856   8.661   9.055
56698SOL     OW70117   9.700   9.189   9.008
56698SOL    HW170118   9.609   9.230   9.006
56698SOL    HW270119   9.693   9.095   9.040
56699SOL     OW70120  10.984   8.331   8.702
56699SOL    HW170121  10.957   8.242   8.665
56699SOL    HW270122  10.985   8.399   8.629
56700SOL     OW70123  10.535   7.773   7.897
56700SOL    HW170124  10.600   7.699   7.886
56700SOL    HW270125  10.555   7.823   7.981
56701SOL     OW70126   9.904   8.193   8.100
56701SOL    HW170127   9.954   8.278   8.081
56701SOL    HW270128   9.816   8.195   8.052
56702SOL     OW70129  11.087   7.790   9.090
56702SOL    HW170130  11.070   7.821   8.996
56702SOL    HW270131  11.003   7.753   9.128
56703SOL     OW70132  11.040   8.382   8.965
56703SOL    HW170133  11.078   8.473   8.980
56703SOL    HW270134  11.032   8.365   8.866
56704SOL     OW70135  10.169   8.822   7.464
56704SOL    HW170136  10.123   8.837   7.552
56704SOL    HW270137  10.213   8.907   7.434
56705SOL     OW70138   9.971   9.238   8.401
56705SOL    HW170139   9.925   9.326   8.388
56705SOL    HW270140  10.070   9.250   8.394
56706SOL     OW70141  10.169   8.404   8.309
56706SOL    HW170142  10.223   8.335   8.357
56706SOL    HW270143  10.137   8.473   8.375
56707SOL     OW70144  10.393   8.432   7.535
56707SOL    HW170145  10.370   8.485   7.453
56707SOL    HW270146  10.474   8.376   7.516
56708SOL     OW70147  11.171   9.017   8.299
56708SOL    HW170148  11.100   9.005   8.229
56708SOL    HW270149  11.172   8.938   8.359
56709SOL     OW70150   9.531   8.762   9.292
56709SOL    HW170151   9.466   8.689   9.271
56709SOL    HW270152   9.535   8.776   9.390
56710SOL     OW70153   9.389   8.688   8.101
56710SOL    HW170154   9.388   8.641   8.189
56710SOL    HW270155   9.471   8.660   8.050
56711SOL     OW70156   9.982   8.839   9.072
56711SOL    HW170157   9.904   8.789   9.110
56711SOL    HW270158   9.979   8.934   9.103
56712SOL     OW70159  11.134   7.640   8.675
56712SOL    HW170160  11.130   7.550   8.719
56712SOL    HW270161  11.137   7.629   8.576
56713SOL     OW70162   9.738   7.872   7.968
56713SOL    HW170163   9.768   7.800   7.906
56713SOL    HW270164   9.699   7.832   8.051
56714SOL     OW70165  11.015   8.935   8.552
56714SOL    HW170166  10.922   8.910   8.525
56714SOL    HW270167  11.041   8.885   8.634
56715SOL     OW70168   9.627   7.995   8.728
56715SOL    HW170169   9.665   7.936   8.800
56715SOL    HW270170   9.667   7.969   8.640
56716SOL     OW70171  10.734   7.662   8.560
56716SOL    HW170172  10.786   7.597   8.615
56716SOL    HW270173  10.685   7.725   8.621
56717SOL     OW70174  10.311   7.482   8.602
56717SOL    HW170175  10.248   7.410   8.571
56717SOL    HW270176  10.404   7.446   8.602
56718SOL     OW70177  10.080   8.778   7.749
56718SOL    HW170178  10.034   8.691   7.766
56718SOL    HW270179  10.171   8.775   7.790
56719SOL     OW70180   9.928   9.015   8.732
56719SOL    HW170181   9.923   9.097   8.789
56719SOL    HW270182  10.017   9.012   8.687
56720SOL     OW70183  10.662   7.500   7.616
56720SOL    HW170184  10.697   7.459   7.532
56720SOL    HW270185  10.572   7.462   7.636
56721SOL     OW70186  10.610   7.901   8.139
56721SOL    HW170187  10.551   7.981   8.143
56721SOL    HW270188  10.625   7.866   8.232
56722SOL     OW70189  10.903   7.669   8.330
56722SOL    HW170190  10.819   7.668   8.384
56722SOL    HW270191  10.905   7.752   8.274
56723SOL     OW70192   9.349   8.525   7.748
56723SOL    HW170193   9.448   8.514   7.739
56723SOL    HW270194   9.309   8.439   7.780
56724SOL     OW70195  10.185   9.094   7.785
56724SOL    HW170196  10.108   9.059   7.731
56724SOL    HW270197  10.153   9.165   7.847
56725SOL     OW70198   9.540   8.076   9.423
56725SOL    HW170199   9.447   8.074   9.460
56725SOL    HW270200   9.541   8.037   9.331
56726SOL     OW70201   9.535   7.723  10.306
56726SOL    HW170202   9.570   7.706  10.398
56726SOL    HW270203   9.447   7.678  10.294
56727SOL     OW70204   9.329   7.816   9.957
56727SOL    HW170205   9.247   7.859   9.996
56727SOL    HW270206   9.301   7.743   9.894
56728SOL     OW70207   9.879   8.723  10.475
56728SOL    HW170208   9.786   8.716  10.438
56728SOL    HW270209   9.890   8.812  10.519
56729SOL     OW70210  10.865   8.959  10.013
56729SOL    HW170211  10.808   8.943  10.094
56729SOL    HW270212  10.806   8.969   9.933
56730SOL     OW70213  10.445   8.151  10.027
56730SOL    HW170214  10.502   8.229  10.002
56730SOL    HW270215  10.385   8.177  10.103
56731SOL     OW70216  11.065   8.055   9.541
56731SOL    HW170217  11.053   8.042   9.442
56731SOL    HW270218  11.035   7.974   9.590
56732SOL     OW70219  10.078   8.592  10.333
56732SOL    HW170220  10.000   8.609  10.393
56732SOL    HW270221  10.112   8.679  10.297
56733SOL     OW70222  10.160   8.246  11.133
56733SOL    HW170223  10.156   8.322  11.198
56733SOL    HW270224  10.182   8.282  11.042
56734SOL     OW70225   9.995   8.460   9.975
56734SOL    HW170226  10.064   8.444  10.045
56734SOL    HW270227   9.922   8.517  10.013
56735SOL     OW70228   9.996   8.609  11.113
56735SOL    HW170229  10.056   8.688  11.127
56735SOL    HW270230   9.910   8.640  11.072
56736SOL     OW70231   9.645   8.883  10.371
56736SOL    HW170232   9.567   8.852  10.318
56736SOL    HW270233   9.703   8.941  10.314
56737SOL     OW70234  10.770   8.953  10.649
56737SOL    HW170235  10.794   9.047  10.675
56737SOL    HW270236  10.754   8.899  10.731
56738SOL     OW70237   9.748   7.840  10.809
56738SOL    HW170238   9.830   7.784  10.818
56738SOL    HW270239   9.667   7.782  10.813
56739SOL     OW70240  10.913   7.895  10.047
56739SOL    HW170241  10.839   7.941   9.997
56739SOL    HW270242  10.964   7.963  10.100
56740SOL     OW70243   9.541   9.161   9.793
56740SOL    HW170244   9.575   9.238   9.847
56740SOL    HW270245   9.585   9.161   9.703
56741SOL     OW70246  10.437   8.789  11.000
56741SOL    HW170247  10.484   8.789  11.088
56741SOL    HW270248  10.389   8.702  10.989
56742SOL     OW70249   9.540   8.882   9.848
56742SOL    HW170250   9.514   8.978   9.848
56742SOL    HW270251   9.469   8.828   9.893
56743SOL     OW70252   9.550   8.539  10.196
56743SOL    HW170253   9.564   8.455  10.248
56743SOL    HW270254   9.495   8.603  10.251
56744SOL     OW70255   9.930   9.234  10.749
56744SOL    HW170256   9.838   9.217  10.784
56744SOL    HW270257   9.958   9.326  10.775
56745SOL     OW70258   9.916   8.412   9.433
56745SOL    HW170259   9.923   8.496   9.379
56745SOL    HW270260   9.962   8.425   9.521
56746SOL     OW70261  10.904   7.562  10.790
56746SOL    HW170262  10.886   7.629  10.718
56746SOL    HW270263  10.901   7.608  10.879
56747SOL     OW70264   9.432   8.091   9.873
56747SOL    HW170265   9.387   8.003   9.890
56747SOL    HW270266   9.431   8.145   9.957
56748SOL     OW70267  11.152   9.215   9.669
56748SOL    HW170268  11.206   9.186   9.749
56748SOL    HW270269  11.182   9.305   9.640
56749SOL     OW70270   9.337   9.044   9.427
56749SOL    HW170271   9.318   8.948   9.448
56749SOL    HW270272   9.304   9.102   9.502
56750SOL     OW70273  10.999   8.370   9.922
56750SOL    HW170274  11.094   8.341   9.930
56750SOL    HW270275  10.991   8.435   9.847
56751SOL     OW70276  10.951   8.556   9.742
56751SOL    HW170277  11.037   8.558   9.690
56751SOL    HW270278  10.965   8.603   9.830
56752SOL     OW70279   9.423   8.185  10.907
56752SOL    HW170280   9.511   8.172  10.952
56752SOL    HW270281   9.410   8.282  10.885
56753SOL     OW70282   9.923   8.813  10.036
56753SOL    HW170283   9.874   8.726  10.045
56753SOL    HW270284   9.900   8.856   9.949
56754SOL     OW70285  10.603   8.676  10.733
56754SOL    HW170286  10.640   8.603  10.675
56754SOL    HW270287  10.655   8.681  10.818
56755SOL     OW70288  10.119   7.452   9.812
56755SOL    HW170289  10.159   7.543   9.803
56755SOL    HW270290  10.019   7.460   9.818
56756SOL     OW70291   9.507   8.424  10.574
56756SOL    HW170292   9.596   8.379  10.560
56756SOL    HW270293   9.434   8.359  10.555
56757SOL     OW70294  10.835   8.447   9.500
56757SOL    HW170295  10.772   8.371   9.513
56757SOL    HW270296  10.883   8.465   9.586
56758SOL     OW70297  10.497   9.240  10.926
56758SOL    HW170298  10.521   9.300  10.850
56758SOL    HW270299  10.504   9.145  10.896
56759SOL     OW70300   9.627   7.699  11.111
56759SOL    HW170301   9.698   7.770  11.117
56759SOL    HW270302   9.539   7.738  11.139
56760SOL     OW70303  10.776   8.865  10.263
56760SOL    HW170304  10.717   8.871  10.343
56760SOL    HW270305  10.761   8.777  10.217
56761SOL     OW70306  10.977   9.162   9.882
56761SOL    HW170307  10.936   9.139   9.794
56761SOL    HW270308  10.959   9.088   9.947
56762SOL     OW70309   9.908   8.177   9.580
56762SOL    HW170310   9.932   8.246   9.512
56762SOL    HW270311   9.830   8.210   9.634
56763SOL     OW70312  10.591   7.793  10.254
56763SOL    HW170313  10.505   7.743  10.241
56763SOL    HW270314  10.653   7.739  10.310
56764SOL     OW70315  10.886   9.110   9.617
56764SOL    HW170316  10.975   9.156   9.620
56764SOL    HW270317  10.865   9.086   9.522
56765SOL     OW70318  10.117   8.053  10.775
56765SOL    HW170319  10.070   8.050  10.864
56765SOL    HW270320  10.066   7.998  10.709
56766SOL     OW70321  10.704   7.917  10.984
56766SOL    HW170322  10.684   7.960  11.072
56766SOL    HW270323  10.782   7.855  10.993
56767SOL     OW70324  10.283   8.338  10.882
56767SOL    HW170325  10.329   8.254  10.853
56767SOL    HW270326  10.227   8.372  10.807
56768SOL     OW70327  10.301   7.858  10.552
56768SOL    HW170328  10.224   7.892  10.606
56768SOL    HW270329  10.267   7.807  10.473
56769SOL     OW70330  10.351   8.149   9.739
56769SOL    HW170331  10.377   8.145   9.835
56769SOL    HW270332  10.266   8.098   9.725
56770SOL     OW70333   9.386   8.259  10.099
56770SOL    HW170334   9.485   8.247  10.108
56770SOL    HW270335   9.362   8.354  10.120
56771SOL     OW70336   9.440   9.269  10.881
56771SOL    HW170337   9.430   9.254  10.980
56771SOL    HW270338   9.354   9.305  10.845
56772SOL     OW70339  10.175   7.796   9.505
56772SOL    HW170340  10.234   7.859   9.456
56772SOL    HW270341  10.194   7.702   9.476
56773SOL     OW70342  11.029   8.033  11.141
56773SOL    HW170343  11.003   8.122  11.105
56773SOL    HW270344  11.027   7.965  11.068
56774SOL     OW70345  10.672   8.592   9.855
56774SOL    HW170346  10.755   8.563   9.807
56774SOL    HW270347  10.623   8.659   9.799
56775SOL     OW70348   9.860   7.644  10.195
56775SOL    HW170349   9.855   7.639  10.295
56775SOL    HW270350   9.862   7.740  10.166
56776SOL     OW70351  10.318   8.904   9.787
56776SOL    HW170352  10.272   8.976   9.735
56776SOL    HW270353  10.314   8.924   9.885
56777SOL     OW70354   9.661   9.249  10.163
56777SOL    HW170355   9.711   9.163  10.169
56777SOL    HW270356   9.726   9.326  10.160
56778SOL     OW70357  11.105   8.514  10.183
56778SOL    HW170358  11.043   8.499  10.107
56778SOL    HW270359  11.053   8.525  10.268
56779SOL     OW70360  10.537   8.998  10.816
56779SOL    HW170361  10.543   8.921  10.880
56779SOL    HW270362  10.485   8.972  10.736
56780SOL     OW70363   9.631   8.391   9.552
56780SOL    HW170364   9.713   8.430   9.510
56780SOL    HW270365   9.604   8.309   9.503
56781SOL     OW70366  10.768   8.183  10.038
56781SOL    HW170367  10.763   8.118  10.113
56781SOL    HW270368  10.848   8.242  10.051
56782SOL     OW70369   9.771   8.714  11.037
56782SOL    HW170370   9.721   8.715  10.951
56782SOL    HW270371   9.708   8.696  11.113
56783SOL     OW70372  10.421   9.224   9.547
56783SOL    HW170373  10.361   9.162   9.597
56783SOL    HW270374  10.452   9.180   9.462
56784SOL     OW70375   9.512   7.733  10.808
56784SOL    HW170376   9.432   7.793  10.795
56784SOL    HW270377   9.502   7.684  10.894
56785SOL     OW70378  10.942   8.825   9.391
56785SOL    HW170379  10.910   8.919   9.381
56785SOL    HW270380  10.866   8.762   9.379
56786SOL     OW70381   9.774   9.191   9.633
56786SOL    HW170382   9.807   9.230   9.719
56786SOL    HW270383   9.850   9.184   9.568
56787SOL     OW70384  10.710   7.555   9.736
56787SOL    HW170385  10.686   7.518   9.646
56787SOL    HW270386  10.809   7.571   9.740
56788SOL     OW70387   9.559   9.233  10.551
56788SOL    HW170388   9.616   9.168  10.601
56788SOL    HW270389   9.543   9.200  10.458
56789SOL     OW70390  10.250   9.146  10.214
56789SOL    HW170391  10.330   9.089  10.235
56789SOL    HW270392  10.201   9.106  10.137
56790SOL     OW70393   9.692   8.148   9.790
56790SOL    HW170394   9.737   8.058   9.787
56790SOL    HW270395   9.598   8.137   9.823
56791SOL     OW70396  10.857   7.670  11.039
56791SOL    HW170397  10.852   7.707  11.131
56791SOL    HW270398  10.785   7.601  11.027
56792SOL     OW70399   9.924   7.570   9.427
56792SOL    HW170400  10.022   7.548   9.434
56792SOL    HW270401   9.893   7.553   9.334
56793SOL     OW70402  10.091   7.712  11.059
56793SOL    HW170403  10.158   7.651  11.102
56793SOL    HW270404  10.018   7.731  11.124
56794SOL     OW70405  10.198   8.962  10.505
56794SOL    HW170406  10.175   8.937  10.411
56794SOL    HW270407  10.259   8.893  10.544
56795SOL     OW70408  10.661   8.038  10.743
56795SOL    HW170409  10.689   7.995  10.828
56795SOL    HW270410  10.686   8.134  10.744
56796SOL     OW70411  10.113   8.850  10.234
56796SOL    HW170412  10.203   8.864  10.192
56796SOL    HW270413  10.042   8.852  10.163
56797SOL     OW70414  10.232   7.951  10.209
56797SOL    HW170415  10.207   7.942  10.113
56797SOL    HW270416  10.280   7.869  10.240
56798SOL     OW70417   9.849   7.512   9.822
56798SOL    HW170418   9.768   7.513   9.880
56798SOL    HW270419   9.852   7.595   9.767
56799SOL     OW70420  10.744   8.636   9.351
56799SOL    HW170421  10.776   8.560   9.408
56799SOL    HW270422  10.652   8.663   9.381
56800SOL     OW70423   9.607   7.483   9.481
56800SOL    HW170424   9.656   7.567   9.460
56800SOL    HW270425   9.669   7.418   9.526
56801SOL     OW70426  10.245   7.684   9.790
56801SOL    HW170427  10.197   7.725   9.712
56801SOL    HW270428  10.344   7.682   9.771
56802SOL     OW70429  10.386   8.131  10.774
56802SOL    HW170430  10.306   8.070  10.777
56802SOL    HW270431  10.467   8.078  10.750
56803SOL     OW70432  10.537   9.018  10.103
56803SOL    HW170433  10.558   9.092  10.038
56803SOL    HW270434  10.605   9.018  10.176
56804SOL     OW70435   9.769   8.600  10.051
56804SOL    HW170436   9.698   8.573  10.116
56804SOL    HW270437   9.743   8.572   9.958
56805SOL     OW70438  10.581   9.245   9.901
56805SOL    HW170439  10.625   9.309   9.837
56805SOL    HW270440  10.531   9.297   9.971
56806SOL     OW70441  10.342   7.997   9.326
56806SOL    HW170442  10.301   8.079   9.287
56806SOL    HW270443  10.406   8.023   9.399
56807SOL     OW70444   9.388   8.004  10.696
56807SOL    HW170445   9.480   8.003  10.655
56807SOL    HW270446   9.382   8.078  10.763
56808SOL     OW70447   9.871   7.670  10.457
56808SOL    HW170448   9.909   7.586  10.494
56808SOL    HW270449   9.783   7.689  10.501
56809SOL     OW70450  10.176   7.902   9.952
56809SOL    HW170451  10.144   7.974   9.890
56809SOL    HW270452  10.200   7.821   9.899
56810SOL     OW70453  10.327   7.487  10.063
56810SOL    HW170454  10.255   7.492   9.994
56810SOL    HW270455  10.303   7.418  10.132
56811SOL     OW70456  10.739   8.621  10.177
56811SOL    HW170457  10.684   8.537  10.170
56811SOL    HW270458  10.765   8.650  10.085
56812SOL     OW70459  10.776   8.038  10.302
56812SOL    HW170460  10.746   7.943  10.309
56812SOL    HW270461  10.849   8.054  10.368
56813SOL     OW70462  11.167   8.281   9.687
56813SOL    HW170463  11.209   8.217   9.751
56813SOL    HW270464  11.129   8.230   9.609
56814SOL     OW70465   9.798   8.833   9.484
56814SOL    HW170466   9.711   8.818   9.531
56814SOL    HW270467   9.781   8.859   9.389
56815SOL     OW70468  10.974   8.728   9.967
56815SOL    HW170469  11.073   8.736   9.981
56815SOL    HW270470  10.929   8.812   9.998
56816SOL     OW70471  10.700   8.023   9.388
56816SOL    HW170472  10.646   8.002   9.469
56816SOL    HW270473  10.791   7.982   9.397
56817SOL     OW70474   9.837   7.704   9.638
56817SOL    HW170475   9.864   7.645   9.563
56817SOL    HW270476   9.837   7.799   9.607
56818SOL     OW70477  11.064   8.671  10.898
56818SOL    HW170478  11.155   8.632  10.885
56818SOL    HW270479  11.072   8.767  10.922
56819SOL     OW70480  10.374   8.795  10.650
56819SOL    HW170481  10.294   8.772  10.705
56819SOL    HW270482  10.457   8.769  10.699
56820SOL     OW70483  10.902   9.077  10.935
56820SOL    HW170484  10.929   9.111  10.845
56820SOL    HW270485  10.981   9.039  10.981
56821SOL     OW70486  10.421   8.643  10.410
56821SOL    HW170487  10.381   8.687  10.491
56821SOL    HW270488  10.380   8.680  10.327
56822SOL     OW70489  10.948   8.547  10.389
56822SOL    HW170490  10.953   8.628  10.448
56822SOL    HW270491  10.862   8.549  10.338
56823SOL     OW70492  10.225   7.537  10.712
56823SOL    HW170493  10.250   7.517  10.617
56823SOL    HW270494  10.297   7.593  10.754
56824SOL     OW70495  10.290   8.564  11.029
56824SOL    HW170496  10.191   8.570  11.039
56824SOL    HW270497  10.313   8.484  10.973
56825SOL     OW70498  10.015   8.498   9.678
56825SOL    HW170499  10.001   8.505   9.777
56825SOL    HW270500  10.099   8.447   9.660
56826SOL     OW70501   9.720   8.261  10.561
56826SOL    HW170502   9.806   8.273  10.611
56826SOL    HW270503   9.678   8.174  10.588
56827SOL     OW70504  10.584   7.834  10.572
56827SOL    HW170505  10.605   7.908  10.636
56827SOL    HW270506  10.495   7.851  10.529
56828SOL     OW70507   9.374   9.012  10.641
56828SOL    HW170508   9.328   9.094  10.607
56828SOL    HW270509   9.472   9.031  10.650
56829SOL     OW70510   9.677   8.548   9.811
56829SOL    HW170511   9.670   8.631   9.755
56829SOL    HW270512   9.681   8.468   9.751
56830SOL     OW70513   9.876   7.985  10.175
56830SOL    HW170514   9.888   8.051  10.101
56830SOL    HW270515   9.922   8.019  10.258
56831SOL     OW70516  10.562   8.796   9.698
56831SOL    HW170517  10.612   8.873   9.738
56831SOL    HW270518  10.467   8.798   9.730
56832SOL     OW70519  10.582   8.893  10.452
56832SOL    HW170520  10.629   8.906  10.539
56832SOL    HW270521  10.516   8.819  10.461
56833SOL     OW70522  10.892   8.087   9.782
56833SOL    HW170523  10.861   8.148   9.855
56833SOL    HW270524  10.942   8.139   9.713
56834SOL     OW70525   9.664   8.958  10.639
56834SOL    HW170526   9.643   8.914  10.552
56834SOL    HW270527   9.761   8.984  10.642
56835SOL     OW70528   9.712   8.199  10.908
56835SOL    HW170529   9.780   8.254  10.861
56835SOL    HW270530   9.752   8.111  10.935
56836SOL     OW70531  10.897   8.227  10.980
56836SOL    HW170532  10.805   8.265  10.975
56836SOL    HW270533  10.957   8.274  10.915
56837SOL     OW70534  10.323   7.553  11.080
56837SOL    HW170535  10.329   7.638  11.028
56837SOL    HW270536  10.355   7.477  11.023
56838SOL     OW70537   9.814   7.498  11.050
56838SOL    HW170538   9.772   7.441  10.980
56838SOL    HW270539   9.748   7.567  11.082
56839SOL     OW70540   9.883   8.318  10.339
56839SOL    HW170541   9.927   8.407  10.330
56839SOL    HW270542   9.820   8.318  10.416
56840SOL     OW70543  10.670   8.310  10.355
56840SOL    HW170544  10.595   8.310  10.289
56840SOL    HW270545  10.707   8.218  10.364
56841SOL     OW70546  10.519   7.973   9.585
56841SOL    HW170547  10.532   7.889   9.639
56841SOL    HW270548  10.490   8.047   9.645
56842SOL     OW70549   9.617   7.661  10.541
56842SOL    HW170550   9.594   7.698  10.631
56842SOL    HW270551   9.587   7.566  10.535
56843SOL     OW70552   9.347   8.758  10.592
56843SOL    HW170553   9.400   8.709  10.660
56843SOL    HW270554   9.369   8.856  10.597
56844SOL     OW70555  10.042   8.082  10.374
56844SOL    HW170556  10.101   8.056  10.298
56844SOL    HW270557  10.014   8.178  10.363
56845SOL     OW70558  11.038   8.383  11.164
56845SOL    HW170559  10.992   8.376  11.075
56845SOL    HW270560  10.976   8.427  11.230
56846SOL     OW70561   9.617   7.511   9.928
56846SOL    HW170562   9.606   7.605   9.961
56846SOL    HW270563   9.612   7.448  10.005
56847SOL     OW70564  10.932   7.815   9.684
56847SOL    HW170565  10.934   7.739   9.748
56847SOL    HW270566  10.884   7.892   9.724
56848SOL     OW70567  10.333   8.214  10.276
56848SOL    HW170568  10.348   8.235  10.372
56848SOL    HW270569  10.303   8.119  10.267
56849SOL     OW70570  10.290   9.021  11.010
56849SOL    HW170571  10.270   9.065  10.922
56849SOL    HW270572  10.329   8.930  10.994
56850SOL     OW70573  11.169   8.966  10.915
56850SOL    HW170574  11.183   8.993  10.820
56850SOL    HW270575  11.252   8.988  10.968
56851SOL     OW70576   9.660   8.346  11.114
56851SOL    HW170577   9.736   8.390  11.162
56851SOL    HW270578   9.695   8.299  11.032
56852SOL     OW70579  10.850   7.722   9.435
56852SOL    HW170580  10.789   7.647   9.458
56852SOL    HW270581  10.872   7.774   9.518
56853SOL     OW70582  10.613   8.286   9.352
56853SOL    HW170583  10.647   8.193   9.367
56853SOL    HW270584  10.631   8.313   9.257
56854SOL     OW70585  10.378   8.781  10.159
56854SOL    HW170586  10.385   8.697  10.104
56854SOL    HW270587  10.440   8.850  10.123
56855SOL     OW70588   9.629   8.258  10.259
56855SOL    HW170589   9.722   8.294  10.264
56855SOL    HW270590   9.623   8.173  10.311
56856SOL     OW70591   9.649   7.957  10.316
56856SOL    HW170592   9.597   7.874  10.299
56856SOL    HW270593   9.726   7.962  10.252
56857SOL     OW70594  10.448   7.828  10.988
56857SOL    HW170595  10.403   7.891  11.052
56857SOL    HW270596  10.541   7.859  10.971
56858SOL     OW70597  10.470   7.655  10.787
56858SOL    HW170598  10.470   7.719  10.864
56858SOL    HW270599  10.498   7.703  10.704
56859SOL     OW70600   9.318   8.774   9.510
56859SOL    HW170601   9.225   8.795   9.479
56859SOL    HW270602   9.328   8.675   9.523
56860SOL     OW70603   9.398   9.249  10.237
56860SOL    HW170604   9.356   9.163  10.210
56860SOL    HW270605   9.492   9.252  10.203
56861SOL     OW70606   9.814   9.016  10.220
56861SOL    HW170607   9.880   9.090  10.229
56861SOL    HW270608   9.858   8.937  10.178
56862SOL     OW70609  10.312   8.244  10.548
56862SOL    HW170610  10.353   8.212  10.634
56862SOL    HW270611  10.216   8.217  10.545
56863SOL     OW70612   9.350   7.992  10.424
56863SOL    HW170613   9.435   7.959  10.383
56863SOL    HW270614   9.363   8.007  10.522
56864SOL     OW70615   9.499   7.968  11.032
56864SOL    HW170616   9.558   7.928  10.962
56864SOL    HW270617   9.441   8.039  10.991
56865SOL     OW70618  10.679   8.398  10.970
56865SOL    HW170619  10.718   8.487  10.990
56865SOL    HW270620  10.689   8.378  10.873
56866SOL     OW70621  10.125   8.020   9.635
56866SOL    HW170622  10.132   7.931   9.589
56866SOL    HW270623  10.031   8.054   9.627
56867SOL     OW70624  10.967   8.052  10.516
56867SOL    HW170625  10.929   7.983  10.578
56867SOL    HW270626  11.049   8.016  10.472
56868SOL     OW70627   9.562   9.012  11.054
56868SOL    HW170628   9.532   9.069  11.130
56868SOL    HW270629   9.555   8.915  11.080
56869SOL     OW70630   9.981   7.912  10.579
56869SOL    HW170631   9.947   7.823  10.549
56869SOL    HW270632  10.007   7.966  10.499
56870SOL     OW70633  10.240   9.126  10.775
56870SOL    HW170634  10.216   9.108  10.680
56870SOL    HW270635  10.270   9.220  10.785
56871SOL     OW70636   9.783   7.948   9.501
56871SOL    HW170637   9.844   8.028   9.505
56871SOL    HW270638   9.688   7.979   9.508
56872SOL     OW70639   9.469   8.585  10.776
56872SOL    HW170640   9.491   8.524  10.852
56872SOL    HW270641   9.479   8.536  10.690
56873SOL     OW70642  10.612   8.303   9.619
56873SOL    HW170643  10.526   8.272   9.661
56873SOL    HW270644  10.608   8.289   9.520
56874SOL     OW70645  11.069   9.195  10.464
56874SOL    HW170646  11.130   9.225  10.391
56874SOL    HW270647  11.031   9.106  10.442
56875SOL     OW70648  10.562   9.179  10.438
56875SOL    HW170649  10.646   9.184  10.384
56875SOL    HW270650  10.539   9.083  10.456
56876SOL     OW70651   9.393   8.706  10.332
56876SOL    HW170652   9.388   8.705  10.432
56876SOL    HW270653   9.310   8.665  10.294
56877SOL     OW70654   9.998   9.110  11.026
56877SOL    HW170655   9.942   9.191  11.035
56877SOL    HW270656  10.050   9.114  10.940
56878SOL     OW70657  11.036   7.583   9.833
56878SOL    HW170658  11.109   7.566   9.766
56878SOL    HW270659  11.005   7.496   9.871
56879SOL     OW70660  10.698   9.021   9.787
56879SOL    HW170661  10.765   9.033   9.713
56879SOL    HW270662  10.658   9.110   9.810
56880SOL     OW70663   9.440   9.242  11.161
56880SOL    HW170664   9.399   9.168  11.214
56880SOL    HW270665   9.504   9.293  11.219
56881SOL     OW70666  10.590   8.375   9.982
56881SOL    HW170667  10.650   8.294   9.984
56881SOL    HW270668  10.630   8.444   9.922
56882SOL     OW70669  10.140   8.721  10.732
56882SOL    HW170670  10.135   8.754  10.827
56882SOL    HW270671  10.054   8.740  10.686
56883SOL     OW70672   9.982   9.064   9.464
56883SOL    HW170673   9.991   9.074   9.365
56883SOL    HW270674   9.942   8.975   9.485
56884SOL     OW70675  10.960   9.168  10.704
56884SOL    HW170676  11.013   9.178  10.620
56884SOL    HW270677  10.933   9.258  10.738
56885SOL     OW70678  11.151   7.623  10.273
56885SOL    HW170679  11.190   7.538  10.237
56885SOL    HW270680  11.053   7.625  10.254
56886SOL     OW70681   9.573   7.774  10.030
56886SOL    HW170682   9.494   7.825   9.996
56886SOL    HW270683   9.564   7.759  10.128
56887SOL     OW70684  10.504   9.060   9.341
56887SOL    HW170685  10.510   8.967   9.378
56887SOL    HW270686  10.445   9.060   9.261
56888SOL     OW70687  10.132   8.450  10.682
56888SOL    HW170688  10.172   8.449  10.590
56888SOL    HW270689  10.142   8.542  10.722
56889SOL     OW70690  10.226   8.358   9.601
56889SOL    HW170691  10.289   8.396   9.533
56889SOL    HW270692  10.266   8.275   9.640
56890SOL     OW70693  10.814   9.055   9.354
56890SOL    HW170694  10.722   9.092   9.361
56890SOL    HW270695  10.852   9.075   9.264
56891SOL     OW70696   9.682   8.736  10.800
56891SOL    HW170697   9.669   8.829  10.766
56891SOL    HW270698   9.598   8.684  10.787
56892SOL     OW70699  10.924   8.740  10.599
56892SOL    HW170700  10.984   8.743  10.679
56892SOL    HW270701  10.849   8.804  10.612
56893SOL     OW70702  10.349   8.546  10.006
56893SOL    HW170703  10.279   8.499  10.060
56893SOL    HW270704  10.408   8.478   9.963
56894SOL     OW70705  10.324   7.684  10.281
56894SOL    HW170706  10.316   7.648  10.188
56894SOL    HW270707  10.322   7.608  10.346
56895SOL     OW70708   9.900   8.935   9.801
56895SOL    HW170709   9.942   8.877   9.731
56895SOL    HW270710   9.856   9.014   9.757
56896SOL     OW70711  11.019   7.833  10.691
56896SOL    HW170712  11.092   7.902  10.695
56896SOL    HW270713  11.047   7.758  10.632
56897SOL     OW70714   9.565   8.796   9.600
56897SOL    HW170715   9.469   8.797   9.573
56897SOL    HW270716   9.577   8.849   9.684
56898SOL     OW70717   9.415   8.461  11.036
56898SOL    HW170718   9.338   8.428  11.090
56898SOL    HW270719   9.500   8.431  11.078
56899SOL     OW70720   9.982   7.651  10.799
56899SOL    HW170721  10.072   7.635  10.759
56899SOL    HW270722   9.990   7.656  10.898
56900SOL     OW70723   9.385   7.793   9.343
56900SOL    HW170724   9.293   7.765   9.314
56900SOL    HW270725   9.416   7.870   9.287
56901SOL     OW70726  10.750   8.304  10.708
56901SOL    HW170727  10.693   8.356  10.645
56901SOL    HW270728  10.846   8.316  10.684
56902SOL     OW70729   9.382   7.614   9.628
56902SOL    HW170730   9.365   7.697   9.574
56902SOL    HW270731   9.472   7.577   9.606
56903SOL     OW70732  10.493   8.783   9.429
56903SOL    HW170733  10.394   8.772   9.431
56903SOL    HW270734  10.527   8.798   9.522
56904SOL     OW70735   9.923   8.290  10.741
56904SOL    HW170736   9.979   8.371  10.724
56904SOL    HW270737   9.982   8.210  10.744
56905SOL     OW70738  10.803   9.215  10.269
56905SOL    HW170739  10.836   9.279  10.200
56905SOL    HW270740  10.869   9.209  10.344
56906SOL     OW70741  10.026   8.013  11.018
56906SOL    HW170742  10.045   8.078  11.092
56906SOL    HW270743  10.086   7.933  11.027
56907SOL     OW70744  10.760   8.668  10.943
56907SOL    HW170745  10.751   8.658  11.042
56907SOL    HW270746  10.856   8.661  10.917
56908SOL     OW70747   9.700   9.189  10.870
56908SOL    HW170748   9.609   9.230  10.868
56908SOL    HW270749   9.693   9.095  10.902
56909SOL     OW70750  10.984   8.331  10.564
56909SOL    HW170751  10.957   8.242  10.527
56909SOL    HW270752  10.985   8.399  10.491
56910SOL     OW70753  10.535   7.773   9.759
56910SOL    HW170754  10.600   7.699   9.748
56910SOL    HW270755  10.555   7.823   9.843
56911SOL     OW70756   9.904   8.193   9.962
56911SOL    HW170757   9.954   8.278   9.943
56911SOL    HW270758   9.816   8.195   9.914
56912SOL     OW70759  11.087   7.790  10.952
56912SOL    HW170760  11.070   7.821  10.858
56912SOL    HW270761  11.003   7.753  10.990
56913SOL     OW70762  11.040   8.382  10.827
56913SOL    HW170763  11.078   8.473  10.842
56913SOL    HW270764  11.032   8.365  10.728
56914SOL     OW70765  10.169   8.822   9.326
56914SOL    HW170766  10.123   8.837   9.414
56914SOL    HW270767  10.213   8.907   9.296
56915SOL     OW70768   9.971   9.238  10.263
56915SOL    HW170769   9.925   9.326  10.250
56915SOL    HW270770  10.070   9.250  10.256
56916SOL     OW70771  10.169   8.404  10.171
56916SOL    HW170772  10.223   8.335  10.219
56916SOL    HW270773  10.137   8.473  10.237
56917SOL     OW70774  10.393   8.432   9.397
56917SOL    HW170775  10.370   8.485   9.315
56917SOL    HW270776  10.474   8.376   9.378
56918SOL     OW70777  11.171   9.017  10.161
56918SOL    HW170778  11.100   9.005  10.091
56918SOL    HW270779  11.172   8.938  10.221
56919SOL     OW70780   9.531   8.762  11.154
56919SOL    HW170781   9.466   8.689  11.133
56919SOL    HW270782   9.535   8.776  11.252
56920SOL     OW70783   9.389   8.688   9.963
56920SOL    HW170784   9.388   8.641  10.051
56920SOL    HW270785   9.471   8.660   9.912
56921SOL     OW70786   9.982   8.839  10.934
56921SOL    HW170787   9.904   8.789  10.972
56921SOL    HW270788   9.979   8.934  10.965
56922SOL     OW70789  11.134   7.640  10.537
56922SOL    HW170790  11.130   7.550  10.581
56922SOL    HW270791  11.137   7.629  10.438
56923SOL     OW70792   9.738   7.872   9.830
56923SOL    HW170793   9.768   7.800   9.768
56923SOL    HW270794   9.699   7.832   9.913
56924SOL     OW70795  11.015   8.935  10.414
56924SOL    HW170796  10.922   8.910  10.387
56924SOL    HW270797  11.041   8.885  10.496
56925SOL     OW70798   9.627   7.995  10.590
56925SOL    HW170799   9.665   7.936  10.662
56925SOL    HW270800   9.667   7.969  10.502
56926SOL     OW70801  10.122   9.034   9.997
56926SOL    HW170802  10.154   9.044   9.903
56926SOL    HW270803  10.043   8.972   9.999
56927SOL     OW70804  10.734   7.662  10.422
56927SOL    HW170805  10.786   7.597  10.477
56927SOL    HW270806  10.685   7.725  10.483
56928SOL     OW70807  10.311   7.482  10.464
56928SOL    HW170808  10.248   7.410  10.433
56928SOL    HW270809  10.404   7.446  10.464
56929SOL     OW70810  10.080   8.778   9.611
56929SOL    HW170811  10.034   8.691   9.628
56929SOL    HW270812  10.171   8.775   9.652
56930SOL     OW70813   9.928   9.015  10.594
56930SOL    HW170814   9.923   9.097  10.651
56930SOL    HW270815  10.017   9.012  10.549
56931SOL     OW70816  10.662   7.500   9.478
56931SOL    HW170817  10.697   7.459   9.394
56931SOL    HW270818  10.572   7.462   9.498
56932SOL     OW70819  10.610   7.901  10.001
56932SOL    HW170820  10.551   7.981  10.005
56932SOL    HW270821  10.625   7.866  10.094
56933SOL     OW70822  10.903   7.669  10.192
56933SOL    HW170823  10.819   7.668  10.246
56933SOL    HW270824  10.905   7.752  10.136
56934SOL     OW70825   9.349   8.525   9.610
56934SOL    HW170826   9.448   8.514   9.601
56934SOL    HW270827   9.309   8.439   9.642
56935SOL     OW70828  10.185   9.094   9.647
56935SOL    HW170829  10.108   9.059   9.593
56935SOL    HW270830  10.153   9.165   9.709
56936SOL     OW70831   9.540   8.076  11.285
56936SOL    HW170832   9.447   8.074  11.322
56936SOL    HW270833   9.541   8.037  11.193
56937SOL     OW70834   9.535   7.723  12.168
56937SOL    HW170835   9.570   7.706  12.260
56937SOL    HW270836   9.447   7.678  12.156
56938SOL     OW70837   9.329   7.816  11.819
56938SOL    HW170838   9.247   7.859  11.858
56938SOL    HW270839   9.301   7.743  11.756
56939SOL     OW70840   9.879   8.723  12.337
56939SOL    HW170841   9.786   8.716  12.300
56939SOL    HW270842   9.890   8.812  12.381
56940SOL     OW70843  10.865   8.959  11.875
56940SOL    HW170844  10.808   8.943  11.956
56940SOL    HW270845  10.806   8.969  11.795
56941SOL     OW70846  10.445   8.151  11.889
56941SOL    HW170847  10.502   8.229  11.864
56941SOL    HW270848  10.385   8.177  11.965
56942SOL     OW70849  11.065   8.055  11.403
56942SOL    HW170850  11.053   8.042  11.304
56942SOL    HW270851  11.035   7.974  11.452
56943SOL     OW70852  10.078   8.592  12.195
56943SOL    HW170853  10.000   8.609  12.255
56943SOL    HW270854  10.112   8.679  12.159
56944SOL     OW70855   9.995   8.460  11.837
56944SOL    HW170856  10.064   8.444  11.907
56944SOL    HW270857   9.922   8.517  11.875
56945SOL     OW70858   9.645   8.883  12.233
56945SOL    HW170859   9.567   8.852  12.180
56945SOL    HW270860   9.703   8.941  12.176
56946SOL     OW70861  10.770   8.953  12.511
56946SOL    HW170862  10.794   9.047  12.537
56946SOL    HW270863  10.754   8.899  12.593
56947SOL     OW70864   9.748   7.840  12.671
56947SOL    HW170865   9.830   7.784  12.680
56947SOL    HW270866   9.667   7.782  12.675
56948SOL     OW70867  10.913   7.895  11.909
56948SOL    HW170868  10.839   7.941  11.859
56948SOL    HW270869  10.964   7.963  11.962
56949SOL     OW70870   9.541   9.161  11.655
56949SOL    HW170871   9.575   9.238  11.709
56949SOL    HW270872   9.585   9.161  11.565
56950SOL     OW70873   9.540   8.882  11.710
56950SOL    HW170874   9.514   8.978  11.710
56950SOL    HW270875   9.469   8.828  11.755
56951SOL     OW70876   9.550   8.539  12.058
56951SOL    HW170877   9.564   8.455  12.110
56951SOL    HW270878   9.495   8.603  12.113
56952SOL     OW70879   9.930   9.234  12.611
56952SOL    HW170880   9.838   9.217  12.646
56952SOL    HW270881   9.958   9.326  12.637
56953SOL     OW70882   9.916   8.412  11.295
56953SOL    HW170883   9.923   8.496  11.241
56953SOL    HW270884   9.962   8.425  11.383
56954SOL     OW70885  10.904   7.562  12.652
56954SOL    HW170886  10.886   7.629  12.580
56954SOL    HW270887  10.901   7.608  12.741
56955SOL     OW70888   9.432   8.091  11.735
56955SOL    HW170889   9.387   8.003  11.752
56955SOL    HW270890   9.431   8.145  11.819
56956SOL     OW70891  11.152   9.215  11.531
56956SOL    HW170892  11.206   9.186  11.611
56956SOL    HW270893  11.182   9.305  11.502
56957SOL     OW70894   9.337   9.044  11.289
56957SOL    HW170895   9.318   8.948  11.310
56957SOL    HW270896   9.304   9.102  11.364
56958SOL     OW70897  10.999   8.370  11.784
56958SOL    HW170898  11.094   8.341  11.792
56958SOL    HW270899  10.991   8.435  11.709
56959SOL     OW70900  10.951   8.556  11.604
56959SOL    HW170901  11.037   8.558  11.552
56959SOL    HW270902  10.965   8.603  11.692
56960SOL     OW70903   9.423   8.185  12.769
56960SOL    HW170904   9.511   8.172  12.814
56960SOL    HW270905   9.410   8.282  12.747
56961SOL     OW70906   9.923   8.813  11.898
56961SOL    HW170907   9.874   8.726  11.907
56961SOL    HW270908   9.900   8.856  11.811
56962SOL     OW70909  10.603   8.676  12.595
56962SOL    HW170910  10.640   8.603  12.537
56962SOL    HW270911  10.655   8.681  12.680
56963SOL     OW70912  10.119   7.452  11.674
56963SOL    HW170913  10.159   7.543  11.665
56963SOL    HW270914  10.019   7.460  11.680
56964SOL     OW70915   9.507   8.424  12.436
56964SOL    HW170916   9.596   8.379  12.422
56964SOL    HW270917   9.434   8.359  12.417
56965SOL     OW70918  10.835   8.447  11.362
56965SOL    HW170919  10.772   8.371  11.375
56965SOL    HW270920  10.883   8.465  11.448
56966SOL     OW70921  10.776   8.865  12.125
56966SOL    HW170922  10.717   8.871  12.205
56966SOL    HW270923  10.761   8.777  12.079
56967SOL     OW70924  10.977   9.162  11.744
56967SOL    HW170925  10.936   9.139  11.656
56967SOL    HW270926  10.959   9.088  11.809
56968SOL     OW70927   9.908   8.177  11.442
56968SOL    HW170928   9.932   8.246  11.374
56968SOL    HW270929   9.830   8.210  11.496
56969SOL     OW70930  10.591   7.793  12.116
56969SOL    HW170931  10.505   7.743  12.103
56969SOL    HW270932  10.653   7.739  12.172
56970SOL     OW70933  10.886   9.110  11.479
56970SOL    HW170934  10.975   9.156  11.482
56970SOL    HW270935  10.865   9.086  11.384
56971SOL     OW70936  10.117   8.053  12.637
56971SOL    HW170937  10.070   8.050  12.726
56971SOL    HW270938  10.066   7.998  12.571
56972SOL     OW70939  10.283   8.338  12.744
56972SOL    HW170940  10.329   8.254  12.715
56972SOL    HW270941  10.227   8.372  12.669
56973SOL     OW70942  10.301   7.858  12.414
56973SOL    HW170943  10.224   7.892  12.468
56973SOL    HW270944  10.267   7.807  12.335
56974SOL     OW70945  10.351   8.149  11.601
56974SOL    HW170946  10.377   8.145  11.697
56974SOL    HW270947  10.266   8.098  11.587
56975SOL     OW70948   9.386   8.259  11.961
56975SOL    HW170949   9.485   8.247  11.970
56975SOL    HW270950   9.362   8.354  11.982
56976SOL     OW70951   9.440   9.269  12.743
56976SOL    HW170952   9.430   9.254  12.842
56976SOL    HW270953   9.354   9.305  12.707
56977SOL     OW70954  10.175   7.796  11.367
56977SOL    HW170955  10.234   7.859  11.318
56977SOL    HW270956  10.194   7.702  11.338
56978SOL     OW70957  10.672   8.592  11.717
56978SOL    HW170958  10.755   8.563  11.669
56978SOL    HW270959  10.623   8.659  11.661
56979SOL     OW70960   9.860   7.644  12.057
56979SOL    HW170961   9.855   7.639  12.157
56979SOL    HW270962   9.862   7.740  12.028
56980SOL     OW70963  10.318   8.904  11.649
56980SOL    HW170964  10.272   8.976  11.597
56980SOL    HW270965  10.314   8.924  11.747
56981SOL     OW70966   9.661   9.249  12.025
56981SOL    HW170967   9.711   9.163  12.031
56981SOL    HW270968   9.726   9.326  12.022
56982SOL     OW70969  11.105   8.514  12.045
56982SOL    HW170970  11.043   8.499  11.969
56982SOL    HW270971  11.053   8.525  12.130
56983SOL     OW70972  10.537   8.998  12.678
56983SOL    HW170973  10.543   8.921  12.742
56983SOL    HW270974  10.485   8.972  12.598
56984SOL     OW70975   9.631   8.391  11.414
56984SOL    HW170976   9.713   8.430  11.372
56984SOL    HW270977   9.604   8.309  11.365
56985SOL     OW70978  10.768   8.183  11.900
56985SOL    HW170979  10.763   8.118  11.975
56985SOL    HW270980  10.848   8.242  11.913
56986SOL     OW70981  10.421   9.224  11.409
56986SOL    HW170982  10.361   9.162  11.459
56986SOL    HW270983  10.452   9.180  11.324
56987SOL     OW70984   9.512   7.733  12.670
56987SOL    HW170985   9.432   7.793  12.657
56987SOL    HW270986   9.502   7.684  12.756
56988SOL     OW70987  10.942   8.825  11.253
56988SOL    HW170988  10.910   8.919  11.243
56988SOL    HW270989  10.866   8.762  11.241
56989SOL     OW70990   9.774   9.191  11.495
56989SOL    HW170991   9.807   9.230  11.581
56989SOL    HW270992   9.850   9.184  11.430
56990SOL     OW70993  10.710   7.555  11.598
56990SOL    HW170994  10.686   7.518  11.508
56990SOL    HW270995  10.809   7.571  11.602
56991SOL     OW70996   9.559   9.233  12.413
56991SOL    HW170997   9.616   9.168  12.463
56991SOL    HW270998   9.543   9.200  12.320
56992SOL     OW70999  10.250   9.146  12.076
56992SOL    HW171000  10.330   9.089  12.097
56992SOL    HW271001  10.201   9.106  11.999
56993SOL     OW71002   9.692   8.148  11.652
56993SOL    HW171003   9.737   8.058  11.649
56993SOL    HW271004   9.598   8.137  11.685
56994SOL     OW71005   9.924   7.570  11.289
56994SOL    HW171006  10.022   7.548  11.296
56994SOL    HW271007   9.893   7.553  11.196
56995SOL     OW71008  10.198   8.962  12.367
56995SOL    HW171009  10.175   8.937  12.273
56995SOL    HW271010  10.259   8.893  12.406
56996SOL     OW71011  10.661   8.038  12.605
56996SOL    HW171012  10.689   7.995  12.690
56996SOL    HW271013  10.686   8.134  12.606
56997SOL     OW71014  10.113   8.850  12.096
56997SOL    HW171015  10.203   8.864  12.054
56997SOL    HW271016  10.042   8.852  12.025
56998SOL     OW71017  10.232   7.951  12.071
56998SOL    HW171018  10.207   7.942  11.975
56998SOL    HW271019  10.280   7.869  12.102
56999SOL     OW71020   9.849   7.512  11.684
56999SOL    HW171021   9.768   7.513  11.742
56999SOL    HW271022   9.852   7.595  11.629
57000SOL     OW71023  10.744   8.636  11.213
57000SOL    HW171024  10.776   8.560  11.270
57000SOL    HW271025  10.652   8.663  11.243
57001SOL     OW71026   9.607   7.483  11.343
57001SOL    HW171027   9.656   7.567  11.322
57001SOL    HW271028   9.669   7.418  11.388
57002SOL     OW71029  10.245   7.684  11.652
57002SOL    HW171030  10.197   7.725  11.574
57002SOL    HW271031  10.344   7.682  11.633
57003SOL     OW71032  10.386   8.131  12.636
57003SOL    HW171033  10.306   8.070  12.639
57003SOL    HW271034  10.467   8.078  12.612
57004SOL     OW71035  10.537   9.018  11.965
57004SOL    HW171036  10.558   9.092  11.900
57004SOL    HW271037  10.605   9.018  12.038
57005SOL     OW71038   9.769   8.600  11.913
57005SOL    HW171039   9.698   8.573  11.978
57005SOL    HW271040   9.743   8.572  11.820
57006SOL     OW71041  10.581   9.245  11.763
57006SOL    HW171042  10.625   9.309  11.699
57006SOL    HW271043  10.531   9.297  11.833
57007SOL     OW71044  10.342   7.997  11.188
57007SOL    HW171045  10.301   8.079  11.149
57007SOL    HW271046  10.406   8.023  11.261
57008SOL     OW71047   9.388   8.004  12.558
57008SOL    HW171048   9.480   8.003  12.517
57008SOL    HW271049   9.382   8.078  12.625
57009SOL     OW71050   9.871   7.670  12.319
57009SOL    HW171051   9.909   7.586  12.356
57009SOL    HW271052   9.783   7.689  12.363
57010SOL     OW71053  10.176   7.902  11.814
57010SOL    HW171054  10.144   7.974  11.752
57010SOL    HW271055  10.200   7.821  11.761
57011SOL     OW71056  10.327   7.487  11.925
57011SOL    HW171057  10.255   7.492  11.856
57011SOL    HW271058  10.303   7.418  11.994
57012SOL     OW71059  10.739   8.621  12.039
57012SOL    HW171060  10.684   8.537  12.032
57012SOL    HW271061  10.765   8.650  11.947
57013SOL     OW71062  10.776   8.038  12.164
57013SOL    HW171063  10.746   7.943  12.171
57013SOL    HW271064  10.849   8.054  12.230
57014SOL     OW71065  11.167   8.281  11.549
57014SOL    HW171066  11.209   8.217  11.613
57014SOL    HW271067  11.129   8.230  11.471
57015SOL     OW71068   9.798   8.833  11.346
57015SOL    HW171069   9.711   8.818  11.393
57015SOL    HW271070   9.781   8.859  11.251
57016SOL     OW71071  10.974   8.728  11.829
57016SOL    HW171072  11.073   8.736  11.843
57016SOL    HW271073  10.929   8.812  11.860
57017SOL     OW71074  10.700   8.023  11.250
57017SOL    HW171075  10.646   8.002  11.331
57017SOL    HW271076  10.791   7.982  11.259
57018SOL     OW71077   9.837   7.704  11.500
57018SOL    HW171078   9.864   7.645  11.425
57018SOL    HW271079   9.837   7.799  11.469
57019SOL     OW71080  11.064   8.671  12.760
57019SOL    HW171081  11.155   8.632  12.747
57019SOL    HW271082  11.072   8.767  12.784
57020SOL     OW71083  10.374   8.795  12.512
57020SOL    HW171084  10.294   8.772  12.567
57020SOL    HW271085  10.457   8.769  12.561
57021SOL     OW71086  10.421   8.643  12.272
57021SOL    HW171087  10.381   8.687  12.353
57021SOL    HW271088  10.380   8.680  12.189
57022SOL     OW71089  10.948   8.547  12.251
57022SOL    HW171090  10.953   8.628  12.310
57022SOL    HW271091  10.862   8.549  12.200
57023SOL     OW71092  10.225   7.537  12.574
57023SOL    HW171093  10.250   7.517  12.479
57023SOL    HW271094  10.297   7.593  12.616
57024SOL     OW71095  10.015   8.498  11.540
57024SOL    HW171096  10.001   8.505  11.639
57024SOL    HW271097  10.099   8.447  11.522
57025SOL     OW71098   9.720   8.261  12.423
57025SOL    HW171099   9.806   8.273  12.473
57025SOL    HW271100   9.678   8.174  12.450
57026SOL     OW71101  10.584   7.834  12.434
57026SOL    HW171102  10.605   7.908  12.498
57026SOL    HW271103  10.495   7.851  12.391
57027SOL     OW71104   9.374   9.012  12.503
57027SOL    HW171105   9.328   9.094  12.469
57027SOL    HW271106   9.472   9.031  12.512
57028SOL     OW71107   9.677   8.548  11.673
57028SOL    HW171108   9.670   8.631  11.617
57028SOL    HW271109   9.681   8.468  11.613
57029SOL     OW71110   9.876   7.985  12.037
57029SOL    HW171111   9.888   8.051  11.963
57029SOL    HW271112   9.922   8.019  12.120
57030SOL     OW71113  10.562   8.796  11.560
57030SOL    HW171114  10.612   8.873  11.600
57030SOL    HW271115  10.467   8.798  11.592
57031SOL     OW71116  10.582   8.893  12.314
57031SOL    HW171117  10.629   8.906  12.401
57031SOL    HW271118  10.516   8.819  12.323
57032SOL     OW71119  10.892   8.087  11.644
57032SOL    HW171120  10.861   8.148  11.717
57032SOL    HW271121  10.942   8.139  11.575
57033SOL     OW71122   9.664   8.958  12.501
57033SOL    HW171123   9.643   8.914  12.414
57033SOL    HW271124   9.761   8.984  12.504
57034SOL     OW71125   9.712   8.199  12.770
57034SOL    HW171126   9.780   8.254  12.723
57034SOL    HW271127   9.752   8.111  12.797
57035SOL     OW71128  10.897   8.227  12.842
57035SOL    HW171129  10.805   8.265  12.837
57035SOL    HW271130  10.957   8.274  12.777
57036SOL     OW71131   9.883   8.318  12.201
57036SOL    HW171132   9.927   8.407  12.192
57036SOL    HW271133   9.820   8.318  12.278
57037SOL     OW71134  10.670   8.310  12.217
57037SOL    HW171135  10.595   8.310  12.151
57037SOL    HW271136  10.707   8.218  12.226
57038SOL     OW71137  10.519   7.973  11.447
57038SOL    HW171138  10.532   7.889  11.501
57038SOL    HW271139  10.490   8.047  11.507
57039SOL     OW71140   9.617   7.661  12.403
57039SOL    HW171141   9.594   7.698  12.493
57039SOL    HW271142   9.587   7.566  12.397
57040SOL     OW71143   9.347   8.758  12.454
57040SOL    HW171144   9.400   8.709  12.522
57040SOL    HW271145   9.369   8.856  12.459
57041SOL     OW71146  10.042   8.082  12.236
57041SOL    HW171147  10.101   8.056  12.160
57041SOL    HW271148  10.014   8.178  12.225
57042SOL     OW71149   9.617   7.511  11.790
57042SOL    HW171150   9.606   7.605  11.823
57042SOL    HW271151   9.612   7.448  11.867
57043SOL     OW71152  10.932   7.815  11.546
57043SOL    HW171153  10.934   7.739  11.610
57043SOL    HW271154  10.884   7.892  11.586
57044SOL     OW71155  10.333   8.214  12.138
57044SOL    HW171156  10.348   8.235  12.234
57044SOL    HW271157  10.303   8.119  12.129
57045SOL     OW71158  10.850   7.722  11.297
57045SOL    HW171159  10.789   7.647  11.320
57045SOL    HW271160  10.872   7.774  11.380
57046SOL     OW71161  10.613   8.286  11.214
57046SOL    HW171162  10.647   8.193  11.229
57046SOL    HW271163  10.631   8.313  11.119
57047SOL     OW71164  10.378   8.781  12.021
57047SOL    HW171165  10.385   8.697  11.966
57047SOL    HW271166  10.440   8.850  11.985
57048SOL     OW71167   9.629   8.258  12.121
57048SOL    HW171168   9.722   8.294  12.126
57048SOL    HW271169   9.623   8.173  12.173
57049SOL     OW71170   9.649   7.957  12.178
57049SOL    HW171171   9.597   7.874  12.161
57049SOL    HW271172   9.726   7.962  12.114
57050SOL     OW71173  10.470   7.655  12.649
57050SOL    HW171174  10.470   7.719  12.726
57050SOL    HW271175  10.498   7.703  12.566
57051SOL     OW71176   9.318   8.774  11.372
57051SOL    HW171177   9.225   8.795  11.341
57051SOL    HW271178   9.328   8.675  11.385
57052SOL     OW71179   9.398   9.249  12.099
57052SOL    HW171180   9.356   9.163  12.072
57052SOL    HW271181   9.492   9.252  12.065
57053SOL     OW71182   9.814   9.016  12.082
57053SOL    HW171183   9.880   9.090  12.091
57053SOL    HW271184   9.858   8.937  12.040
57054SOL     OW71185  10.312   8.244  12.410
57054SOL    HW171186  10.353   8.212  12.496
57054SOL    HW271187  10.216   8.217  12.407
57055SOL     OW71188   9.350   7.992  12.286
57055SOL    HW171189   9.435   7.959  12.245
57055SOL    HW271190   9.363   8.007  12.384
57056SOL     OW71191  10.125   8.020  11.497
57056SOL    HW171192  10.132   7.931  11.451
57056SOL    HW271193  10.031   8.054  11.489
57057SOL     OW71194  10.967   8.052  12.378
57057SOL    HW171195  10.929   7.983  12.440
57057SOL    HW271196  11.049   8.016  12.334
57058SOL     OW71197   9.562   9.012  12.916
57058SOL    HW171198   9.532   9.069  12.992
57058SOL    HW271199   9.555   8.915  12.942
57059SOL     OW71200   9.981   7.912  12.441
57059SOL    HW171201   9.947   7.823  12.411
57059SOL    HW271202  10.007   7.966  12.361
57060SOL     OW71203  10.240   9.126  12.637
57060SOL    HW171204  10.216   9.108  12.542
57060SOL    HW271205  10.270   9.220  12.647
57061SOL     OW71206   9.783   7.948  11.363
57061SOL    HW171207   9.844   8.028  11.367
57061SOL    HW271208   9.688   7.979  11.370
57062SOL     OW71209   9.469   8.585  12.638
57062SOL    HW171210   9.491   8.524  12.714
57062SOL    HW271211   9.479   8.536  12.552
57063SOL     OW71212  10.657   8.507  12.406
57063SOL    HW171213  10.681   8.444  12.332
57063SOL    HW271214  10.567   8.547  12.388
57064SOL     OW71215  10.612   8.303  11.481
57064SOL    HW171216  10.526   8.272  11.523
57064SOL    HW271217  10.608   8.289  11.382
57065SOL     OW71218  11.069   9.195  12.326
57065SOL    HW171219  11.130   9.225  12.253
57065SOL    HW271220  11.031   9.106  12.304
57066SOL     OW71221  10.562   9.179  12.300
57066SOL    HW171222  10.646   9.184  12.246
57066SOL    HW271223  10.539   9.083  12.318
57067SOL     OW71224   9.393   8.706  12.194
57067SOL    HW171225   9.388   8.705  12.294
57067SOL    HW271226   9.310   8.665  12.156
57068SOL     OW71227  11.036   7.583  11.695
57068SOL    HW171228  11.109   7.566  11.628
57068SOL    HW271229  11.005   7.496  11.733
57069SOL     OW71230  10.698   9.021  11.649
57069SOL    HW171231  10.765   9.033  11.575
57069SOL    HW271232  10.658   9.110  11.672
57070SOL     OW71233  10.590   8.375  11.844
57070SOL    HW171234  10.650   8.294  11.846
57070SOL    HW271235  10.630   8.444  11.784
57071SOL     OW71236  10.140   8.721  12.594
57071SOL    HW171237  10.135   8.754  12.689
57071SOL    HW271238  10.054   8.740  12.548
57072SOL     OW71239   9.982   9.064  11.326
57072SOL    HW171240   9.991   9.074  11.227
57072SOL    HW271241   9.942   8.975  11.347
57073SOL     OW71242  10.960   9.168  12.566
57073SOL    HW171243  11.013   9.178  12.482
57073SOL    HW271244  10.933   9.258  12.600
57074SOL     OW71245  11.151   7.623  12.135
57074SOL    HW171246  11.190   7.538  12.099
57074SOL    HW271247  11.053   7.625  12.116
57075SOL     OW71248   9.573   7.774  11.892
57075SOL    HW171249   9.494   7.825  11.858
57075SOL    HW271250   9.564   7.759  11.990
57076SOL     OW71251  10.504   9.060  11.203
57076SOL    HW171252  10.510   8.967  11.240
57076SOL    HW271253  10.445   9.060  11.123
57077SOL     OW71254  10.132   8.450  12.544
57077SOL    HW171255  10.172   8.449  12.452
57077SOL    HW271256  10.142   8.542  12.584
57078SOL     OW71257  10.226   8.358  11.463
57078SOL    HW171258  10.289   8.396  11.395
57078SOL    HW271259  10.266   8.275  11.502
57079SOL     OW71260  10.814   9.055  11.216
57079SOL    HW171261  10.722   9.092  11.223
57079SOL    HW271262  10.852   9.075  11.126
57080SOL     OW71263   9.682   8.736  12.662
57080SOL    HW171264   9.669   8.829  12.628
57080SOL    HW271265   9.598   8.684  12.649
57081SOL     OW71266  10.924   8.740  12.461
57081SOL    HW171267  10.984   8.743  12.541
57081SOL    HW271268  10.849   8.804  12.474
57082SOL     OW71269  10.349   8.546  11.868
57082SOL    HW171270  10.279   8.499  11.922
57082SOL    HW271271  10.408   8.478  11.825
57083SOL     OW71272  10.324   7.684  12.143
57083SOL    HW171273  10.316   7.648  12.050
57083SOL    HW271274  10.322   7.608  12.208
57084SOL     OW71275   9.900   8.935  11.663
57084SOL    HW171276   9.942   8.877  11.593
57084SOL    HW271277   9.856   9.014  11.619
57085SOL     OW71278  11.019   7.833  12.553
57085SOL    HW171279  11.092   7.902  12.557
57085SOL    HW271280  11.047   7.758  12.494
57086SOL     OW71281   9.565   8.796  11.462
57086SOL    HW171282   9.469   8.797  11.435
57086SOL    HW271283   9.577   8.849  11.546
57087SOL     OW71284   9.415   8.461  12.898
57087SOL    HW171285   9.338   8.428  12.952
57087SOL    HW271286   9.500   8.431  12.940
57088SOL     OW71287   9.982   7.651  12.661
57088SOL    HW171288  10.072   7.635  12.621
57088SOL    HW271289   9.990   7.656  12.760
57089SOL     OW71290   9.385   7.793  11.205
57089SOL    HW171291   9.293   7.765  11.176
57089SOL    HW271292   9.416   7.870  11.149
57090SOL     OW71293  10.750   8.304  12.570
57090SOL    HW171294  10.693   8.356  12.507
57090SOL    HW271295  10.846   8.316  12.546
57091SOL     OW71296   9.382   7.614  11.490
57091SOL    HW171297   9.365   7.697  11.436
57091SOL    HW271298   9.472   7.577  11.468
57092SOL     OW71299  10.493   8.783  11.291
57092SOL    HW171300  10.394   8.772  11.293
57092SOL    HW271301  10.527   8.798  11.384
57093SOL     OW71302   9.923   8.290  12.603
57093SOL    HW171303   9.979   8.371  12.586
57093SOL    HW271304   9.982   8.210  12.606
57094SOL     OW71305  10.803   9.215  12.131
57094SOL    HW171306  10.836   9.279  12.062
57094SOL    HW271307  10.869   9.209  12.206
57095SOL     OW71308  10.026   8.013  12.880
57095SOL    HW171309  10.045   8.078  12.954
57095SOL    HW271310  10.086   7.933  12.889
57096SOL     OW71311   9.700   9.189  12.732
57096SOL    HW171312   9.609   9.230  12.730
57096SOL    HW271313   9.693   9.095  12.764
57097SOL     OW71314  10.984   8.331  12.426
57097SOL    HW171315  10.957   8.242  12.389
57097SOL    HW271316  10.985   8.399  12.353
57098SOL     OW71317  10.535   7.773  11.621
57098SOL    HW171318  10.600   7.699  11.610
57098SOL    HW271319  10.555   7.823  11.705
57099SOL     OW71320   9.904   8.193  11.824
57099SOL    HW171321   9.954   8.278  11.805
57099SOL    HW271322   9.816   8.195  11.776
57100SOL     OW71323  11.087   7.790  12.814
57100SOL    HW171324  11.070   7.821  12.720
57100SOL    HW271325  11.003   7.753  12.852
57101SOL     OW71326  11.040   8.382  12.689
57101SOL    HW171327  11.078   8.473  12.704
57101SOL    HW271328  11.032   8.365  12.590
57102SOL     OW71329  10.169   8.822  11.188
57102SOL    HW171330  10.123   8.837  11.276
57102SOL    HW271331  10.213   8.907  11.158
57103SOL     OW71332   9.971   9.238  12.125
57103SOL    HW171333   9.925   9.326  12.112
57103SOL    HW271334  10.070   9.250  12.118
57104SOL     OW71335  10.169   8.404  12.033
57104SOL    HW171336  10.223   8.335  12.081
57104SOL    HW271337  10.137   8.473  12.099
57105SOL     OW71338  10.393   8.432  11.259
57105SOL    HW171339  10.370   8.485  11.177
57105SOL    HW271340  10.474   8.376  11.240
57106SOL     OW71341  11.171   9.017  12.023
57106SOL    HW171342  11.100   9.005  11.953
57106SOL    HW271343  11.172   8.938  12.083
57107SOL     OW71344   9.389   8.688  11.825
57107SOL    HW171345   9.388   8.641  11.913
57107SOL    HW271346   9.471   8.660  11.774
57108SOL     OW71347   9.982   8.839  12.796
57108SOL    HW171348   9.904   8.789  12.834
57108SOL    HW271349   9.979   8.934  12.827
57109SOL     OW71350  11.134   7.640  12.399
57109SOL    HW171351  11.130   7.550  12.443
57109SOL    HW271352  11.137   7.629  12.300
57110SOL     OW71353   9.738   7.872  11.692
57110SOL    HW171354   9.768   7.800  11.630
57110SOL    HW271355   9.699   7.832  11.775
57111SOL     OW71356  11.015   8.935  12.276
57111SOL    HW171357  10.922   8.910  12.249
57111SOL    HW271358  11.041   8.885  12.358
57112SOL     OW71359   9.627   7.995  12.452
57112SOL    HW171360   9.665   7.936  12.524
57112SOL    HW271361   9.667   7.969  12.364
57113SOL     OW71362  10.122   9.034  11.859
57113SOL    HW171363  10.154   9.044  11.765
57113SOL    HW271364  10.043   8.972  11.861
57114SOL     OW71365  10.734   7.662  12.284
57114SOL    HW171366  10.786   7.597  12.339
57114SOL    HW271367  10.685   7.725  12.345
57115SOL     OW71368  10.311   7.482  12.326
57115SOL    HW171369  10.248   7.410  12.295
57115SOL    HW271370  10.404   7.446  12.326
57116SOL     OW71371  10.080   8.778  11.473
57116SOL    HW171372  10.034   8.691  11.490
57116SOL    HW271373  10.171   8.775  11.514
57117SOL     OW71374   9.928   9.015  12.456
57117SOL    HW171375   9.923   9.097  12.513
57117SOL    HW271376  10.017   9.012  12.411
57118SOL     OW71377  10.662   7.500  11.340
57118SOL    HW171378  10.697   7.459  11.256
57118SOL    HW271379  10.572   7.462  11.360
57119SOL     OW71380  10.610   7.901  11.863
57119SOL    HW171381  10.551   7.981  11.867
57119SOL    HW271382  10.625   7.866  11.956
57120SOL     OW71383  10.903   7.669  12.054
57120SOL    HW171384  10.819   7.668  12.108
57120SOL    HW271385  10.905   7.752  11.998
57121SOL     OW71386   9.349   8.525  11.472
57121SOL    HW171387   9.448   8.514  11.463
57121SOL    HW271388   9.309   8.439  11.504
57122SOL     OW71389  10.185   9.094  11.509
57122SOL    HW171390  10.108   9.059  11.455
57122SOL    HW271391  10.153   9.165  11.571
57123SOL     OW71392   9.540   9.938   0.113
57123SOL    HW171393   9.447   9.936   0.150
57123SOL    HW271394   9.541   9.899   0.021
57124SOL     OW71395   9.535   9.585   0.996
57124SOL    HW171396   9.570   9.568   1.088
57124SOL    HW271397   9.447   9.540   0.984
57125SOL     OW71398   9.329   9.678   0.647
57125SOL    HW171399   9.247   9.721   0.686
57125SOL    HW271400   9.301   9.605   0.584
57126SOL     OW71401   9.879  10.585   1.165
57126SOL    HW171402   9.786  10.578   1.128
57126SOL    HW271403   9.890  10.674   1.209
57127SOL     OW71404  10.865  10.821   0.703
57127SOL    HW171405  10.808  10.805   0.784
57127SOL    HW271406  10.806  10.831   0.623
57128SOL     OW71407  10.445  10.013   0.717
57128SOL    HW171408  10.502  10.091   0.692
57128SOL    HW271409  10.385  10.039   0.793
57129SOL     OW71410  11.065   9.917   0.231
57129SOL    HW171411  11.053   9.904   0.132
57129SOL    HW271412  11.035   9.836   0.280
57130SOL     OW71413  10.078  10.454   1.023
57130SOL    HW171414  10.000  10.471   1.083
57130SOL    HW271415  10.112  10.541   0.987
57131SOL     OW71416  10.160  10.108   1.823
57131SOL    HW171417  10.156  10.184   1.888
57131SOL    HW271418  10.182  10.144   1.732
57132SOL     OW71419   9.995  10.322   0.665
57132SOL    HW171420  10.064  10.306   0.735
57132SOL    HW271421   9.922  10.379   0.703
57133SOL     OW71422   9.996  10.471   1.803
57133SOL    HW171423  10.056  10.550   1.817
57133SOL    HW271424   9.910  10.502   1.762
57134SOL     OW71425   9.645  10.745   1.061
57134SOL    HW171426   9.567  10.714   1.008
57134SOL    HW271427   9.703  10.803   1.004
57135SOL     OW71428  10.770  10.815   1.339
57135SOL    HW171429  10.794  10.909   1.365
57135SOL    HW271430  10.754  10.761   1.421
57136SOL     OW71431   9.748   9.702   1.499
57136SOL    HW171432   9.830   9.646   1.508
57136SOL    HW271433   9.667   9.644   1.503
57137SOL     OW71434  10.913   9.757   0.737
57137SOL    HW171435  10.839   9.803   0.687
57137SOL    HW271436  10.964   9.825   0.790
57138SOL     OW71437   9.541  11.023   0.483
57138SOL    HW171438   9.575  11.100   0.537
57138SOL    HW271439   9.585  11.023   0.393
57139SOL     OW71440  10.437  10.651   1.690
57139SOL    HW171441  10.484  10.651   1.778
57139SOL    HW271442  10.389  10.564   1.679
57140SOL     OW71443   9.540  10.744   0.538
57140SOL    HW171444   9.514  10.840   0.538
57140SOL    HW271445   9.469  10.690   0.583
57141SOL     OW71446   9.550  10.401   0.886
57141SOL    HW171447   9.564  10.317   0.938
57141SOL    HW271448   9.495  10.465   0.941
57142SOL     OW71449   9.930  11.096   1.439
57142SOL    HW171450   9.838  11.079   1.474
57142SOL    HW271451   9.958  11.188   1.465
57143SOL     OW71452   9.916  10.274   0.123
57143SOL    HW171453   9.923  10.358   0.069
57143SOL    HW271454   9.962  10.287   0.211
57144SOL     OW71455  10.904   9.424   1.480
57144SOL    HW171456  10.886   9.491   1.408
57144SOL    HW271457  10.901   9.470   1.569
57145SOL     OW71458   9.432   9.953   0.563
57145SOL    HW171459   9.387   9.865   0.580
57145SOL    HW271460   9.431  10.007   0.647
57146SOL     OW71461  11.152  11.077   0.359
57146SOL    HW171462  11.206  11.048   0.439
57146SOL    HW271463  11.182  11.167   0.330
57147SOL     OW71464   9.337  10.906   0.117
57147SOL    HW171465   9.318  10.810   0.138
57147SOL    HW271466   9.304  10.964   0.192
57148SOL     OW71467  10.999  10.232   0.612
57148SOL    HW171468  11.094  10.203   0.620
57148SOL    HW271469  10.991  10.297   0.537
57149SOL     OW71470  10.951  10.418   0.432
57149SOL    HW171471  11.037  10.420   0.380
57149SOL    HW271472  10.965  10.465   0.520
57150SOL     OW71473   9.423  10.047   1.597
57150SOL    HW171474   9.511  10.034   1.642
57150SOL    HW271475   9.410  10.144   1.575
57151SOL     OW71476   9.923  10.675   0.726
57151SOL    HW171477   9.874  10.588   0.735
57151SOL    HW271478   9.900  10.718   0.639
57152SOL     OW71479  10.603  10.538   1.423
57152SOL    HW171480  10.640  10.465   1.365
57152SOL    HW271481  10.655  10.543   1.508
57153SOL     OW71482  10.119   9.314   0.502
57153SOL    HW171483  10.159   9.405   0.493
57153SOL    HW271484  10.019   9.322   0.508
57154SOL     OW71485   9.507  10.286   1.264
57154SOL    HW171486   9.596  10.241   1.250
57154SOL    HW271487   9.434  10.221   1.245
57155SOL     OW71488  10.835  10.309   0.190
57155SOL    HW171489  10.772  10.233   0.203
57155SOL    HW271490  10.883  10.327   0.276
57156SOL     OW71491  10.497  11.102   1.616
57156SOL    HW171492  10.521  11.162   1.540
57156SOL    HW271493  10.504  11.007   1.586
57157SOL     OW71494   9.627   9.561   1.801
57157SOL    HW171495   9.698   9.632   1.807
57157SOL    HW271496   9.539   9.600   1.829
57158SOL     OW71497  10.776  10.727   0.953
57158SOL    HW171498  10.717  10.733   1.033
57158SOL    HW271499  10.761  10.639   0.907
57159SOL     OW71500  10.977  11.024   0.572
57159SOL    HW171501  10.936  11.001   0.484
57159SOL    HW271502  10.959  10.950   0.637
57160SOL     OW71503   9.908  10.039   0.270
57160SOL    HW171504   9.932  10.108   0.202
57160SOL    HW271505   9.830  10.072   0.324
57161SOL     OW71506  10.591   9.655   0.944
57161SOL    HW171507  10.505   9.605   0.931
57161SOL    HW271508  10.653   9.601   1.000
57162SOL     OW71509  10.886  10.972   0.307
57162SOL    HW171510  10.975  11.018   0.310
57162SOL    HW271511  10.865  10.948   0.212
57163SOL     OW71512  10.117   9.915   1.465
57163SOL    HW171513  10.070   9.912   1.554
57163SOL    HW271514  10.066   9.860   1.399
57164SOL     OW71515  10.704   9.779   1.674
57164SOL    HW171516  10.684   9.822   1.762
57164SOL    HW271517  10.782   9.717   1.683
57165SOL     OW71518  10.283  10.200   1.572
57165SOL    HW171519  10.329  10.116   1.543
57165SOL    HW271520  10.227  10.234   1.497
57166SOL     OW71521  10.301   9.720   1.242
57166SOL    HW171522  10.224   9.754   1.296
57166SOL    HW271523  10.267   9.669   1.163
57167SOL     OW71524  10.351  10.011   0.429
57167SOL    HW171525  10.377  10.007   0.525
57167SOL    HW271526  10.266   9.960   0.415
57168SOL     OW71527   9.386  10.121   0.789
57168SOL    HW171528   9.485  10.109   0.798
57168SOL    HW271529   9.362  10.216   0.810
57169SOL     OW71530   9.440  11.131   1.571
57169SOL    HW171531   9.430  11.116   1.670
57169SOL    HW271532   9.354  11.167   1.535
57170SOL     OW71533  10.175   9.658   0.195
57170SOL    HW171534  10.234   9.721   0.146
57170SOL    HW271535  10.194   9.564   0.166
57171SOL     OW71536  11.029   9.895   1.831
57171SOL    HW171537  11.003   9.984   1.795
57171SOL    HW271538  11.027   9.827   1.758
57172SOL     OW71539  10.672  10.454   0.545
57172SOL    HW171540  10.755  10.425   0.497
57172SOL    HW271541  10.623  10.521   0.489
57173SOL     OW71542   9.860   9.506   0.885
57173SOL    HW171543   9.855   9.501   0.985
57173SOL    HW271544   9.862   9.602   0.856
57174SOL     OW71545  10.318  10.766   0.477
57174SOL    HW171546  10.272  10.838   0.425
57174SOL    HW271547  10.314  10.786   0.575
57175SOL     OW71548   9.661  11.111   0.853
57175SOL    HW171549   9.711  11.025   0.859
57175SOL    HW271550   9.726  11.188   0.850
57176SOL     OW71551  11.105  10.376   0.873
57176SOL    HW171552  11.043  10.361   0.797
57176SOL    HW271553  11.053  10.387   0.958
57177SOL     OW71554  10.537  10.860   1.506
57177SOL    HW171555  10.543  10.783   1.570
57177SOL    HW271556  10.485  10.834   1.426
57178SOL     OW71557   9.631  10.253   0.242
57178SOL    HW171558   9.713  10.292   0.200
57178SOL    HW271559   9.604  10.171   0.193
57179SOL     OW71560  10.768  10.045   0.728
57179SOL    HW171561  10.763   9.980   0.803
57179SOL    HW271562  10.848  10.104   0.741
57180SOL     OW71563   9.771  10.576   1.727
57180SOL    HW171564   9.721  10.577   1.641
57180SOL    HW271565   9.708  10.558   1.803
57181SOL     OW71566  10.421  11.086   0.237
57181SOL    HW171567  10.361  11.024   0.287
57181SOL    HW271568  10.452  11.042   0.152
57182SOL     OW71569   9.512   9.595   1.498
57182SOL    HW171570   9.432   9.655   1.485
57182SOL    HW271571   9.502   9.546   1.584
57183SOL     OW71572  10.942  10.687   0.081
57183SOL    HW171573  10.910  10.781   0.071
57183SOL    HW271574  10.866  10.624   0.069
57184SOL     OW71575   9.774  11.053   0.323
57184SOL    HW171576   9.807  11.092   0.409
57184SOL    HW271577   9.850  11.046   0.258
57185SOL     OW71578  10.710   9.417   0.426
57185SOL    HW171579  10.686   9.380   0.336
57185SOL    HW271580  10.809   9.433   0.430
57186SOL     OW71581   9.559  11.095   1.241
57186SOL    HW171582   9.616  11.030   1.291
57186SOL    HW271583   9.543  11.062   1.148
57187SOL     OW71584  10.250  11.008   0.904
57187SOL    HW171585  10.330  10.951   0.925
57187SOL    HW271586  10.201  10.968   0.827
57188SOL     OW71587   9.692  10.010   0.480
57188SOL    HW171588   9.737   9.920   0.477
57188SOL    HW271589   9.598   9.999   0.513
57189SOL     OW71590  10.857   9.532   1.729
57189SOL    HW171591  10.852   9.569   1.821
57189SOL    HW271592  10.785   9.463   1.717
57190SOL     OW71593   9.924   9.432   0.117
57190SOL    HW171594  10.022   9.410   0.124
57190SOL    HW271595   9.893   9.415   0.024
57191SOL     OW71596  10.091   9.574   1.749
57191SOL    HW171597  10.158   9.513   1.792
57191SOL    HW271598  10.018   9.593   1.814
57192SOL     OW71599  10.198  10.824   1.195
57192SOL    HW171600  10.175  10.799   1.101
57192SOL    HW271601  10.259  10.755   1.234
57193SOL     OW71602  10.661   9.900   1.433
57193SOL    HW171603  10.689   9.857   1.518
57193SOL    HW271604  10.686   9.996   1.434
57194SOL     OW71605  10.113  10.712   0.924
57194SOL    HW171606  10.203  10.726   0.882
57194SOL    HW271607  10.042  10.714   0.853
57195SOL     OW71608  10.232   9.813   0.899
57195SOL    HW171609  10.207   9.804   0.803
57195SOL    HW271610  10.280   9.731   0.930
57196SOL     OW71611   9.849   9.374   0.512
57196SOL    HW171612   9.768   9.375   0.570
57196SOL    HW271613   9.852   9.457   0.457
57197SOL     OW71614  10.744  10.498   0.041
57197SOL    HW171615  10.776  10.422   0.098
57197SOL    HW271616  10.652  10.525   0.071
57198SOL     OW71617   9.607   9.345   0.171
57198SOL    HW171618   9.656   9.429   0.150
57198SOL    HW271619   9.669   9.280   0.216
57199SOL     OW71620  10.245   9.546   0.480
57199SOL    HW171621  10.197   9.587   0.402
57199SOL    HW271622  10.344   9.544   0.461
57200SOL     OW71623  10.386   9.993   1.464
57200SOL    HW171624  10.306   9.932   1.467
57200SOL    HW271625  10.467   9.940   1.440
57201SOL     OW71626  10.537  10.880   0.793
57201SOL    HW171627  10.558  10.954   0.728
57201SOL    HW271628  10.605  10.880   0.866
57202SOL     OW71629   9.769  10.462   0.741
57202SOL    HW171630   9.698  10.435   0.806
57202SOL    HW271631   9.743  10.434   0.648
57203SOL     OW71632  10.581  11.107   0.591
57203SOL    HW171633  10.625  11.171   0.527
57203SOL    HW271634  10.531  11.159   0.661
57204SOL     OW71635  10.342   9.859   0.016
57204SOL    HW171636  10.301   9.941  -0.023
57204SOL    HW271637  10.406   9.885   0.089
57205SOL     OW71638   9.388   9.866   1.386
57205SOL    HW171639   9.480   9.865   1.345
57205SOL    HW271640   9.382   9.940   1.453
57206SOL     OW71641   9.871   9.532   1.147
57206SOL    HW171642   9.909   9.448   1.184
57206SOL    HW271643   9.783   9.551   1.191
57207SOL     OW71644  10.176   9.764   0.642
57207SOL    HW171645  10.144   9.836   0.580
57207SOL    HW271646  10.200   9.683   0.589
57208SOL     OW71647  10.327   9.349   0.753
57208SOL    HW171648  10.255   9.354   0.684
57208SOL    HW271649  10.303   9.280   0.822
57209SOL     OW71650  10.739  10.483   0.867
57209SOL    HW171651  10.684  10.399   0.860
57209SOL    HW271652  10.765  10.512   0.775
57210SOL     OW71653  10.776   9.900   0.992
57210SOL    HW171654  10.746   9.805   0.999
57210SOL    HW271655  10.849   9.916   1.058
57211SOL     OW71656  11.167  10.143   0.377
57211SOL    HW171657  11.209  10.079   0.441
57211SOL    HW271658  11.129  10.092   0.299
57212SOL     OW71659   9.798  10.695   0.174
57212SOL    HW171660   9.711  10.680   0.221
57212SOL    HW271661   9.781  10.721   0.079
57213SOL     OW71662  10.974  10.590   0.657
57213SOL    HW171663  11.073  10.598   0.671
57213SOL    HW271664  10.929  10.674   0.688
57214SOL     OW71665  10.700   9.885   0.078
57214SOL    HW171666  10.646   9.864   0.159
57214SOL    HW271667  10.791   9.844   0.087
57215SOL     OW71668   9.837   9.566   0.328
57215SOL    HW171669   9.864   9.507   0.253
57215SOL    HW271670   9.837   9.661   0.297
57216SOL     OW71671  11.064  10.533   1.588
57216SOL    HW171672  11.155  10.494   1.575
57216SOL    HW271673  11.072  10.629   1.612
57217SOL     OW71674  10.374  10.657   1.340
57217SOL    HW171675  10.294  10.634   1.395
57217SOL    HW271676  10.457  10.631   1.389
57218SOL     OW71677  10.902  10.939   1.625
57218SOL    HW171678  10.929  10.973   1.535
57218SOL    HW271679  10.981  10.901   1.671
57219SOL     OW71680  10.421  10.505   1.100
57219SOL    HW171681  10.381  10.549   1.181
57219SOL    HW271682  10.380  10.542   1.017
57220SOL     OW71683  10.948  10.409   1.079
57220SOL    HW171684  10.953  10.490   1.138
57220SOL    HW271685  10.862  10.411   1.028
57221SOL     OW71686  10.225   9.399   1.402
57221SOL    HW171687  10.250   9.379   1.307
57221SOL    HW271688  10.297   9.455   1.444
57222SOL     OW71689  10.290  10.426   1.719
57222SOL    HW171690  10.191  10.432   1.729
57222SOL    HW271691  10.313  10.346   1.663
57223SOL     OW71692  10.015  10.360   0.368
57223SOL    HW171693  10.001  10.367   0.467
57223SOL    HW271694  10.099  10.309   0.350
57224SOL     OW71695   9.720  10.123   1.251
57224SOL    HW171696   9.806  10.135   1.301
57224SOL    HW271697   9.678  10.036   1.278
57225SOL     OW71698  10.584   9.696   1.262
57225SOL    HW171699  10.605   9.770   1.326
57225SOL    HW271700  10.495   9.713   1.219
57226SOL     OW71701   9.374  10.874   1.331
57226SOL    HW171702   9.328  10.956   1.297
57226SOL    HW271703   9.472  10.893   1.340
57227SOL     OW71704   9.677  10.410   0.501
57227SOL    HW171705   9.670  10.493   0.445
57227SOL    HW271706   9.681  10.330   0.441
57228SOL     OW71707   9.876   9.847   0.865
57228SOL    HW171708   9.888   9.913   0.791
57228SOL    HW271709   9.922   9.881   0.948
57229SOL     OW71710  10.562  10.658   0.388
57229SOL    HW171711  10.612  10.735   0.428
57229SOL    HW271712  10.467  10.660   0.420
57230SOL     OW71713  10.582  10.755   1.142
57230SOL    HW171714  10.629  10.768   1.229
57230SOL    HW271715  10.516  10.681   1.151
57231SOL     OW71716  10.892   9.949   0.472
57231SOL    HW171717  10.861  10.010   0.545
57231SOL    HW271718  10.942  10.001   0.403
57232SOL     OW71719   9.664  10.820   1.329
57232SOL    HW171720   9.643  10.776   1.242
57232SOL    HW271721   9.761  10.846   1.332
57233SOL     OW71722   9.712  10.061   1.598
57233SOL    HW171723   9.780  10.116   1.551
57233SOL    HW271724   9.752   9.973   1.625
57234SOL     OW71725  10.897  10.089   1.670
57234SOL    HW171726  10.805  10.127   1.665
57234SOL    HW271727  10.957  10.136   1.605
57235SOL     OW71728  10.323   9.415   1.770
57235SOL    HW171729  10.329   9.500   1.718
57235SOL    HW271730  10.355   9.339   1.713
57236SOL     OW71731   9.814   9.360   1.740
57236SOL    HW171732   9.772   9.303   1.670
57236SOL    HW271733   9.748   9.429   1.772
57237SOL     OW71734   9.883  10.180   1.029
57237SOL    HW171735   9.927  10.269   1.020
57237SOL    HW271736   9.820  10.180   1.106
57238SOL     OW71737  10.670  10.172   1.045
57238SOL    HW171738  10.595  10.172   0.979
57238SOL    HW271739  10.707  10.080   1.054
57239SOL     OW71740  10.519   9.835   0.275
57239SOL    HW171741  10.532   9.751   0.329
57239SOL    HW271742  10.490   9.909   0.335
57240SOL     OW71743   9.617   9.523   1.231
57240SOL    HW171744   9.594   9.560   1.321
57240SOL    HW271745   9.587   9.428   1.225
57241SOL     OW71746   9.347  10.620   1.282
57241SOL    HW171747   9.400  10.571   1.350
57241SOL    HW271748   9.369  10.718   1.287
57242SOL     OW71749  10.042   9.944   1.064
57242SOL    HW171750  10.101   9.918   0.988
57242SOL    HW271751  10.014  10.040   1.053
57243SOL     OW71752  11.038  10.245   1.854
57243SOL    HW171753  10.992  10.238   1.765
57243SOL    HW271754  10.976  10.289   1.920
57244SOL     OW71755   9.617   9.373   0.618
57244SOL    HW171756   9.606   9.467   0.651
57244SOL    HW271757   9.612   9.310   0.695
57245SOL     OW71758  10.932   9.677   0.374
57245SOL    HW171759  10.934   9.601   0.438
57245SOL    HW271760  10.884   9.754   0.414
57246SOL     OW71761  10.333  10.076   0.966
57246SOL    HW171762  10.348  10.097   1.062
57246SOL    HW271763  10.303   9.981   0.957
57247SOL     OW71764  10.290  10.883   1.700
57247SOL    HW171765  10.270  10.927   1.612
57247SOL    HW271766  10.329  10.792   1.684
57248SOL     OW71767  11.169  10.828   1.605
57248SOL    HW171768  11.183  10.855   1.510
57248SOL    HW271769  11.252  10.850   1.658
57249SOL     OW71770   9.660  10.208   1.804
57249SOL    HW171771   9.736  10.252   1.852
57249SOL    HW271772   9.695  10.161   1.722
57250SOL     OW71773  10.850   9.584   0.125
57250SOL    HW171774  10.789   9.509   0.148
57250SOL    HW271775  10.872   9.636   0.208
57251SOL     OW71776  10.613  10.148   0.042
57251SOL    HW171777  10.647  10.055   0.057
57251SOL    HW271778  10.631  10.175  -0.053
57252SOL     OW71779  10.378  10.643   0.849
57252SOL    HW171780  10.385  10.559   0.794
57252SOL    HW271781  10.440  10.712   0.813
57253SOL     OW71782   9.629  10.120   0.949
57253SOL    HW171783   9.722  10.156   0.954
57253SOL    HW271784   9.623  10.035   1.001
57254SOL     OW71785   9.649   9.819   1.006
57254SOL    HW171786   9.597   9.736   0.989
57254SOL    HW271787   9.726   9.824   0.942
57255SOL     OW71788  10.448   9.690   1.678
57255SOL    HW171789  10.403   9.753   1.742
57255SOL    HW271790  10.541   9.721   1.661
57256SOL     OW71791  10.470   9.517   1.477
57256SOL    HW171792  10.470   9.581   1.554
57256SOL    HW271793  10.498   9.565   1.394
57257SOL     OW71794   9.318  10.636   0.200
57257SOL    HW171795   9.225  10.657   0.169
57257SOL    HW271796   9.328  10.537   0.213
57258SOL     OW71797   9.398  11.111   0.927
57258SOL    HW171798   9.356  11.025   0.900
57258SOL    HW271799   9.492  11.114   0.893
57259SOL     OW71800   9.814  10.878   0.910
57259SOL    HW171801   9.880  10.952   0.919
57259SOL    HW271802   9.858  10.799   0.868
57260SOL     OW71803  10.312  10.106   1.238
57260SOL    HW171804  10.353  10.074   1.324
57260SOL    HW271805  10.216  10.079   1.235
57261SOL     OW71806   9.350   9.854   1.114
57261SOL    HW171807   9.435   9.821   1.073
57261SOL    HW271808   9.363   9.869   1.212
57262SOL     OW71809   9.499   9.830   1.722
57262SOL    HW171810   9.558   9.790   1.652
57262SOL    HW271811   9.441   9.901   1.681
57263SOL     OW71812  10.679  10.260   1.660
57263SOL    HW171813  10.718  10.349   1.680
57263SOL    HW271814  10.689  10.240   1.563
57264SOL     OW71815  10.125   9.882   0.325
57264SOL    HW171816  10.132   9.793   0.279
57264SOL    HW271817  10.031   9.916   0.317
57265SOL     OW71818  10.967   9.914   1.206
57265SOL    HW171819  10.929   9.845   1.268
57265SOL    HW271820  11.049   9.878   1.162
57266SOL     OW71821   9.562  10.874   1.744
57266SOL    HW171822   9.532  10.931   1.820
57266SOL    HW271823   9.555  10.777   1.770
57267SOL     OW71824   9.981   9.774   1.269
57267SOL    HW171825   9.947   9.685   1.239
57267SOL    HW271826  10.007   9.828   1.189
57268SOL     OW71827  10.240  10.988   1.465
57268SOL    HW171828  10.216  10.970   1.370
57268SOL    HW271829  10.270  11.082   1.475
57269SOL     OW71830   9.783   9.810   0.191
57269SOL    HW171831   9.844   9.890   0.195
57269SOL    HW271832   9.688   9.841   0.198
57270SOL     OW71833   9.469  10.447   1.466
57270SOL    HW171834   9.491  10.386   1.542
57270SOL    HW271835   9.479  10.398   1.380
57271SOL     OW71836  10.657  10.369   1.234
57271SOL    HW171837  10.681  10.306   1.160
57271SOL    HW271838  10.567  10.409   1.216
57272SOL     OW71839  10.612  10.165   0.309
57272SOL    HW171840  10.526  10.134   0.351
57272SOL    HW271841  10.608  10.151   0.210
57273SOL     OW71842  11.069  11.057   1.154
57273SOL    HW171843  11.130  11.087   1.081
57273SOL    HW271844  11.031  10.968   1.132
57274SOL     OW71845  10.562  11.041   1.128
57274SOL    HW171846  10.646  11.046   1.074
57274SOL    HW271847  10.539  10.945   1.146
57275SOL     OW71848   9.393  10.568   1.022
57275SOL    HW171849   9.388  10.567   1.122
57275SOL    HW271850   9.310  10.527   0.984
57276SOL     OW71851   9.998  10.972   1.716
57276SOL    HW171852   9.942  11.053   1.725
57276SOL    HW271853  10.050  10.976   1.630
57277SOL     OW71854  10.213   9.396   0.133
57277SOL    HW171855  10.264   9.397   0.047
57277SOL    HW271856  10.269   9.354   0.204
57278SOL     OW71857  11.036   9.445   0.523
57278SOL    HW171858  11.109   9.428   0.456
57278SOL    HW271859  11.005   9.358   0.561
57279SOL     OW71860  10.698  10.883   0.477
57279SOL    HW171861  10.765  10.895   0.403
57279SOL    HW271862  10.658  10.972   0.500
57280SOL     OW71863   9.440  11.104   1.851
57280SOL    HW171864   9.399  11.030   1.904
57280SOL    HW271865   9.504  11.155   1.909
57281SOL     OW71866  10.590  10.237   0.672
57281SOL    HW171867  10.650  10.156   0.674
57281SOL    HW271868  10.630  10.306   0.612
57282SOL     OW71869  10.140  10.583   1.422
57282SOL    HW171870  10.135  10.616   1.517
57282SOL    HW271871  10.054  10.602   1.376
57283SOL     OW71872   9.982  10.926   0.154
57283SOL    HW171873   9.991  10.936   0.055
57283SOL    HW271874   9.942  10.837   0.175
57284SOL     OW71875  10.960  11.030   1.394
57284SOL    HW171876  11.013  11.040   1.310
57284SOL    HW271877  10.933  11.120   1.428
57285SOL     OW71878  11.151   9.485   0.963
57285SOL    HW171879  11.190   9.400   0.927
57285SOL    HW271880  11.053   9.487   0.944
57286SOL     OW71881   9.573   9.636   0.720
57286SOL    HW171882   9.494   9.687   0.686
57286SOL    HW271883   9.564   9.621   0.818
57287SOL     OW71884  10.504  10.922   0.031
57287SOL    HW171885  10.510  10.829   0.068
57287SOL    HW271886  10.445  10.922  -0.049
57288SOL     OW71887  10.226  10.220   0.291
57288SOL    HW171888  10.289  10.258   0.223
57288SOL    HW271889  10.266  10.137   0.330
57289SOL     OW71890  10.814  10.917   0.044
57289SOL    HW171891  10.722  10.954   0.051
57289SOL    HW271892  10.852  10.937  -0.046
57290SOL     OW71893   9.682  10.598   1.490
57290SOL    HW171894   9.669  10.691   1.456
57290SOL    HW271895   9.598  10.546   1.477
57291SOL     OW71896  10.924  10.602   1.289
57291SOL    HW171897  10.984  10.605   1.369
57291SOL    HW271898  10.849  10.666   1.302
57292SOL     OW71899  10.349  10.408   0.696
57292SOL    HW171900  10.279  10.361   0.750
57292SOL    HW271901  10.408  10.340   0.653
57293SOL     OW71902  10.324   9.546   0.971
57293SOL    HW171903  10.316   9.510   0.878
57293SOL    HW271904  10.322   9.470   1.036
57294SOL     OW71905   9.900  10.797   0.491
57294SOL    HW171906   9.942  10.739   0.421
57294SOL    HW271907   9.856  10.876   0.447
57295SOL     OW71908  11.019   9.695   1.381
57295SOL    HW171909  11.092   9.764   1.385
57295SOL    HW271910  11.047   9.620   1.322
57296SOL     OW71911   9.565  10.658   0.290
57296SOL    HW171912   9.469  10.659   0.263
57296SOL    HW271913   9.577  10.711   0.374
57297SOL     OW71914   9.415  10.323   1.726
57297SOL    HW171915   9.338  10.290   1.780
57297SOL    HW271916   9.500  10.293   1.768
57298SOL     OW71917   9.982   9.513   1.489
57298SOL    HW171918  10.072   9.497   1.449
57298SOL    HW271919   9.990   9.518   1.588
57299SOL     OW71920   9.385   9.655   0.033
57299SOL    HW171921   9.293   9.627   0.004
57299SOL    HW271922   9.416   9.732  -0.023
57300SOL     OW71923  10.750  10.166   1.398
57300SOL    HW171924  10.693  10.218   1.335
57300SOL    HW271925  10.846  10.178   1.374
57301SOL     OW71926   9.382   9.476   0.318
57301SOL    HW171927   9.365   9.559   0.264
57301SOL    HW271928   9.472   9.439   0.296
57302SOL     OW71929  10.493  10.645   0.119
57302SOL    HW171930  10.394  10.634   0.121
57302SOL    HW271931  10.527  10.660   0.212
57303SOL     OW71932   9.923  10.152   1.431
57303SOL    HW171933   9.979  10.233   1.414
57303SOL    HW271934   9.982  10.072   1.434
57304SOL     OW71935  10.803  11.077   0.959
57304SOL    HW171936  10.836  11.141   0.890
57304SOL    HW271937  10.869  11.071   1.034
57305SOL     OW71938  10.026   9.875   1.708
57305SOL    HW171939  10.045   9.940   1.782
57305SOL    HW271940  10.086   9.795   1.717
57306SOL     OW71941  10.760  10.530   1.633
57306SOL    HW171942  10.751  10.520   1.732
57306SOL    HW271943  10.856  10.523   1.607
57307SOL     OW71944   9.700  11.051   1.560
57307SOL    HW171945   9.609  11.092   1.558
57307SOL    HW271946   9.693  10.957   1.592
57308SOL     OW71947  10.984  10.193   1.254
57308SOL    HW171948  10.957  10.104   1.217
57308SOL    HW271949  10.985  10.261   1.181
57309SOL     OW71950  10.535   9.635   0.449
57309SOL    HW171951  10.600   9.561   0.438
57309SOL    HW271952  10.555   9.685   0.533
57310SOL     OW71953   9.904  10.055   0.652
57310SOL    HW171954   9.954  10.140   0.633
57310SOL    HW271955   9.816  10.057   0.604
57311SOL     OW71956  11.087   9.652   1.642
57311SOL    HW171957  11.070   9.683   1.548
57311SOL    HW271958  11.003   9.615   1.680
57312SOL     OW71959  11.040  10.244   1.517
57312SOL    HW171960  11.078  10.335   1.532
57312SOL    HW271961  11.032  10.227   1.418
57313SOL     OW71962  10.169  10.684   0.016
57313SOL    HW171963  10.123  10.699   0.104
57313SOL    HW271964  10.213  10.769  -0.014
57314SOL     OW71965   9.971  11.100   0.953
57314SOL    HW171966   9.925  11.188   0.940
57314SOL    HW271967  10.070  11.112   0.946
57315SOL     OW71968  10.169  10.266   0.861
57315SOL    HW171969  10.223  10.197   0.909
57315SOL    HW271970  10.137  10.335   0.927
57316SOL     OW71971  10.393  10.294   0.087
57316SOL    HW171972  10.370  10.347   0.005
57316SOL    HW271973  10.474  10.238   0.068
57317SOL     OW71974  11.171  10.879   0.851
57317SOL    HW171975  11.100  10.867   0.781
57317SOL    HW271976  11.172  10.800   0.911
57318SOL     OW71977   9.531  10.624   1.844
57318SOL    HW171978   9.466  10.551   1.823
57318SOL    HW271979   9.535  10.638   1.942
57319SOL     OW71980   9.389  10.550   0.653
57319SOL    HW171981   9.388  10.503   0.741
57319SOL    HW271982   9.471  10.522   0.602
57320SOL     OW71983   9.982  10.701   1.624
57320SOL    HW171984   9.904  10.651   1.662
57320SOL    HW271985   9.979  10.796   1.655
57321SOL     OW71986  11.134   9.502   1.227
57321SOL    HW171987  11.130   9.412   1.271
57321SOL    HW271988  11.137   9.491   1.128
57322SOL     OW71989   9.738   9.734   0.520
57322SOL    HW171990   9.768   9.662   0.458
57322SOL    HW271991   9.699   9.694   0.603
57323SOL     OW71992  11.015  10.797   1.104
57323SOL    HW171993  10.922  10.772   1.077
57323SOL    HW271994  11.041  10.747   1.186
57324SOL     OW71995   9.627   9.857   1.280
57324SOL    HW171996   9.665   9.798   1.352
57324SOL    HW271997   9.667   9.831   1.192
57325SOL     OW71998  10.122  10.896   0.687
57325SOL    HW171999  10.154  10.906   0.593
57325SOL    HW272000  10.043  10.834   0.689
57326SOL     OW72001  10.734   9.524   1.112
57326SOL    HW172002  10.786   9.459   1.167
57326SOL    HW272003  10.685   9.587   1.173
57327SOL     OW72004  10.311   9.344   1.154
57327SOL    HW172005  10.248   9.272   1.123
57327SOL    HW272006  10.404   9.308   1.154
57328SOL     OW72007  10.080  10.640   0.301
57328SOL    HW172008  10.034  10.553   0.318
57328SOL    HW272009  10.171  10.637   0.342
57329SOL     OW72010   9.928  10.877   1.284
57329SOL    HW172011   9.923  10.959   1.341
57329SOL    HW272012  10.017  10.874   1.239
57330SOL     OW72013  10.662   9.362   0.168
57330SOL    HW172014  10.697   9.321   0.084
57330SOL    HW272015  10.572   9.324   0.188
57331SOL     OW72016  10.610   9.763   0.691
57331SOL    HW172017  10.551   9.843   0.695
57331SOL    HW272018  10.625   9.728   0.784
57332SOL     OW72019  10.903   9.531   0.882
57332SOL    HW172020  10.819   9.530   0.936
57332SOL    HW272021  10.905   9.614   0.826
57333SOL     OW72022   9.349  10.387   0.300
57333SOL    HW172023   9.448  10.376   0.291
57333SOL    HW272024   9.309  10.301   0.332
57334SOL     OW72025  10.185  10.956   0.337
57334SOL    HW172026  10.108  10.921   0.283
57334SOL    HW272027  10.153  11.027   0.399
57335SOL     OW72028   9.540   9.938   1.975
57335SOL    HW172029   9.447   9.936   2.012
57335SOL    HW272030   9.541   9.899   1.883
57336SOL     OW72031   9.535   9.585   2.858
57336SOL    HW172032   9.570   9.568   2.950
57336SOL    HW272033   9.447   9.540   2.846
57337SOL     OW72034   9.329   9.678   2.509
57337SOL    HW172035   9.247   9.721   2.548
57337SOL    HW272036   9.301   9.605   2.446
57338SOL     OW72037   9.879  10.585   3.027
57338SOL    HW172038   9.786  10.578   2.990
57338SOL    HW272039   9.890  10.674   3.071
57339SOL     OW72040  10.865  10.821   2.565
57339SOL    HW172041  10.808  10.805   2.646
57339SOL    HW272042  10.806  10.831   2.485
57340SOL     OW72043  10.445  10.013   2.579
57340SOL    HW172044  10.502  10.091   2.554
57340SOL    HW272045  10.385  10.039   2.655
57341SOL     OW72046  11.065   9.917   2.093
57341SOL    HW172047  11.053   9.904   1.994
57341SOL    HW272048  11.035   9.836   2.142
57342SOL     OW72049  10.078  10.454   2.885
57342SOL    HW172050  10.000  10.471   2.945
57342SOL    HW272051  10.112  10.541   2.849
57343SOL     OW72052  10.160  10.108   3.685
57343SOL    HW172053  10.156  10.184   3.750
57343SOL    HW272054  10.182  10.144   3.594
57344SOL     OW72055   9.995  10.322   2.527
57344SOL    HW172056  10.064  10.306   2.597
57344SOL    HW272057   9.922  10.379   2.565
57345SOL     OW72058   9.996  10.471   3.665
57345SOL    HW172059  10.056  10.550   3.679
57345SOL    HW272060   9.910  10.502   3.624
57346SOL     OW72061   9.645  10.745   2.923
57346SOL    HW172062   9.567  10.714   2.870
57346SOL    HW272063   9.703  10.803   2.866
57347SOL     OW72064  10.770  10.815   3.201
57347SOL    HW172065  10.794  10.909   3.227
57347SOL    HW272066  10.754  10.761   3.283
57348SOL     OW72067   9.748   9.702   3.361
57348SOL    HW172068   9.830   9.646   3.370
57348SOL    HW272069   9.667   9.644   3.365
57349SOL     OW72070  10.913   9.757   2.599
57349SOL    HW172071  10.839   9.803   2.549
57349SOL    HW272072  10.964   9.825   2.652
57350SOL     OW72073   9.541  11.023   2.345
57350SOL    HW172074   9.575  11.100   2.399
57350SOL    HW272075   9.585  11.023   2.255
57351SOL     OW72076  10.437  10.651   3.552
57351SOL    HW172077  10.484  10.651   3.640
57351SOL    HW272078  10.389  10.564   3.541
57352SOL     OW72079   9.540  10.744   2.400
57352SOL    HW172080   9.514  10.840   2.400
57352SOL    HW272081   9.469  10.690   2.445
57353SOL     OW72082   9.550  10.401   2.748
57353SOL    HW172083   9.564  10.317   2.800
57353SOL    HW272084   9.495  10.465   2.803
57354SOL     OW72085   9.930  11.096   3.301
57354SOL    HW172086   9.838  11.079   3.336
57354SOL    HW272087   9.958  11.188   3.327
57355SOL     OW72088   9.916  10.274   1.985
57355SOL    HW172089   9.923  10.358   1.931
57355SOL    HW272090   9.962  10.287   2.073
57356SOL     OW72091  10.904   9.424   3.342
57356SOL    HW172092  10.886   9.491   3.270
57356SOL    HW272093  10.901   9.470   3.431
57357SOL     OW72094   9.432   9.953   2.425
57357SOL    HW172095   9.387   9.865   2.442
57357SOL    HW272096   9.431  10.007   2.509
57358SOL     OW72097  11.152  11.077   2.221
57358SOL    HW172098  11.206  11.048   2.301
57358SOL    HW272099  11.182  11.167   2.192
57359SOL     OW72100   9.337  10.906   1.979
57359SOL    HW172101   9.318  10.810   2.000
57359SOL    HW272102   9.304  10.964   2.054
57360SOL     OW72103  10.999  10.232   2.474
57360SOL    HW172104  11.094  10.203   2.482
57360SOL    HW272105  10.991  10.297   2.399
57361SOL     OW72106  10.951  10.418   2.294
57361SOL    HW172107  11.037  10.420   2.242
57361SOL    HW272108  10.965  10.465   2.382
57362SOL     OW72109   9.423  10.047   3.459
57362SOL    HW172110   9.511  10.034   3.504
57362SOL    HW272111   9.410  10.144   3.437
57363SOL     OW72112   9.923  10.675   2.588
57363SOL    HW172113   9.874  10.588   2.597
57363SOL    HW272114   9.900  10.718   2.501
57364SOL     OW72115  10.603  10.538   3.285
57364SOL    HW172116  10.640  10.465   3.227
57364SOL    HW272117  10.655  10.543   3.370
57365SOL     OW72118  10.119   9.314   2.364
57365SOL    HW172119  10.159   9.405   2.355
57365SOL    HW272120  10.019   9.322   2.370
57366SOL     OW72121   9.507  10.286   3.126
57366SOL    HW172122   9.596  10.241   3.112
57366SOL    HW272123   9.434  10.221   3.107
57367SOL     OW72124  10.835  10.309   2.052
57367SOL    HW172125  10.772  10.233   2.065
57367SOL    HW272126  10.883  10.327   2.138
57368SOL     OW72127  10.497  11.102   3.478
57368SOL    HW172128  10.521  11.162   3.402
57368SOL    HW272129  10.504  11.007   3.448
57369SOL     OW72130   9.627   9.561   3.663
57369SOL    HW172131   9.698   9.632   3.669
57369SOL    HW272132   9.539   9.600   3.691
57370SOL     OW72133  10.776  10.727   2.815
57370SOL    HW172134  10.717  10.733   2.895
57370SOL    HW272135  10.761  10.639   2.769
57371SOL     OW72136  10.977  11.024   2.434
57371SOL    HW172137  10.936  11.001   2.346
57371SOL    HW272138  10.959  10.950   2.499
57372SOL     OW72139   9.908  10.039   2.132
57372SOL    HW172140   9.932  10.108   2.064
57372SOL    HW272141   9.830  10.072   2.186
57373SOL     OW72142  10.591   9.655   2.806
57373SOL    HW172143  10.505   9.605   2.793
57373SOL    HW272144  10.653   9.601   2.862
57374SOL     OW72145  10.886  10.972   2.169
57374SOL    HW172146  10.975  11.018   2.172
57374SOL    HW272147  10.865  10.948   2.074
57375SOL     OW72148  10.117   9.915   3.327
57375SOL    HW172149  10.070   9.912   3.416
57375SOL    HW272150  10.066   9.860   3.261
57376SOL     OW72151  10.704   9.779   3.536
57376SOL    HW172152  10.684   9.822   3.624
57376SOL    HW272153  10.782   9.717   3.545
57377SOL     OW72154  10.283  10.200   3.434
57377SOL    HW172155  10.329  10.116   3.405
57377SOL    HW272156  10.227  10.234   3.359
57378SOL     OW72157  10.301   9.720   3.104
57378SOL    HW172158  10.224   9.754   3.158
57378SOL    HW272159  10.267   9.669   3.025
57379SOL     OW72160  10.351  10.011   2.291
57379SOL    HW172161  10.377  10.007   2.387
57379SOL    HW272162  10.266   9.960   2.277
57380SOL     OW72163   9.386  10.121   2.651
57380SOL    HW172164   9.485  10.109   2.660
57380SOL    HW272165   9.362  10.216   2.672
57381SOL     OW72166   9.440  11.131   3.433
57381SOL    HW172167   9.430  11.116   3.532
57381SOL    HW272168   9.354  11.167   3.397
57382SOL     OW72169  10.175   9.658   2.057
57382SOL    HW172170  10.234   9.721   2.008
57382SOL    HW272171  10.194   9.564   2.028
57383SOL     OW72172  11.029   9.895   3.693
57383SOL    HW172173  11.003   9.984   3.657
57383SOL    HW272174  11.027   9.827   3.620
57384SOL     OW72175  10.672  10.454   2.407
57384SOL    HW172176  10.755  10.425   2.359
57384SOL    HW272177  10.623  10.521   2.351
57385SOL     OW72178  10.318  10.766   2.339
57385SOL    HW172179  10.272  10.838   2.287
57385SOL    HW272180  10.314  10.786   2.437
57386SOL     OW72181   9.661  11.111   2.715
57386SOL    HW172182   9.711  11.025   2.721
57386SOL    HW272183   9.726  11.188   2.712
57387SOL     OW72184  11.105  10.376   2.735
57387SOL    HW172185  11.043  10.361   2.659
57387SOL    HW272186  11.053  10.387   2.820
57388SOL     OW72187  10.537  10.860   3.368
57388SOL    HW172188  10.543  10.783   3.432
57388SOL    HW272189  10.485  10.834   3.288
57389SOL     OW72190   9.631  10.253   2.104
57389SOL    HW172191   9.713  10.292   2.062
57389SOL    HW272192   9.604  10.171   2.055
57390SOL     OW72193  10.768  10.045   2.590
57390SOL    HW172194  10.763   9.980   2.665
57390SOL    HW272195  10.848  10.104   2.603
57391SOL     OW72196   9.771  10.576   3.589
57391SOL    HW172197   9.721  10.577   3.503
57391SOL    HW272198   9.708  10.558   3.665
57392SOL     OW72199  10.421  11.086   2.099
57392SOL    HW172200  10.361  11.024   2.149
57392SOL    HW272201  10.452  11.042   2.014
57393SOL     OW72202   9.512   9.595   3.360
57393SOL    HW172203   9.432   9.655   3.347
57393SOL    HW272204   9.502   9.546   3.446
57394SOL     OW72205  10.942  10.687   1.943
57394SOL    HW172206  10.910  10.781   1.933
57394SOL    HW272207  10.866  10.624   1.931
57395SOL     OW72208   9.774  11.053   2.185
57395SOL    HW172209   9.807  11.092   2.271
57395SOL    HW272210   9.850  11.046   2.120
57396SOL     OW72211  10.710   9.417   2.288
57396SOL    HW172212  10.686   9.380   2.198
57396SOL    HW272213  10.809   9.433   2.292
57397SOL     OW72214   9.559  11.095   3.103
57397SOL    HW172215   9.616  11.030   3.153
57397SOL    HW272216   9.543  11.062   3.010
57398SOL     OW72217  10.250  11.008   2.766
57398SOL    HW172218  10.330  10.951   2.787
57398SOL    HW272219  10.201  10.968   2.689
57399SOL     OW72220   9.692  10.010   2.342
57399SOL    HW172221   9.737   9.920   2.339
57399SOL    HW272222   9.598   9.999   2.375
57400SOL     OW72223  10.857   9.532   3.591
57400SOL    HW172224  10.852   9.569   3.683
57400SOL    HW272225  10.785   9.463   3.579
57401SOL     OW72226   9.924   9.432   1.979
57401SOL    HW172227  10.022   9.410   1.986
57401SOL    HW272228   9.893   9.415   1.886
57402SOL     OW72229  10.091   9.574   3.611
57402SOL    HW172230  10.158   9.513   3.654
57402SOL    HW272231  10.018   9.593   3.676
57403SOL     OW72232  10.198  10.824   3.057
57403SOL    HW172233  10.175  10.799   2.963
57403SOL    HW272234  10.259  10.755   3.096
57404SOL     OW72235  10.661   9.900   3.295
57404SOL    HW172236  10.689   9.857   3.380
57404SOL    HW272237  10.686   9.996   3.296
57405SOL     OW72238  10.113  10.712   2.786
57405SOL    HW172239  10.203  10.726   2.744
57405SOL    HW272240  10.042  10.714   2.715
57406SOL     OW72241  10.232   9.813   2.761
57406SOL    HW172242  10.207   9.804   2.665
57406SOL    HW272243  10.280   9.731   2.792
57407SOL     OW72244   9.849   9.374   2.374
57407SOL    HW172245   9.768   9.375   2.432
57407SOL    HW272246   9.852   9.457   2.319
57408SOL     OW72247  10.744  10.498   1.903
57408SOL    HW172248  10.776  10.422   1.960
57408SOL    HW272249  10.652  10.525   1.933
57409SOL     OW72250   9.607   9.345   2.033
57409SOL    HW172251   9.656   9.429   2.012
57409SOL    HW272252   9.669   9.280   2.078
57410SOL     OW72253  10.245   9.546   2.342
57410SOL    HW172254  10.197   9.587   2.264
57410SOL    HW272255  10.344   9.544   2.323
57411SOL     OW72256  10.386   9.993   3.326
57411SOL    HW172257  10.306   9.932   3.329
57411SOL    HW272258  10.467   9.940   3.302
57412SOL     OW72259  10.537  10.880   2.655
57412SOL    HW172260  10.558  10.954   2.590
57412SOL    HW272261  10.605  10.880   2.728
57413SOL     OW72262   9.769  10.462   2.603
57413SOL    HW172263   9.698  10.435   2.668
57413SOL    HW272264   9.743  10.434   2.510
57414SOL     OW72265  10.581  11.107   2.453
57414SOL    HW172266  10.625  11.171   2.389
57414SOL    HW272267  10.531  11.159   2.523
57415SOL     OW72268  10.342   9.859   1.878
57415SOL    HW172269  10.301   9.941   1.839
57415SOL    HW272270  10.406   9.885   1.951
57416SOL     OW72271   9.388   9.866   3.248
57416SOL    HW172272   9.480   9.865   3.207
57416SOL    HW272273   9.382   9.940   3.315
57417SOL     OW72274   9.871   9.532   3.009
57417SOL    HW172275   9.909   9.448   3.046
57417SOL    HW272276   9.783   9.551   3.053
57418SOL     OW72277  10.176   9.764   2.504
57418SOL    HW172278  10.144   9.836   2.442
57418SOL    HW272279  10.200   9.683   2.451
57419SOL     OW72280  10.327   9.349   2.615
57419SOL    HW172281  10.255   9.354   2.546
57419SOL    HW272282  10.303   9.280   2.684
57420SOL     OW72283  10.739  10.483   2.729
57420SOL    HW172284  10.684  10.399   2.722
57420SOL    HW272285  10.765  10.512   2.637
57421SOL     OW72286  10.776   9.900   2.854
57421SOL    HW172287  10.746   9.805   2.861
57421SOL    HW272288  10.849   9.916   2.920
57422SOL     OW72289  11.167  10.143   2.239
57422SOL    HW172290  11.209  10.079   2.303
57422SOL    HW272291  11.129  10.092   2.161
57423SOL     OW72292   9.798  10.695   2.036
57423SOL    HW172293   9.711  10.680   2.083
57423SOL    HW272294   9.781  10.721   1.941
57424SOL     OW72295  10.974  10.590   2.519
57424SOL    HW172296  11.073  10.598   2.533
57424SOL    HW272297  10.929  10.674   2.550
57425SOL     OW72298  10.700   9.885   1.940
57425SOL    HW172299  10.646   9.864   2.021
57425SOL    HW272300  10.791   9.844   1.949
57426SOL     OW72301   9.837   9.566   2.190
57426SOL    HW172302   9.864   9.507   2.115
57426SOL    HW272303   9.837   9.661   2.159
57427SOL     OW72304  11.064  10.533   3.450
57427SOL    HW172305  11.155  10.494   3.437
57427SOL    HW272306  11.072  10.629   3.474
57428SOL     OW72307  10.374  10.657   3.202
57428SOL    HW172308  10.294  10.634   3.257
57428SOL    HW272309  10.457  10.631   3.251
57429SOL     OW72310  10.902  10.939   3.487
57429SOL    HW172311  10.929  10.973   3.397
57429SOL    HW272312  10.981  10.901   3.533
57430SOL     OW72313  10.421  10.505   2.962
57430SOL    HW172314  10.381  10.549   3.043
57430SOL    HW272315  10.380  10.542   2.879
57431SOL     OW72316  10.948  10.409   2.941
57431SOL    HW172317  10.953  10.490   3.000
57431SOL    HW272318  10.862  10.411   2.890
57432SOL     OW72319  10.225   9.399   3.264
57432SOL    HW172320  10.250   9.379   3.169
57432SOL    HW272321  10.297   9.455   3.306
57433SOL     OW72322  10.290  10.426   3.581
57433SOL    HW172323  10.191  10.432   3.591
57433SOL    HW272324  10.313  10.346   3.525
57434SOL     OW72325  10.015  10.360   2.230
57434SOL    HW172326  10.001  10.367   2.329
57434SOL    HW272327  10.099  10.309   2.212
57435SOL     OW72328   9.720  10.123   3.113
57435SOL    HW172329   9.806  10.135   3.163
57435SOL    HW272330   9.678  10.036   3.140
57436SOL     OW72331  10.584   9.696   3.124
57436SOL    HW172332  10.605   9.770   3.188
57436SOL    HW272333  10.495   9.713   3.081
57437SOL     OW72334   9.374  10.874   3.193
57437SOL    HW172335   9.328  10.956   3.159
57437SOL    HW272336   9.472  10.893   3.202
57438SOL     OW72337   9.677  10.410   2.363
57438SOL    HW172338   9.670  10.493   2.307
57438SOL    HW272339   9.681  10.330   2.303
57439SOL     OW72340   9.876   9.847   2.727
57439SOL    HW172341   9.888   9.913   2.653
57439SOL    HW272342   9.922   9.881   2.810
57440SOL     OW72343  10.562  10.658   2.250
57440SOL    HW172344  10.612  10.735   2.290
57440SOL    HW272345  10.467  10.660   2.282
57441SOL     OW72346  10.582  10.755   3.004
57441SOL    HW172347  10.629  10.768   3.091
57441SOL    HW272348  10.516  10.681   3.013
57442SOL     OW72349  10.892   9.949   2.334
57442SOL    HW172350  10.861  10.010   2.407
57442SOL    HW272351  10.942  10.001   2.265
57443SOL     OW72352   9.664  10.820   3.191
57443SOL    HW172353   9.643  10.776   3.104
57443SOL    HW272354   9.761  10.846   3.194
57444SOL     OW72355   9.712  10.061   3.460
57444SOL    HW172356   9.780  10.116   3.413
57444SOL    HW272357   9.752   9.973   3.487
57445SOL     OW72358  10.897  10.089   3.532
57445SOL    HW172359  10.805  10.127   3.527
57445SOL    HW272360  10.957  10.136   3.467
57446SOL     OW72361  10.323   9.415   3.632
57446SOL    HW172362  10.329   9.500   3.580
57446SOL    HW272363  10.355   9.339   3.575
57447SOL     OW72364   9.814   9.360   3.602
57447SOL    HW172365   9.772   9.303   3.532
57447SOL    HW272366   9.748   9.429   3.634
57448SOL     OW72367   9.883  10.180   2.891
57448SOL    HW172368   9.927  10.269   2.882
57448SOL    HW272369   9.820  10.180   2.968
57449SOL     OW72370  10.670  10.172   2.907
57449SOL    HW172371  10.595  10.172   2.841
57449SOL    HW272372  10.707  10.080   2.916
57450SOL     OW72373  10.519   9.835   2.137
57450SOL    HW172374  10.532   9.751   2.191
57450SOL    HW272375  10.490   9.909   2.197
57451SOL     OW72376   9.617   9.523   3.093
57451SOL    HW172377   9.594   9.560   3.183
57451SOL    HW272378   9.587   9.428   3.087
57452SOL     OW72379   9.347  10.620   3.144
57452SOL    HW172380   9.400  10.571   3.212
57452SOL    HW272381   9.369  10.718   3.149
57453SOL     OW72382  10.042   9.944   2.926
57453SOL    HW172383  10.101   9.918   2.850
57453SOL    HW272384  10.014  10.040   2.915
57454SOL     OW72385  11.038  10.245   3.716
57454SOL    HW172386  10.992  10.238   3.627
57454SOL    HW272387  10.976  10.289   3.782
57455SOL     OW72388   9.617   9.373   2.480
57455SOL    HW172389   9.606   9.467   2.513
57455SOL    HW272390   9.612   9.310   2.557
57456SOL     OW72391  10.932   9.677   2.236
57456SOL    HW172392  10.934   9.601   2.300
57456SOL    HW272393  10.884   9.754   2.276
57457SOL     OW72394  10.333  10.076   2.828
57457SOL    HW172395  10.348  10.097   2.924
57457SOL    HW272396  10.303   9.981   2.819
57458SOL     OW72397  10.290  10.883   3.562
57458SOL    HW172398  10.270  10.927   3.474
57458SOL    HW272399  10.329  10.792   3.546
57459SOL     OW72400  11.169  10.828   3.467
57459SOL    HW172401  11.183  10.855   3.372
57459SOL    HW272402  11.252  10.850   3.520
57460SOL     OW72403   9.660  10.208   3.666
57460SOL    HW172404   9.736  10.252   3.714
57460SOL    HW272405   9.695  10.161   3.584
57461SOL     OW72406  10.850   9.584   1.987
57461SOL    HW172407  10.789   9.509   2.010
57461SOL    HW272408  10.872   9.636   2.070
57462SOL     OW72409  10.613  10.148   1.904
57462SOL    HW172410  10.647  10.055   1.919
57462SOL    HW272411  10.631  10.175   1.809
57463SOL     OW72412  10.378  10.643   2.711
57463SOL    HW172413  10.385  10.559   2.656
57463SOL    HW272414  10.440  10.712   2.675
57464SOL     OW72415   9.629  10.120   2.811
57464SOL    HW172416   9.722  10.156   2.816
57464SOL    HW272417   9.623  10.035   2.863
57465SOL     OW72418   9.649   9.819   2.868
57465SOL    HW172419   9.597   9.736   2.851
57465SOL    HW272420   9.726   9.824   2.804
57466SOL     OW72421  10.448   9.690   3.540
57466SOL    HW172422  10.403   9.753   3.604
57466SOL    HW272423  10.541   9.721   3.523
57467SOL     OW72424  10.470   9.517   3.339
57467SOL    HW172425  10.470   9.581   3.416
57467SOL    HW272426  10.498   9.565   3.256
57468SOL     OW72427   9.318  10.636   2.062
57468SOL    HW172428   9.225  10.657   2.031
57468SOL    HW272429   9.328  10.537   2.075
57469SOL     OW72430   9.398  11.111   2.789
57469SOL    HW172431   9.356  11.025   2.762
57469SOL    HW272432   9.492  11.114   2.755
57470SOL     OW72433   9.814  10.878   2.772
57470SOL    HW172434   9.880  10.952   2.781
57470SOL    HW272435   9.858  10.799   2.730
57471SOL     OW72436  10.312  10.106   3.100
57471SOL    HW172437  10.353  10.074   3.186
57471SOL    HW272438  10.216  10.079   3.097
57472SOL     OW72439   9.350   9.854   2.976
57472SOL    HW172440   9.435   9.821   2.935
57472SOL    HW272441   9.363   9.869   3.074
57473SOL     OW72442   9.499   9.830   3.584
57473SOL    HW172443   9.558   9.790   3.514
57473SOL    HW272444   9.441   9.901   3.543
57474SOL     OW72445  10.679  10.260   3.522
57474SOL    HW172446  10.718  10.349   3.542
57474SOL    HW272447  10.689  10.240   3.425
57475SOL     OW72448  10.125   9.882   2.187
57475SOL    HW172449  10.132   9.793   2.141
57475SOL    HW272450  10.031   9.916   2.179
57476SOL     OW72451  10.967   9.914   3.068
57476SOL    HW172452  10.929   9.845   3.130
57476SOL    HW272453  11.049   9.878   3.024
57477SOL     OW72454   9.562  10.874   3.606
57477SOL    HW172455   9.532  10.931   3.682
57477SOL    HW272456   9.555  10.777   3.632
57478SOL     OW72457   9.981   9.774   3.131
57478SOL    HW172458   9.947   9.685   3.101
57478SOL    HW272459  10.007   9.828   3.051
57479SOL     OW72460  10.240  10.988   3.327
57479SOL    HW172461  10.216  10.970   3.232
57479SOL    HW272462  10.270  11.082   3.337
57480SOL     OW72463   9.783   9.810   2.053
57480SOL    HW172464   9.844   9.890   2.057
57480SOL    HW272465   9.688   9.841   2.060
57481SOL     OW72466   9.469  10.447   3.328
57481SOL    HW172467   9.491  10.386   3.404
57481SOL    HW272468   9.479  10.398   3.242
57482SOL     OW72469  10.657  10.369   3.096
57482SOL    HW172470  10.681  10.306   3.022
57482SOL    HW272471  10.567  10.409   3.078
57483SOL     OW72472  10.612  10.165   2.171
57483SOL    HW172473  10.526  10.134   2.213
57483SOL    HW272474  10.608  10.151   2.072
57484SOL     OW72475  11.069  11.057   3.016
57484SOL    HW172476  11.130  11.087   2.943
57484SOL    HW272477  11.031  10.968   2.994
57485SOL     OW72478  10.562  11.041   2.990
57485SOL    HW172479  10.646  11.046   2.936
57485SOL    HW272480  10.539  10.945   3.008
57486SOL     OW72481   9.393  10.568   2.884
57486SOL    HW172482   9.388  10.567   2.984
57486SOL    HW272483   9.310  10.527   2.846
57487SOL     OW72484   9.998  10.972   3.578
57487SOL    HW172485   9.942  11.053   3.587
57487SOL    HW272486  10.050  10.976   3.492
57488SOL     OW72487  11.036   9.445   2.385
57488SOL    HW172488  11.109   9.428   2.318
57488SOL    HW272489  11.005   9.358   2.423
57489SOL     OW72490  10.698  10.883   2.339
57489SOL    HW172491  10.765  10.895   2.265
57489SOL    HW272492  10.658  10.972   2.362
57490SOL     OW72493   9.440  11.104   3.713
57490SOL    HW172494   9.399  11.030   3.766
57490SOL    HW272495   9.504  11.155   3.771
57491SOL     OW72496  10.590  10.237   2.534
57491SOL    HW172497  10.650  10.156   2.536
57491SOL    HW272498  10.630  10.306   2.474
57492SOL     OW72499  10.140  10.583   3.284
57492SOL    HW172500  10.135  10.616   3.379
57492SOL    HW272501  10.054  10.602   3.238
57493SOL     OW72502   9.982  10.926   2.016
57493SOL    HW172503   9.991  10.936   1.917
57493SOL    HW272504   9.942  10.837   2.037
57494SOL     OW72505  10.960  11.030   3.256
57494SOL    HW172506  11.013  11.040   3.172
57494SOL    HW272507  10.933  11.120   3.290
57495SOL     OW72508  11.151   9.485   2.825
57495SOL    HW172509  11.190   9.400   2.789
57495SOL    HW272510  11.053   9.487   2.806
57496SOL     OW72511   9.573   9.636   2.582
57496SOL    HW172512   9.494   9.687   2.548
57496SOL    HW272513   9.564   9.621   2.680
57497SOL     OW72514  10.504  10.922   1.893
57497SOL    HW172515  10.510  10.829   1.930
57497SOL    HW272516  10.445  10.922   1.813
57498SOL     OW72517  10.132  10.312   3.234
57498SOL    HW172518  10.172  10.311   3.142
57498SOL    HW272519  10.142  10.404   3.274
57499SOL     OW72520  10.226  10.220   2.153
57499SOL    HW172521  10.289  10.258   2.085
57499SOL    HW272522  10.266  10.137   2.192
57500SOL     OW72523  10.814  10.917   1.906
57500SOL    HW172524  10.722  10.954   1.913
57500SOL    HW272525  10.852  10.937   1.816
57501SOL     OW72526   9.682  10.598   3.352
57501SOL    HW172527   9.669  10.691   3.318
57501SOL    HW272528   9.598  10.546   3.339
57502SOL     OW72529  10.924  10.602   3.151
57502SOL    HW172530  10.984  10.605   3.231
57502SOL    HW272531  10.849  10.666   3.164
57503SOL     OW72532  10.349  10.408   2.558
57503SOL    HW172533  10.279  10.361   2.612
57503SOL    HW272534  10.408  10.340   2.515
57504SOL     OW72535  10.324   9.546   2.833
57504SOL    HW172536  10.316   9.510   2.740
57504SOL    HW272537  10.322   9.470   2.898
57505SOL     OW72538   9.900  10.797   2.353
57505SOL    HW172539   9.942  10.739   2.283
57505SOL    HW272540   9.856  10.876   2.309
57506SOL     OW72541  11.019   9.695   3.243
57506SOL    HW172542  11.092   9.764   3.247
57506SOL    HW272543  11.047   9.620   3.184
57507SOL     OW72544   9.565  10.658   2.152
57507SOL    HW172545   9.469  10.659   2.125
57507SOL    HW272546   9.577  10.711   2.236
57508SOL     OW72547   9.415  10.323   3.588
57508SOL    HW172548   9.338  10.290   3.642
57508SOL    HW272549   9.500  10.293   3.630
57509SOL     OW72550   9.982   9.513   3.351
57509SOL    HW172551  10.072   9.497   3.311
57509SOL    HW272552   9.990   9.518   3.450
57510SOL     OW72553   9.385   9.655   1.895
57510SOL    HW172554   9.293   9.627   1.866
57510SOL    HW272555   9.416   9.732   1.839
57511SOL     OW72556  10.750  10.166   3.260
57511SOL    HW172557  10.693  10.218   3.197
57511SOL    HW272558  10.846  10.178   3.236
57512SOL     OW72559   9.382   9.476   2.180
57512SOL    HW172560   9.365   9.559   2.126
57512SOL    HW272561   9.472   9.439   2.158
57513SOL     OW72562  10.493  10.645   1.981
57513SOL    HW172563  10.394  10.634   1.983
57513SOL    HW272564  10.527  10.660   2.074
57514SOL     OW72565   9.923  10.152   3.293
57514SOL    HW172566   9.979  10.233   3.276
57514SOL    HW272567   9.982  10.072   3.296
57515SOL     OW72568  10.803  11.077   2.821
57515SOL    HW172569  10.836  11.141   2.752
57515SOL    HW272570  10.869  11.071   2.896
57516SOL     OW72571  10.026   9.875   3.570
57516SOL    HW172572  10.045   9.940   3.644
57516SOL    HW272573  10.086   9.795   3.579
57517SOL     OW72574  10.760  10.530   3.495
57517SOL    HW172575  10.751  10.520   3.594
57517SOL    HW272576  10.856  10.523   3.469
57518SOL     OW72577   9.700  11.051   3.422
57518SOL    HW172578   9.609  11.092   3.420
57518SOL    HW272579   9.693  10.957   3.454
57519SOL     OW72580  10.984  10.193   3.116
57519SOL    HW172581  10.957  10.104   3.079
57519SOL    HW272582  10.985  10.261   3.043
57520SOL     OW72583  10.535   9.635   2.311
57520SOL    HW172584  10.600   9.561   2.300
57520SOL    HW272585  10.555   9.685   2.395
57521SOL     OW72586   9.904  10.055   2.514
57521SOL    HW172587   9.954  10.140   2.495
57521SOL    HW272588   9.816  10.057   2.466
57522SOL     OW72589  11.087   9.652   3.504
57522SOL    HW172590  11.070   9.683   3.410
57522SOL    HW272591  11.003   9.615   3.542
57523SOL     OW72592  11.040  10.244   3.379
57523SOL    HW172593  11.078  10.335   3.394
57523SOL    HW272594  11.032  10.227   3.280
57524SOL     OW72595  10.169  10.684   1.878
57524SOL    HW172596  10.123  10.699   1.966
57524SOL    HW272597  10.213  10.769   1.848
57525SOL     OW72598   9.971  11.100   2.815
57525SOL    HW172599   9.925  11.188   2.802
57525SOL    HW272600  10.070  11.112   2.808
57526SOL     OW72601  10.169  10.266   2.723
57526SOL    HW172602  10.223  10.197   2.771
57526SOL    HW272603  10.137  10.335   2.789
57527SOL     OW72604  10.393  10.294   1.949
57527SOL    HW172605  10.370  10.347   1.867
57527SOL    HW272606  10.474  10.238   1.930
57528SOL     OW72607  11.171  10.879   2.713
57528SOL    HW172608  11.100  10.867   2.643
57528SOL    HW272609  11.172  10.800   2.773
57529SOL     OW72610   9.531  10.624   3.706
57529SOL    HW172611   9.466  10.551   3.685
57529SOL    HW272612   9.535  10.638   3.804
57530SOL     OW72613   9.389  10.550   2.515
57530SOL    HW172614   9.388  10.503   2.603
57530SOL    HW272615   9.471  10.522   2.464
57531SOL     OW72616   9.982  10.701   3.486
57531SOL    HW172617   9.904  10.651   3.524
57531SOL    HW272618   9.979  10.796   3.517
57532SOL     OW72619  11.134   9.502   3.089
57532SOL    HW172620  11.130   9.412   3.133
57532SOL    HW272621  11.137   9.491   2.990
57533SOL     OW72622   9.738   9.734   2.382
57533SOL    HW172623   9.768   9.662   2.320
57533SOL    HW272624   9.699   9.694   2.465
57534SOL     OW72625  11.015  10.797   2.966
57534SOL    HW172626  10.922  10.772   2.939
57534SOL    HW272627  11.041  10.747   3.048
57535SOL     OW72628   9.627   9.857   3.142
57535SOL    HW172629   9.665   9.798   3.214
57535SOL    HW272630   9.667   9.831   3.054
57536SOL     OW72631  10.122  10.896   2.549
57536SOL    HW172632  10.154  10.906   2.455
57536SOL    HW272633  10.043  10.834   2.551
57537SOL     OW72634  10.734   9.524   2.974
57537SOL    HW172635  10.786   9.459   3.029
57537SOL    HW272636  10.685   9.587   3.035
57538SOL     OW72637  10.311   9.344   3.016
57538SOL    HW172638  10.248   9.272   2.985
57538SOL    HW272639  10.404   9.308   3.016
57539SOL     OW72640  10.080  10.640   2.163
57539SOL    HW172641  10.034  10.553   2.180
57539SOL    HW272642  10.171  10.637   2.204
57540SOL     OW72643   9.928  10.877   3.146
57540SOL    HW172644   9.923  10.959   3.203
57540SOL    HW272645  10.017  10.874   3.101
57541SOL     OW72646  10.662   9.362   2.030
57541SOL    HW172647  10.697   9.321   1.946
57541SOL    HW272648  10.572   9.324   2.050
57542SOL     OW72649  10.610   9.763   2.553
57542SOL    HW172650  10.551   9.843   2.557
57542SOL    HW272651  10.625   9.728   2.646
57543SOL     OW72652  10.903   9.531   2.744
57543SOL    HW172653  10.819   9.530   2.798
57543SOL    HW272654  10.905   9.614   2.688
57544SOL     OW72655   9.349  10.387   2.162
57544SOL    HW172656   9.448  10.376   2.153
57544SOL    HW272657   9.309  10.301   2.194
57545SOL     OW72658  10.185  10.956   2.199
57545SOL    HW172659  10.108  10.921   2.145
57545SOL    HW272660  10.153  11.027   2.261
57546SOL     OW72661   9.540   9.938   3.837
57546SOL    HW172662   9.447   9.936   3.874
57546SOL    HW272663   9.541   9.899   3.745
57547SOL     OW72664   9.535   9.585   4.720
57547SOL    HW172665   9.570   9.568   4.812
57547SOL    HW272666   9.447   9.540   4.708
57548SOL     OW72667   9.329   9.678   4.371
57548SOL    HW172668   9.247   9.721   4.410
57548SOL    HW272669   9.301   9.605   4.308
57549SOL     OW72670   9.879  10.585   4.889
57549SOL    HW172671   9.786  10.578   4.852
57549SOL    HW272672   9.890  10.674   4.933
57550SOL     OW72673  10.865  10.821   4.427
57550SOL    HW172674  10.808  10.805   4.508
57550SOL    HW272675  10.806  10.831   4.347
57551SOL     OW72676  10.445  10.013   4.441
57551SOL    HW172677  10.502  10.091   4.416
57551SOL    HW272678  10.385  10.039   4.517
57552SOL     OW72679  11.065   9.917   3.955
57552SOL    HW172680  11.053   9.904   3.856
57552SOL    HW272681  11.035   9.836   4.004
57553SOL     OW72682  10.078  10.454   4.747
57553SOL    HW172683  10.000  10.471   4.807
57553SOL    HW272684  10.112  10.541   4.711
57554SOL     OW72685  10.160  10.108   5.547
57554SOL    HW172686  10.156  10.184   5.612
57554SOL    HW272687  10.182  10.144   5.456
57555SOL     OW72688   9.995  10.322   4.389
57555SOL    HW172689  10.064  10.306   4.459
57555SOL    HW272690   9.922  10.379   4.427
57556SOL     OW72691   9.996  10.471   5.527
57556SOL    HW172692  10.056  10.550   5.541
57556SOL    HW272693   9.910  10.502   5.486
57557SOL     OW72694   9.645  10.745   4.785
57557SOL    HW172695   9.567  10.714   4.732
57557SOL    HW272696   9.703  10.803   4.728
57558SOL     OW72697  10.770  10.815   5.063
57558SOL    HW172698  10.794  10.909   5.089
57558SOL    HW272699  10.754  10.761   5.145
57559SOL     OW72700   9.748   9.702   5.223
57559SOL    HW172701   9.830   9.646   5.232
57559SOL    HW272702   9.667   9.644   5.227
57560SOL     OW72703  10.913   9.757   4.461
57560SOL    HW172704  10.839   9.803   4.411
57560SOL    HW272705  10.964   9.825   4.514
57561SOL     OW72706   9.541  11.023   4.207
57561SOL    HW172707   9.575  11.100   4.261
57561SOL    HW272708   9.585  11.023   4.117
57562SOL     OW72709  10.437  10.651   5.414
57562SOL    HW172710  10.484  10.651   5.502
57562SOL    HW272711  10.389  10.564   5.403
57563SOL     OW72712   9.540  10.744   4.262
57563SOL    HW172713   9.514  10.840   4.262
57563SOL    HW272714   9.469  10.690   4.307
57564SOL     OW72715   9.550  10.401   4.610
57564SOL    HW172716   9.564  10.317   4.662
57564SOL    HW272717   9.495  10.465   4.665
57565SOL     OW72718   9.930  11.096   5.163
57565SOL    HW172719   9.838  11.079   5.198
57565SOL    HW272720   9.958  11.188   5.189
57566SOL     OW72721   9.916  10.274   3.847
57566SOL    HW172722   9.923  10.358   3.793
57566SOL    HW272723   9.962  10.287   3.935
57567SOL     OW72724  10.904   9.424   5.204
57567SOL    HW172725  10.886   9.491   5.132
57567SOL    HW272726  10.901   9.470   5.293
57568SOL     OW72727   9.432   9.953   4.287
57568SOL    HW172728   9.387   9.865   4.304
57568SOL    HW272729   9.431  10.007   4.371
57569SOL     OW72730  11.152  11.077   4.083
57569SOL    HW172731  11.206  11.048   4.163
57569SOL    HW272732  11.182  11.167   4.054
57570SOL     OW72733   9.337  10.906   3.841
57570SOL    HW172734   9.318  10.810   3.862
57570SOL    HW272735   9.304  10.964   3.916
57571SOL     OW72736  10.999  10.232   4.336
57571SOL    HW172737  11.094  10.203   4.344
57571SOL    HW272738  10.991  10.297   4.261
57572SOL     OW72739  10.951  10.418   4.156
57572SOL    HW172740  11.037  10.420   4.104
57572SOL    HW272741  10.965  10.465   4.244
57573SOL     OW72742   9.923  10.675   4.450
57573SOL    HW172743   9.874  10.588   4.459
57573SOL    HW272744   9.900  10.718   4.363
57574SOL     OW72745  10.603  10.538   5.147
57574SOL    HW172746  10.640  10.465   5.089
57574SOL    HW272747  10.655  10.543   5.232
57575SOL     OW72748  10.119   9.314   4.226
57575SOL    HW172749  10.159   9.405   4.217
57575SOL    HW272750  10.019   9.322   4.232
57576SOL     OW72751   9.507  10.286   4.988
57576SOL    HW172752   9.596  10.241   4.974
57576SOL    HW272753   9.434  10.221   4.969
57577SOL     OW72754  10.835  10.309   3.914
57577SOL    HW172755  10.772  10.233   3.927
57577SOL    HW272756  10.883  10.327   4.000
57578SOL     OW72757  10.497  11.102   5.340
57578SOL    HW172758  10.521  11.162   5.264
57578SOL    HW272759  10.504  11.007   5.310
57579SOL     OW72760   9.627   9.561   5.525
57579SOL    HW172761   9.698   9.632   5.531
57579SOL    HW272762   9.539   9.600   5.553
57580SOL     OW72763  10.776  10.727   4.677
57580SOL    HW172764  10.717  10.733   4.757
57580SOL    HW272765  10.761  10.639   4.631
57581SOL     OW72766  10.977  11.024   4.296
57581SOL    HW172767  10.936  11.001   4.208
57581SOL    HW272768  10.959  10.950   4.361
57582SOL     OW72769   9.908  10.039   3.994
57582SOL    HW172770   9.932  10.108   3.926
57582SOL    HW272771   9.830  10.072   4.048
57583SOL     OW72772  10.591   9.655   4.668
57583SOL    HW172773  10.505   9.605   4.655
57583SOL    HW272774  10.653   9.601   4.724
57584SOL     OW72775  10.886  10.972   4.031
57584SOL    HW172776  10.975  11.018   4.034
57584SOL    HW272777  10.865  10.948   3.936
57585SOL     OW72778  10.117   9.915   5.189
57585SOL    HW172779  10.070   9.912   5.278
57585SOL    HW272780  10.066   9.860   5.123
57586SOL     OW72781  10.704   9.779   5.398
57586SOL    HW172782  10.684   9.822   5.486
57586SOL    HW272783  10.782   9.717   5.407
57587SOL     OW72784  10.283  10.200   5.296
57587SOL    HW172785  10.329  10.116   5.267
57587SOL    HW272786  10.227  10.234   5.221
57588SOL     OW72787  10.301   9.720   4.966
57588SOL    HW172788  10.224   9.754   5.020
57588SOL    HW272789  10.267   9.669   4.887
57589SOL     OW72790  10.351  10.011   4.153
57589SOL    HW172791  10.377  10.007   4.249
57589SOL    HW272792  10.266   9.960   4.139
57590SOL     OW72793   9.386  10.121   4.513
57590SOL    HW172794   9.485  10.109   4.522
57590SOL    HW272795   9.362  10.216   4.534
57591SOL     OW72796   9.440  11.131   5.295
57591SOL    HW172797   9.430  11.116   5.394
57591SOL    HW272798   9.354  11.167   5.259
57592SOL     OW72799  10.175   9.658   3.919
57592SOL    HW172800  10.234   9.721   3.870
57592SOL    HW272801  10.194   9.564   3.890
57593SOL     OW72802  11.029   9.895   5.555
57593SOL    HW172803  11.003   9.984   5.519
57593SOL    HW272804  11.027   9.827   5.482
57594SOL     OW72805  10.672  10.454   4.269
57594SOL    HW172806  10.755  10.425   4.221
57594SOL    HW272807  10.623  10.521   4.213
57595SOL     OW72808   9.860   9.506   4.609
57595SOL    HW172809   9.855   9.501   4.709
57595SOL    HW272810   9.862   9.602   4.580
57596SOL     OW72811  10.318  10.766   4.201
57596SOL    HW172812  10.272  10.838   4.149
57596SOL    HW272813  10.314  10.786   4.299
57597SOL     OW72814   9.661  11.111   4.577
57597SOL    HW172815   9.711  11.025   4.583
57597SOL    HW272816   9.726  11.188   4.574
57598SOL     OW72817  11.105  10.376   4.597
57598SOL    HW172818  11.043  10.361   4.521
57598SOL    HW272819  11.053  10.387   4.682
57599SOL     OW72820  10.537  10.860   5.230
57599SOL    HW172821  10.543  10.783   5.294
57599SOL    HW272822  10.485  10.834   5.150
57600SOL     OW72823   9.631  10.253   3.966
57600SOL    HW172824   9.713  10.292   3.924
57600SOL    HW272825   9.604  10.171   3.917
57601SOL     OW72826  10.768  10.045   4.452
57601SOL    HW172827  10.763   9.980   4.527
57601SOL    HW272828  10.848  10.104   4.465
57602SOL     OW72829   9.771  10.576   5.451
57602SOL    HW172830   9.721  10.577   5.365
57602SOL    HW272831   9.708  10.558   5.527
57603SOL     OW72832  10.421  11.086   3.961
57603SOL    HW172833  10.361  11.024   4.011
57603SOL    HW272834  10.452  11.042   3.876
57604SOL     OW72835   9.512   9.595   5.222
57604SOL    HW172836   9.432   9.655   5.209
57604SOL    HW272837   9.502   9.546   5.308
57605SOL     OW72838  10.942  10.687   3.805
57605SOL    HW172839  10.910  10.781   3.795
57605SOL    HW272840  10.866  10.624   3.793
57606SOL     OW72841   9.774  11.053   4.047
57606SOL    HW172842   9.807  11.092   4.133
57606SOL    HW272843   9.850  11.046   3.982
57607SOL     OW72844  10.710   9.417   4.150
57607SOL    HW172845  10.686   9.380   4.060
57607SOL    HW272846  10.809   9.433   4.154
57608SOL     OW72847   9.559  11.095   4.965
57608SOL    HW172848   9.616  11.030   5.015
57608SOL    HW272849   9.543  11.062   4.872
57609SOL     OW72850  10.250  11.008   4.628
57609SOL    HW172851  10.330  10.951   4.649
57609SOL    HW272852  10.201  10.968   4.551
57610SOL     OW72853   9.692  10.010   4.204
57610SOL    HW172854   9.737   9.920   4.201
57610SOL    HW272855   9.598   9.999   4.237
57611SOL     OW72856  10.857   9.532   5.453
57611SOL    HW172857  10.852   9.569   5.545
57611SOL    HW272858  10.785   9.463   5.441
57612SOL     OW72859   9.924   9.432   3.841
57612SOL    HW172860  10.022   9.410   3.848
57612SOL    HW272861   9.893   9.415   3.748
57613SOL     OW72862  10.091   9.574   5.473
57613SOL    HW172863  10.158   9.513   5.516
57613SOL    HW272864  10.018   9.593   5.538
57614SOL     OW72865  10.198  10.824   4.919
57614SOL    HW172866  10.175  10.799   4.825
57614SOL    HW272867  10.259  10.755   4.958
57615SOL     OW72868  10.661   9.900   5.157
57615SOL    HW172869  10.689   9.857   5.242
57615SOL    HW272870  10.686   9.996   5.158
57616SOL     OW72871  10.113  10.712   4.648
57616SOL    HW172872  10.203  10.726   4.606
57616SOL    HW272873  10.042  10.714   4.577
57617SOL     OW72874  10.232   9.813   4.623
57617SOL    HW172875  10.207   9.804   4.527
57617SOL    HW272876  10.280   9.731   4.654
57618SOL     OW72877   9.849   9.374   4.236
57618SOL    HW172878   9.768   9.375   4.294
57618SOL    HW272879   9.852   9.457   4.181
57619SOL     OW72880  10.744  10.498   3.765
57619SOL    HW172881  10.776  10.422   3.822
57619SOL    HW272882  10.652  10.525   3.795
57620SOL     OW72883   9.607   9.345   3.895
57620SOL    HW172884   9.656   9.429   3.874
57620SOL    HW272885   9.669   9.280   3.940
57621SOL     OW72886  10.245   9.546   4.204
57621SOL    HW172887  10.197   9.587   4.126
57621SOL    HW272888  10.344   9.544   4.185
57622SOL     OW72889  10.386   9.993   5.188
57622SOL    HW172890  10.306   9.932   5.191
57622SOL    HW272891  10.467   9.940   5.164
57623SOL     OW72892  10.537  10.880   4.517
57623SOL    HW172893  10.558  10.954   4.452
57623SOL    HW272894  10.605  10.880   4.590
57624SOL     OW72895  10.581  11.107   4.315
57624SOL    HW172896  10.625  11.171   4.251
57624SOL    HW272897  10.531  11.159   4.385
57625SOL     OW72898  10.342   9.859   3.740
57625SOL    HW172899  10.301   9.941   3.701
57625SOL    HW272900  10.406   9.885   3.813
57626SOL     OW72901   9.388   9.866   5.110
57626SOL    HW172902   9.480   9.865   5.069
57626SOL    HW272903   9.382   9.940   5.177
57627SOL     OW72904   9.871   9.532   4.871
57627SOL    HW172905   9.909   9.448   4.908
57627SOL    HW272906   9.783   9.551   4.915
57628SOL     OW72907  10.176   9.764   4.366
57628SOL    HW172908  10.144   9.836   4.304
57628SOL    HW272909  10.200   9.683   4.313
57629SOL     OW72910  10.327   9.349   4.477
57629SOL    HW172911  10.255   9.354   4.408
57629SOL    HW272912  10.303   9.280   4.546
57630SOL     OW72913  10.739  10.483   4.591
57630SOL    HW172914  10.684  10.399   4.584
57630SOL    HW272915  10.765  10.512   4.499
57631SOL     OW72916  10.776   9.900   4.716
57631SOL    HW172917  10.746   9.805   4.723
57631SOL    HW272918  10.849   9.916   4.782
57632SOL     OW72919  11.167  10.143   4.101
57632SOL    HW172920  11.209  10.079   4.165
57632SOL    HW272921  11.129  10.092   4.023
57633SOL     OW72922   9.798  10.695   3.898
57633SOL    HW172923   9.711  10.680   3.945
57633SOL    HW272924   9.781  10.721   3.803
57634SOL     OW72925  10.974  10.590   4.381
57634SOL    HW172926  11.073  10.598   4.395
57634SOL    HW272927  10.929  10.674   4.412
57635SOL     OW72928  10.700   9.885   3.802
57635SOL    HW172929  10.646   9.864   3.883
57635SOL    HW272930  10.791   9.844   3.811
57636SOL     OW72931   9.837   9.566   4.052
57636SOL    HW172932   9.864   9.507   3.977
57636SOL    HW272933   9.837   9.661   4.021
57637SOL     OW72934  11.064  10.533   5.312
57637SOL    HW172935  11.155  10.494   5.299
57637SOL    HW272936  11.072  10.629   5.336
57638SOL     OW72937  10.374  10.657   5.064
57638SOL    HW172938  10.294  10.634   5.119
57638SOL    HW272939  10.457  10.631   5.113
57639SOL     OW72940  10.902  10.939   5.349
57639SOL    HW172941  10.929  10.973   5.259
57639SOL    HW272942  10.981  10.901   5.395
57640SOL     OW72943  10.421  10.505   4.824
57640SOL    HW172944  10.381  10.549   4.905
57640SOL    HW272945  10.380  10.542   4.741
57641SOL     OW72946  10.948  10.409   4.803
57641SOL    HW172947  10.953  10.490   4.862
57641SOL    HW272948  10.862  10.411   4.752
57642SOL     OW72949  10.225   9.399   5.126
57642SOL    HW172950  10.250   9.379   5.031
57642SOL    HW272951  10.297   9.455   5.168
57643SOL     OW72952  10.290  10.426   5.443
57643SOL    HW172953  10.191  10.432   5.453
57643SOL    HW272954  10.313  10.346   5.387
57644SOL     OW72955  10.015  10.360   4.092
57644SOL    HW172956  10.001  10.367   4.191
57644SOL    HW272957  10.099  10.309   4.074
57645SOL     OW72958   9.720  10.123   4.975
57645SOL    HW172959   9.806  10.135   5.025
57645SOL    HW272960   9.678  10.036   5.002
57646SOL     OW72961  10.584   9.696   4.986
57646SOL    HW172962  10.605   9.770   5.050
57646SOL    HW272963  10.495   9.713   4.943
57647SOL     OW72964   9.374  10.874   5.055
57647SOL    HW172965   9.328  10.956   5.021
57647SOL    HW272966   9.472  10.893   5.064
57648SOL     OW72967   9.677  10.410   4.225
57648SOL    HW172968   9.670  10.493   4.169
57648SOL    HW272969   9.681  10.330   4.165
57649SOL     OW72970   9.876   9.847   4.589
57649SOL    HW172971   9.888   9.913   4.515
57649SOL    HW272972   9.922   9.881   4.672
57650SOL     OW72973  10.562  10.658   4.112
57650SOL    HW172974  10.612  10.735   4.152
57650SOL    HW272975  10.467  10.660   4.144
57651SOL     OW72976  10.582  10.755   4.866
57651SOL    HW172977  10.629  10.768   4.953
57651SOL    HW272978  10.516  10.681   4.875
57652SOL     OW72979  10.892   9.949   4.196
57652SOL    HW172980  10.861  10.010   4.269
57652SOL    HW272981  10.942  10.001   4.127
57653SOL     OW72982   9.664  10.820   5.053
57653SOL    HW172983   9.643  10.776   4.966
57653SOL    HW272984   9.761  10.846   5.056
57654SOL     OW72985   9.712  10.061   5.322
57654SOL    HW172986   9.780  10.116   5.275
57654SOL    HW272987   9.752   9.973   5.349
57655SOL     OW72988  10.897  10.089   5.394
57655SOL    HW172989  10.805  10.127   5.389
57655SOL    HW272990  10.957  10.136   5.329
57656SOL     OW72991  10.323   9.415   5.494
57656SOL    HW172992  10.329   9.500   5.442
57656SOL    HW272993  10.355   9.339   5.437
57657SOL     OW72994   9.814   9.360   5.464
57657SOL    HW172995   9.772   9.303   5.394
57657SOL    HW272996   9.748   9.429   5.496
57658SOL     OW72997   9.883  10.180   4.753
57658SOL    HW172998   9.927  10.269   4.744
57658SOL    HW272999   9.820  10.180   4.830
57659SOL     OW73000  10.670  10.172   4.769
57659SOL    HW173001  10.595  10.172   4.703
57659SOL    HW273002  10.707  10.080   4.778
57660SOL     OW73003  10.519   9.835   3.999
57660SOL    HW173004  10.532   9.751   4.053
57660SOL    HW273005  10.490   9.909   4.059
57661SOL     OW73006   9.617   9.523   4.955
57661SOL    HW173007   9.594   9.560   5.045
57661SOL    HW273008   9.587   9.428   4.949
57662SOL     OW73009   9.347  10.620   5.006
57662SOL    HW173010   9.400  10.571   5.074
57662SOL    HW273011   9.369  10.718   5.011
57663SOL     OW73012  10.042   9.944   4.788
57663SOL    HW173013  10.101   9.918   4.712
57663SOL    HW273014  10.014  10.040   4.777
57664SOL     OW73015  11.038  10.245   5.578
57664SOL    HW173016  10.992  10.238   5.489
57664SOL    HW273017  10.976  10.289   5.644
57665SOL     OW73018   9.617   9.373   4.342
57665SOL    HW173019   9.606   9.467   4.375
57665SOL    HW273020   9.612   9.310   4.419
57666SOL     OW73021  10.932   9.677   4.098
57666SOL    HW173022  10.934   9.601   4.162
57666SOL    HW273023  10.884   9.754   4.138
57667SOL     OW73024  10.333  10.076   4.690
57667SOL    HW173025  10.348  10.097   4.786
57667SOL    HW273026  10.303   9.981   4.681
57668SOL     OW73027  10.290  10.883   5.424
57668SOL    HW173028  10.270  10.927   5.336
57668SOL    HW273029  10.329  10.792   5.408
57669SOL     OW73030  11.169  10.828   5.329
57669SOL    HW173031  11.183  10.855   5.234
57669SOL    HW273032  11.252  10.850   5.382
57670SOL     OW73033   9.660  10.208   5.528
57670SOL    HW173034   9.736  10.252   5.576
57670SOL    HW273035   9.695  10.161   5.446
57671SOL     OW73036  10.850   9.584   3.849
57671SOL    HW173037  10.789   9.509   3.872
57671SOL    HW273038  10.872   9.636   3.932
57672SOL     OW73039  10.613  10.148   3.766
57672SOL    HW173040  10.647  10.055   3.781
57672SOL    HW273041  10.631  10.175   3.671
57673SOL     OW73042  10.378  10.643   4.573
57673SOL    HW173043  10.385  10.559   4.518
57673SOL    HW273044  10.440  10.712   4.537
57674SOL     OW73045   9.629  10.120   4.673
57674SOL    HW173046   9.722  10.156   4.678
57674SOL    HW273047   9.623  10.035   4.725
57675SOL     OW73048   9.649   9.819   4.730
57675SOL    HW173049   9.597   9.736   4.713
57675SOL    HW273050   9.726   9.824   4.666
57676SOL     OW73051  10.448   9.690   5.402
57676SOL    HW173052  10.403   9.753   5.466
57676SOL    HW273053  10.541   9.721   5.385
57677SOL     OW73054  10.470   9.517   5.201
57677SOL    HW173055  10.470   9.581   5.278
57677SOL    HW273056  10.498   9.565   5.118
57678SOL     OW73057   9.318  10.636   3.924
57678SOL    HW173058   9.225  10.657   3.893
57678SOL    HW273059   9.328  10.537   3.937
57679SOL     OW73060   9.398  11.111   4.651
57679SOL    HW173061   9.356  11.025   4.624
57679SOL    HW273062   9.492  11.114   4.617
57680SOL     OW73063   9.814  10.878   4.634
57680SOL    HW173064   9.880  10.952   4.643
57680SOL    HW273065   9.858  10.799   4.592
57681SOL     OW73066  10.312  10.106   4.962
57681SOL    HW173067  10.353  10.074   5.048
57681SOL    HW273068  10.216  10.079   4.959
57682SOL     OW73069   9.350   9.854   4.838
57682SOL    HW173070   9.435   9.821   4.797
57682SOL    HW273071   9.363   9.869   4.936
57683SOL     OW73072   9.499   9.830   5.446
57683SOL    HW173073   9.558   9.790   5.376
57683SOL    HW273074   9.441   9.901   5.405
57684SOL     OW73075  10.679  10.260   5.384
57684SOL    HW173076  10.718  10.349   5.404
57684SOL    HW273077  10.689  10.240   5.287
57685SOL     OW73078  10.125   9.882   4.049
57685SOL    HW173079  10.132   9.793   4.003
57685SOL    HW273080  10.031   9.916   4.041
57686SOL     OW73081  10.967   9.914   4.930
57686SOL    HW173082  10.929   9.845   4.992
57686SOL    HW273083  11.049   9.878   4.886
57687SOL     OW73084   9.562  10.874   5.468
57687SOL    HW173085   9.532  10.931   5.544
57687SOL    HW273086   9.555  10.777   5.494
57688SOL     OW73087   9.981   9.774   4.993
57688SOL    HW173088   9.947   9.685   4.963
57688SOL    HW273089  10.007   9.828   4.913
57689SOL     OW73090  10.240  10.988   5.189
57689SOL    HW173091  10.216  10.970   5.094
57689SOL    HW273092  10.270  11.082   5.199
57690SOL     OW73093   9.783   9.810   3.915
57690SOL    HW173094   9.844   9.890   3.919
57690SOL    HW273095   9.688   9.841   3.922
57691SOL     OW73096   9.469  10.447   5.190
57691SOL    HW173097   9.491  10.386   5.266
57691SOL    HW273098   9.479  10.398   5.104
57692SOL     OW73099  10.657  10.369   4.958
57692SOL    HW173100  10.681  10.306   4.884
57692SOL    HW273101  10.567  10.409   4.940
57693SOL     OW73102  10.612  10.165   4.033
57693SOL    HW173103  10.526  10.134   4.075
57693SOL    HW273104  10.608  10.151   3.934
57694SOL     OW73105  11.069  11.057   4.878
57694SOL    HW173106  11.130  11.087   4.805
57694SOL    HW273107  11.031  10.968   4.856
57695SOL     OW73108  10.562  11.041   4.852
57695SOL    HW173109  10.646  11.046   4.798
57695SOL    HW273110  10.539  10.945   4.870
57696SOL     OW73111   9.393  10.568   4.746
57696SOL    HW173112   9.388  10.567   4.846
57696SOL    HW273113   9.310  10.527   4.708
57697SOL     OW73114   9.998  10.972   5.440
57697SOL    HW173115   9.942  11.053   5.449
57697SOL    HW273116  10.050  10.976   5.354
57698SOL     OW73117  11.036   9.445   4.247
57698SOL    HW173118  11.109   9.428   4.180
57698SOL    HW273119  11.005   9.358   4.285
57699SOL     OW73120  10.698  10.883   4.201
57699SOL    HW173121  10.765  10.895   4.127
57699SOL    HW273122  10.658  10.972   4.224
57700SOL     OW73123   9.440  11.104   5.575
57700SOL    HW173124   9.399  11.030   5.628
57700SOL    HW273125   9.504  11.155   5.633
57701SOL     OW73126  10.590  10.237   4.396
57701SOL    HW173127  10.650  10.156   4.398
57701SOL    HW273128  10.630  10.306   4.336
57702SOL     OW73129  10.140  10.583   5.146
57702SOL    HW173130  10.135  10.616   5.241
57702SOL    HW273131  10.054  10.602   5.100
57703SOL     OW73132   9.982  10.926   3.878
57703SOL    HW173133   9.991  10.936   3.779
57703SOL    HW273134   9.942  10.837   3.899
57704SOL     OW73135  10.960  11.030   5.118
57704SOL    HW173136  11.013  11.040   5.034
57704SOL    HW273137  10.933  11.120   5.152
57705SOL     OW73138  11.151   9.485   4.687
57705SOL    HW173139  11.190   9.400   4.651
57705SOL    HW273140  11.053   9.487   4.668
57706SOL     OW73141   9.573   9.636   4.444
57706SOL    HW173142   9.494   9.687   4.410
57706SOL    HW273143   9.564   9.621   4.542
57707SOL     OW73144  10.504  10.922   3.755
57707SOL    HW173145  10.510  10.829   3.792
57707SOL    HW273146  10.445  10.922   3.675
57708SOL     OW73147  10.132  10.312   5.096
57708SOL    HW173148  10.172  10.311   5.004
57708SOL    HW273149  10.142  10.404   5.136
57709SOL     OW73150  10.226  10.220   4.015
57709SOL    HW173151  10.289  10.258   3.947
57709SOL    HW273152  10.266  10.137   4.054
57710SOL     OW73153  10.814  10.917   3.768
57710SOL    HW173154  10.722  10.954   3.775
57710SOL    HW273155  10.852  10.937   3.678
57711SOL     OW73156   9.682  10.598   5.214
57711SOL    HW173157   9.669  10.691   5.180
57711SOL    HW273158   9.598  10.546   5.201
57712SOL     OW73159  10.924  10.602   5.013
57712SOL    HW173160  10.984  10.605   5.093
57712SOL    HW273161  10.849  10.666   5.026
57713SOL     OW73162  10.349  10.408   4.420
57713SOL    HW173163  10.279  10.361   4.474
57713SOL    HW273164  10.408  10.340   4.377
57714SOL     OW73165  10.324   9.546   4.695
57714SOL    HW173166  10.316   9.510   4.602
57714SOL    HW273167  10.322   9.470   4.760
57715SOL     OW73168   9.900  10.797   4.215
57715SOL    HW173169   9.942  10.739   4.145
57715SOL    HW273170   9.856  10.876   4.171
57716SOL     OW73171  11.019   9.695   5.105
57716SOL    HW173172  11.092   9.764   5.109
57716SOL    HW273173  11.047   9.620   5.046
57717SOL     OW73174   9.565  10.658   4.014
57717SOL    HW173175   9.469  10.659   3.987
57717SOL    HW273176   9.577  10.711   4.098
57718SOL     OW73177   9.415  10.323   5.450
57718SOL    HW173178   9.338  10.290   5.504
57718SOL    HW273179   9.500  10.293   5.492
57719SOL     OW73180   9.982   9.513   5.213
57719SOL    HW173181  10.072   9.497   5.173
57719SOL    HW273182   9.990   9.518   5.312
57720SOL     OW73183   9.385   9.655   3.757
57720SOL    HW173184   9.293   9.627   3.728
57720SOL    HW273185   9.416   9.732   3.701
57721SOL     OW73186  10.750  10.166   5.122
57721SOL    HW173187  10.693  10.218   5.059
57721SOL    HW273188  10.846  10.178   5.098
57722SOL     OW73189   9.382   9.476   4.042
57722SOL    HW173190   9.365   9.559   3.988
57722SOL    HW273191   9.472   9.439   4.020
57723SOL     OW73192  10.493  10.645   3.843
57723SOL    HW173193  10.394  10.634   3.845
57723SOL    HW273194  10.527  10.660   3.936
57724SOL     OW73195   9.923  10.152   5.155
57724SOL    HW173196   9.979  10.233   5.138
57724SOL    HW273197   9.982  10.072   5.158
57725SOL     OW73198  10.803  11.077   4.683
57725SOL    HW173199  10.836  11.141   4.614
57725SOL    HW273200  10.869  11.071   4.758
57726SOL     OW73201  10.026   9.875   5.432
57726SOL    HW173202  10.045   9.940   5.506
57726SOL    HW273203  10.086   9.795   5.441
57727SOL     OW73204  10.760  10.530   5.357
57727SOL    HW173205  10.751  10.520   5.456
57727SOL    HW273206  10.856  10.523   5.331
57728SOL     OW73207   9.700  11.051   5.284
57728SOL    HW173208   9.609  11.092   5.282
57728SOL    HW273209   9.693  10.957   5.316
57729SOL     OW73210  10.984  10.193   4.978
57729SOL    HW173211  10.957  10.104   4.941
57729SOL    HW273212  10.985  10.261   4.905
57730SOL     OW73213   9.904  10.055   4.376
57730SOL    HW173214   9.954  10.140   4.357
57730SOL    HW273215   9.816  10.057   4.328
57731SOL     OW73216  11.087   9.652   5.366
57731SOL    HW173217  11.070   9.683   5.272
57731SOL    HW273218  11.003   9.615   5.404
57732SOL     OW73219  11.040  10.244   5.241
57732SOL    HW173220  11.078  10.335   5.256
57732SOL    HW273221  11.032  10.227   5.142
57733SOL     OW73222  10.169  10.684   3.740
57733SOL    HW173223  10.123  10.699   3.828
57733SOL    HW273224  10.213  10.769   3.710
57734SOL     OW73225   9.971  11.100   4.677
57734SOL    HW173226   9.925  11.188   4.664
57734SOL    HW273227  10.070  11.112   4.670
57735SOL     OW73228  10.169  10.266   4.585
57735SOL    HW173229  10.223  10.197   4.633
57735SOL    HW273230  10.137  10.335   4.651
57736SOL     OW73231  10.393  10.294   3.811
57736SOL    HW173232  10.370  10.347   3.729
57736SOL    HW273233  10.474  10.238   3.792
57737SOL     OW73234  11.171  10.879   4.575
57737SOL    HW173235  11.100  10.867   4.505
57737SOL    HW273236  11.172  10.800   4.635
57738SOL     OW73237   9.531  10.624   5.568
57738SOL    HW173238   9.466  10.551   5.547
57738SOL    HW273239   9.535  10.638   5.666
57739SOL     OW73240   9.389  10.550   4.377
57739SOL    HW173241   9.388  10.503   4.465
57739SOL    HW273242   9.471  10.522   4.326
57740SOL     OW73243   9.982  10.701   5.348
57740SOL    HW173244   9.904  10.651   5.386
57740SOL    HW273245   9.979  10.796   5.379
57741SOL     OW73246  11.134   9.502   4.951
57741SOL    HW173247  11.130   9.412   4.995
57741SOL    HW273248  11.137   9.491   4.852
57742SOL     OW73249   9.738   9.734   4.244
57742SOL    HW173250   9.768   9.662   4.182
57742SOL    HW273251   9.699   9.694   4.327
57743SOL     OW73252  11.015  10.797   4.828
57743SOL    HW173253  10.922  10.772   4.801
57743SOL    HW273254  11.041  10.747   4.910
57744SOL     OW73255   9.627   9.857   5.004
57744SOL    HW173256   9.665   9.798   5.076
57744SOL    HW273257   9.667   9.831   4.916
57745SOL     OW73258  10.122  10.896   4.411
57745SOL    HW173259  10.154  10.906   4.317
57745SOL    HW273260  10.043  10.834   4.413
57746SOL     OW73261  10.734   9.524   4.836
57746SOL    HW173262  10.786   9.459   4.891
57746SOL    HW273263  10.685   9.587   4.897
57747SOL     OW73264  10.311   9.344   4.878
57747SOL    HW173265  10.248   9.272   4.847
57747SOL    HW273266  10.404   9.308   4.878
57748SOL     OW73267  10.080  10.640   4.025
57748SOL    HW173268  10.034  10.553   4.042
57748SOL    HW273269  10.171  10.637   4.066
57749SOL     OW73270   9.928  10.877   5.008
57749SOL    HW173271   9.923  10.959   5.065
57749SOL    HW273272  10.017  10.874   4.963
57750SOL     OW73273  10.662   9.362   3.892
57750SOL    HW173274  10.697   9.321   3.808
57750SOL    HW273275  10.572   9.324   3.912
57751SOL     OW73276  10.610   9.763   4.415
57751SOL    HW173277  10.551   9.843   4.419
57751SOL    HW273278  10.625   9.728   4.508
57752SOL     OW73279  10.903   9.531   4.606
57752SOL    HW173280  10.819   9.530   4.660
57752SOL    HW273281  10.905   9.614   4.550
57753SOL     OW73282   9.349  10.387   4.024
57753SOL    HW173283   9.448  10.376   4.015
57753SOL    HW273284   9.309  10.301   4.056
57754SOL     OW73285  10.185  10.956   4.061
57754SOL    HW173286  10.108  10.921   4.007
57754SOL    HW273287  10.153  11.027   4.123
57755SOL     OW73288   9.540   9.938   5.699
57755SOL    HW173289   9.447   9.936   5.736
57755SOL    HW273290   9.541   9.899   5.607
57756SOL     OW73291   9.535   9.585   6.582
57756SOL    HW173292   9.570   9.568   6.674
57756SOL    HW273293   9.447   9.540   6.570
57757SOL     OW73294   9.329   9.678   6.233
57757SOL    HW173295   9.247   9.721   6.272
57757SOL    HW273296   9.301   9.605   6.170
57758SOL     OW73297   9.879  10.585   6.751
57758SOL    HW173298   9.786  10.578   6.714
57758SOL    HW273299   9.890  10.674   6.795
57759SOL     OW73300  10.865  10.821   6.289
57759SOL    HW173301  10.808  10.805   6.370
57759SOL    HW273302  10.806  10.831   6.209
57760SOL     OW73303  10.445  10.013   6.303
57760SOL    HW173304  10.502  10.091   6.278
57760SOL    HW273305  10.385  10.039   6.379
57761SOL     OW73306  11.065   9.917   5.817
57761SOL    HW173307  11.053   9.904   5.718
57761SOL    HW273308  11.035   9.836   5.866
57762SOL     OW73309  10.078  10.454   6.609
57762SOL    HW173310  10.000  10.471   6.669
57762SOL    HW273311  10.112  10.541   6.573
57763SOL     OW73312  10.160  10.108   7.409
57763SOL    HW173313  10.156  10.184   7.474
57763SOL    HW273314  10.182  10.144   7.318
57764SOL     OW73315   9.995  10.322   6.251
57764SOL    HW173316  10.064  10.306   6.321
57764SOL    HW273317   9.922  10.379   6.289
57765SOL     OW73318   9.996  10.471   7.389
57765SOL    HW173319  10.056  10.550   7.403
57765SOL    HW273320   9.910  10.502   7.348
57766SOL     OW73321   9.645  10.745   6.647
57766SOL    HW173322   9.567  10.714   6.594
57766SOL    HW273323   9.703  10.803   6.590
57767SOL     OW73324  10.770  10.815   6.925
57767SOL    HW173325  10.794  10.909   6.951
57767SOL    HW273326  10.754  10.761   7.007
57768SOL     OW73327   9.748   9.702   7.085
57768SOL    HW173328   9.830   9.646   7.094
57768SOL    HW273329   9.667   9.644   7.089
57769SOL     OW73330  10.913   9.757   6.323
57769SOL    HW173331  10.839   9.803   6.273
57769SOL    HW273332  10.964   9.825   6.376
57770SOL     OW73333   9.541  11.023   6.069
57770SOL    HW173334   9.575  11.100   6.123
57770SOL    HW273335   9.585  11.023   5.979
57771SOL     OW73336  10.437  10.651   7.276
57771SOL    HW173337  10.484  10.651   7.364
57771SOL    HW273338  10.389  10.564   7.265
57772SOL     OW73339   9.540  10.744   6.124
57772SOL    HW173340   9.514  10.840   6.124
57772SOL    HW273341   9.469  10.690   6.169
57773SOL     OW73342   9.550  10.401   6.472
57773SOL    HW173343   9.564  10.317   6.524
57773SOL    HW273344   9.495  10.465   6.527
57774SOL     OW73345   9.930  11.096   7.025
57774SOL    HW173346   9.838  11.079   7.060
57774SOL    HW273347   9.958  11.188   7.051
57775SOL     OW73348   9.916  10.274   5.709
57775SOL    HW173349   9.923  10.358   5.655
57775SOL    HW273350   9.962  10.287   5.797
57776SOL     OW73351  10.904   9.424   7.066
57776SOL    HW173352  10.886   9.491   6.994
57776SOL    HW273353  10.901   9.470   7.155
57777SOL     OW73354   9.432   9.953   6.149
57777SOL    HW173355   9.387   9.865   6.166
57777SOL    HW273356   9.431  10.007   6.233
57778SOL     OW73357  11.152  11.077   5.945
57778SOL    HW173358  11.206  11.048   6.025
57778SOL    HW273359  11.182  11.167   5.916
57779SOL     OW73360   9.337  10.906   5.703
57779SOL    HW173361   9.318  10.810   5.724
57779SOL    HW273362   9.304  10.964   5.778
57780SOL     OW73363  10.999  10.232   6.198
57780SOL    HW173364  11.094  10.203   6.206
57780SOL    HW273365  10.991  10.297   6.123
57781SOL     OW73366  10.951  10.418   6.018
57781SOL    HW173367  11.037  10.420   5.966
57781SOL    HW273368  10.965  10.465   6.106
57782SOL     OW73369   9.423  10.047   7.183
57782SOL    HW173370   9.511  10.034   7.228
57782SOL    HW273371   9.410  10.144   7.161
57783SOL     OW73372   9.923  10.675   6.312
57783SOL    HW173373   9.874  10.588   6.321
57783SOL    HW273374   9.900  10.718   6.225
57784SOL     OW73375  10.603  10.538   7.009
57784SOL    HW173376  10.640  10.465   6.951
57784SOL    HW273377  10.655  10.543   7.094
57785SOL     OW73378  10.119   9.314   6.088
57785SOL    HW173379  10.159   9.405   6.079
57785SOL    HW273380  10.019   9.322   6.094
57786SOL     OW73381   9.507  10.286   6.850
57786SOL    HW173382   9.596  10.241   6.836
57786SOL    HW273383   9.434  10.221   6.831
57787SOL     OW73384  10.835  10.309   5.776
57787SOL    HW173385  10.772  10.233   5.789
57787SOL    HW273386  10.883  10.327   5.862
57788SOL     OW73387  10.497  11.102   7.202
57788SOL    HW173388  10.521  11.162   7.126
57788SOL    HW273389  10.504  11.007   7.172
57789SOL     OW73390   9.627   9.561   7.387
57789SOL    HW173391   9.698   9.632   7.393
57789SOL    HW273392   9.539   9.600   7.415
57790SOL     OW73393  10.776  10.727   6.539
57790SOL    HW173394  10.717  10.733   6.619
57790SOL    HW273395  10.761  10.639   6.493
57791SOL     OW73396  10.977  11.024   6.158
57791SOL    HW173397  10.936  11.001   6.070
57791SOL    HW273398  10.959  10.950   6.223
57792SOL     OW73399   9.908  10.039   5.856
57792SOL    HW173400   9.932  10.108   5.788
57792SOL    HW273401   9.830  10.072   5.910
57793SOL     OW73402  10.591   9.655   6.530
57793SOL    HW173403  10.505   9.605   6.517
57793SOL    HW273404  10.653   9.601   6.586
57794SOL     OW73405  10.886  10.972   5.893
57794SOL    HW173406  10.975  11.018   5.896
57794SOL    HW273407  10.865  10.948   5.798
57795SOL     OW73408  10.117   9.915   7.051
57795SOL    HW173409  10.070   9.912   7.140
57795SOL    HW273410  10.066   9.860   6.985
57796SOL     OW73411  10.704   9.779   7.260
57796SOL    HW173412  10.684   9.822   7.348
57796SOL    HW273413  10.782   9.717   7.269
57797SOL     OW73414  10.283  10.200   7.158
57797SOL    HW173415  10.329  10.116   7.129
57797SOL    HW273416  10.227  10.234   7.083
57798SOL     OW73417  10.301   9.720   6.828
57798SOL    HW173418  10.224   9.754   6.882
57798SOL    HW273419  10.267   9.669   6.749
57799SOL     OW73420  10.351  10.011   6.015
57799SOL    HW173421  10.377  10.007   6.111
57799SOL    HW273422  10.266   9.960   6.001
57800SOL     OW73423   9.386  10.121   6.375
57800SOL    HW173424   9.485  10.109   6.384
57800SOL    HW273425   9.362  10.216   6.396
57801SOL     OW73426   9.440  11.131   7.157
57801SOL    HW173427   9.430  11.116   7.256
57801SOL    HW273428   9.354  11.167   7.121
57802SOL     OW73429  10.175   9.658   5.781
57802SOL    HW173430  10.234   9.721   5.732
57802SOL    HW273431  10.194   9.564   5.752
57803SOL     OW73432  11.029   9.895   7.417
57803SOL    HW173433  11.003   9.984   7.381
57803SOL    HW273434  11.027   9.827   7.344
57804SOL     OW73435  10.672  10.454   6.131
57804SOL    HW173436  10.755  10.425   6.083
57804SOL    HW273437  10.623  10.521   6.075
57805SOL     OW73438   9.860   9.506   6.471
57805SOL    HW173439   9.855   9.501   6.571
57805SOL    HW273440   9.862   9.602   6.442
57806SOL     OW73441  10.318  10.766   6.063
57806SOL    HW173442  10.272  10.838   6.011
57806SOL    HW273443  10.314  10.786   6.161
57807SOL     OW73444   9.661  11.111   6.439
57807SOL    HW173445   9.711  11.025   6.445
57807SOL    HW273446   9.726  11.188   6.436
57808SOL     OW73447  11.105  10.376   6.459
57808SOL    HW173448  11.043  10.361   6.383
57808SOL    HW273449  11.053  10.387   6.544
57809SOL     OW73450  10.537  10.860   7.092
57809SOL    HW173451  10.543  10.783   7.156
57809SOL    HW273452  10.485  10.834   7.012
57810SOL     OW73453   9.631  10.253   5.828
57810SOL    HW173454   9.713  10.292   5.786
57810SOL    HW273455   9.604  10.171   5.779
57811SOL     OW73456  10.768  10.045   6.314
57811SOL    HW173457  10.763   9.980   6.389
57811SOL    HW273458  10.848  10.104   6.327
57812SOL     OW73459   9.771  10.576   7.313
57812SOL    HW173460   9.721  10.577   7.227
57812SOL    HW273461   9.708  10.558   7.389
57813SOL     OW73462  10.421  11.086   5.823
57813SOL    HW173463  10.361  11.024   5.873
57813SOL    HW273464  10.452  11.042   5.738
57814SOL     OW73465   9.512   9.595   7.084
57814SOL    HW173466   9.432   9.655   7.071
57814SOL    HW273467   9.502   9.546   7.170
57815SOL     OW73468  10.942  10.687   5.667
57815SOL    HW173469  10.910  10.781   5.657
57815SOL    HW273470  10.866  10.624   5.655
57816SOL     OW73471   9.774  11.053   5.909
57816SOL    HW173472   9.807  11.092   5.995
57816SOL    HW273473   9.850  11.046   5.844
57817SOL     OW73474  10.710   9.417   6.012
57817SOL    HW173475  10.686   9.380   5.922
57817SOL    HW273476  10.809   9.433   6.016
57818SOL     OW73477   9.559  11.095   6.827
57818SOL    HW173478   9.616  11.030   6.877
57818SOL    HW273479   9.543  11.062   6.734
57819SOL     OW73480  10.250  11.008   6.490
57819SOL    HW173481  10.330  10.951   6.511
57819SOL    HW273482  10.201  10.968   6.413
57820SOL     OW73483   9.692  10.010   6.066
57820SOL    HW173484   9.737   9.920   6.063
57820SOL    HW273485   9.598   9.999   6.099
57821SOL     OW73486  10.857   9.532   7.315
57821SOL    HW173487  10.852   9.569   7.407
57821SOL    HW273488  10.785   9.463   7.303
57822SOL     OW73489   9.924   9.432   5.703
57822SOL    HW173490  10.022   9.410   5.710
57822SOL    HW273491   9.893   9.415   5.610
57823SOL     OW73492  10.091   9.574   7.335
57823SOL    HW173493  10.158   9.513   7.378
57823SOL    HW273494  10.018   9.593   7.400
57824SOL     OW73495  10.198  10.824   6.781
57824SOL    HW173496  10.175  10.799   6.687
57824SOL    HW273497  10.259  10.755   6.820
57825SOL     OW73498  10.661   9.900   7.019
57825SOL    HW173499  10.689   9.857   7.104
57825SOL    HW273500  10.686   9.996   7.020
57826SOL     OW73501  10.113  10.712   6.510
57826SOL    HW173502  10.203  10.726   6.468
57826SOL    HW273503  10.042  10.714   6.439
57827SOL     OW73504  10.232   9.813   6.485
57827SOL    HW173505  10.207   9.804   6.389
57827SOL    HW273506  10.280   9.731   6.516
57828SOL     OW73507   9.849   9.374   6.098
57828SOL    HW173508   9.768   9.375   6.156
57828SOL    HW273509   9.852   9.457   6.043
57829SOL     OW73510  10.744  10.498   5.627
57829SOL    HW173511  10.776  10.422   5.684
57829SOL    HW273512  10.652  10.525   5.657
57830SOL     OW73513   9.607   9.345   5.757
57830SOL    HW173514   9.656   9.429   5.736
57830SOL    HW273515   9.669   9.280   5.802
57831SOL     OW73516  10.245   9.546   6.066
57831SOL    HW173517  10.197   9.587   5.988
57831SOL    HW273518  10.344   9.544   6.047
57832SOL     OW73519  10.386   9.993   7.050
57832SOL    HW173520  10.306   9.932   7.053
57832SOL    HW273521  10.467   9.940   7.026
57833SOL     OW73522  10.537  10.880   6.379
57833SOL    HW173523  10.558  10.954   6.314
57833SOL    HW273524  10.605  10.880   6.452
57834SOL     OW73525   9.769  10.462   6.327
57834SOL    HW173526   9.698  10.435   6.392
57834SOL    HW273527   9.743  10.434   6.234
57835SOL     OW73528  10.581  11.107   6.177
57835SOL    HW173529  10.625  11.171   6.113
57835SOL    HW273530  10.531  11.159   6.247
57836SOL     OW73531  10.342   9.859   5.602
57836SOL    HW173532  10.301   9.941   5.563
57836SOL    HW273533  10.406   9.885   5.675
57837SOL     OW73534   9.388   9.866   6.972
57837SOL    HW173535   9.480   9.865   6.931
57837SOL    HW273536   9.382   9.940   7.039
57838SOL     OW73537   9.871   9.532   6.733
57838SOL    HW173538   9.909   9.448   6.770
57838SOL    HW273539   9.783   9.551   6.777
57839SOL     OW73540  10.176   9.764   6.228
57839SOL    HW173541  10.144   9.836   6.166
57839SOL    HW273542  10.200   9.683   6.175
57840SOL     OW73543  10.327   9.349   6.339
57840SOL    HW173544  10.255   9.354   6.270
57840SOL    HW273545  10.303   9.280   6.408
57841SOL     OW73546  10.739  10.483   6.453
57841SOL    HW173547  10.684  10.399   6.446
57841SOL    HW273548  10.765  10.512   6.361
57842SOL     OW73549  10.776   9.900   6.578
57842SOL    HW173550  10.746   9.805   6.585
57842SOL    HW273551  10.849   9.916   6.644
57843SOL     OW73552  11.167  10.143   5.963
57843SOL    HW173553  11.209  10.079   6.027
57843SOL    HW273554  11.129  10.092   5.885
57844SOL     OW73555   9.798  10.695   5.760
57844SOL    HW173556   9.711  10.680   5.807
57844SOL    HW273557   9.781  10.721   5.665
57845SOL     OW73558  10.974  10.590   6.243
57845SOL    HW173559  11.073  10.598   6.257
57845SOL    HW273560  10.929  10.674   6.274
57846SOL     OW73561  10.700   9.885   5.664
57846SOL    HW173562  10.646   9.864   5.745
57846SOL    HW273563  10.791   9.844   5.673
57847SOL     OW73564   9.837   9.566   5.914
57847SOL    HW173565   9.864   9.507   5.839
57847SOL    HW273566   9.837   9.661   5.883
57848SOL     OW73567  11.064  10.533   7.174
57848SOL    HW173568  11.155  10.494   7.161
57848SOL    HW273569  11.072  10.629   7.198
57849SOL     OW73570  10.374  10.657   6.926
57849SOL    HW173571  10.294  10.634   6.981
57849SOL    HW273572  10.457  10.631   6.975
57850SOL     OW73573  10.902  10.939   7.211
57850SOL    HW173574  10.929  10.973   7.121
57850SOL    HW273575  10.981  10.901   7.257
57851SOL     OW73576  10.421  10.505   6.686
57851SOL    HW173577  10.381  10.549   6.767
57851SOL    HW273578  10.380  10.542   6.603
57852SOL     OW73579  10.948  10.409   6.665
57852SOL    HW173580  10.953  10.490   6.724
57852SOL    HW273581  10.862  10.411   6.614
57853SOL     OW73582  10.225   9.399   6.988
57853SOL    HW173583  10.250   9.379   6.893
57853SOL    HW273584  10.297   9.455   7.030
57854SOL     OW73585  10.290  10.426   7.305
57854SOL    HW173586  10.191  10.432   7.315
57854SOL    HW273587  10.313  10.346   7.249
57855SOL     OW73588  10.015  10.360   5.954
57855SOL    HW173589  10.001  10.367   6.053
57855SOL    HW273590  10.099  10.309   5.936
57856SOL     OW73591   9.720  10.123   6.837
57856SOL    HW173592   9.806  10.135   6.887
57856SOL    HW273593   9.678  10.036   6.864
57857SOL     OW73594  10.584   9.696   6.848
57857SOL    HW173595  10.605   9.770   6.912
57857SOL    HW273596  10.495   9.713   6.805
57858SOL     OW73597   9.374  10.874   6.917
57858SOL    HW173598   9.328  10.956   6.883
57858SOL    HW273599   9.472  10.893   6.926
57859SOL     OW73600   9.677  10.410   6.087
57859SOL    HW173601   9.670  10.493   6.031
57859SOL    HW273602   9.681  10.330   6.027
57860SOL     OW73603   9.876   9.847   6.451
57860SOL    HW173604   9.888   9.913   6.377
57860SOL    HW273605   9.922   9.881   6.534
57861SOL     OW73606  10.562  10.658   5.974
57861SOL    HW173607  10.612  10.735   6.014
57861SOL    HW273608  10.467  10.660   6.006
57862SOL     OW73609  10.582  10.755   6.728
57862SOL    HW173610  10.629  10.768   6.815
57862SOL    HW273611  10.516  10.681   6.737
57863SOL     OW73612  10.892   9.949   6.058
57863SOL    HW173613  10.861  10.010   6.131
57863SOL    HW273614  10.942  10.001   5.989
57864SOL     OW73615   9.664  10.820   6.915
57864SOL    HW173616   9.643  10.776   6.828
57864SOL    HW273617   9.761  10.846   6.918
57865SOL     OW73618   9.712  10.061   7.184
57865SOL    HW173619   9.780  10.116   7.137
57865SOL    HW273620   9.752   9.973   7.211
57866SOL     OW73621  10.897  10.089   7.256
57866SOL    HW173622  10.805  10.127   7.251
57866SOL    HW273623  10.957  10.136   7.191
57867SOL     OW73624  10.323   9.415   7.356
57867SOL    HW173625  10.329   9.500   7.304
57867SOL    HW273626  10.355   9.339   7.299
57868SOL     OW73627   9.814   9.360   7.326
57868SOL    HW173628   9.772   9.303   7.256
57868SOL    HW273629   9.748   9.429   7.358
57869SOL     OW73630   9.883  10.180   6.615
57869SOL    HW173631   9.927  10.269   6.606
57869SOL    HW273632   9.820  10.180   6.692
57870SOL     OW73633  10.670  10.172   6.631
57870SOL    HW173634  10.595  10.172   6.565
57870SOL    HW273635  10.707  10.080   6.640
57871SOL     OW73636  10.519   9.835   5.861
57871SOL    HW173637  10.532   9.751   5.915
57871SOL    HW273638  10.490   9.909   5.921
57872SOL     OW73639   9.617   9.523   6.817
57872SOL    HW173640   9.594   9.560   6.907
57872SOL    HW273641   9.587   9.428   6.811
57873SOL     OW73642   9.347  10.620   6.868
57873SOL    HW173643   9.400  10.571   6.936
57873SOL    HW273644   9.369  10.718   6.873
57874SOL     OW73645  10.042   9.944   6.650
57874SOL    HW173646  10.101   9.918   6.574
57874SOL    HW273647  10.014  10.040   6.639
57875SOL     OW73648  11.038  10.245   7.440
57875SOL    HW173649  10.992  10.238   7.351
57875SOL    HW273650  10.976  10.289   7.506
57876SOL     OW73651   9.617   9.373   6.204
57876SOL    HW173652   9.606   9.467   6.237
57876SOL    HW273653   9.612   9.310   6.281
57877SOL     OW73654  10.932   9.677   5.960
57877SOL    HW173655  10.934   9.601   6.024
57877SOL    HW273656  10.884   9.754   6.000
57878SOL     OW73657  10.333  10.076   6.552
57878SOL    HW173658  10.348  10.097   6.648
57878SOL    HW273659  10.303   9.981   6.543
57879SOL     OW73660  10.290  10.883   7.286
57879SOL    HW173661  10.270  10.927   7.198
57879SOL    HW273662  10.329  10.792   7.270
57880SOL     OW73663  11.169  10.828   7.191
57880SOL    HW173664  11.183  10.855   7.096
57880SOL    HW273665  11.252  10.850   7.244
57881SOL     OW73666   9.660  10.208   7.390
57881SOL    HW173667   9.736  10.252   7.438
57881SOL    HW273668   9.695  10.161   7.308
57882SOL     OW73669  10.850   9.584   5.711
57882SOL    HW173670  10.789   9.509   5.734
57882SOL    HW273671  10.872   9.636   5.794
57883SOL     OW73672  10.613  10.148   5.628
57883SOL    HW173673  10.647  10.055   5.643
57883SOL    HW273674  10.631  10.175   5.533
57884SOL     OW73675  10.378  10.643   6.435
57884SOL    HW173676  10.385  10.559   6.380
57884SOL    HW273677  10.440  10.712   6.399
57885SOL     OW73678   9.629  10.120   6.535
57885SOL    HW173679   9.722  10.156   6.540
57885SOL    HW273680   9.623  10.035   6.587
57886SOL     OW73681   9.649   9.819   6.592
57886SOL    HW173682   9.597   9.736   6.575
57886SOL    HW273683   9.726   9.824   6.528
57887SOL     OW73684  10.448   9.690   7.264
57887SOL    HW173685  10.403   9.753   7.328
57887SOL    HW273686  10.541   9.721   7.247
57888SOL     OW73687  10.470   9.517   7.063
57888SOL    HW173688  10.470   9.581   7.140
57888SOL    HW273689  10.498   9.565   6.980
57889SOL     OW73690   9.318  10.636   5.786
57889SOL    HW173691   9.225  10.657   5.755
57889SOL    HW273692   9.328  10.537   5.799
57890SOL     OW73693   9.398  11.111   6.513
57890SOL    HW173694   9.356  11.025   6.486
57890SOL    HW273695   9.492  11.114   6.479
57891SOL     OW73696   9.814  10.878   6.496
57891SOL    HW173697   9.880  10.952   6.505
57891SOL    HW273698   9.858  10.799   6.454
57892SOL     OW73699  10.312  10.106   6.824
57892SOL    HW173700  10.353  10.074   6.910
57892SOL    HW273701  10.216  10.079   6.821
57893SOL     OW73702   9.350   9.854   6.700
57893SOL    HW173703   9.435   9.821   6.659
57893SOL    HW273704   9.363   9.869   6.798
57894SOL     OW73705   9.499   9.830   7.308
57894SOL    HW173706   9.558   9.790   7.238
57894SOL    HW273707   9.441   9.901   7.267
57895SOL     OW73708  10.679  10.260   7.246
57895SOL    HW173709  10.718  10.349   7.266
57895SOL    HW273710  10.689  10.240   7.149
57896SOL     OW73711  10.125   9.882   5.911
57896SOL    HW173712  10.132   9.793   5.865
57896SOL    HW273713  10.031   9.916   5.903
57897SOL     OW73714  10.967   9.914   6.792
57897SOL    HW173715  10.929   9.845   6.854
57897SOL    HW273716  11.049   9.878   6.748
57898SOL     OW73717   9.562  10.874   7.330
57898SOL    HW173718   9.532  10.931   7.406
57898SOL    HW273719   9.555  10.777   7.356
57899SOL     OW73720   9.981   9.774   6.855
57899SOL    HW173721   9.947   9.685   6.825
57899SOL    HW273722  10.007   9.828   6.775
57900SOL     OW73723  10.240  10.988   7.051
57900SOL    HW173724  10.216  10.970   6.956
57900SOL    HW273725  10.270  11.082   7.061
57901SOL     OW73726   9.783   9.810   5.777
57901SOL    HW173727   9.844   9.890   5.781
57901SOL    HW273728   9.688   9.841   5.784
57902SOL     OW73729   9.469  10.447   7.052
57902SOL    HW173730   9.491  10.386   7.128
57902SOL    HW273731   9.479  10.398   6.966
57903SOL     OW73732  10.657  10.369   6.820
57903SOL    HW173733  10.681  10.306   6.746
57903SOL    HW273734  10.567  10.409   6.802
57904SOL     OW73735  10.612  10.165   5.895
57904SOL    HW173736  10.526  10.134   5.937
57904SOL    HW273737  10.608  10.151   5.796
57905SOL     OW73738  11.069  11.057   6.740
57905SOL    HW173739  11.130  11.087   6.667
57905SOL    HW273740  11.031  10.968   6.718
57906SOL     OW73741  10.562  11.041   6.714
57906SOL    HW173742  10.646  11.046   6.660
57906SOL    HW273743  10.539  10.945   6.732
57907SOL     OW73744   9.393  10.568   6.608
57907SOL    HW173745   9.388  10.567   6.708
57907SOL    HW273746   9.310  10.527   6.570
57908SOL     OW73747   9.998  10.972   7.302
57908SOL    HW173748   9.942  11.053   7.311
57908SOL    HW273749  10.050  10.976   7.216
57909SOL     OW73750  11.036   9.445   6.109
57909SOL    HW173751  11.109   9.428   6.042
57909SOL    HW273752  11.005   9.358   6.147
57910SOL     OW73753  10.698  10.883   6.063
57910SOL    HW173754  10.765  10.895   5.989
57910SOL    HW273755  10.658  10.972   6.086
57911SOL     OW73756   9.440  11.104   7.437
57911SOL    HW173757   9.399  11.030   7.490
57911SOL    HW273758   9.504  11.155   7.495
57912SOL     OW73759  10.590  10.237   6.258
57912SOL    HW173760  10.650  10.156   6.260
57912SOL    HW273761  10.630  10.306   6.198
57913SOL     OW73762  10.140  10.583   7.008
57913SOL    HW173763  10.135  10.616   7.103
57913SOL    HW273764  10.054  10.602   6.962
57914SOL     OW73765   9.982  10.926   5.740
57914SOL    HW173766   9.991  10.936   5.641
57914SOL    HW273767   9.942  10.837   5.761
57915SOL     OW73768  10.960  11.030   6.980
57915SOL    HW173769  11.013  11.040   6.896
57915SOL    HW273770  10.933  11.120   7.014
57916SOL     OW73771  11.151   9.485   6.549
57916SOL    HW173772  11.190   9.400   6.513
57916SOL    HW273773  11.053   9.487   6.530
57917SOL     OW73774   9.573   9.636   6.306
57917SOL    HW173775   9.494   9.687   6.272
57917SOL    HW273776   9.564   9.621   6.404
57918SOL     OW73777  10.504  10.922   5.617
57918SOL    HW173778  10.510  10.829   5.654
57918SOL    HW273779  10.445  10.922   5.537
57919SOL     OW73780  10.132  10.312   6.958
57919SOL    HW173781  10.172  10.311   6.866
57919SOL    HW273782  10.142  10.404   6.998
57920SOL     OW73783  10.226  10.220   5.877
57920SOL    HW173784  10.289  10.258   5.809
57920SOL    HW273785  10.266  10.137   5.916
57921SOL     OW73786  10.814  10.917   5.630
57921SOL    HW173787  10.722  10.954   5.637
57921SOL    HW273788  10.852  10.937   5.540
57922SOL     OW73789   9.682  10.598   7.076
57922SOL    HW173790   9.669  10.691   7.042
57922SOL    HW273791   9.598  10.546   7.063
57923SOL     OW73792  10.924  10.602   6.875
57923SOL    HW173793  10.984  10.605   6.955
57923SOL    HW273794  10.849  10.666   6.888
57924SOL     OW73795  10.349  10.408   6.282
57924SOL    HW173796  10.279  10.361   6.336
57924SOL    HW273797  10.408  10.340   6.239
57925SOL     OW73798  10.324   9.546   6.557
57925SOL    HW173799  10.316   9.510   6.464
57925SOL    HW273800  10.322   9.470   6.622
57926SOL     OW73801   9.900  10.797   6.077
57926SOL    HW173802   9.942  10.739   6.007
57926SOL    HW273803   9.856  10.876   6.033
57927SOL     OW73804  11.019   9.695   6.967
57927SOL    HW173805  11.092   9.764   6.971
57927SOL    HW273806  11.047   9.620   6.908
57928SOL     OW73807   9.565  10.658   5.876
57928SOL    HW173808   9.469  10.659   5.849
57928SOL    HW273809   9.577  10.711   5.960
57929SOL     OW73810   9.415  10.323   7.312
57929SOL    HW173811   9.338  10.290   7.366
57929SOL    HW273812   9.500  10.293   7.354
57930SOL     OW73813   9.982   9.513   7.075
57930SOL    HW173814  10.072   9.497   7.035
57930SOL    HW273815   9.990   9.518   7.174
57931SOL     OW73816   9.385   9.655   5.619
57931SOL    HW173817   9.293   9.627   5.590
57931SOL    HW273818   9.416   9.732   5.563
57932SOL     OW73819  10.750  10.166   6.984
57932SOL    HW173820  10.693  10.218   6.921
57932SOL    HW273821  10.846  10.178   6.960
57933SOL     OW73822   9.382   9.476   5.904
57933SOL    HW173823   9.365   9.559   5.850
57933SOL    HW273824   9.472   9.439   5.882
57934SOL     OW73825  10.493  10.645   5.705
57934SOL    HW173826  10.394  10.634   5.707
57934SOL    HW273827  10.527  10.660   5.798
57935SOL     OW73828   9.923  10.152   7.017
57935SOL    HW173829   9.979  10.233   7.000
57935SOL    HW273830   9.982  10.072   7.020
57936SOL     OW73831  10.803  11.077   6.545
57936SOL    HW173832  10.836  11.141   6.476
57936SOL    HW273833  10.869  11.071   6.620
57937SOL     OW73834  10.026   9.875   7.294
57937SOL    HW173835  10.045   9.940   7.368
57937SOL    HW273836  10.086   9.795   7.303
57938SOL     OW73837  10.760  10.530   7.219
57938SOL    HW173838  10.751  10.520   7.318
57938SOL    HW273839  10.856  10.523   7.193
57939SOL     OW73840   9.700  11.051   7.146
57939SOL    HW173841   9.609  11.092   7.144
57939SOL    HW273842   9.693  10.957   7.178
57940SOL     OW73843  10.984  10.193   6.840
57940SOL    HW173844  10.957  10.104   6.803
57940SOL    HW273845  10.985  10.261   6.767
57941SOL     OW73846  10.535   9.635   6.035
57941SOL    HW173847  10.600   9.561   6.024
57941SOL    HW273848  10.555   9.685   6.119
57942SOL     OW73849  11.087   9.652   7.228
57942SOL    HW173850  11.070   9.683   7.134
57942SOL    HW273851  11.003   9.615   7.266
57943SOL     OW73852  11.040  10.244   7.103
57943SOL    HW173853  11.078  10.335   7.118
57943SOL    HW273854  11.032  10.227   7.004
57944SOL     OW73855  10.169  10.684   5.602
57944SOL    HW173856  10.123  10.699   5.690
57944SOL    HW273857  10.213  10.769   5.572
57945SOL     OW73858   9.971  11.100   6.539
57945SOL    HW173859   9.925  11.188   6.526
57945SOL    HW273860  10.070  11.112   6.532
57946SOL     OW73861  10.169  10.266   6.447
57946SOL    HW173862  10.223  10.197   6.495
57946SOL    HW273863  10.137  10.335   6.513
57947SOL     OW73864  10.393  10.294   5.673
57947SOL    HW173865  10.370  10.347   5.591
57947SOL    HW273866  10.474  10.238   5.654
57948SOL     OW73867  11.171  10.879   6.437
57948SOL    HW173868  11.100  10.867   6.367
57948SOL    HW273869  11.172  10.800   6.497
57949SOL     OW73870   9.531  10.624   7.430
57949SOL    HW173871   9.466  10.551   7.409
57949SOL    HW273872   9.535  10.638   7.528
57950SOL     OW73873   9.389  10.550   6.239
57950SOL    HW173874   9.388  10.503   6.327
57950SOL    HW273875   9.471  10.522   6.188
57951SOL     OW73876   9.982  10.701   7.210
57951SOL    HW173877   9.904  10.651   7.248
57951SOL    HW273878   9.979  10.796   7.241
57952SOL     OW73879  11.134   9.502   6.813
57952SOL    HW173880  11.130   9.412   6.857
57952SOL    HW273881  11.137   9.491   6.714
57953SOL     OW73882   9.738   9.734   6.106
57953SOL    HW173883   9.768   9.662   6.044
57953SOL    HW273884   9.699   9.694   6.189
57954SOL     OW73885  11.015  10.797   6.690
57954SOL    HW173886  10.922  10.772   6.663
57954SOL    HW273887  11.041  10.747   6.772
57955SOL     OW73888   9.627   9.857   6.866
57955SOL    HW173889   9.665   9.798   6.938
57955SOL    HW273890   9.667   9.831   6.778
57956SOL     OW73891  10.122  10.896   6.273
57956SOL    HW173892  10.154  10.906   6.179
57956SOL    HW273893  10.043  10.834   6.275
57957SOL     OW73894  10.734   9.524   6.698
57957SOL    HW173895  10.786   9.459   6.753
57957SOL    HW273896  10.685   9.587   6.759
57958SOL     OW73897  10.311   9.344   6.740
57958SOL    HW173898  10.248   9.272   6.709
57958SOL    HW273899  10.404   9.308   6.740
57959SOL     OW73900  10.080  10.640   5.887
57959SOL    HW173901  10.034  10.553   5.904
57959SOL    HW273902  10.171  10.637   5.928
57960SOL     OW73903   9.928  10.877   6.870
57960SOL    HW173904   9.923  10.959   6.927
57960SOL    HW273905  10.017  10.874   6.825
57961SOL     OW73906  10.662   9.362   5.754
57961SOL    HW173907  10.697   9.321   5.670
57961SOL    HW273908  10.572   9.324   5.774
57962SOL     OW73909  10.610   9.763   6.277
57962SOL    HW173910  10.551   9.843   6.281
57962SOL    HW273911  10.625   9.728   6.370
57963SOL     OW73912  10.903   9.531   6.468
57963SOL    HW173913  10.819   9.530   6.522
57963SOL    HW273914  10.905   9.614   6.412
57964SOL     OW73915   9.349  10.387   5.886
57964SOL    HW173916   9.448  10.376   5.877
57964SOL    HW273917   9.309  10.301   5.918
57965SOL     OW73918  10.185  10.956   5.923
57965SOL    HW173919  10.108  10.921   5.869
57965SOL    HW273920  10.153  11.027   5.985
57966SOL     OW73921   9.540   9.938   7.561
57966SOL    HW173922   9.447   9.936   7.598
57966SOL    HW273923   9.541   9.899   7.469
57967SOL     OW73924   9.535   9.585   8.444
57967SOL    HW173925   9.570   9.568   8.536
57967SOL    HW273926   9.447   9.540   8.432
57968SOL     OW73927   9.329   9.678   8.095
57968SOL    HW173928   9.247   9.721   8.134
57968SOL    HW273929   9.301   9.605   8.032
57969SOL     OW73930   9.879  10.585   8.613
57969SOL    HW173931   9.786  10.578   8.576
57969SOL    HW273932   9.890  10.674   8.657
57970SOL     OW73933  10.865  10.821   8.151
57970SOL    HW173934  10.808  10.805   8.232
57970SOL    HW273935  10.806  10.831   8.071
57971SOL     OW73936  10.445  10.013   8.165
57971SOL    HW173937  10.502  10.091   8.140
57971SOL    HW273938  10.385  10.039   8.241
57972SOL     OW73939  11.065   9.917   7.679
57972SOL    HW173940  11.053   9.904   7.580
57972SOL    HW273941  11.035   9.836   7.728
57973SOL     OW73942  10.078  10.454   8.471
57973SOL    HW173943  10.000  10.471   8.531
57973SOL    HW273944  10.112  10.541   8.435
57974SOL     OW73945  10.160  10.108   9.271
57974SOL    HW173946  10.156  10.184   9.336
57974SOL    HW273947  10.182  10.144   9.180
57975SOL     OW73948   9.995  10.322   8.113
57975SOL    HW173949  10.064  10.306   8.183
57975SOL    HW273950   9.922  10.379   8.151
57976SOL     OW73951   9.996  10.471   9.251
57976SOL    HW173952  10.056  10.550   9.265
57976SOL    HW273953   9.910  10.502   9.210
57977SOL     OW73954   9.645  10.745   8.509
57977SOL    HW173955   9.567  10.714   8.456
57977SOL    HW273956   9.703  10.803   8.452
57978SOL     OW73957  10.770  10.815   8.787
57978SOL    HW173958  10.794  10.909   8.813
57978SOL    HW273959  10.754  10.761   8.869
57979SOL     OW73960   9.748   9.702   8.947
57979SOL    HW173961   9.830   9.646   8.956
57979SOL    HW273962   9.667   9.644   8.951
57980SOL     OW73963  10.913   9.757   8.185
57980SOL    HW173964  10.839   9.803   8.135
57980SOL    HW273965  10.964   9.825   8.238
57981SOL     OW73966   9.541  11.023   7.931
57981SOL    HW173967   9.575  11.100   7.985
57981SOL    HW273968   9.585  11.023   7.841
57982SOL     OW73969  10.437  10.651   9.138
57982SOL    HW173970  10.484  10.651   9.226
57982SOL    HW273971  10.389  10.564   9.127
57983SOL     OW73972   9.550  10.401   8.334
57983SOL    HW173973   9.564  10.317   8.386
57983SOL    HW273974   9.495  10.465   8.389
57984SOL     OW73975   9.930  11.096   8.887
57984SOL    HW173976   9.838  11.079   8.922
57984SOL    HW273977   9.958  11.188   8.913
57985SOL     OW73978   9.916  10.274   7.571
57985SOL    HW173979   9.923  10.358   7.517
57985SOL    HW273980   9.962  10.287   7.659
57986SOL     OW73981  10.904   9.424   8.928
57986SOL    HW173982  10.886   9.491   8.856
57986SOL    HW273983  10.901   9.470   9.017
57987SOL     OW73984   9.432   9.953   8.011
57987SOL    HW173985   9.387   9.865   8.028
57987SOL    HW273986   9.431  10.007   8.095
57988SOL     OW73987  11.152  11.077   7.807
57988SOL    HW173988  11.206  11.048   7.887
57988SOL    HW273989  11.182  11.167   7.778
57989SOL     OW73990   9.337  10.906   7.565
57989SOL    HW173991   9.318  10.810   7.586
57989SOL    HW273992   9.304  10.964   7.640
57990SOL     OW73993  10.999  10.232   8.060
57990SOL    HW173994  11.094  10.203   8.068
57990SOL    HW273995  10.991  10.297   7.985
57991SOL     OW73996  10.951  10.418   7.880
57991SOL    HW173997  11.037  10.420   7.828
57991SOL    HW273998  10.965  10.465   7.968
57992SOL     OW73999   9.423  10.047   9.045
57992SOL    HW174000   9.511  10.034   9.090
57992SOL    HW274001   9.410  10.144   9.023
57993SOL     OW74002   9.923  10.675   8.174
57993SOL    HW174003   9.874  10.588   8.183
57993SOL    HW274004   9.900  10.718   8.087
57994SOL     OW74005  10.603  10.538   8.871
57994SOL    HW174006  10.640  10.465   8.813
57994SOL    HW274007  10.655  10.543   8.956
57995SOL     OW74008  10.119   9.314   7.950
57995SOL    HW174009  10.159   9.405   7.941
57995SOL    HW274010  10.019   9.322   7.956
57996SOL     OW74011   9.507  10.286   8.712
57996SOL    HW174012   9.596  10.241   8.698
57996SOL    HW274013   9.434  10.221   8.693
57997SOL     OW74014  10.835  10.309   7.638
57997SOL    HW174015  10.772  10.233   7.651
57997SOL    HW274016  10.883  10.327   7.724
57998SOL     OW74017  10.497  11.102   9.064
57998SOL    HW174018  10.521  11.162   8.988
57998SOL    HW274019  10.504  11.007   9.034
57999SOL     OW74020   9.627   9.561   9.249
57999SOL    HW174021   9.698   9.632   9.255
57999SOL    HW274022   9.539   9.600   9.277
58000SOL     OW74023  10.776  10.727   8.401
58000SOL    HW174024  10.717  10.733   8.481
58000SOL    HW274025  10.761  10.639   8.355
58001SOL     OW74026  10.977  11.024   8.020
58001SOL    HW174027  10.936  11.001   7.932
58001SOL    HW274028  10.959  10.950   8.085
58002SOL     OW74029   9.908  10.039   7.718
58002SOL    HW174030   9.932  10.108   7.650
58002SOL    HW274031   9.830  10.072   7.772
58003SOL     OW74032  10.591   9.655   8.392
58003SOL    HW174033  10.505   9.605   8.379
58003SOL    HW274034  10.653   9.601   8.448
58004SOL     OW74035  10.886  10.972   7.755
58004SOL    HW174036  10.975  11.018   7.758
58004SOL    HW274037  10.865  10.948   7.660
58005SOL     OW74038  10.117   9.915   8.913
58005SOL    HW174039  10.070   9.912   9.002
58005SOL    HW274040  10.066   9.860   8.847
58006SOL     OW74041  10.704   9.779   9.122
58006SOL    HW174042  10.684   9.822   9.210
58006SOL    HW274043  10.782   9.717   9.131
58007SOL     OW74044  10.283  10.200   9.020
58007SOL    HW174045  10.329  10.116   8.991
58007SOL    HW274046  10.227  10.234   8.945
58008SOL     OW74047  10.301   9.720   8.690
58008SOL    HW174048  10.224   9.754   8.744
58008SOL    HW274049  10.267   9.669   8.611
58009SOL     OW74050  10.351  10.011   7.877
58009SOL    HW174051  10.377  10.007   7.973
58009SOL    HW274052  10.266   9.960   7.863
58010SOL     OW74053   9.386  10.121   8.237
58010SOL    HW174054   9.485  10.109   8.246
58010SOL    HW274055   9.362  10.216   8.258
58011SOL     OW74056   9.440  11.131   9.019
58011SOL    HW174057   9.430  11.116   9.118
58011SOL    HW274058   9.354  11.167   8.983
58012SOL     OW74059  10.175   9.658   7.643
58012SOL    HW174060  10.234   9.721   7.594
58012SOL    HW274061  10.194   9.564   7.614
58013SOL     OW74062  11.029   9.895   9.279
58013SOL    HW174063  11.003   9.984   9.243
58013SOL    HW274064  11.027   9.827   9.206
58014SOL     OW74065  10.672  10.454   7.993
58014SOL    HW174066  10.755  10.425   7.945
58014SOL    HW274067  10.623  10.521   7.937
58015SOL     OW74068   9.860   9.506   8.333
58015SOL    HW174069   9.855   9.501   8.433
58015SOL    HW274070   9.862   9.602   8.304
58016SOL     OW74071  10.318  10.766   7.925
58016SOL    HW174072  10.272  10.838   7.873
58016SOL    HW274073  10.314  10.786   8.023
58017SOL     OW74074   9.661  11.111   8.301
58017SOL    HW174075   9.711  11.025   8.307
58017SOL    HW274076   9.726  11.188   8.298
58018SOL     OW74077  11.105  10.376   8.321
58018SOL    HW174078  11.043  10.361   8.245
58018SOL    HW274079  11.053  10.387   8.406
58019SOL     OW74080  10.537  10.860   8.954
58019SOL    HW174081  10.543  10.783   9.018
58019SOL    HW274082  10.485  10.834   8.874
58020SOL     OW74083   9.631  10.253   7.690
58020SOL    HW174084   9.713  10.292   7.648
58020SOL    HW274085   9.604  10.171   7.641
58021SOL     OW74086  10.768  10.045   8.176
58021SOL    HW174087  10.763   9.980   8.251
58021SOL    HW274088  10.848  10.104   8.189
58022SOL     OW74089   9.771  10.576   9.175
58022SOL    HW174090   9.721  10.577   9.089
58022SOL    HW274091   9.708  10.558   9.251
58023SOL     OW74092  10.421  11.086   7.685
58023SOL    HW174093  10.361  11.024   7.735
58023SOL    HW274094  10.452  11.042   7.600
58024SOL     OW74095   9.512   9.595   8.946
58024SOL    HW174096   9.432   9.655   8.933
58024SOL    HW274097   9.502   9.546   9.032
58025SOL     OW74098   9.774  11.053   7.771
58025SOL    HW174099   9.807  11.092   7.857
58025SOL    HW274100   9.850  11.046   7.706
58026SOL     OW74101  10.710   9.417   7.874
58026SOL    HW174102  10.686   9.380   7.784
58026SOL    HW274103  10.809   9.433   7.878
58027SOL     OW74104   9.559  11.095   8.689
58027SOL    HW174105   9.616  11.030   8.739
58027SOL    HW274106   9.543  11.062   8.596
58028SOL     OW74107  10.250  11.008   8.352
58028SOL    HW174108  10.330  10.951   8.373
58028SOL    HW274109  10.201  10.968   8.275
58029SOL     OW74110   9.692  10.010   7.928
58029SOL    HW174111   9.737   9.920   7.925
58029SOL    HW274112   9.598   9.999   7.961
58030SOL     OW74113  10.857   9.532   9.177
58030SOL    HW174114  10.852   9.569   9.269
58030SOL    HW274115  10.785   9.463   9.165
58031SOL     OW74116   9.924   9.432   7.565
58031SOL    HW174117  10.022   9.410   7.572
58031SOL    HW274118   9.893   9.415   7.472
58032SOL     OW74119  10.091   9.574   9.197
58032SOL    HW174120  10.158   9.513   9.240
58032SOL    HW274121  10.018   9.593   9.262
58033SOL     OW74122  10.198  10.824   8.643
58033SOL    HW174123  10.175  10.799   8.549
58033SOL    HW274124  10.259  10.755   8.682
58034SOL     OW74125  10.661   9.900   8.881
58034SOL    HW174126  10.689   9.857   8.966
58034SOL    HW274127  10.686   9.996   8.882
58035SOL     OW74128  10.113  10.712   8.372
58035SOL    HW174129  10.203  10.726   8.330
58035SOL    HW274130  10.042  10.714   8.301
58036SOL     OW74131  10.232   9.813   8.347
58036SOL    HW174132  10.207   9.804   8.251
58036SOL    HW274133  10.280   9.731   8.378
58037SOL     OW74134   9.849   9.374   7.960
58037SOL    HW174135   9.768   9.375   8.018
58037SOL    HW274136   9.852   9.457   7.905
58038SOL     OW74137  10.744  10.498   7.489
58038SOL    HW174138  10.776  10.422   7.546
58038SOL    HW274139  10.652  10.525   7.519
58039SOL     OW74140   9.607   9.345   7.619
58039SOL    HW174141   9.656   9.429   7.598
58039SOL    HW274142   9.669   9.280   7.664
58040SOL     OW74143  10.245   9.546   7.928
58040SOL    HW174144  10.197   9.587   7.850
58040SOL    HW274145  10.344   9.544   7.909
58041SOL     OW74146  10.386   9.993   8.912
58041SOL    HW174147  10.306   9.932   8.915
58041SOL    HW274148  10.467   9.940   8.888
58042SOL     OW74149  10.537  10.880   8.241
58042SOL    HW174150  10.558  10.954   8.176
58042SOL    HW274151  10.605  10.880   8.314
58043SOL     OW74152   9.769  10.462   8.189
58043SOL    HW174153   9.698  10.435   8.254
58043SOL    HW274154   9.743  10.434   8.096
58044SOL     OW74155  10.581  11.107   8.039
58044SOL    HW174156  10.625  11.171   7.975
58044SOL    HW274157  10.531  11.159   8.109
58045SOL     OW74158  10.342   9.859   7.464
58045SOL    HW174159  10.301   9.941   7.425
58045SOL    HW274160  10.406   9.885   7.537
58046SOL     OW74161   9.388   9.866   8.834
58046SOL    HW174162   9.480   9.865   8.793
58046SOL    HW274163   9.382   9.940   8.901
58047SOL     OW74164   9.871   9.532   8.595
58047SOL    HW174165   9.909   9.448   8.632
58047SOL    HW274166   9.783   9.551   8.639
58048SOL     OW74167  10.176   9.764   8.090
58048SOL    HW174168  10.144   9.836   8.028
58048SOL    HW274169  10.200   9.683   8.037
58049SOL     OW74170  10.327   9.349   8.201
58049SOL    HW174171  10.255   9.354   8.132
58049SOL    HW274172  10.303   9.280   8.270
58050SOL     OW74173  10.739  10.483   8.315
58050SOL    HW174174  10.684  10.399   8.308
58050SOL    HW274175  10.765  10.512   8.223
58051SOL     OW74176  10.776   9.900   8.440
58051SOL    HW174177  10.746   9.805   8.447
58051SOL    HW274178  10.849   9.916   8.506
58052SOL     OW74179  11.167  10.143   7.825
58052SOL    HW174180  11.209  10.079   7.889
58052SOL    HW274181  11.129  10.092   7.747
58053SOL     OW74182   9.798  10.695   7.622
58053SOL    HW174183   9.711  10.680   7.669
58053SOL    HW274184   9.781  10.721   7.527
58054SOL     OW74185  10.974  10.590   8.105
58054SOL    HW174186  11.073  10.598   8.119
58054SOL    HW274187  10.929  10.674   8.136
58055SOL     OW74188  10.700   9.885   7.526
58055SOL    HW174189  10.646   9.864   7.607
58055SOL    HW274190  10.791   9.844   7.535
58056SOL     OW74191   9.837   9.566   7.776
58056SOL    HW174192   9.864   9.507   7.701
58056SOL    HW274193   9.837   9.661   7.745
58057SOL     OW74194  11.064  10.533   9.036
58057SOL    HW174195  11.155  10.494   9.023
58057SOL    HW274196  11.072  10.629   9.060
58058SOL     OW74197  10.374  10.657   8.788
58058SOL    HW174198  10.294  10.634   8.843
58058SOL    HW274199  10.457  10.631   8.837
58059SOL     OW74200  10.902  10.939   9.073
58059SOL    HW174201  10.929  10.973   8.983
58059SOL    HW274202  10.981  10.901   9.119
58060SOL     OW74203  10.421  10.505   8.548
58060SOL    HW174204  10.381  10.549   8.629
58060SOL    HW274205  10.380  10.542   8.465
58061SOL     OW74206  10.948  10.409   8.527
58061SOL    HW174207  10.953  10.490   8.586
58061SOL    HW274208  10.862  10.411   8.476
58062SOL     OW74209  10.225   9.399   8.850
58062SOL    HW174210  10.250   9.379   8.755
58062SOL    HW274211  10.297   9.455   8.892
58063SOL     OW74212  10.290  10.426   9.167
58063SOL    HW174213  10.191  10.432   9.177
58063SOL    HW274214  10.313  10.346   9.111
58064SOL     OW74215  10.015  10.360   7.816
58064SOL    HW174216  10.001  10.367   7.915
58064SOL    HW274217  10.099  10.309   7.798
58065SOL     OW74218   9.720  10.123   8.699
58065SOL    HW174219   9.806  10.135   8.749
58065SOL    HW274220   9.678  10.036   8.726
58066SOL     OW74221  10.584   9.696   8.710
58066SOL    HW174222  10.605   9.770   8.774
58066SOL    HW274223  10.495   9.713   8.667
58067SOL     OW74224   9.374  10.874   8.779
58067SOL    HW174225   9.328  10.956   8.745
58067SOL    HW274226   9.472  10.893   8.788
58068SOL     OW74227   9.677  10.410   7.949
58068SOL    HW174228   9.670  10.493   7.893
58068SOL    HW274229   9.681  10.330   7.889
58069SOL     OW74230   9.876   9.847   8.313
58069SOL    HW174231   9.888   9.913   8.239
58069SOL    HW274232   9.922   9.881   8.396
58070SOL     OW74233  10.562  10.658   7.836
58070SOL    HW174234  10.612  10.735   7.876
58070SOL    HW274235  10.467  10.660   7.868
58071SOL     OW74236  10.582  10.755   8.590
58071SOL    HW174237  10.629  10.768   8.677
58071SOL    HW274238  10.516  10.681   8.599
58072SOL     OW74239  10.892   9.949   7.920
58072SOL    HW174240  10.861  10.010   7.993
58072SOL    HW274241  10.942  10.001   7.851
58073SOL     OW74242   9.664  10.820   8.777
58073SOL    HW174243   9.643  10.776   8.690
58073SOL    HW274244   9.761  10.846   8.780
58074SOL     OW74245   9.712  10.061   9.046
58074SOL    HW174246   9.780  10.116   8.999
58074SOL    HW274247   9.752   9.973   9.073
58075SOL     OW74248  10.897  10.089   9.118
58075SOL    HW174249  10.805  10.127   9.113
58075SOL    HW274250  10.957  10.136   9.053
58076SOL     OW74251  10.323   9.415   9.218
58076SOL    HW174252  10.329   9.500   9.166
58076SOL    HW274253  10.355   9.339   9.161
58077SOL     OW74254   9.814   9.360   9.188
58077SOL    HW174255   9.772   9.303   9.118
58077SOL    HW274256   9.748   9.429   9.220
58078SOL     OW74257   9.883  10.180   8.477
58078SOL    HW174258   9.927  10.269   8.468
58078SOL    HW274259   9.820  10.180   8.554
58079SOL     OW74260  10.670  10.172   8.493
58079SOL    HW174261  10.595  10.172   8.427
58079SOL    HW274262  10.707  10.080   8.502
58080SOL     OW74263  10.519   9.835   7.723
58080SOL    HW174264  10.532   9.751   7.777
58080SOL    HW274265  10.490   9.909   7.783
58081SOL     OW74266   9.617   9.523   8.679
58081SOL    HW174267   9.594   9.560   8.769
58081SOL    HW274268   9.587   9.428   8.673
58082SOL     OW74269   9.347  10.620   8.730
58082SOL    HW174270   9.400  10.571   8.798
58082SOL    HW274271   9.369  10.718   8.735
58083SOL     OW74272  10.042   9.944   8.512
58083SOL    HW174273  10.101   9.918   8.436
58083SOL    HW274274  10.014  10.040   8.501
58084SOL     OW74275  11.038  10.245   9.302
58084SOL    HW174276  10.992  10.238   9.213
58084SOL    HW274277  10.976  10.289   9.368
58085SOL     OW74278   9.617   9.373   8.066
58085SOL    HW174279   9.606   9.467   8.099
58085SOL    HW274280   9.612   9.310   8.143
58086SOL     OW74281  10.932   9.677   7.822
58086SOL    HW174282  10.934   9.601   7.886
58086SOL    HW274283  10.884   9.754   7.862
58087SOL     OW74284  10.333  10.076   8.414
58087SOL    HW174285  10.348  10.097   8.510
58087SOL    HW274286  10.303   9.981   8.405
58088SOL     OW74287  10.290  10.883   9.148
58088SOL    HW174288  10.270  10.927   9.060
58088SOL    HW274289  10.329  10.792   9.132
58089SOL     OW74290  11.169  10.828   9.053
58089SOL    HW174291  11.183  10.855   8.958
58089SOL    HW274292  11.252  10.850   9.106
58090SOL     OW74293   9.660  10.208   9.252
58090SOL    HW174294   9.736  10.252   9.300
58090SOL    HW274295   9.695  10.161   9.170
58091SOL     OW74296  10.850   9.584   7.573
58091SOL    HW174297  10.789   9.509   7.596
58091SOL    HW274298  10.872   9.636   7.656
58092SOL     OW74299  10.613  10.148   7.490
58092SOL    HW174300  10.647  10.055   7.505
58092SOL    HW274301  10.631  10.175   7.395
58093SOL     OW74302  10.378  10.643   8.297
58093SOL    HW174303  10.385  10.559   8.242
58093SOL    HW274304  10.440  10.712   8.261
58094SOL     OW74305   9.629  10.120   8.397
58094SOL    HW174306   9.722  10.156   8.402
58094SOL    HW274307   9.623  10.035   8.449
58095SOL     OW74308   9.649   9.819   8.454
58095SOL    HW174309   9.597   9.736   8.437
58095SOL    HW274310   9.726   9.824   8.390
58096SOL     OW74311  10.448   9.690   9.126
58096SOL    HW174312  10.403   9.753   9.190
58096SOL    HW274313  10.541   9.721   9.109
58097SOL     OW74314  10.470   9.517   8.925
58097SOL    HW174315  10.470   9.581   9.002
58097SOL    HW274316  10.498   9.565   8.842
58098SOL     OW74317   9.318  10.636   7.648
58098SOL    HW174318   9.225  10.657   7.617
58098SOL    HW274319   9.328  10.537   7.661
58099SOL     OW74320   9.398  11.111   8.375
58099SOL    HW174321   9.356  11.025   8.348
58099SOL    HW274322   9.492  11.114   8.341
58100SOL     OW74323   9.814  10.878   8.358
58100SOL    HW174324   9.880  10.952   8.367
58100SOL    HW274325   9.858  10.799   8.316
58101SOL     OW74326  10.312  10.106   8.686
58101SOL    HW174327  10.353  10.074   8.772
58101SOL    HW274328  10.216  10.079   8.683
58102SOL     OW74329   9.350   9.854   8.562
58102SOL    HW174330   9.435   9.821   8.521
58102SOL    HW274331   9.363   9.869   8.660
58103SOL     OW74332   9.499   9.830   9.170
58103SOL    HW174333   9.558   9.790   9.100
58103SOL    HW274334   9.441   9.901   9.129
58104SOL     OW74335  10.679  10.260   9.108
58104SOL    HW174336  10.718  10.349   9.128
58104SOL    HW274337  10.689  10.240   9.011
58105SOL     OW74338  10.125   9.882   7.773
58105SOL    HW174339  10.132   9.793   7.727
58105SOL    HW274340  10.031   9.916   7.765
58106SOL     OW74341  10.967   9.914   8.654
58106SOL    HW174342  10.929   9.845   8.716
58106SOL    HW274343  11.049   9.878   8.610
58107SOL     OW74344   9.562  10.874   9.192
58107SOL    HW174345   9.532  10.931   9.268
58107SOL    HW274346   9.555  10.777   9.218
58108SOL     OW74347   9.981   9.774   8.717
58108SOL    HW174348   9.947   9.685   8.687
58108SOL    HW274349  10.007   9.828   8.637
58109SOL     OW74350  10.240  10.988   8.913
58109SOL    HW174351  10.216  10.970   8.818
58109SOL    HW274352  10.270  11.082   8.923
58110SOL     OW74353   9.783   9.810   7.639
58110SOL    HW174354   9.844   9.890   7.643
58110SOL    HW274355   9.688   9.841   7.646
58111SOL     OW74356   9.469  10.447   8.914
58111SOL    HW174357   9.491  10.386   8.990
58111SOL    HW274358   9.479  10.398   8.828
58112SOL     OW74359  10.657  10.369   8.682
58112SOL    HW174360  10.681  10.306   8.608
58112SOL    HW274361  10.567  10.409   8.664
58113SOL     OW74362  10.612  10.165   7.757
58113SOL    HW174363  10.526  10.134   7.799
58113SOL    HW274364  10.608  10.151   7.658
58114SOL     OW74365  11.069  11.057   8.602
58114SOL    HW174366  11.130  11.087   8.529
58114SOL    HW274367  11.031  10.968   8.580
58115SOL     OW74368  10.562  11.041   8.576
58115SOL    HW174369  10.646  11.046   8.522
58115SOL    HW274370  10.539  10.945   8.594
58116SOL     OW74371   9.393  10.568   8.470
58116SOL    HW174372   9.388  10.567   8.570
58116SOL    HW274373   9.310  10.527   8.432
58117SOL     OW74374   9.998  10.972   9.164
58117SOL    HW174375   9.942  11.053   9.173
58117SOL    HW274376  10.050  10.976   9.078
58118SOL     OW74377  11.036   9.445   7.971
58118SOL    HW174378  11.109   9.428   7.904
58118SOL    HW274379  11.005   9.358   8.009
58119SOL     OW74380  10.698  10.883   7.925
58119SOL    HW174381  10.765  10.895   7.851
58119SOL    HW274382  10.658  10.972   7.948
58120SOL     OW74383   9.440  11.104   9.299
58120SOL    HW174384   9.399  11.030   9.352
58120SOL    HW274385   9.504  11.155   9.357
58121SOL     OW74386  10.140  10.583   8.870
58121SOL    HW174387  10.135  10.616   8.965
58121SOL    HW274388  10.054  10.602   8.824
58122SOL     OW74389   9.982  10.926   7.602
58122SOL    HW174390   9.991  10.936   7.503
58122SOL    HW274391   9.942  10.837   7.623
58123SOL     OW74392  10.960  11.030   8.842
58123SOL    HW174393  11.013  11.040   8.758
58123SOL    HW274394  10.933  11.120   8.876
58124SOL     OW74395  11.151   9.485   8.411
58124SOL    HW174396  11.190   9.400   8.375
58124SOL    HW274397  11.053   9.487   8.392
58125SOL     OW74398   9.573   9.636   8.168
58125SOL    HW174399   9.494   9.687   8.134
58125SOL    HW274400   9.564   9.621   8.266
58126SOL     OW74401  10.504  10.922   7.479
58126SOL    HW174402  10.510  10.829   7.516
58126SOL    HW274403  10.445  10.922   7.399
58127SOL     OW74404  10.132  10.312   8.820
58127SOL    HW174405  10.172  10.311   8.728
58127SOL    HW274406  10.142  10.404   8.860
58128SOL     OW74407  10.226  10.220   7.739
58128SOL    HW174408  10.289  10.258   7.671
58128SOL    HW274409  10.266  10.137   7.778
58129SOL     OW74410  10.814  10.917   7.492
58129SOL    HW174411  10.722  10.954   7.499
58129SOL    HW274412  10.852  10.937   7.402
58130SOL     OW74413   9.682  10.598   8.938
58130SOL    HW174414   9.669  10.691   8.904
58130SOL    HW274415   9.598  10.546   8.925
58131SOL     OW74416  10.924  10.602   8.737
58131SOL    HW174417  10.984  10.605   8.817
58131SOL    HW274418  10.849  10.666   8.750
58132SOL     OW74419  10.349  10.408   8.144
58132SOL    HW174420  10.279  10.361   8.198
58132SOL    HW274421  10.408  10.340   8.101
58133SOL     OW74422  10.324   9.546   8.419
58133SOL    HW174423  10.316   9.510   8.326
58133SOL    HW274424  10.322   9.470   8.484
58134SOL     OW74425   9.900  10.797   7.939
58134SOL    HW174426   9.942  10.739   7.869
58134SOL    HW274427   9.856  10.876   7.895
58135SOL     OW74428  11.019   9.695   8.829
58135SOL    HW174429  11.092   9.764   8.833
58135SOL    HW274430  11.047   9.620   8.770
58136SOL     OW74431   9.565  10.658   7.738
58136SOL    HW174432   9.469  10.659   7.711
58136SOL    HW274433   9.577  10.711   7.822
58137SOL     OW74434   9.415  10.323   9.174
58137SOL    HW174435   9.338  10.290   9.228
58137SOL    HW274436   9.500  10.293   9.216
58138SOL     OW74437   9.982   9.513   8.937
58138SOL    HW174438  10.072   9.497   8.897
58138SOL    HW274439   9.990   9.518   9.036
58139SOL     OW74440   9.385   9.655   7.481
58139SOL    HW174441   9.293   9.627   7.452
58139SOL    HW274442   9.416   9.732   7.425
58140SOL     OW74443  10.750  10.166   8.846
58140SOL    HW174444  10.693  10.218   8.783
58140SOL    HW274445  10.846  10.178   8.822
58141SOL     OW74446   9.382   9.476   7.766
58141SOL    HW174447   9.365   9.559   7.712
58141SOL    HW274448   9.472   9.439   7.744
58142SOL     OW74449  10.493  10.645   7.567
58142SOL    HW174450  10.394  10.634   7.569
58142SOL    HW274451  10.527  10.660   7.660
58143SOL     OW74452   9.923  10.152   8.879
58143SOL    HW174453   9.979  10.233   8.862
58143SOL    HW274454   9.982  10.072   8.882
58144SOL     OW74455  10.803  11.077   8.407
58144SOL    HW174456  10.836  11.141   8.338
58144SOL    HW274457  10.869  11.071   8.482
58145SOL     OW74458  10.026   9.875   9.156
58145SOL    HW174459  10.045   9.940   9.230
58145SOL    HW274460  10.086   9.795   9.165
58146SOL     OW74461  10.760  10.530   9.081
58146SOL    HW174462  10.751  10.520   9.180
58146SOL    HW274463  10.856  10.523   9.055
58147SOL     OW74464   9.700  11.051   9.008
58147SOL    HW174465   9.609  11.092   9.006
58147SOL    HW274466   9.693  10.957   9.040
58148SOL     OW74467  10.984  10.193   8.702
58148SOL    HW174468  10.957  10.104   8.665
58148SOL    HW274469  10.985  10.261   8.629
58149SOL     OW74470  10.535   9.635   7.897
58149SOL    HW174471  10.600   9.561   7.886
58149SOL    HW274472  10.555   9.685   7.981
58150SOL     OW74473   9.904  10.055   8.100
58150SOL    HW174474   9.954  10.140   8.081
58150SOL    HW274475   9.816  10.057   8.052
58151SOL     OW74476  11.087   9.652   9.090
58151SOL    HW174477  11.070   9.683   8.996
58151SOL    HW274478  11.003   9.615   9.128
58152SOL     OW74479  11.040  10.244   8.965
58152SOL    HW174480  11.078  10.335   8.980
58152SOL    HW274481  11.032  10.227   8.866
58153SOL     OW74482  10.169  10.684   7.464
58153SOL    HW174483  10.123  10.699   7.552
58153SOL    HW274484  10.213  10.769   7.434
58154SOL     OW74485   9.971  11.100   8.401
58154SOL    HW174486   9.925  11.188   8.388
58154SOL    HW274487  10.070  11.112   8.394
58155SOL     OW74488  10.169  10.266   8.309
58155SOL    HW174489  10.223  10.197   8.357
58155SOL    HW274490  10.137  10.335   8.375
58156SOL     OW74491  10.393  10.294   7.535
58156SOL    HW174492  10.370  10.347   7.453
58156SOL    HW274493  10.474  10.238   7.516
58157SOL     OW74494  11.171  10.879   8.299
58157SOL    HW174495  11.100  10.867   8.229
58157SOL    HW274496  11.172  10.800   8.359
58158SOL     OW74497   9.531  10.624   9.292
58158SOL    HW174498   9.466  10.551   9.271
58158SOL    HW274499   9.535  10.638   9.390
58159SOL     OW74500   9.389  10.550   8.101
58159SOL    HW174501   9.388  10.503   8.189
58159SOL    HW274502   9.471  10.522   8.050
58160SOL     OW74503   9.982  10.701   9.072
58160SOL    HW174504   9.904  10.651   9.110
58160SOL    HW274505   9.979  10.796   9.103
58161SOL     OW74506  11.134   9.502   8.675
58161SOL    HW174507  11.130   9.412   8.719
58161SOL    HW274508  11.137   9.491   8.576
58162SOL     OW74509   9.738   9.734   7.968
58162SOL    HW174510   9.768   9.662   7.906
58162SOL    HW274511   9.699   9.694   8.051
58163SOL     OW74512  11.015  10.797   8.552
58163SOL    HW174513  10.922  10.772   8.525
58163SOL    HW274514  11.041  10.747   8.634
58164SOL     OW74515   9.627   9.857   8.728
58164SOL    HW174516   9.665   9.798   8.800
58164SOL    HW274517   9.667   9.831   8.640
58165SOL     OW74518  10.122  10.896   8.135
58165SOL    HW174519  10.154  10.906   8.041
58165SOL    HW274520  10.043  10.834   8.137
58166SOL     OW74521  10.734   9.524   8.560
58166SOL    HW174522  10.786   9.459   8.615
58166SOL    HW274523  10.685   9.587   8.621
58167SOL     OW74524  10.311   9.344   8.602
58167SOL    HW174525  10.248   9.272   8.571
58167SOL    HW274526  10.404   9.308   8.602
58168SOL     OW74527  10.080  10.640   7.749
58168SOL    HW174528  10.034  10.553   7.766
58168SOL    HW274529  10.171  10.637   7.790
58169SOL     OW74530   9.928  10.877   8.732
58169SOL    HW174531   9.923  10.959   8.789
58169SOL    HW274532  10.017  10.874   8.687
58170SOL     OW74533  10.662   9.362   7.616
58170SOL    HW174534  10.697   9.321   7.532
58170SOL    HW274535  10.572   9.324   7.636
58171SOL     OW74536  10.610   9.763   8.139
58171SOL    HW174537  10.551   9.843   8.143
58171SOL    HW274538  10.625   9.728   8.232
58172SOL     OW74539  10.903   9.531   8.330
58172SOL    HW174540  10.819   9.530   8.384
58172SOL    HW274541  10.905   9.614   8.274
58173SOL     OW74542   9.349  10.387   7.748
58173SOL    HW174543   9.448  10.376   7.739
58173SOL    HW274544   9.309  10.301   7.780
58174SOL     OW74545  10.185  10.956   7.785
58174SOL    HW174546  10.108  10.921   7.731
58174SOL    HW274547  10.153  11.027   7.847
58175SOL     OW74548   9.540   9.938   9.423
58175SOL    HW174549   9.447   9.936   9.460
58175SOL    HW274550   9.541   9.899   9.331
58176SOL     OW74551   9.535   9.585  10.306
58176SOL    HW174552   9.570   9.568  10.398
58176SOL    HW274553   9.447   9.540  10.294
58177SOL     OW74554   9.329   9.678   9.957
58177SOL    HW174555   9.247   9.721   9.996
58177SOL    HW274556   9.301   9.605   9.894
58178SOL     OW74557   9.879  10.585  10.475
58178SOL    HW174558   9.786  10.578  10.438
58178SOL    HW274559   9.890  10.674  10.519
58179SOL     OW74560  10.865  10.821  10.013
58179SOL    HW174561  10.808  10.805  10.094
58179SOL    HW274562  10.806  10.831   9.933
58180SOL     OW74563  10.445  10.013  10.027
58180SOL    HW174564  10.502  10.091  10.002
58180SOL    HW274565  10.385  10.039  10.103
58181SOL     OW74566  11.065   9.917   9.541
58181SOL    HW174567  11.053   9.904   9.442
58181SOL    HW274568  11.035   9.836   9.590
58182SOL     OW74569  10.078  10.454  10.333
58182SOL    HW174570  10.000  10.471  10.393
58182SOL    HW274571  10.112  10.541  10.297
58183SOL     OW74572  10.160  10.108  11.133
58183SOL    HW174573  10.156  10.184  11.198
58183SOL    HW274574  10.182  10.144  11.042
58184SOL     OW74575   9.995  10.322   9.975
58184SOL    HW174576  10.064  10.306  10.045
58184SOL    HW274577   9.922  10.379  10.013
58185SOL     OW74578   9.996  10.471  11.113
58185SOL    HW174579  10.056  10.550  11.127
58185SOL    HW274580   9.910  10.502  11.072
58186SOL     OW74581   9.645  10.745  10.371
58186SOL    HW174582   9.567  10.714  10.318
58186SOL    HW274583   9.703  10.803  10.314
58187SOL     OW74584  10.770  10.815  10.649
58187SOL    HW174585  10.794  10.909  10.675
58187SOL    HW274586  10.754  10.761  10.731
58188SOL     OW74587   9.748   9.702  10.809
58188SOL    HW174588   9.830   9.646  10.818
58188SOL    HW274589   9.667   9.644  10.813
58189SOL     OW74590  10.913   9.757  10.047
58189SOL    HW174591  10.839   9.803   9.997
58189SOL    HW274592  10.964   9.825  10.100
58190SOL     OW74593   9.541  11.023   9.793
58190SOL    HW174594   9.575  11.100   9.847
58190SOL    HW274595   9.585  11.023   9.703
58191SOL     OW74596  10.437  10.651  11.000
58191SOL    HW174597  10.484  10.651  11.088
58191SOL    HW274598  10.389  10.564  10.989
58192SOL     OW74599   9.540  10.744   9.848
58192SOL    HW174600   9.514  10.840   9.848
58192SOL    HW274601   9.469  10.690   9.893
58193SOL     OW74602   9.550  10.401  10.196
58193SOL    HW174603   9.564  10.317  10.248
58193SOL    HW274604   9.495  10.465  10.251
58194SOL     OW74605   9.930  11.096  10.749
58194SOL    HW174606   9.838  11.079  10.784
58194SOL    HW274607   9.958  11.188  10.775
58195SOL     OW74608   9.916  10.274   9.433
58195SOL    HW174609   9.923  10.358   9.379
58195SOL    HW274610   9.962  10.287   9.521
58196SOL     OW74611  10.904   9.424  10.790
58196SOL    HW174612  10.886   9.491  10.718
58196SOL    HW274613  10.901   9.470  10.879
58197SOL     OW74614   9.432   9.953   9.873
58197SOL    HW174615   9.387   9.865   9.890
58197SOL    HW274616   9.431  10.007   9.957
58198SOL     OW74617  11.152  11.077   9.669
58198SOL    HW174618  11.206  11.048   9.749
58198SOL    HW274619  11.182  11.167   9.640
58199SOL     OW74620   9.337  10.906   9.427
58199SOL    HW174621   9.318  10.810   9.448
58199SOL    HW274622   9.304  10.964   9.502
58200SOL     OW74623  10.999  10.232   9.922
58200SOL    HW174624  11.094  10.203   9.930
58200SOL    HW274625  10.991  10.297   9.847
58201SOL     OW74626  10.951  10.418   9.742
58201SOL    HW174627  11.037  10.420   9.690
58201SOL    HW274628  10.965  10.465   9.830
58202SOL     OW74629   9.423  10.047  10.907
58202SOL    HW174630   9.511  10.034  10.952
58202SOL    HW274631   9.410  10.144  10.885
58203SOL     OW74632   9.923  10.675  10.036
58203SOL    HW174633   9.874  10.588  10.045
58203SOL    HW274634   9.900  10.718   9.949
58204SOL     OW74635  10.603  10.538  10.733
58204SOL    HW174636  10.640  10.465  10.675
58204SOL    HW274637  10.655  10.543  10.818
58205SOL     OW74638  10.119   9.314   9.812
58205SOL    HW174639  10.159   9.405   9.803
58205SOL    HW274640  10.019   9.322   9.818
58206SOL     OW74641   9.507  10.286  10.574
58206SOL    HW174642   9.596  10.241  10.560
58206SOL    HW274643   9.434  10.221  10.555
58207SOL     OW74644  10.835  10.309   9.500
58207SOL    HW174645  10.772  10.233   9.513
58207SOL    HW274646  10.883  10.327   9.586
58208SOL     OW74647  10.497  11.102  10.926
58208SOL    HW174648  10.521  11.162  10.850
58208SOL    HW274649  10.504  11.007  10.896
58209SOL     OW74650   9.627   9.561  11.111
58209SOL    HW174651   9.698   9.632  11.117
58209SOL    HW274652   9.539   9.600  11.139
58210SOL     OW74653  10.776  10.727  10.263
58210SOL    HW174654  10.717  10.733  10.343
58210SOL    HW274655  10.761  10.639  10.217
58211SOL     OW74656  10.977  11.024   9.882
58211SOL    HW174657  10.936  11.001   9.794
58211SOL    HW274658  10.959  10.950   9.947
58212SOL     OW74659   9.908  10.039   9.580
58212SOL    HW174660   9.932  10.108   9.512
58212SOL    HW274661   9.830  10.072   9.634
58213SOL     OW74662  10.591   9.655  10.254
58213SOL    HW174663  10.505   9.605  10.241
58213SOL    HW274664  10.653   9.601  10.310
58214SOL     OW74665  10.886  10.972   9.617
58214SOL    HW174666  10.975  11.018   9.620
58214SOL    HW274667  10.865  10.948   9.522
58215SOL     OW74668  10.117   9.915  10.775
58215SOL    HW174669  10.070   9.912  10.864
58215SOL    HW274670  10.066   9.860  10.709
58216SOL     OW74671  10.704   9.779  10.984
58216SOL    HW174672  10.684   9.822  11.072
58216SOL    HW274673  10.782   9.717  10.993
58217SOL     OW74674  10.283  10.200  10.882
58217SOL    HW174675  10.329  10.116  10.853
58217SOL    HW274676  10.227  10.234  10.807
58218SOL     OW74677  10.301   9.720  10.552
58218SOL    HW174678  10.224   9.754  10.606
58218SOL    HW274679  10.267   9.669  10.473
58219SOL     OW74680  10.351  10.011   9.739
58219SOL    HW174681  10.377  10.007   9.835
58219SOL    HW274682  10.266   9.960   9.725
58220SOL     OW74683   9.386  10.121  10.099
58220SOL    HW174684   9.485  10.109  10.108
58220SOL    HW274685   9.362  10.216  10.120
58221SOL     OW74686   9.440  11.131  10.881
58221SOL    HW174687   9.430  11.116  10.980
58221SOL    HW274688   9.354  11.167  10.845
58222SOL     OW74689  10.175   9.658   9.505
58222SOL    HW174690  10.234   9.721   9.456
58222SOL    HW274691  10.194   9.564   9.476
58223SOL     OW74692  11.029   9.895  11.141
58223SOL    HW174693  11.003   9.984  11.105
58223SOL    HW274694  11.027   9.827  11.068
58224SOL     OW74695  10.672  10.454   9.855
58224SOL    HW174696  10.755  10.425   9.807
58224SOL    HW274697  10.623  10.521   9.799
58225SOL     OW74698   9.860   9.506  10.195
58225SOL    HW174699   9.855   9.501  10.295
58225SOL    HW274700   9.862   9.602  10.166
58226SOL     OW74701  10.318  10.766   9.787
58226SOL    HW174702  10.272  10.838   9.735
58226SOL    HW274703  10.314  10.786   9.885
58227SOL     OW74704   9.661  11.111  10.163
58227SOL    HW174705   9.711  11.025  10.169
58227SOL    HW274706   9.726  11.188  10.160
58228SOL     OW74707  11.105  10.376  10.183
58228SOL    HW174708  11.043  10.361  10.107
58228SOL    HW274709  11.053  10.387  10.268
58229SOL     OW74710  10.537  10.860  10.816
58229SOL    HW174711  10.543  10.783  10.880
58229SOL    HW274712  10.485  10.834  10.736
58230SOL     OW74713   9.631  10.253   9.552
58230SOL    HW174714   9.713  10.292   9.510
58230SOL    HW274715   9.604  10.171   9.503
58231SOL     OW74716  10.768  10.045  10.038
58231SOL    HW174717  10.763   9.980  10.113
58231SOL    HW274718  10.848  10.104  10.051
58232SOL     OW74719   9.771  10.576  11.037
58232SOL    HW174720   9.721  10.577  10.951
58232SOL    HW274721   9.708  10.558  11.113
58233SOL     OW74722  10.421  11.086   9.547
58233SOL    HW174723  10.361  11.024   9.597
58233SOL    HW274724  10.452  11.042   9.462
58234SOL     OW74725   9.512   9.595  10.808
58234SOL    HW174726   9.432   9.655  10.795
58234SOL    HW274727   9.502   9.546  10.894
58235SOL     OW74728  10.942  10.687   9.391
58235SOL    HW174729  10.910  10.781   9.381
58235SOL    HW274730  10.866  10.624   9.379
58236SOL     OW74731   9.774  11.053   9.633
58236SOL    HW174732   9.807  11.092   9.719
58236SOL    HW274733   9.850  11.046   9.568
58237SOL     OW74734  10.710   9.417   9.736
58237SOL    HW174735  10.686   9.380   9.646
58237SOL    HW274736  10.809   9.433   9.740
58238SOL     OW74737   9.559  11.095  10.551
58238SOL    HW174738   9.616  11.030  10.601
58238SOL    HW274739   9.543  11.062  10.458
58239SOL     OW74740  10.250  11.008  10.214
58239SOL    HW174741  10.330  10.951  10.235
58239SOL    HW274742  10.201  10.968  10.137
58240SOL     OW74743   9.692  10.010   9.790
58240SOL    HW174744   9.737   9.920   9.787
58240SOL    HW274745   9.598   9.999   9.823
58241SOL     OW74746  10.857   9.532  11.039
58241SOL    HW174747  10.852   9.569  11.131
58241SOL    HW274748  10.785   9.463  11.027
58242SOL     OW74749   9.924   9.432   9.427
58242SOL    HW174750  10.022   9.410   9.434
58242SOL    HW274751   9.893   9.415   9.334
58243SOL     OW74752  10.091   9.574  11.059
58243SOL    HW174753  10.158   9.513  11.102
58243SOL    HW274754  10.018   9.593  11.124
58244SOL     OW74755  10.198  10.824  10.505
58244SOL    HW174756  10.175  10.799  10.411
58244SOL    HW274757  10.259  10.755  10.544
58245SOL     OW74758  10.661   9.900  10.743
58245SOL    HW174759  10.689   9.857  10.828
58245SOL    HW274760  10.686   9.996  10.744
58246SOL     OW74761  10.113  10.712  10.234
58246SOL    HW174762  10.203  10.726  10.192
58246SOL    HW274763  10.042  10.714  10.163
58247SOL     OW74764  10.232   9.813  10.209
58247SOL    HW174765  10.207   9.804  10.113
58247SOL    HW274766  10.280   9.731  10.240
58248SOL     OW74767   9.849   9.374   9.822
58248SOL    HW174768   9.768   9.375   9.880
58248SOL    HW274769   9.852   9.457   9.767
58249SOL     OW74770  10.744  10.498   9.351
58249SOL    HW174771  10.776  10.422   9.408
58249SOL    HW274772  10.652  10.525   9.381
58250SOL     OW74773   9.607   9.345   9.481
58250SOL    HW174774   9.656   9.429   9.460
58250SOL    HW274775   9.669   9.280   9.526
58251SOL     OW74776  10.245   9.546   9.790
58251SOL    HW174777  10.197   9.587   9.712
58251SOL    HW274778  10.344   9.544   9.771
58252SOL     OW74779  10.386   9.993  10.774
58252SOL    HW174780  10.306   9.932  10.777
58252SOL    HW274781  10.467   9.940  10.750
58253SOL     OW74782  10.537  10.880  10.103
58253SOL    HW174783  10.558  10.954  10.038
58253SOL    HW274784  10.605  10.880  10.176
58254SOL     OW74785   9.769  10.462  10.051
58254SOL    HW174786   9.698  10.435  10.116
58254SOL    HW274787   9.743  10.434   9.958
58255SOL     OW74788  10.581  11.107   9.901
58255SOL    HW174789  10.625  11.171   9.837
58255SOL    HW274790  10.531  11.159   9.971
58256SOL     OW74791  10.342   9.859   9.326
58256SOL    HW174792  10.301   9.941   9.287
58256SOL    HW274793  10.406   9.885   9.399
58257SOL     OW74794   9.388   9.866  10.696
58257SOL    HW174795   9.480   9.865  10.655
58257SOL    HW274796   9.382   9.940  10.763
58258SOL     OW74797   9.871   9.532  10.457
58258SOL    HW174798   9.909   9.448  10.494
58258SOL    HW274799   9.783   9.551  10.501
58259SOL     OW74800  10.176   9.764   9.952
58259SOL    HW174801  10.144   9.836   9.890
58259SOL    HW274802  10.200   9.683   9.899
58260SOL     OW74803  10.327   9.349  10.063
58260SOL    HW174804  10.255   9.354   9.994
58260SOL    HW274805  10.303   9.280  10.132
58261SOL     OW74806  10.739  10.483  10.177
58261SOL    HW174807  10.684  10.399  10.170
58261SOL    HW274808  10.765  10.512  10.085
58262SOL     OW74809  10.776   9.900  10.302
58262SOL    HW174810  10.746   9.805  10.309
58262SOL    HW274811  10.849   9.916  10.368
58263SOL     OW74812  11.167  10.143   9.687
58263SOL    HW174813  11.209  10.079   9.751
58263SOL    HW274814  11.129  10.092   9.609
58264SOL     OW74815   9.798  10.695   9.484
58264SOL    HW174816   9.711  10.680   9.531
58264SOL    HW274817   9.781  10.721   9.389
58265SOL     OW74818  10.974  10.590   9.967
58265SOL    HW174819  11.073  10.598   9.981
58265SOL    HW274820  10.929  10.674   9.998
58266SOL     OW74821  10.700   9.885   9.388
58266SOL    HW174822  10.646   9.864   9.469
58266SOL    HW274823  10.791   9.844   9.397
58267SOL     OW74824   9.837   9.566   9.638
58267SOL    HW174825   9.864   9.507   9.563
58267SOL    HW274826   9.837   9.661   9.607
58268SOL     OW74827  11.064  10.533  10.898
58268SOL    HW174828  11.155  10.494  10.885
58268SOL    HW274829  11.072  10.629  10.922
58269SOL     OW74830  10.374  10.657  10.650
58269SOL    HW174831  10.294  10.634  10.705
58269SOL    HW274832  10.457  10.631  10.699
58270SOL     OW74833  10.902  10.939  10.935
58270SOL    HW174834  10.929  10.973  10.845
58270SOL    HW274835  10.981  10.901  10.981
58271SOL     OW74836  10.421  10.505  10.410
58271SOL    HW174837  10.381  10.549  10.491
58271SOL    HW274838  10.380  10.542  10.327
58272SOL     OW74839  10.948  10.409  10.389
58272SOL    HW174840  10.953  10.490  10.448
58272SOL    HW274841  10.862  10.411  10.338
58273SOL     OW74842  10.225   9.399  10.712
58273SOL    HW174843  10.250   9.379  10.617
58273SOL    HW274844  10.297   9.455  10.754
58274SOL     OW74845  10.290  10.426  11.029
58274SOL    HW174846  10.191  10.432  11.039
58274SOL    HW274847  10.313  10.346  10.973
58275SOL     OW74848  10.015  10.360   9.678
58275SOL    HW174849  10.001  10.367   9.777
58275SOL    HW274850  10.099  10.309   9.660
58276SOL     OW74851   9.720  10.123  10.561
58276SOL    HW174852   9.806  10.135  10.611
58276SOL    HW274853   9.678  10.036  10.588
58277SOL     OW74854  10.584   9.696  10.572
58277SOL    HW174855  10.605   9.770  10.636
58277SOL    HW274856  10.495   9.713  10.529
58278SOL     OW74857   9.374  10.874  10.641
58278SOL    HW174858   9.328  10.956  10.607
58278SOL    HW274859   9.472  10.893  10.650
58279SOL     OW74860   9.677  10.410   9.811
58279SOL    HW174861   9.670  10.493   9.755
58279SOL    HW274862   9.681  10.330   9.751
58280SOL     OW74863   9.876   9.847  10.175
58280SOL    HW174864   9.888   9.913  10.101
58280SOL    HW274865   9.922   9.881  10.258
58281SOL     OW74866  10.562  10.658   9.698
58281SOL    HW174867  10.612  10.735   9.738
58281SOL    HW274868  10.467  10.660   9.730
58282SOL     OW74869  10.582  10.755  10.452
58282SOL    HW174870  10.629  10.768  10.539
58282SOL    HW274871  10.516  10.681  10.461
58283SOL     OW74872  10.892   9.949   9.782
58283SOL    HW174873  10.861  10.010   9.855
58283SOL    HW274874  10.942  10.001   9.713
58284SOL     OW74875   9.664  10.820  10.639
58284SOL    HW174876   9.643  10.776  10.552
58284SOL    HW274877   9.761  10.846  10.642
58285SOL     OW74878   9.712  10.061  10.908
58285SOL    HW174879   9.780  10.116  10.861
58285SOL    HW274880   9.752   9.973  10.935
58286SOL     OW74881  10.897  10.089  10.980
58286SOL    HW174882  10.805  10.127  10.975
58286SOL    HW274883  10.957  10.136  10.915
58287SOL     OW74884  10.323   9.415  11.080
58287SOL    HW174885  10.329   9.500  11.028
58287SOL    HW274886  10.355   9.339  11.023
58288SOL     OW74887   9.814   9.360  11.050
58288SOL    HW174888   9.772   9.303  10.980
58288SOL    HW274889   9.748   9.429  11.082
58289SOL     OW74890   9.883  10.180  10.339
58289SOL    HW174891   9.927  10.269  10.330
58289SOL    HW274892   9.820  10.180  10.416
58290SOL     OW74893  10.670  10.172  10.355
58290SOL    HW174894  10.595  10.172  10.289
58290SOL    HW274895  10.707  10.080  10.364
58291SOL     OW74896  10.519   9.835   9.585
58291SOL    HW174897  10.532   9.751   9.639
58291SOL    HW274898  10.490   9.909   9.645
58292SOL     OW74899   9.617   9.523  10.541
58292SOL    HW174900   9.594   9.560  10.631
58292SOL    HW274901   9.587   9.428  10.535
58293SOL     OW74902   9.347  10.620  10.592
58293SOL    HW174903   9.400  10.571  10.660
58293SOL    HW274904   9.369  10.718  10.597
58294SOL     OW74905  10.042   9.944  10.374
58294SOL    HW174906  10.101   9.918  10.298
58294SOL    HW274907  10.014  10.040  10.363
58295SOL     OW74908  11.038  10.245  11.164
58295SOL    HW174909  10.992  10.238  11.075
58295SOL    HW274910  10.976  10.289  11.230
58296SOL     OW74911   9.617   9.373   9.928
58296SOL    HW174912   9.606   9.467   9.961
58296SOL    HW274913   9.612   9.310  10.005
58297SOL     OW74914  10.932   9.677   9.684
58297SOL    HW174915  10.934   9.601   9.748
58297SOL    HW274916  10.884   9.754   9.724
58298SOL     OW74917  10.333  10.076  10.276
58298SOL    HW174918  10.348  10.097  10.372
58298SOL    HW274919  10.303   9.981  10.267
58299SOL     OW74920  10.290  10.883  11.010
58299SOL    HW174921  10.270  10.927  10.922
58299SOL    HW274922  10.329  10.792  10.994
58300SOL     OW74923  11.169  10.828  10.915
58300SOL    HW174924  11.183  10.855  10.820
58300SOL    HW274925  11.252  10.850  10.968
58301SOL     OW74926   9.660  10.208  11.114
58301SOL    HW174927   9.736  10.252  11.162
58301SOL    HW274928   9.695  10.161  11.032
58302SOL     OW74929  10.850   9.584   9.435
58302SOL    HW174930  10.789   9.509   9.458
58302SOL    HW274931  10.872   9.636   9.518
58303SOL     OW74932  10.613  10.148   9.352
58303SOL    HW174933  10.647  10.055   9.367
58303SOL    HW274934  10.631  10.175   9.257
58304SOL     OW74935  10.378  10.643  10.159
58304SOL    HW174936  10.385  10.559  10.104
58304SOL    HW274937  10.440  10.712  10.123
58305SOL     OW74938   9.629  10.120  10.259
58305SOL    HW174939   9.722  10.156  10.264
58305SOL    HW274940   9.623  10.035  10.311
58306SOL     OW74941   9.649   9.819  10.316
58306SOL    HW174942   9.597   9.736  10.299
58306SOL    HW274943   9.726   9.824  10.252
58307SOL     OW74944  10.448   9.690  10.988
58307SOL    HW174945  10.403   9.753  11.052
58307SOL    HW274946  10.541   9.721  10.971
58308SOL     OW74947  10.470   9.517  10.787
58308SOL    HW174948  10.470   9.581  10.864
58308SOL    HW274949  10.498   9.565  10.704
58309SOL     OW74950   9.318  10.636   9.510
58309SOL    HW174951   9.225  10.657   9.479
58309SOL    HW274952   9.328  10.537   9.523
58310SOL     OW74953   9.398  11.111  10.237
58310SOL    HW174954   9.356  11.025  10.210
58310SOL    HW274955   9.492  11.114  10.203
58311SOL     OW74956   9.814  10.878  10.220
58311SOL    HW174957   9.880  10.952  10.229
58311SOL    HW274958   9.858  10.799  10.178
58312SOL     OW74959  10.312  10.106  10.548
58312SOL    HW174960  10.353  10.074  10.634
58312SOL    HW274961  10.216  10.079  10.545
58313SOL     OW74962   9.350   9.854  10.424
58313SOL    HW174963   9.435   9.821  10.383
58313SOL    HW274964   9.363   9.869  10.522
58314SOL     OW74965   9.499   9.830  11.032
58314SOL    HW174966   9.558   9.790  10.962
58314SOL    HW274967   9.441   9.901  10.991
58315SOL     OW74968  10.679  10.260  10.970
58315SOL    HW174969  10.718  10.349  10.990
58315SOL    HW274970  10.689  10.240  10.873
58316SOL     OW74971  10.125   9.882   9.635
58316SOL    HW174972  10.132   9.793   9.589
58316SOL    HW274973  10.031   9.916   9.627
58317SOL     OW74974  10.967   9.914  10.516
58317SOL    HW174975  10.929   9.845  10.578
58317SOL    HW274976  11.049   9.878  10.472
58318SOL     OW74977   9.562  10.874  11.054
58318SOL    HW174978   9.532  10.931  11.130
58318SOL    HW274979   9.555  10.777  11.080
58319SOL     OW74980   9.981   9.774  10.579
58319SOL    HW174981   9.947   9.685  10.549
58319SOL    HW274982  10.007   9.828  10.499
58320SOL     OW74983  10.240  10.988  10.775
58320SOL    HW174984  10.216  10.970  10.680
58320SOL    HW274985  10.270  11.082  10.785
58321SOL     OW74986   9.783   9.810   9.501
58321SOL    HW174987   9.844   9.890   9.505
58321SOL    HW274988   9.688   9.841   9.508
58322SOL     OW74989   9.469  10.447  10.776
58322SOL    HW174990   9.491  10.386  10.852
58322SOL    HW274991   9.479  10.398  10.690
58323SOL     OW74992  10.657  10.369  10.544
58323SOL    HW174993  10.681  10.306  10.470
58323SOL    HW274994  10.567  10.409  10.526
58324SOL     OW74995  10.612  10.165   9.619
58324SOL    HW174996  10.526  10.134   9.661
58324SOL    HW274997  10.608  10.151   9.520
58325SOL     OW74998  11.069  11.057  10.464
58325SOL    HW174999  11.130  11.087  10.391
58325SOL    HW275000  11.031  10.968  10.442
58326SOL     OW75001  10.562  11.041  10.438
58326SOL    HW175002  10.646  11.046  10.384
58326SOL    HW275003  10.539  10.945  10.456
58327SOL     OW75004   9.393  10.568  10.332
58327SOL    HW175005   9.388  10.567  10.432
58327SOL    HW275006   9.310  10.527  10.294
58328SOL     OW75007   9.998  10.972  11.026
58328SOL    HW175008   9.942  11.053  11.035
58328SOL    HW275009  10.050  10.976  10.940
58329SOL     OW75010  11.036   9.445   9.833
58329SOL    HW175011  11.109   9.428   9.766
58329SOL    HW275012  11.005   9.358   9.871
58330SOL     OW75013  10.698  10.883   9.787
58330SOL    HW175014  10.765  10.895   9.713
58330SOL    HW275015  10.658  10.972   9.810
58331SOL     OW75016   9.440  11.104  11.161
58331SOL    HW175017   9.399  11.030  11.214
58331SOL    HW275018   9.504  11.155  11.219
58332SOL     OW75019  10.590  10.237   9.982
58332SOL    HW175020  10.650  10.156   9.984
58332SOL    HW275021  10.630  10.306   9.922
58333SOL     OW75022  10.140  10.583  10.732
58333SOL    HW175023  10.135  10.616  10.827
58333SOL    HW275024  10.054  10.602  10.686
58334SOL     OW75025   9.982  10.926   9.464
58334SOL    HW175026   9.991  10.936   9.365
58334SOL    HW275027   9.942  10.837   9.485
58335SOL     OW75028  10.960  11.030  10.704
58335SOL    HW175029  11.013  11.040  10.620
58335SOL    HW275030  10.933  11.120  10.738
58336SOL     OW75031  11.151   9.485  10.273
58336SOL    HW175032  11.190   9.400  10.237
58336SOL    HW275033  11.053   9.487  10.254
58337SOL     OW75034  10.504  10.922   9.341
58337SOL    HW175035  10.510  10.829   9.378
58337SOL    HW275036  10.445  10.922   9.261
58338SOL     OW75037  10.132  10.312  10.682
58338SOL    HW175038  10.172  10.311  10.590
58338SOL    HW275039  10.142  10.404  10.722
58339SOL     OW75040  10.226  10.220   9.601
58339SOL    HW175041  10.289  10.258   9.533
58339SOL    HW275042  10.266  10.137   9.640
58340SOL     OW75043  10.814  10.917   9.354
58340SOL    HW175044  10.722  10.954   9.361
58340SOL    HW275045  10.852  10.937   9.264
58341SOL     OW75046   9.682  10.598  10.800
58341SOL    HW175047   9.669  10.691  10.766
58341SOL    HW275048   9.598  10.546  10.787
58342SOL     OW75049  10.924  10.602  10.599
58342SOL    HW175050  10.984  10.605  10.679
58342SOL    HW275051  10.849  10.666  10.612
58343SOL     OW75052  10.349  10.408  10.006
58343SOL    HW175053  10.279  10.361  10.060
58343SOL    HW275054  10.408  10.340   9.963
58344SOL     OW75055  10.324   9.546  10.281
58344SOL    HW175056  10.316   9.510  10.188
58344SOL    HW275057  10.322   9.470  10.346
58345SOL     OW75058   9.900  10.797   9.801
58345SOL    HW175059   9.942  10.739   9.731
58345SOL    HW275060   9.856  10.876   9.757
58346SOL     OW75061  11.019   9.695  10.691
58346SOL    HW175062  11.092   9.764  10.695
58346SOL    HW275063  11.047   9.620  10.632
58347SOL     OW75064   9.565  10.658   9.600
58347SOL    HW175065   9.469  10.659   9.573
58347SOL    HW275066   9.577  10.711   9.684
58348SOL     OW75067   9.415  10.323  11.036
58348SOL    HW175068   9.338  10.290  11.090
58348SOL    HW275069   9.500  10.293  11.078
58349SOL     OW75070   9.982   9.513  10.799
58349SOL    HW175071  10.072   9.497  10.759
58349SOL    HW275072   9.990   9.518  10.898
58350SOL     OW75073   9.385   9.655   9.343
58350SOL    HW175074   9.293   9.627   9.314
58350SOL    HW275075   9.416   9.732   9.287
58351SOL     OW75076  10.750  10.166  10.708
58351SOL    HW175077  10.693  10.218  10.645
58351SOL    HW275078  10.846  10.178  10.684
58352SOL     OW75079   9.382   9.476   9.628
58352SOL    HW175080   9.365   9.559   9.574
58352SOL    HW275081   9.472   9.439   9.606
58353SOL     OW75082  10.493  10.645   9.429
58353SOL    HW175083  10.394  10.634   9.431
58353SOL    HW275084  10.527  10.660   9.522
58354SOL     OW75085   9.923  10.152  10.741
58354SOL    HW175086   9.979  10.233  10.724
58354SOL    HW275087   9.982  10.072  10.744
58355SOL     OW75088  10.803  11.077  10.269
58355SOL    HW175089  10.836  11.141  10.200
58355SOL    HW275090  10.869  11.071  10.344
58356SOL     OW75091  10.026   9.875  11.018
58356SOL    HW175092  10.045   9.940  11.092
58356SOL    HW275093  10.086   9.795  11.027
58357SOL     OW75094  10.760  10.530  10.943
58357SOL    HW175095  10.751  10.520  11.042
58357SOL    HW275096  10.856  10.523  10.917
58358SOL     OW75097   9.700  11.051  10.870
58358SOL    HW175098   9.609  11.092  10.868
58358SOL    HW275099   9.693  10.957  10.902
58359SOL     OW75100  10.984  10.193  10.564
58359SOL    HW175101  10.957  10.104  10.527
58359SOL    HW275102  10.985  10.261  10.491
58360SOL     OW75103  10.535   9.635   9.759
58360SOL    HW175104  10.600   9.561   9.748
58360SOL    HW275105  10.555   9.685   9.843
58361SOL     OW75106   9.904  10.055   9.962
58361SOL    HW175107   9.954  10.140   9.943
58361SOL    HW275108   9.816  10.057   9.914
58362SOL     OW75109  11.087   9.652  10.952
58362SOL    HW175110  11.070   9.683  10.858
58362SOL    HW275111  11.003   9.615  10.990
58363SOL     OW75112  11.040  10.244  10.827
58363SOL    HW175113  11.078  10.335  10.842
58363SOL    HW275114  11.032  10.227  10.728
58364SOL     OW75115  10.169  10.684   9.326
58364SOL    HW175116  10.123  10.699   9.414
58364SOL    HW275117  10.213  10.769   9.296
58365SOL     OW75118   9.971  11.100  10.263
58365SOL    HW175119   9.925  11.188  10.250
58365SOL    HW275120  10.070  11.112  10.256
58366SOL     OW75121  10.169  10.266  10.171
58366SOL    HW175122  10.223  10.197  10.219
58366SOL    HW275123  10.137  10.335  10.237
58367SOL     OW75124  10.393  10.294   9.397
58367SOL    HW175125  10.370  10.347   9.315
58367SOL    HW275126  10.474  10.238   9.378
58368SOL     OW75127  11.171  10.879  10.161
58368SOL    HW175128  11.100  10.867  10.091
58368SOL    HW275129  11.172  10.800  10.221
58369SOL     OW75130   9.531  10.624  11.154
58369SOL    HW175131   9.466  10.551  11.133
58369SOL    HW275132   9.535  10.638  11.252
58370SOL     OW75133   9.389  10.550   9.963
58370SOL    HW175134   9.388  10.503  10.051
58370SOL    HW275135   9.471  10.522   9.912
58371SOL     OW75136   9.982  10.701  10.934
58371SOL    HW175137   9.904  10.651  10.972
58371SOL    HW275138   9.979  10.796  10.965
58372SOL     OW75139  11.134   9.502  10.537
58372SOL    HW175140  11.130   9.412  10.581
58372SOL    HW275141  11.137   9.491  10.438
58373SOL     OW75142   9.738   9.734   9.830
58373SOL    HW175143   9.768   9.662   9.768
58373SOL    HW275144   9.699   9.694   9.913
58374SOL     OW75145  11.015  10.797  10.414
58374SOL    HW175146  10.922  10.772  10.387
58374SOL    HW275147  11.041  10.747  10.496
58375SOL     OW75148   9.627   9.857  10.590
58375SOL    HW175149   9.665   9.798  10.662
58375SOL    HW275150   9.667   9.831  10.502
58376SOL     OW75151  10.122  10.896   9.997
58376SOL    HW175152  10.154  10.906   9.903
58376SOL    HW275153  10.043  10.834   9.999
58377SOL     OW75154  10.734   9.524  10.422
58377SOL    HW175155  10.786   9.459  10.477
58377SOL    HW275156  10.685   9.587  10.483
58378SOL     OW75157  10.311   9.344  10.464
58378SOL    HW175158  10.248   9.272  10.433
58378SOL    HW275159  10.404   9.308  10.464
58379SOL     OW75160  10.080  10.640   9.611
58379SOL    HW175161  10.034  10.553   9.628
58379SOL    HW275162  10.171  10.637   9.652
58380SOL     OW75163   9.928  10.877  10.594
58380SOL    HW175164   9.923  10.959  10.651
58380SOL    HW275165  10.017  10.874  10.549
58381SOL     OW75166  10.662   9.362   9.478
58381SOL    HW175167  10.697   9.321   9.394
58381SOL    HW275168  10.572   9.324   9.498
58382SOL     OW75169  10.610   9.763  10.001
58382SOL    HW175170  10.551   9.843  10.005
58382SOL    HW275171  10.625   9.728  10.094
58383SOL     OW75172  10.903   9.531  10.192
58383SOL    HW175173  10.819   9.530  10.246
58383SOL    HW275174  10.905   9.614  10.136
58384SOL     OW75175   9.349  10.387   9.610
58384SOL    HW175176   9.448  10.376   9.601
58384SOL    HW275177   9.309  10.301   9.642
58385SOL     OW75178  10.185  10.956   9.647
58385SOL    HW175179  10.108  10.921   9.593
58385SOL    HW275180  10.153  11.027   9.709
58386SOL     OW75181   9.540   9.938  11.285
58386SOL    HW175182   9.447   9.936  11.322
58386SOL    HW275183   9.541   9.899  11.193
58387SOL     OW75184   9.535   9.585  12.168
58387SOL    HW175185   9.570   9.568  12.260
58387SOL    HW275186   9.447   9.540  12.156
58388SOL     OW75187   9.329   9.678  11.819
58388SOL    HW175188   9.247   9.721  11.858
58388SOL    HW275189   9.301   9.605  11.756
58389SOL     OW75190   9.879  10.585  12.337
58389SOL    HW175191   9.786  10.578  12.300
58389SOL    HW275192   9.890  10.674  12.381
58390SOL     OW75193  10.865  10.821  11.875
58390SOL    HW175194  10.808  10.805  11.956
58390SOL    HW275195  10.806  10.831  11.795
58391SOL     OW75196  10.445  10.013  11.889
58391SOL    HW175197  10.502  10.091  11.864
58391SOL    HW275198  10.385  10.039  11.965
58392SOL     OW75199  11.065   9.917  11.403
58392SOL    HW175200  11.053   9.904  11.304
58392SOL    HW275201  11.035   9.836  11.452
58393SOL     OW75202  10.078  10.454  12.195
58393SOL    HW175203  10.000  10.471  12.255
58393SOL    HW275204  10.112  10.541  12.159
58394SOL     OW75205   9.995  10.322  11.837
58394SOL    HW175206  10.064  10.306  11.907
58394SOL    HW275207   9.922  10.379  11.875
58395SOL     OW75208   9.645  10.745  12.233
58395SOL    HW175209   9.567  10.714  12.180
58395SOL    HW275210   9.703  10.803  12.176
58396SOL     OW75211  10.770  10.815  12.511
58396SOL    HW175212  10.794  10.909  12.537
58396SOL    HW275213  10.754  10.761  12.593
58397SOL     OW75214   9.748   9.702  12.671
58397SOL    HW175215   9.830   9.646  12.680
58397SOL    HW275216   9.667   9.644  12.675
58398SOL     OW75217  10.913   9.757  11.909
58398SOL    HW175218  10.839   9.803  11.859
58398SOL    HW275219  10.964   9.825  11.962
58399SOL     OW75220   9.541  11.023  11.655
58399SOL    HW175221   9.575  11.100  11.709
58399SOL    HW275222   9.585  11.023  11.565
58400SOL     OW75223   9.540  10.744  11.710
58400SOL    HW175224   9.514  10.840  11.710
58400SOL    HW275225   9.469  10.690  11.755
58401SOL     OW75226   9.550  10.401  12.058
58401SOL    HW175227   9.564  10.317  12.110
58401SOL    HW275228   9.495  10.465  12.113
58402SOL     OW75229   9.930  11.096  12.611
58402SOL    HW175230   9.838  11.079  12.646
58402SOL    HW275231   9.958  11.188  12.637
58403SOL     OW75232   9.916  10.274  11.295
58403SOL    HW175233   9.923  10.358  11.241
58403SOL    HW275234   9.962  10.287  11.383
58404SOL     OW75235  10.904   9.424  12.652
58404SOL    HW175236  10.886   9.491  12.580
58404SOL    HW275237  10.901   9.470  12.741
58405SOL     OW75238   9.432   9.953  11.735
58405SOL    HW175239   9.387   9.865  11.752
58405SOL    HW275240   9.431  10.007  11.819
58406SOL     OW75241  11.152  11.077  11.531
58406SOL    HW175242  11.206  11.048  11.611
58406SOL    HW275243  11.182  11.167  11.502
58407SOL     OW75244   9.337  10.906  11.289
58407SOL    HW175245   9.318  10.810  11.310
58407SOL    HW275246   9.304  10.964  11.364
58408SOL     OW75247  10.999  10.232  11.784
58408SOL    HW175248  11.094  10.203  11.792
58408SOL    HW275249  10.991  10.297  11.709
58409SOL     OW75250  10.951  10.418  11.604
58409SOL    HW175251  11.037  10.420  11.552
58409SOL    HW275252  10.965  10.465  11.692
58410SOL     OW75253   9.423  10.047  12.769
58410SOL    HW175254   9.511  10.034  12.814
58410SOL    HW275255   9.410  10.144  12.747
58411SOL     OW75256   9.923  10.675  11.898
58411SOL    HW175257   9.874  10.588  11.907
58411SOL    HW275258   9.900  10.718  11.811
58412SOL     OW75259  10.603  10.538  12.595
58412SOL    HW175260  10.640  10.465  12.537
58412SOL    HW275261  10.655  10.543  12.680
58413SOL     OW75262  10.119   9.314  11.674
58413SOL    HW175263  10.159   9.405  11.665
58413SOL    HW275264  10.019   9.322  11.680
58414SOL     OW75265   9.507  10.286  12.436
58414SOL    HW175266   9.596  10.241  12.422
58414SOL    HW275267   9.434  10.221  12.417
58415SOL     OW75268  10.835  10.309  11.362
58415SOL    HW175269  10.772  10.233  11.375
58415SOL    HW275270  10.883  10.327  11.448
58416SOL     OW75271  10.776  10.727  12.125
58416SOL    HW175272  10.717  10.733  12.205
58416SOL    HW275273  10.761  10.639  12.079
58417SOL     OW75274  10.977  11.024  11.744
58417SOL    HW175275  10.936  11.001  11.656
58417SOL    HW275276  10.959  10.950  11.809
58418SOL     OW75277   9.908  10.039  11.442
58418SOL    HW175278   9.932  10.108  11.374
58418SOL    HW275279   9.830  10.072  11.496
58419SOL     OW75280  10.591   9.655  12.116
58419SOL    HW175281  10.505   9.605  12.103
58419SOL    HW275282  10.653   9.601  12.172
58420SOL     OW75283  10.886  10.972  11.479
58420SOL    HW175284  10.975  11.018  11.482
58420SOL    HW275285  10.865  10.948  11.384
58421SOL     OW75286  10.117   9.915  12.637
58421SOL    HW175287  10.070   9.912  12.726
58421SOL    HW275288  10.066   9.860  12.571
58422SOL     OW75289  10.283  10.200  12.744
58422SOL    HW175290  10.329  10.116  12.715
58422SOL    HW275291  10.227  10.234  12.669
58423SOL     OW75292  10.301   9.720  12.414
58423SOL    HW175293  10.224   9.754  12.468
58423SOL    HW275294  10.267   9.669  12.335
58424SOL     OW75295  10.351  10.011  11.601
58424SOL    HW175296  10.377  10.007  11.697
58424SOL    HW275297  10.266   9.960  11.587
58425SOL     OW75298   9.386  10.121  11.961
58425SOL    HW175299   9.485  10.109  11.970
58425SOL    HW275300   9.362  10.216  11.982
58426SOL     OW75301   9.440  11.131  12.743
58426SOL    HW175302   9.430  11.116  12.842
58426SOL    HW275303   9.354  11.167  12.707
58427SOL     OW75304  10.175   9.658  11.367
58427SOL    HW175305  10.234   9.721  11.318
58427SOL    HW275306  10.194   9.564  11.338
58428SOL     OW75307  10.672  10.454  11.717
58428SOL    HW175308  10.755  10.425  11.669
58428SOL    HW275309  10.623  10.521  11.661
58429SOL     OW75310   9.860   9.506  12.057
58429SOL    HW175311   9.855   9.501  12.157
58429SOL    HW275312   9.862   9.602  12.028
58430SOL     OW75313  10.318  10.766  11.649
58430SOL    HW175314  10.272  10.838  11.597
58430SOL    HW275315  10.314  10.786  11.747
58431SOL     OW75316   9.661  11.111  12.025
58431SOL    HW175317   9.711  11.025  12.031
58431SOL    HW275318   9.726  11.188  12.022
58432SOL     OW75319  11.105  10.376  12.045
58432SOL    HW175320  11.043  10.361  11.969
58432SOL    HW275321  11.053  10.387  12.130
58433SOL     OW75322  10.537  10.860  12.678
58433SOL    HW175323  10.543  10.783  12.742
58433SOL    HW275324  10.485  10.834  12.598
58434SOL     OW75325   9.631  10.253  11.414
58434SOL    HW175326   9.713  10.292  11.372
58434SOL    HW275327   9.604  10.171  11.365
58435SOL     OW75328  10.768  10.045  11.900
58435SOL    HW175329  10.763   9.980  11.975
58435SOL    HW275330  10.848  10.104  11.913
58436SOL     OW75331  10.421  11.086  11.409
58436SOL    HW175332  10.361  11.024  11.459
58436SOL    HW275333  10.452  11.042  11.324
58437SOL     OW75334   9.512   9.595  12.670
58437SOL    HW175335   9.432   9.655  12.657
58437SOL    HW275336   9.502   9.546  12.756
58438SOL     OW75337  10.942  10.687  11.253
58438SOL    HW175338  10.910  10.781  11.243
58438SOL    HW275339  10.866  10.624  11.241
58439SOL     OW75340   9.774  11.053  11.495
58439SOL    HW175341   9.807  11.092  11.581
58439SOL    HW275342   9.850  11.046  11.430
58440SOL     OW75343  10.710   9.417  11.598
58440SOL    HW175344  10.686   9.380  11.508
58440SOL    HW275345  10.809   9.433  11.602
58441SOL     OW75346   9.559  11.095  12.413
58441SOL    HW175347   9.616  11.030  12.463
58441SOL    HW275348   9.543  11.062  12.320
58442SOL     OW75349  10.250  11.008  12.076
58442SOL    HW175350  10.330  10.951  12.097
58442SOL    HW275351  10.201  10.968  11.999
58443SOL     OW75352   9.692  10.010  11.652
58443SOL    HW175353   9.737   9.920  11.649
58443SOL    HW275354   9.598   9.999  11.685
58444SOL     OW75355   9.924   9.432  11.289
58444SOL    HW175356  10.022   9.410  11.296
58444SOL    HW275357   9.893   9.415  11.196
58445SOL     OW75358  10.198  10.824  12.367
58445SOL    HW175359  10.175  10.799  12.273
58445SOL    HW275360  10.259  10.755  12.406
58446SOL     OW75361  10.661   9.900  12.605
58446SOL    HW175362  10.689   9.857  12.690
58446SOL    HW275363  10.686   9.996  12.606
58447SOL     OW75364  10.113  10.712  12.096
58447SOL    HW175365  10.203  10.726  12.054
58447SOL    HW275366  10.042  10.714  12.025
58448SOL     OW75367  10.232   9.813  12.071
58448SOL    HW175368  10.207   9.804  11.975
58448SOL    HW275369  10.280   9.731  12.102
58449SOL     OW75370   9.849   9.374  11.684
58449SOL    HW175371   9.768   9.375  11.742
58449SOL    HW275372   9.852   9.457  11.629
58450SOL     OW75373  10.744  10.498  11.213
58450SOL    HW175374  10.776  10.422  11.270
58450SOL    HW275375  10.652  10.525  11.243
58451SOL     OW75376   9.607   9.345  11.343
58451SOL    HW175377   9.656   9.429  11.322
58451SOL    HW275378   9.669   9.280  11.388
58452SOL     OW75379  10.245   9.546  11.652
58452SOL    HW175380  10.197   9.587  11.574
58452SOL    HW275381  10.344   9.544  11.633
58453SOL     OW75382  10.386   9.993  12.636
58453SOL    HW175383  10.306   9.932  12.639
58453SOL    HW275384  10.467   9.940  12.612
58454SOL     OW75385  10.537  10.880  11.965
58454SOL    HW175386  10.558  10.954  11.900
58454SOL    HW275387  10.605  10.880  12.038
58455SOL     OW75388   9.769  10.462  11.913
58455SOL    HW175389   9.698  10.435  11.978
58455SOL    HW275390   9.743  10.434  11.820
58456SOL     OW75391  10.581  11.107  11.763
58456SOL    HW175392  10.625  11.171  11.699
58456SOL    HW275393  10.531  11.159  11.833
58457SOL     OW75394   9.388   9.866  12.558
58457SOL    HW175395   9.480   9.865  12.517
58457SOL    HW275396   9.382   9.940  12.625
58458SOL     OW75397   9.871   9.532  12.319
58458SOL    HW175398   9.909   9.448  12.356
58458SOL    HW275399   9.783   9.551  12.363
58459SOL     OW75400  10.176   9.764  11.814
58459SOL    HW175401  10.144   9.836  11.752
58459SOL    HW275402  10.200   9.683  11.761
58460SOL     OW75403  10.327   9.349  11.925
58460SOL    HW175404  10.255   9.354  11.856
58460SOL    HW275405  10.303   9.280  11.994
58461SOL     OW75406  10.739  10.483  12.039
58461SOL    HW175407  10.684  10.399  12.032
58461SOL    HW275408  10.765  10.512  11.947
58462SOL     OW75409  10.776   9.900  12.164
58462SOL    HW175410  10.746   9.805  12.171
58462SOL    HW275411  10.849   9.916  12.230
58463SOL     OW75412  11.167  10.143  11.549
58463SOL    HW175413  11.209  10.079  11.613
58463SOL    HW275414  11.129  10.092  11.471
58464SOL     OW75415   9.798  10.695  11.346
58464SOL    HW175416   9.711  10.680  11.393
58464SOL    HW275417   9.781  10.721  11.251
58465SOL     OW75418  10.974  10.590  11.829
58465SOL    HW175419  11.073  10.598  11.843
58465SOL    HW275420  10.929  10.674  11.860
58466SOL     OW75421  10.700   9.885  11.250
58466SOL    HW175422  10.646   9.864  11.331
58466SOL    HW275423  10.791   9.844  11.259
58467SOL     OW75424   9.837   9.566  11.500
58467SOL    HW175425   9.864   9.507  11.425
58467SOL    HW275426   9.837   9.661  11.469
58468SOL     OW75427  11.064  10.533  12.760
58468SOL    HW175428  11.155  10.494  12.747
58468SOL    HW275429  11.072  10.629  12.784
58469SOL     OW75430  10.374  10.657  12.512
58469SOL    HW175431  10.294  10.634  12.567
58469SOL    HW275432  10.457  10.631  12.561
58470SOL     OW75433  10.421  10.505  12.272
58470SOL    HW175434  10.381  10.549  12.353
58470SOL    HW275435  10.380  10.542  12.189
58471SOL     OW75436  10.948  10.409  12.251
58471SOL    HW175437  10.953  10.490  12.310
58471SOL    HW275438  10.862  10.411  12.200
58472SOL     OW75439  10.225   9.399  12.574
58472SOL    HW175440  10.250   9.379  12.479
58472SOL    HW275441  10.297   9.455  12.616
58473SOL     OW75442  10.015  10.360  11.540
58473SOL    HW175443  10.001  10.367  11.639
58473SOL    HW275444  10.099  10.309  11.522
58474SOL     OW75445   9.720  10.123  12.423
58474SOL    HW175446   9.806  10.135  12.473
58474SOL    HW275447   9.678  10.036  12.450
58475SOL     OW75448  10.584   9.696  12.434
58475SOL    HW175449  10.605   9.770  12.498
58475SOL    HW275450  10.495   9.713  12.391
58476SOL     OW75451   9.374  10.874  12.503
58476SOL    HW175452   9.328  10.956  12.469
58476SOL    HW275453   9.472  10.893  12.512
58477SOL     OW75454   9.677  10.410  11.673
58477SOL    HW175455   9.670  10.493  11.617
58477SOL    HW275456   9.681  10.330  11.613
58478SOL     OW75457   9.876   9.847  12.037
58478SOL    HW175458   9.888   9.913  11.963
58478SOL    HW275459   9.922   9.881  12.120
58479SOL     OW75460  10.562  10.658  11.560
58479SOL    HW175461  10.612  10.735  11.600
58479SOL    HW275462  10.467  10.660  11.592
58480SOL     OW75463  10.582  10.755  12.314
58480SOL    HW175464  10.629  10.768  12.401
58480SOL    HW275465  10.516  10.681  12.323
58481SOL     OW75466  10.892   9.949  11.644
58481SOL    HW175467  10.861  10.010  11.717
58481SOL    HW275468  10.942  10.001  11.575
58482SOL     OW75469   9.664  10.820  12.501
58482SOL    HW175470   9.643  10.776  12.414
58482SOL    HW275471   9.761  10.846  12.504
58483SOL     OW75472   9.712  10.061  12.770
58483SOL    HW175473   9.780  10.116  12.723
58483SOL    HW275474   9.752   9.973  12.797
58484SOL     OW75475  10.897  10.089  12.842
58484SOL    HW175476  10.805  10.127  12.837
58484SOL    HW275477  10.957  10.136  12.777
58485SOL     OW75478   9.883  10.180  12.201
58485SOL    HW175479   9.927  10.269  12.192
58485SOL    HW275480   9.820  10.180  12.278
58486SOL     OW75481  10.670  10.172  12.217
58486SOL    HW175482  10.595  10.172  12.151
58486SOL    HW275483  10.707  10.080  12.226
58487SOL     OW75484  10.519   9.835  11.447
58487SOL    HW175485  10.532   9.751  11.501
58487SOL    HW275486  10.490   9.909  11.507
58488SOL     OW75487   9.617   9.523  12.403
58488SOL    HW175488   9.594   9.560  12.493
58488SOL    HW275489   9.587   9.428  12.397
58489SOL     OW75490   9.347  10.620  12.454
58489SOL    HW175491   9.400  10.571  12.522
58489SOL    HW275492   9.369  10.718  12.459
58490SOL     OW75493  10.042   9.944  12.236
58490SOL    HW175494  10.101   9.918  12.160
58490SOL    HW275495  10.014  10.040  12.225
58491SOL     OW75496   9.617   9.373  11.790
58491SOL    HW175497   9.606   9.467  11.823
58491SOL    HW275498   9.612   9.310  11.867
58492SOL     OW75499  10.932   9.677  11.546
58492SOL    HW175500  10.934   9.601  11.610
58492SOL    HW275501  10.884   9.754  11.586
58493SOL     OW75502  10.333  10.076  12.138
58493SOL    HW175503  10.348  10.097  12.234
58493SOL    HW275504  10.303   9.981  12.129
58494SOL     OW75505  10.850   9.584  11.297
58494SOL    HW175506  10.789   9.509  11.320
58494SOL    HW275507  10.872   9.636  11.380
58495SOL     OW75508  10.613  10.148  11.214
58495SOL    HW175509  10.647  10.055  11.229
58495SOL    HW275510  10.631  10.175  11.119
58496SOL     OW75511  10.378  10.643  12.021
58496SOL    HW175512  10.385  10.559  11.966
58496SOL    HW275513  10.440  10.712  11.985
58497SOL     OW75514   9.629  10.120  12.121
58497SOL    HW175515   9.722  10.156  12.126
58497SOL    HW275516   9.623  10.035  12.173
58498SOL     OW75517   9.649   9.819  12.178
58498SOL    HW175518   9.597   9.736  12.161
58498SOL    HW275519   9.726   9.824  12.114
58499SOL     OW75520  10.470   9.517  12.649
58499SOL    HW175521  10.470   9.581  12.726
58499SOL    HW275522  10.498   9.565  12.566
58500SOL     OW75523   9.318  10.636  11.372
58500SOL    HW175524   9.225  10.657  11.341
58500SOL    HW275525   9.328  10.537  11.385
58501SOL     OW75526   9.398  11.111  12.099
58501SOL    HW175527   9.356  11.025  12.072
58501SOL    HW275528   9.492  11.114  12.065
58502SOL     OW75529   9.814  10.878  12.082
58502SOL    HW175530   9.880  10.952  12.091
58502SOL    HW275531   9.858  10.799  12.040
58503SOL     OW75532  10.312  10.106  12.410
58503SOL    HW175533  10.353  10.074  12.496
58503SOL    HW275534  10.216  10.079  12.407
58504SOL     OW75535   9.350   9.854  12.286
58504SOL    HW175536   9.435   9.821  12.245
58504SOL    HW275537   9.363   9.869  12.384
58505SOL     OW75538  10.125   9.882  11.497
58505SOL    HW175539  10.132   9.793  11.451
58505SOL    HW275540  10.031   9.916  11.489
58506SOL     OW75541  10.967   9.914  12.378
58506SOL    HW175542  10.929   9.845  12.440
58506SOL    HW275543  11.049   9.878  12.334
58507SOL     OW75544   9.562  10.874  12.916
58507SOL    HW175545   9.532  10.931  12.992
58507SOL    HW275546   9.555  10.777  12.942
58508SOL     OW75547   9.981   9.774  12.441
58508SOL    HW175548   9.947   9.685  12.411
58508SOL    HW275549  10.007   9.828  12.361
58509SOL     OW75550  10.240  10.988  12.637
58509SOL    HW175551  10.216  10.970  12.542
58509SOL    HW275552  10.270  11.082  12.647
58510SOL     OW75553   9.783   9.810  11.363
58510SOL    HW175554   9.844   9.890  11.367
58510SOL    HW275555   9.688   9.841  11.370
58511SOL     OW75556   9.469  10.447  12.638
58511SOL    HW175557   9.491  10.386  12.714
58511SOL    HW275558   9.479  10.398  12.552
58512SOL     OW75559  10.657  10.369  12.406
58512SOL    HW175560  10.681  10.306  12.332
58512SOL    HW275561  10.567  10.409  12.388
58513SOL     OW75562  10.612  10.165  11.481
58513SOL    HW175563  10.526  10.134  11.523
58513SOL    HW275564  10.608  10.151  11.382
58514SOL     OW75565  11.069  11.057  12.326
58514SOL    HW175566  11.130  11.087  12.253
58514SOL    HW275567  11.031  10.968  12.304
58515SOL     OW75568  10.562  11.041  12.300
58515SOL    HW175569  10.646  11.046  12.246
58515SOL    HW275570  10.539  10.945  12.318
58516SOL     OW75571   9.393  10.568  12.194
58516SOL    HW175572   9.388  10.567  12.294
58516SOL    HW275573   9.310  10.527  12.156
58517SOL     OW75574  11.036   9.445  11.695
58517SOL    HW175575  11.109   9.428  11.628
58517SOL    HW275576  11.005   9.358  11.733
58518SOL     OW75577  10.698  10.883  11.649
58518SOL    HW175578  10.765  10.895  11.575
58518SOL    HW275579  10.658  10.972  11.672
58519SOL     OW75580  10.590  10.237  11.844
58519SOL    HW175581  10.650  10.156  11.846
58519SOL    HW275582  10.630  10.306  11.784
58520SOL     OW75583  10.140  10.583  12.594
58520SOL    HW175584  10.135  10.616  12.689
58520SOL    HW275585  10.054  10.602  12.548
58521SOL     OW75586   9.982  10.926  11.326
58521SOL    HW175587   9.991  10.936  11.227
58521SOL    HW275588   9.942  10.837  11.347
58522SOL     OW75589  10.960  11.030  12.566
58522SOL    HW175590  11.013  11.040  12.482
58522SOL    HW275591  10.933  11.120  12.600
58523SOL     OW75592  11.151   9.485  12.135
58523SOL    HW175593  11.190   9.400  12.099
58523SOL    HW275594  11.053   9.487  12.116
58524SOL     OW75595   9.573   9.636  11.892
58524SOL    HW175596   9.494   9.687  11.858
58524SOL    HW275597   9.564   9.621  11.990
58525SOL     OW75598  10.504  10.922  11.203
58525SOL    HW175599  10.510  10.829  11.240
58525SOL    HW275600  10.445  10.922  11.123
58526SOL     OW75601  10.132  10.312  12.544
58526SOL    HW175602  10.172  10.311  12.452
58526SOL    HW275603  10.142  10.404  12.584
58527SOL     OW75604  10.226  10.220  11.463
58527SOL    HW175605  10.289  10.258  11.395
58527SOL    HW275606  10.266  10.137  11.502
58528SOL     OW75607  10.814  10.917  11.216
58528SOL    HW175608  10.722  10.954  11.223
58528SOL    HW275609  10.852  10.937  11.126
58529SOL     OW75610   9.682  10.598  12.662
58529SOL    HW175611   9.669  10.691  12.628
58529SOL    HW275612   9.598  10.546  12.649
58530SOL     OW75613  10.924  10.602  12.461
58530SOL    HW175614  10.984  10.605  12.541
58530SOL    HW275615  10.849  10.666  12.474
58531SOL     OW75616  10.349  10.408  11.868
58531SOL    HW175617  10.279  10.361  11.922
58531SOL    HW275618  10.408  10.340  11.825
58532SOL     OW75619  10.324   9.546  12.143
58532SOL    HW175620  10.316   9.510  12.050
58532SOL    HW275621  10.322   9.470  12.208
58533SOL     OW75622   9.900  10.797  11.663
58533SOL    HW175623   9.942  10.739  11.593
58533SOL    HW275624   9.856  10.876  11.619
58534SOL     OW75625  11.019   9.695  12.553
58534SOL    HW175626  11.092   9.764  12.557
58534SOL    HW275627  11.047   9.620  12.494
58535SOL     OW75628   9.565  10.658  11.462
58535SOL    HW175629   9.469  10.659  11.435
58535SOL    HW275630   9.577  10.711  11.546
58536SOL     OW75631   9.415  10.323  12.898
58536SOL    HW175632   9.338  10.290  12.952
58536SOL    HW275633   9.500  10.293  12.940
58537SOL     OW75634   9.982   9.513  12.661
58537SOL    HW175635  10.072   9.497  12.621
58537SOL    HW275636   9.990   9.518  12.760
58538SOL     OW75637   9.385   9.655  11.205
58538SOL    HW175638   9.293   9.627  11.176
58538SOL    HW275639   9.416   9.732  11.149
58539SOL     OW75640  10.750  10.166  12.570
58539SOL    HW175641  10.693  10.218  12.507
58539SOL    HW275642  10.846  10.178  12.546
58540SOL     OW75643   9.382   9.476  11.490
58540SOL    HW175644   9.365   9.559  11.436
58540SOL    HW275645   9.472   9.439  11.468
58541SOL     OW75646  10.493  10.645  11.291
58541SOL    HW175647  10.394  10.634  11.293
58541SOL    HW275648  10.527  10.660  11.384
58542SOL     OW75649   9.923  10.152  12.603
58542SOL    HW175650   9.979  10.233  12.586
58542SOL    HW275651   9.982  10.072  12.606
58543SOL     OW75652  10.803  11.077  12.131
58543SOL    HW175653  10.836  11.141  12.062
58543SOL    HW275654  10.869  11.071  12.206
58544SOL     OW75655  10.026   9.875  12.880
58544SOL    HW175656  10.045   9.940  12.954
58544SOL    HW275657  10.086   9.795  12.889
58545SOL     OW75658   9.700  11.051  12.732
58545SOL    HW175659   9.609  11.092  12.730
58545SOL    HW275660   9.693  10.957  12.764
58546SOL     OW75661  10.984  10.193  12.426
58546SOL    HW175662  10.957  10.104  12.389
58546SOL    HW275663  10.985  10.261  12.353
58547SOL     OW75664  10.535   9.635  11.621
58547SOL    HW175665  10.600   9.561  11.610
58547SOL    HW275666  10.555   9.685  11.705
58548SOL     OW75667   9.904  10.055  11.824
58548SOL    HW175668   9.954  10.140  11.805
58548SOL    HW275669   9.816  10.057  11.776
58549SOL     OW75670  11.040  10.244  12.689
58549SOL    HW175671  11.078  10.335  12.704
58549SOL    HW275672  11.032  10.227  12.590
58550SOL     OW75673  10.169  10.684  11.188
58550SOL    HW175674  10.123  10.699  11.276
58550SOL    HW275675  10.213  10.769  11.158
58551SOL     OW75676   9.971  11.100  12.125
58551SOL    HW175677   9.925  11.188  12.112
58551SOL    HW275678  10.070  11.112  12.118
58552SOL     OW75679  10.169  10.266  12.033
58552SOL    HW175680  10.223  10.197  12.081
58552SOL    HW275681  10.137  10.335  12.099
58553SOL     OW75682  10.393  10.294  11.259
58553SOL    HW175683  10.370  10.347  11.177
58553SOL    HW275684  10.474  10.238  11.240
58554SOL     OW75685  11.171  10.879  12.023
58554SOL    HW175686  11.100  10.867  11.953
58554SOL    HW275687  11.172  10.800  12.083
58555SOL     OW75688   9.389  10.550  11.825
58555SOL    HW175689   9.388  10.503  11.913
58555SOL    HW275690   9.471  10.522  11.774
58556SOL     OW75691   9.982  10.701  12.796
58556SOL    HW175692   9.904  10.651  12.834
58556SOL    HW275693   9.979  10.796  12.827
58557SOL     OW75694  11.134   9.502  12.399
58557SOL    HW175695  11.130   9.412  12.443
58557SOL    HW275696  11.137   9.491  12.300
58558SOL     OW75697   9.738   9.734  11.692
58558SOL    HW175698   9.768   9.662  11.630
58558SOL    HW275699   9.699   9.694  11.775
58559SOL     OW75700  11.015  10.797  12.276
58559SOL    HW175701  10.922  10.772  12.249
58559SOL    HW275702  11.041  10.747  12.358
58560SOL     OW75703   9.627   9.857  12.452
58560SOL    HW175704   9.665   9.798  12.524
58560SOL    HW275705   9.667   9.831  12.364
58561SOL     OW75706  10.122  10.896  11.859
58561SOL    HW175707  10.154  10.906  11.765
58561SOL    HW275708  10.043  10.834  11.861
58562SOL     OW75709  10.734   9.524  12.284
58562SOL    HW175710  10.786   9.459  12.339
58562SOL    HW275711  10.685   9.587  12.345
58563SOL     OW75712  10.311   9.344  12.326
58563SOL    HW175713  10.248   9.272  12.295
58563SOL    HW275714  10.404   9.308  12.326
58564SOL     OW75715  10.080  10.640  11.473
58564SOL    HW175716  10.034  10.553  11.490
58564SOL    HW275717  10.171  10.637  11.514
58565SOL     OW75718   9.928  10.877  12.456
58565SOL    HW175719   9.923  10.959  12.513
58565SOL    HW275720  10.017  10.874  12.411
58566SOL     OW75721  10.662   9.362  11.340
58566SOL    HW175722  10.697   9.321  11.256
58566SOL    HW275723  10.572   9.324  11.360
58567SOL     OW75724  10.610   9.763  11.863
58567SOL    HW175725  10.551   9.843  11.867
58567SOL    HW275726  10.625   9.728  11.956
58568SOL     OW75727  10.903   9.531  12.054
58568SOL    HW175728  10.819   9.530  12.108
58568SOL    HW275729  10.905   9.614  11.998
58569SOL     OW75730   9.349  10.387  11.472
58569SOL    HW175731   9.448  10.376  11.463
58569SOL    HW275732   9.309  10.301  11.504
58570SOL     OW75733  10.185  10.956  11.509
58570SOL    HW175734  10.108  10.921  11.455
58570SOL    HW275735  10.153  11.027  11.571
58571SOL     OW75736   9.540  11.800   0.113
58571SOL    HW175737   9.447  11.798   0.150
58571SOL    HW275738   9.541  11.761   0.021
58572SOL     OW75739   9.535  11.447   0.996
58572SOL    HW175740   9.570  11.430   1.088
58572SOL    HW275741   9.447  11.402   0.984
58573SOL     OW75742   9.329  11.540   0.647
58573SOL    HW175743   9.247  11.583   0.686
58573SOL    HW275744   9.301  11.467   0.584
58574SOL     OW75745   9.879  12.447   1.165
58574SOL    HW175746   9.786  12.440   1.128
58574SOL    HW275747   9.890  12.536   1.209
58575SOL     OW75748  10.865  12.683   0.703
58575SOL    HW175749  10.808  12.667   0.784
58575SOL    HW275750  10.806  12.693   0.623
58576SOL     OW75751  10.445  11.875   0.717
58576SOL    HW175752  10.502  11.953   0.692
58576SOL    HW275753  10.385  11.901   0.793
58577SOL     OW75754  11.065  11.779   0.231
58577SOL    HW175755  11.053  11.766   0.132
58577SOL    HW275756  11.035  11.698   0.280
58578SOL     OW75757  10.078  12.316   1.023
58578SOL    HW175758  10.000  12.333   1.083
58578SOL    HW275759  10.112  12.403   0.987
58579SOL     OW75760  10.160  11.970   1.823
58579SOL    HW175761  10.156  12.046   1.888
58579SOL    HW275762  10.182  12.006   1.732
58580SOL     OW75763   9.995  12.184   0.665
58580SOL    HW175764  10.064  12.168   0.735
58580SOL    HW275765   9.922  12.241   0.703
58581SOL     OW75766   9.996  12.333   1.803
58581SOL    HW175767  10.056  12.412   1.817
58581SOL    HW275768   9.910  12.364   1.762
58582SOL     OW75769   9.645  12.607   1.061
58582SOL    HW175770   9.567  12.576   1.008
58582SOL    HW275771   9.703  12.665   1.004
58583SOL     OW75772  10.770  12.677   1.339
58583SOL    HW175773  10.794  12.771   1.365
58583SOL    HW275774  10.754  12.623   1.421
58584SOL     OW75775   9.748  11.564   1.499
58584SOL    HW175776   9.830  11.508   1.508
58584SOL    HW275777   9.667  11.506   1.503
58585SOL     OW75778  10.913  11.619   0.737
58585SOL    HW175779  10.839  11.665   0.687
58585SOL    HW275780  10.964  11.687   0.790
58586SOL     OW75781  10.437  12.513   1.690
58586SOL    HW175782  10.484  12.513   1.778
58586SOL    HW275783  10.389  12.426   1.679
58587SOL     OW75784   9.540  12.606   0.538
58587SOL    HW175785   9.514  12.702   0.538
58587SOL    HW275786   9.469  12.552   0.583
58588SOL     OW75787   9.550  12.263   0.886
58588SOL    HW175788   9.564  12.179   0.938
58588SOL    HW275789   9.495  12.327   0.941
58589SOL     OW75790   9.916  12.136   0.123
58589SOL    HW175791   9.923  12.220   0.069
58589SOL    HW275792   9.962  12.149   0.211
58590SOL     OW75793  10.904  11.286   1.480
58590SOL    HW175794  10.886  11.353   1.408
58590SOL    HW275795  10.901  11.332   1.569
58591SOL     OW75796   9.432  11.815   0.563
58591SOL    HW175797   9.387  11.727   0.580
58591SOL    HW275798   9.431  11.869   0.647
58592SOL     OW75799   9.337  12.768   0.117
58592SOL    HW175800   9.318  12.672   0.138
58592SOL    HW275801   9.304  12.826   0.192
58593SOL     OW75802  10.999  12.094   0.612
58593SOL    HW175803  11.094  12.065   0.620
58593SOL    HW275804  10.991  12.159   0.537
58594SOL     OW75805  10.951  12.280   0.432
58594SOL    HW175806  11.037  12.282   0.380
58594SOL    HW275807  10.965  12.327   0.520
58595SOL     OW75808   9.423  11.909   1.597
58595SOL    HW175809   9.511  11.896   1.642
58595SOL    HW275810   9.410  12.006   1.575
58596SOL     OW75811   9.923  12.537   0.726
58596SOL    HW175812   9.874  12.450   0.735
58596SOL    HW275813   9.900  12.580   0.639
58597SOL     OW75814  10.603  12.400   1.423
58597SOL    HW175815  10.640  12.327   1.365
58597SOL    HW275816  10.655  12.405   1.508
58598SOL     OW75817  10.119  11.176   0.502
58598SOL    HW175818  10.159  11.267   0.493
58598SOL    HW275819  10.019  11.184   0.508
58599SOL     OW75820   9.507  12.148   1.264
58599SOL    HW175821   9.596  12.103   1.250
58599SOL    HW275822   9.434  12.083   1.245
58600SOL     OW75823  10.835  12.171   0.190
58600SOL    HW175824  10.772  12.095   0.203
58600SOL    HW275825  10.883  12.189   0.276
58601SOL     OW75826   9.627  11.423   1.801
58601SOL    HW175827   9.698  11.494   1.807
58601SOL    HW275828   9.539  11.462   1.829
58602SOL     OW75829  10.776  12.589   0.953
58602SOL    HW175830  10.717  12.595   1.033
58602SOL    HW275831  10.761  12.501   0.907
58603SOL     OW75832   9.908  11.901   0.270
58603SOL    HW175833   9.932  11.970   0.202
58603SOL    HW275834   9.830  11.934   0.324
58604SOL     OW75835  10.591  11.517   0.944
58604SOL    HW175836  10.505  11.467   0.931
58604SOL    HW275837  10.653  11.463   1.000
58605SOL     OW75838  10.886  12.834   0.307
58605SOL    HW175839  10.975  12.880   0.310
58605SOL    HW275840  10.865  12.810   0.212
58606SOL     OW75841  10.117  11.777   1.465
58606SOL    HW175842  10.070  11.774   1.554
58606SOL    HW275843  10.066  11.722   1.399
58607SOL     OW75844  10.704  11.641   1.674
58607SOL    HW175845  10.684  11.684   1.762
58607SOL    HW275846  10.782  11.579   1.683
58608SOL     OW75847  10.283  12.062   1.572
58608SOL    HW175848  10.329  11.978   1.543
58608SOL    HW275849  10.227  12.096   1.497
58609SOL     OW75850  10.301  11.582   1.242
58609SOL    HW175851  10.224  11.616   1.296
58609SOL    HW275852  10.267  11.531   1.163
58610SOL     OW75853  10.351  11.873   0.429
58610SOL    HW175854  10.377  11.869   0.525
58610SOL    HW275855  10.266  11.822   0.415
58611SOL     OW75856   9.386  11.983   0.789
58611SOL    HW175857   9.485  11.971   0.798
58611SOL    HW275858   9.362  12.078   0.810
58612SOL     OW75859  10.175  11.520   0.195
58612SOL    HW175860  10.234  11.583   0.146
58612SOL    HW275861  10.194  11.426   0.166
58613SOL     OW75862  11.029  11.757   1.831
58613SOL    HW175863  11.003  11.846   1.795
58613SOL    HW275864  11.027  11.689   1.758
58614SOL     OW75865  10.672  12.316   0.545
58614SOL    HW175866  10.755  12.287   0.497
58614SOL    HW275867  10.623  12.383   0.489
58615SOL     OW75868   9.860  11.368   0.885
58615SOL    HW175869   9.855  11.363   0.985
58615SOL    HW275870   9.862  11.464   0.856
58616SOL     OW75871  10.318  12.628   0.477
58616SOL    HW175872  10.272  12.700   0.425
58616SOL    HW275873  10.314  12.648   0.575
58617SOL     OW75874  11.105  12.238   0.873
58617SOL    HW175875  11.043  12.223   0.797
58617SOL    HW275876  11.053  12.249   0.958
58618SOL     OW75877  10.537  12.722   1.506
58618SOL    HW175878  10.543  12.645   1.570
58618SOL    HW275879  10.485  12.696   1.426
58619SOL     OW75880   9.631  12.115   0.242
58619SOL    HW175881   9.713  12.154   0.200
58619SOL    HW275882   9.604  12.033   0.193
58620SOL     OW75883  10.768  11.907   0.728
58620SOL    HW175884  10.763  11.842   0.803
58620SOL    HW275885  10.848  11.966   0.741
58621SOL     OW75886   9.771  12.438   1.727
58621SOL    HW175887   9.721  12.439   1.641
58621SOL    HW275888   9.708  12.420   1.803
58622SOL     OW75889   9.512  11.457   1.498
58622SOL    HW175890   9.432  11.517   1.485
58622SOL    HW275891   9.502  11.408   1.584
58623SOL     OW75892  10.942  12.549   0.081
58623SOL    HW175893  10.910  12.643   0.071
58623SOL    HW275894  10.866  12.486   0.069
58624SOL     OW75895  10.710  11.279   0.426
58624SOL    HW175896  10.686  11.242   0.336
58624SOL    HW275897  10.809  11.295   0.430
58625SOL     OW75898   9.692  11.872   0.480
58625SOL    HW175899   9.737  11.782   0.477
58625SOL    HW275900   9.598  11.861   0.513
58626SOL     OW75901  10.857  11.394   1.729
58626SOL    HW175902  10.852  11.431   1.821
58626SOL    HW275903  10.785  11.325   1.717
58627SOL     OW75904   9.924  11.294   0.117
58627SOL    HW175905  10.022  11.272   0.124
58627SOL    HW275906   9.893  11.277   0.024
58628SOL     OW75907  10.091  11.436   1.749
58628SOL    HW175908  10.158  11.375   1.792
58628SOL    HW275909  10.018  11.455   1.814
58629SOL     OW75910  10.661  11.762   1.433
58629SOL    HW175911  10.689  11.719   1.518
58629SOL    HW275912  10.686  11.858   1.434
58630SOL     OW75913  10.113  12.574   0.924
58630SOL    HW175914  10.203  12.588   0.882
58630SOL    HW275915  10.042  12.576   0.853
58631SOL     OW75916  10.232  11.675   0.899
58631SOL    HW175917  10.207  11.666   0.803
58631SOL    HW275918  10.280  11.593   0.930
58632SOL     OW75919   9.849  11.236   0.512
58632SOL    HW175920   9.768  11.237   0.570
58632SOL    HW275921   9.852  11.319   0.457
58633SOL     OW75922  10.744  12.360   0.041
58633SOL    HW175923  10.776  12.284   0.098
58633SOL    HW275924  10.652  12.387   0.071
58634SOL     OW75925   9.607  11.207   0.171
58634SOL    HW175926   9.656  11.291   0.150
58634SOL    HW275927   9.669  11.142   0.216
58635SOL     OW75928  10.245  11.408   0.480
58635SOL    HW175929  10.197  11.449   0.402
58635SOL    HW275930  10.344  11.406   0.461
58636SOL     OW75931  10.386  11.855   1.464
58636SOL    HW175932  10.306  11.794   1.467
58636SOL    HW275933  10.467  11.802   1.440
58637SOL     OW75934  10.537  12.742   0.793
58637SOL    HW175935  10.558  12.816   0.728
58637SOL    HW275936  10.605  12.742   0.866
58638SOL     OW75937   9.769  12.324   0.741
58638SOL    HW175938   9.698  12.297   0.806
58638SOL    HW275939   9.743  12.296   0.648
58639SOL     OW75940  10.342  11.721   0.016
58639SOL    HW175941  10.301  11.803  -0.023
58639SOL    HW275942  10.406  11.747   0.089
58640SOL     OW75943   9.388  11.728   1.386
58640SOL    HW175944   9.480  11.727   1.345
58640SOL    HW275945   9.382  11.802   1.453
58641SOL     OW75946   9.871  11.394   1.147
58641SOL    HW175947   9.909  11.310   1.184
58641SOL    HW275948   9.783  11.413   1.191
58642SOL     OW75949  10.176  11.626   0.642
58642SOL    HW175950  10.144  11.698   0.580
58642SOL    HW275951  10.200  11.545   0.589
58643SOL     OW75952  10.327  11.211   0.753
58643SOL    HW175953  10.255  11.216   0.684
58643SOL    HW275954  10.303  11.142   0.822
58644SOL     OW75955  10.739  12.345   0.867
58644SOL    HW175956  10.684  12.261   0.860
58644SOL    HW275957  10.765  12.374   0.775
58645SOL     OW75958  10.776  11.762   0.992
58645SOL    HW175959  10.746  11.667   0.999
58645SOL    HW275960  10.849  11.778   1.058
58646SOL     OW75961  11.167  12.005   0.377
58646SOL    HW175962  11.209  11.941   0.441
58646SOL    HW275963  11.129  11.954   0.299
58647SOL     OW75964   9.798  12.557   0.174
58647SOL    HW175965   9.711  12.542   0.221
58647SOL    HW275966   9.781  12.583   0.079
58648SOL     OW75967  10.974  12.452   0.657
58648SOL    HW175968  11.073  12.460   0.671
58648SOL    HW275969  10.929  12.536   0.688
58649SOL     OW75970  10.700  11.747   0.078
58649SOL    HW175971  10.646  11.726   0.159
58649SOL    HW275972  10.791  11.706   0.087
58650SOL     OW75973   9.837  11.428   0.328
58650SOL    HW175974   9.864  11.369   0.253
58650SOL    HW275975   9.837  11.523   0.297
58651SOL     OW75976  11.064  12.395   1.588
58651SOL    HW175977  11.155  12.356   1.575
58651SOL    HW275978  11.072  12.491   1.612
58652SOL     OW75979  10.374  12.519   1.340
58652SOL    HW175980  10.294  12.496   1.395
58652SOL    HW275981  10.457  12.493   1.389
58653SOL     OW75982  10.421  12.367   1.100
58653SOL    HW175983  10.381  12.411   1.181
58653SOL    HW275984  10.380  12.404   1.017
58654SOL     OW75985  10.948  12.271   1.079
58654SOL    HW175986  10.953  12.352   1.138
58654SOL    HW275987  10.862  12.273   1.028
58655SOL     OW75988  10.225  11.261   1.402
58655SOL    HW175989  10.250  11.241   1.307
58655SOL    HW275990  10.297  11.317   1.444
58656SOL     OW75991  10.290  12.288   1.719
58656SOL    HW175992  10.191  12.294   1.729
58656SOL    HW275993  10.313  12.208   1.663
58657SOL     OW75994  10.015  12.222   0.368
58657SOL    HW175995  10.001  12.229   0.467
58657SOL    HW275996  10.099  12.171   0.350
58658SOL     OW75997   9.720  11.985   1.251
58658SOL    HW175998   9.806  11.997   1.301
58658SOL    HW275999   9.678  11.898   1.278
58659SOL     OW76000  10.584  11.558   1.262
58659SOL    HW176001  10.605  11.632   1.326
58659SOL    HW276002  10.495  11.575   1.219
58660SOL     OW76003   9.374  12.736   1.331
58660SOL    HW176004   9.328  12.818   1.297
58660SOL    HW276005   9.472  12.755   1.340
58661SOL     OW76006   9.677  12.272   0.501
58661SOL    HW176007   9.670  12.355   0.445
58661SOL    HW276008   9.681  12.192   0.441
58662SOL     OW76009   9.876  11.709   0.865
58662SOL    HW176010   9.888  11.775   0.791
58662SOL    HW276011   9.922  11.743   0.948
58663SOL     OW76012  10.562  12.520   0.388
58663SOL    HW176013  10.612  12.597   0.428
58663SOL    HW276014  10.467  12.522   0.420
58664SOL     OW76015  10.582  12.617   1.142
58664SOL    HW176016  10.629  12.630   1.229
58664SOL    HW276017  10.516  12.543   1.151
58665SOL     OW76018  10.892  11.811   0.472
58665SOL    HW176019  10.861  11.872   0.545
58665SOL    HW276020  10.942  11.863   0.403
58666SOL     OW76021   9.664  12.682   1.329
58666SOL    HW176022   9.643  12.638   1.242
58666SOL    HW276023   9.761  12.708   1.332
58667SOL     OW76024   9.712  11.923   1.598
58667SOL    HW176025   9.780  11.978   1.551
58667SOL    HW276026   9.752  11.835   1.625
58668SOL     OW76027  10.897  11.951   1.670
58668SOL    HW176028  10.805  11.989   1.665
58668SOL    HW276029  10.957  11.998   1.605
58669SOL     OW76030  10.323  11.277   1.770
58669SOL    HW176031  10.329  11.362   1.718
58669SOL    HW276032  10.355  11.201   1.713
58670SOL     OW76033   9.814  11.222   1.740
58670SOL    HW176034   9.772  11.165   1.670
58670SOL    HW276035   9.748  11.291   1.772
58671SOL     OW76036   9.883  12.042   1.029
58671SOL    HW176037   9.927  12.131   1.020
58671SOL    HW276038   9.820  12.042   1.106
58672SOL     OW76039  10.670  12.034   1.045
58672SOL    HW176040  10.595  12.034   0.979
58672SOL    HW276041  10.707  11.942   1.054
58673SOL     OW76042  10.519  11.697   0.275
58673SOL    HW176043  10.532  11.613   0.329
58673SOL    HW276044  10.490  11.771   0.335
58674SOL     OW76045   9.617  11.385   1.231
58674SOL    HW176046   9.594  11.422   1.321
58674SOL    HW276047   9.587  11.290   1.225
58675SOL     OW76048   9.347  12.482   1.282
58675SOL    HW176049   9.400  12.433   1.350
58675SOL    HW276050   9.369  12.580   1.287
58676SOL     OW76051  10.042  11.806   1.064
58676SOL    HW176052  10.101  11.780   0.988
58676SOL    HW276053  10.014  11.902   1.053
58677SOL     OW76054  11.038  12.107   1.854
58677SOL    HW176055  10.992  12.100   1.765
58677SOL    HW276056  10.976  12.151   1.920
58678SOL     OW76057   9.617  11.235   0.618
58678SOL    HW176058   9.606  11.329   0.651
58678SOL    HW276059   9.612  11.172   0.695
58679SOL     OW76060  10.932  11.539   0.374
58679SOL    HW176061  10.934  11.463   0.438
58679SOL    HW276062  10.884  11.616   0.414
58680SOL     OW76063  10.333  11.938   0.966
58680SOL    HW176064  10.348  11.959   1.062
58680SOL    HW276065  10.303  11.843   0.957
58681SOL     OW76066  11.169  12.690   1.605
58681SOL    HW176067  11.183  12.717   1.510
58681SOL    HW276068  11.252  12.712   1.658
58682SOL     OW76069   9.660  12.070   1.804
58682SOL    HW176070   9.736  12.114   1.852
58682SOL    HW276071   9.695  12.023   1.722
58683SOL     OW76072  10.850  11.446   0.125
58683SOL    HW176073  10.789  11.371   0.148
58683SOL    HW276074  10.872  11.498   0.208
58684SOL     OW76075  10.613  12.010   0.042
58684SOL    HW176076  10.647  11.917   0.057
58684SOL    HW276077  10.631  12.037  -0.053
58685SOL     OW76078  10.378  12.505   0.849
58685SOL    HW176079  10.385  12.421   0.794
58685SOL    HW276080  10.440  12.574   0.813
58686SOL     OW76081   9.629  11.982   0.949
58686SOL    HW176082   9.722  12.018   0.954
58686SOL    HW276083   9.623  11.897   1.001
58687SOL     OW76084   9.649  11.681   1.006
58687SOL    HW176085   9.597  11.598   0.989
58687SOL    HW276086   9.726  11.686   0.942
58688SOL     OW76087  10.448  11.552   1.678
58688SOL    HW176088  10.403  11.615   1.742
58688SOL    HW276089  10.541  11.583   1.661
58689SOL     OW76090  10.470  11.379   1.477
58689SOL    HW176091  10.470  11.443   1.554
58689SOL    HW276092  10.498  11.427   1.394
58690SOL     OW76093   9.318  12.498   0.200
58690SOL    HW176094   9.225  12.519   0.169
58690SOL    HW276095   9.328  12.399   0.213
58691SOL     OW76096   9.814  12.740   0.910
58691SOL    HW176097   9.880  12.814   0.919
58691SOL    HW276098   9.858  12.661   0.868
58692SOL     OW76099  10.312  11.968   1.238
58692SOL    HW176100  10.353  11.936   1.324
58692SOL    HW276101  10.216  11.941   1.235
58693SOL     OW76102   9.350  11.716   1.114
58693SOL    HW176103   9.435  11.683   1.073
58693SOL    HW276104   9.363  11.731   1.212
58694SOL     OW76105   9.499  11.692   1.722
58694SOL    HW176106   9.558  11.652   1.652
58694SOL    HW276107   9.441  11.763   1.681
58695SOL     OW76108  10.679  12.122   1.660
58695SOL    HW176109  10.718  12.211   1.680
58695SOL    HW276110  10.689  12.102   1.563
58696SOL     OW76111  10.125  11.744   0.325
58696SOL    HW176112  10.132  11.655   0.279
58696SOL    HW276113  10.031  11.778   0.317
58697SOL     OW76114  10.967  11.776   1.206
58697SOL    HW176115  10.929  11.707   1.268
58697SOL    HW276116  11.049  11.740   1.162
58698SOL     OW76117   9.562  12.736   1.744
58698SOL    HW176118   9.532  12.793   1.820
58698SOL    HW276119   9.555  12.639   1.770
58699SOL     OW76120   9.981  11.636   1.269
58699SOL    HW176121   9.947  11.547   1.239
58699SOL    HW276122  10.007  11.690   1.189
58700SOL     OW76123   9.783  11.672   0.191
58700SOL    HW176124   9.844  11.752   0.195
58700SOL    HW276125   9.688  11.703   0.198
58701SOL     OW76126   9.469  12.309   1.466
58701SOL    HW176127   9.491  12.248   1.542
58701SOL    HW276128   9.479  12.260   1.380
58702SOL     OW76129  10.657  12.231   1.234
58702SOL    HW176130  10.681  12.168   1.160
58702SOL    HW276131  10.567  12.271   1.216
58703SOL     OW76132  10.612  12.027   0.309
58703SOL    HW176133  10.526  11.996   0.351
58703SOL    HW276134  10.608  12.013   0.210
58704SOL     OW76135  10.562  12.903   1.128
58704SOL    HW176136  10.646  12.908   1.074
58704SOL    HW276137  10.539  12.807   1.146
58705SOL     OW76138   9.393  12.430   1.022
58705SOL    HW176139   9.388  12.429   1.122
58705SOL    HW276140   9.310  12.389   0.984
58706SOL     OW76141  10.213  11.258   0.133
58706SOL    HW176142  10.264  11.259   0.047
58706SOL    HW276143  10.269  11.216   0.204
58707SOL     OW76144  11.036  11.307   0.523
58707SOL    HW176145  11.109  11.290   0.456
58707SOL    HW276146  11.005  11.220   0.561
58708SOL     OW76147   9.440  12.966   1.851
58708SOL    HW176148   9.399  12.892   1.904
58708SOL    HW276149   9.504  13.017   1.909
58709SOL     OW76150  10.590  12.099   0.672
58709SOL    HW176151  10.650  12.018   0.674
58709SOL    HW276152  10.630  12.168   0.612
58710SOL     OW76153  10.140  12.445   1.422
58710SOL    HW176154  10.135  12.478   1.517
58710SOL    HW276155  10.054  12.464   1.376
58711SOL     OW76156   9.982  12.788   0.154
58711SOL    HW176157   9.991  12.798   0.055
58711SOL    HW276158   9.942  12.699   0.175
58712SOL     OW76159  11.151  11.347   0.963
58712SOL    HW176160  11.190  11.262   0.927
58712SOL    HW276161  11.053  11.349   0.944
58713SOL     OW76162   9.573  11.498   0.720
58713SOL    HW176163   9.494  11.549   0.686
58713SOL    HW276164   9.564  11.483   0.818
58714SOL     OW76165  10.504  12.784   0.031
58714SOL    HW176166  10.510  12.691   0.068
58714SOL    HW276167  10.445  12.784  -0.049
58715SOL     OW76168  10.132  12.174   1.372
58715SOL    HW176169  10.172  12.173   1.280
58715SOL    HW276170  10.142  12.266   1.412
58716SOL     OW76171  10.226  12.082   0.291
58716SOL    HW176172  10.289  12.120   0.223
58716SOL    HW276173  10.266  11.999   0.330
58717SOL     OW76174   9.682  12.460   1.490
58717SOL    HW176175   9.669  12.553   1.456
58717SOL    HW276176   9.598  12.408   1.477
58718SOL     OW76177  10.924  12.464   1.289
58718SOL    HW176178  10.984  12.467   1.369
58718SOL    HW276179  10.849  12.528   1.302
58719SOL     OW76180  10.349  12.270   0.696
58719SOL    HW176181  10.279  12.223   0.750
58719SOL    HW276182  10.408  12.202   0.653
58720SOL     OW76183  10.324  11.408   0.971
58720SOL    HW176184  10.316  11.372   0.878
58720SOL    HW276185  10.322  11.332   1.036
58721SOL     OW76186   9.900  12.659   0.491
58721SOL    HW176187   9.942  12.601   0.421
58721SOL    HW276188   9.856  12.738   0.447
58722SOL     OW76189  11.019  11.557   1.381
58722SOL    HW176190  11.092  11.626   1.385
58722SOL    HW276191  11.047  11.482   1.322
58723SOL     OW76192   9.565  12.520   0.290
58723SOL    HW176193   9.469  12.521   0.263
58723SOL    HW276194   9.577  12.573   0.374
58724SOL     OW76195   9.415  12.185   1.726
58724SOL    HW176196   9.338  12.152   1.780
58724SOL    HW276197   9.500  12.155   1.768
58725SOL     OW76198   9.982  11.375   1.489
58725SOL    HW176199  10.072  11.359   1.449
58725SOL    HW276200   9.990  11.380   1.588
58726SOL     OW76201  10.750  12.028   1.398
58726SOL    HW176202  10.693  12.080   1.335
58726SOL    HW276203  10.846  12.040   1.374
58727SOL     OW76204   9.382  11.338   0.318
58727SOL    HW176205   9.365  11.421   0.264
58727SOL    HW276206   9.472  11.301   0.296
58728SOL     OW76207  10.493  12.507   0.119
58728SOL    HW176208  10.394  12.496   0.121
58728SOL    HW276209  10.527  12.522   0.212
58729SOL     OW76210   9.923  12.014   1.431
58729SOL    HW176211   9.979  12.095   1.414
58729SOL    HW276212   9.982  11.934   1.434
58730SOL     OW76213  10.026  11.737   1.708
58730SOL    HW176214  10.045  11.802   1.782
58730SOL    HW276215  10.086  11.657   1.717
58731SOL     OW76216  10.760  12.392   1.633
58731SOL    HW176217  10.751  12.382   1.732
58731SOL    HW276218  10.856  12.385   1.607
58732SOL     OW76219  10.984  12.055   1.254
58732SOL    HW176220  10.957  11.966   1.217
58732SOL    HW276221  10.985  12.123   1.181
58733SOL     OW76222  10.535  11.497   0.449
58733SOL    HW176223  10.600  11.423   0.438
58733SOL    HW276224  10.555  11.547   0.533
58734SOL     OW76225   9.904  11.917   0.652
58734SOL    HW176226   9.954  12.002   0.633
58734SOL    HW276227   9.816  11.919   0.604
58735SOL     OW76228  11.087  11.514   1.642
58735SOL    HW176229  11.070  11.545   1.548
58735SOL    HW276230  11.003  11.477   1.680
58736SOL     OW76231  11.040  12.106   1.517
58736SOL    HW176232  11.078  12.197   1.532
58736SOL    HW276233  11.032  12.089   1.418
58737SOL     OW76234  10.169  12.546   0.016
58737SOL    HW176235  10.123  12.561   0.104
58737SOL    HW276236  10.213  12.631  -0.014
58738SOL     OW76237  10.169  12.128   0.861
58738SOL    HW176238  10.223  12.059   0.909
58738SOL    HW276239  10.137  12.197   0.927
58739SOL     OW76240  10.393  12.156   0.087
58739SOL    HW176241  10.370  12.209   0.005
58739SOL    HW276242  10.474  12.100   0.068
58740SOL     OW76243  11.171  12.741   0.851
58740SOL    HW176244  11.100  12.729   0.781
58740SOL    HW276245  11.172  12.662   0.911
58741SOL     OW76246   9.531  12.486   1.844
58741SOL    HW176247   9.466  12.413   1.823
58741SOL    HW276248   9.535  12.500   1.942
58742SOL     OW76249   9.389  12.412   0.653
58742SOL    HW176250   9.388  12.365   0.741
58742SOL    HW276251   9.471  12.384   0.602
58743SOL     OW76252   9.982  12.563   1.624
58743SOL    HW176253   9.904  12.513   1.662
58743SOL    HW276254   9.979  12.658   1.655
58744SOL     OW76255  11.134  11.364   1.227
58744SOL    HW176256  11.130  11.274   1.271
58744SOL    HW276257  11.137  11.353   1.128
58745SOL     OW76258   9.738  11.596   0.520
58745SOL    HW176259   9.768  11.524   0.458
58745SOL    HW276260   9.699  11.556   0.603
58746SOL     OW76261  11.015  12.659   1.104
58746SOL    HW176262  10.922  12.634   1.077
58746SOL    HW276263  11.041  12.609   1.186
58747SOL     OW76264   9.627  11.719   1.280
58747SOL    HW176265   9.665  11.660   1.352
58747SOL    HW276266   9.667  11.693   1.192
58748SOL     OW76267  10.734  11.386   1.112
58748SOL    HW176268  10.786  11.321   1.167
58748SOL    HW276269  10.685  11.449   1.173
58749SOL     OW76270  10.311  11.206   1.154
58749SOL    HW176271  10.248  11.134   1.123
58749SOL    HW276272  10.404  11.170   1.154
58750SOL     OW76273  10.080  12.502   0.301
58750SOL    HW176274  10.034  12.415   0.318
58750SOL    HW276275  10.171  12.499   0.342
58751SOL     OW76276   9.928  12.739   1.284
58751SOL    HW176277   9.923  12.821   1.341
58751SOL    HW276278  10.017  12.736   1.239
58752SOL     OW76279  10.662  11.224   0.168
58752SOL    HW176280  10.697  11.183   0.084
58752SOL    HW276281  10.572  11.186   0.188
58753SOL     OW76282  10.610  11.625   0.691
58753SOL    HW176283  10.551  11.705   0.695
58753SOL    HW276284  10.625  11.590   0.784
58754SOL     OW76285  10.903  11.393   0.882
58754SOL    HW176286  10.819  11.392   0.936
58754SOL    HW276287  10.905  11.476   0.826
58755SOL     OW76288   9.349  12.249   0.300
58755SOL    HW176289   9.448  12.238   0.291
58755SOL    HW276290   9.309  12.163   0.332
58756SOL     OW76291   9.540  11.800   1.975
58756SOL    HW176292   9.447  11.798   2.012
58756SOL    HW276293   9.541  11.761   1.883
58757SOL     OW76294   9.535  11.447   2.858
58757SOL    HW176295   9.570  11.430   2.950
58757SOL    HW276296   9.447  11.402   2.846
58758SOL     OW76297   9.329  11.540   2.509
58758SOL    HW176298   9.247  11.583   2.548
58758SOL    HW276299   9.301  11.467   2.446
58759SOL     OW76300   9.879  12.447   3.027
58759SOL    HW176301   9.786  12.440   2.990
58759SOL    HW276302   9.890  12.536   3.071
58760SOL     OW76303  10.865  12.683   2.565
58760SOL    HW176304  10.808  12.667   2.646
58760SOL    HW276305  10.806  12.693   2.485
58761SOL     OW76306  10.445  11.875   2.579
58761SOL    HW176307  10.502  11.953   2.554
58761SOL    HW276308  10.385  11.901   2.655
58762SOL     OW76309  11.065  11.779   2.093
58762SOL    HW176310  11.053  11.766   1.994
58762SOL    HW276311  11.035  11.698   2.142
58763SOL     OW76312  10.078  12.316   2.885
58763SOL    HW176313  10.000  12.333   2.945
58763SOL    HW276314  10.112  12.403   2.849
58764SOL     OW76315  10.160  11.970   3.685
58764SOL    HW176316  10.156  12.046   3.750
58764SOL    HW276317  10.182  12.006   3.594
58765SOL     OW76318   9.995  12.184   2.527
58765SOL    HW176319  10.064  12.168   2.597
58765SOL    HW276320   9.922  12.241   2.565
58766SOL     OW76321   9.996  12.333   3.665
58766SOL    HW176322  10.056  12.412   3.679
58766SOL    HW276323   9.910  12.364   3.624
58767SOL     OW76324   9.645  12.607   2.923
58767SOL    HW176325   9.567  12.576   2.870
58767SOL    HW276326   9.703  12.665   2.866
58768SOL     OW76327  10.770  12.677   3.201
58768SOL    HW176328  10.794  12.771   3.227
58768SOL    HW276329  10.754  12.623   3.283
58769SOL     OW76330   9.748  11.564   3.361
58769SOL    HW176331   9.830  11.508   3.370
58769SOL    HW276332   9.667  11.506   3.365
58770SOL     OW76333  10.913  11.619   2.599
58770SOL    HW176334  10.839  11.665   2.549
58770SOL    HW276335  10.964  11.687   2.652
58771SOL     OW76336  10.437  12.513   3.552
58771SOL    HW176337  10.484  12.513   3.640
58771SOL    HW276338  10.389  12.426   3.541
58772SOL     OW76339   9.540  12.606   2.400
58772SOL    HW176340   9.514  12.702   2.400
58772SOL    HW276341   9.469  12.552   2.445
58773SOL     OW76342   9.916  12.136   1.985
58773SOL    HW176343   9.923  12.220   1.931
58773SOL    HW276344   9.962  12.149   2.073
58774SOL     OW76345  10.904  11.286   3.342
58774SOL    HW176346  10.886  11.353   3.270
58774SOL    HW276347  10.901  11.332   3.431
58775SOL     OW76348   9.432  11.815   2.425
58775SOL    HW176349   9.387  11.727   2.442
58775SOL    HW276350   9.431  11.869   2.509
58776SOL     OW76351   9.337  12.768   1.979
58776SOL    HW176352   9.318  12.672   2.000
58776SOL    HW276353   9.304  12.826   2.054
58777SOL     OW76354  10.999  12.094   2.474
58777SOL    HW176355  11.094  12.065   2.482
58777SOL    HW276356  10.991  12.159   2.399
58778SOL     OW76357  10.951  12.280   2.294
58778SOL    HW176358  11.037  12.282   2.242
58778SOL    HW276359  10.965  12.327   2.382
58779SOL     OW76360   9.423  11.909   3.459
58779SOL    HW176361   9.511  11.896   3.504
58779SOL    HW276362   9.410  12.006   3.437
58780SOL     OW76363   9.923  12.537   2.588
58780SOL    HW176364   9.874  12.450   2.597
58780SOL    HW276365   9.900  12.580   2.501
58781SOL     OW76366  10.603  12.400   3.285
58781SOL    HW176367  10.640  12.327   3.227
58781SOL    HW276368  10.655  12.405   3.370
58782SOL     OW76369  10.119  11.176   2.364
58782SOL    HW176370  10.159  11.267   2.355
58782SOL    HW276371  10.019  11.184   2.370
58783SOL     OW76372   9.507  12.148   3.126
58783SOL    HW176373   9.596  12.103   3.112
58783SOL    HW276374   9.434  12.083   3.107
58784SOL     OW76375  10.835  12.171   2.052
58784SOL    HW176376  10.772  12.095   2.065
58784SOL    HW276377  10.883  12.189   2.138
58785SOL     OW76378   9.627  11.423   3.663
58785SOL    HW176379   9.698  11.494   3.669
58785SOL    HW276380   9.539  11.462   3.691
58786SOL     OW76381  10.776  12.589   2.815
58786SOL    HW176382  10.717  12.595   2.895
58786SOL    HW276383  10.761  12.501   2.769
58787SOL     OW76384   9.908  11.901   2.132
58787SOL    HW176385   9.932  11.970   2.064
58787SOL    HW276386   9.830  11.934   2.186
58788SOL     OW76387  10.591  11.517   2.806
58788SOL    HW176388  10.505  11.467   2.793
58788SOL    HW276389  10.653  11.463   2.862
58789SOL     OW76390  10.886  12.834   2.169
58789SOL    HW176391  10.975  12.880   2.172
58789SOL    HW276392  10.865  12.810   2.074
58790SOL     OW76393  10.117  11.777   3.327
58790SOL    HW176394  10.070  11.774   3.416
58790SOL    HW276395  10.066  11.722   3.261
58791SOL     OW76396  10.704  11.641   3.536
58791SOL    HW176397  10.684  11.684   3.624
58791SOL    HW276398  10.782  11.579   3.545
58792SOL     OW76399  10.283  12.062   3.434
58792SOL    HW176400  10.329  11.978   3.405
58792SOL    HW276401  10.227  12.096   3.359
58793SOL     OW76402  10.301  11.582   3.104
58793SOL    HW176403  10.224  11.616   3.158
58793SOL    HW276404  10.267  11.531   3.025
58794SOL     OW76405  10.351  11.873   2.291
58794SOL    HW176406  10.377  11.869   2.387
58794SOL    HW276407  10.266  11.822   2.277
58795SOL     OW76408   9.386  11.983   2.651
58795SOL    HW176409   9.485  11.971   2.660
58795SOL    HW276410   9.362  12.078   2.672
58796SOL     OW76411  10.175  11.520   2.057
58796SOL    HW176412  10.234  11.583   2.008
58796SOL    HW276413  10.194  11.426   2.028
58797SOL     OW76414  11.029  11.757   3.693
58797SOL    HW176415  11.003  11.846   3.657
58797SOL    HW276416  11.027  11.689   3.620
58798SOL     OW76417  10.672  12.316   2.407
58798SOL    HW176418  10.755  12.287   2.359
58798SOL    HW276419  10.623  12.383   2.351
58799SOL     OW76420   9.860  11.368   2.747
58799SOL    HW176421   9.855  11.363   2.847
58799SOL    HW276422   9.862  11.464   2.718
58800SOL     OW76423  10.318  12.628   2.339
58800SOL    HW176424  10.272  12.700   2.287
58800SOL    HW276425  10.314  12.648   2.437
58801SOL     OW76426  11.105  12.238   2.735
58801SOL    HW176427  11.043  12.223   2.659
58801SOL    HW276428  11.053  12.249   2.820
58802SOL     OW76429  10.537  12.722   3.368
58802SOL    HW176430  10.543  12.645   3.432
58802SOL    HW276431  10.485  12.696   3.288
58803SOL     OW76432   9.631  12.115   2.104
58803SOL    HW176433   9.713  12.154   2.062
58803SOL    HW276434   9.604  12.033   2.055
58804SOL     OW76435  10.768  11.907   2.590
58804SOL    HW176436  10.763  11.842   2.665
58804SOL    HW276437  10.848  11.966   2.603
58805SOL     OW76438   9.771  12.438   3.589
58805SOL    HW176439   9.721  12.439   3.503
58805SOL    HW276440   9.708  12.420   3.665
58806SOL     OW76441   9.512  11.457   3.360
58806SOL    HW176442   9.432  11.517   3.347
58806SOL    HW276443   9.502  11.408   3.446
58807SOL     OW76444  10.942  12.549   1.943
58807SOL    HW176445  10.910  12.643   1.933
58807SOL    HW276446  10.866  12.486   1.931
58808SOL     OW76447  10.710  11.279   2.288
58808SOL    HW176448  10.686  11.242   2.198
58808SOL    HW276449  10.809  11.295   2.292
58809SOL     OW76450   9.692  11.872   2.342
58809SOL    HW176451   9.737  11.782   2.339
58809SOL    HW276452   9.598  11.861   2.375
58810SOL     OW76453  10.857  11.394   3.591
58810SOL    HW176454  10.852  11.431   3.683
58810SOL    HW276455  10.785  11.325   3.579
58811SOL     OW76456   9.924  11.294   1.979
58811SOL    HW176457  10.022  11.272   1.986
58811SOL    HW276458   9.893  11.277   1.886
58812SOL     OW76459  10.091  11.436   3.611
58812SOL    HW176460  10.158  11.375   3.654
58812SOL    HW276461  10.018  11.455   3.676
58813SOL     OW76462  10.661  11.762   3.295
58813SOL    HW176463  10.689  11.719   3.380
58813SOL    HW276464  10.686  11.858   3.296
58814SOL     OW76465  10.113  12.574   2.786
58814SOL    HW176466  10.203  12.588   2.744
58814SOL    HW276467  10.042  12.576   2.715
58815SOL     OW76468  10.232  11.675   2.761
58815SOL    HW176469  10.207  11.666   2.665
58815SOL    HW276470  10.280  11.593   2.792
58816SOL     OW76471   9.849  11.236   2.374
58816SOL    HW176472   9.768  11.237   2.432
58816SOL    HW276473   9.852  11.319   2.319
58817SOL     OW76474  10.744  12.360   1.903
58817SOL    HW176475  10.776  12.284   1.960
58817SOL    HW276476  10.652  12.387   1.933
58818SOL     OW76477   9.607  11.207   2.033
58818SOL    HW176478   9.656  11.291   2.012
58818SOL    HW276479   9.669  11.142   2.078
58819SOL     OW76480  10.245  11.408   2.342
58819SOL    HW176481  10.197  11.449   2.264
58819SOL    HW276482  10.344  11.406   2.323
58820SOL     OW76483  10.386  11.855   3.326
58820SOL    HW176484  10.306  11.794   3.329
58820SOL    HW276485  10.467  11.802   3.302
58821SOL     OW76486  10.537  12.742   2.655
58821SOL    HW176487  10.558  12.816   2.590
58821SOL    HW276488  10.605  12.742   2.728
58822SOL     OW76489   9.769  12.324   2.603
58822SOL    HW176490   9.698  12.297   2.668
58822SOL    HW276491   9.743  12.296   2.510
58823SOL     OW76492  10.342  11.721   1.878
58823SOL    HW176493  10.301  11.803   1.839
58823SOL    HW276494  10.406  11.747   1.951
58824SOL     OW76495   9.388  11.728   3.248
58824SOL    HW176496   9.480  11.727   3.207
58824SOL    HW276497   9.382  11.802   3.315
58825SOL     OW76498   9.871  11.394   3.009
58825SOL    HW176499   9.909  11.310   3.046
58825SOL    HW276500   9.783  11.413   3.053
58826SOL     OW76501  10.176  11.626   2.504
58826SOL    HW176502  10.144  11.698   2.442
58826SOL    HW276503  10.200  11.545   2.451
58827SOL     OW76504  10.327  11.211   2.615
58827SOL    HW176505  10.255  11.216   2.546
58827SOL    HW276506  10.303  11.142   2.684
58828SOL     OW76507  10.739  12.345   2.729
58828SOL    HW176508  10.684  12.261   2.722
58828SOL    HW276509  10.765  12.374   2.637
58829SOL     OW76510  10.776  11.762   2.854
58829SOL    HW176511  10.746  11.667   2.861
58829SOL    HW276512  10.849  11.778   2.920
58830SOL     OW76513  11.167  12.005   2.239
58830SOL    HW176514  11.209  11.941   2.303
58830SOL    HW276515  11.129  11.954   2.161
58831SOL     OW76516   9.798  12.557   2.036
58831SOL    HW176517   9.711  12.542   2.083
58831SOL    HW276518   9.781  12.583   1.941
58832SOL     OW76519  10.974  12.452   2.519
58832SOL    HW176520  11.073  12.460   2.533
58832SOL    HW276521  10.929  12.536   2.550
58833SOL     OW76522  10.700  11.747   1.940
58833SOL    HW176523  10.646  11.726   2.021
58833SOL    HW276524  10.791  11.706   1.949
58834SOL     OW76525   9.837  11.428   2.190
58834SOL    HW176526   9.864  11.369   2.115
58834SOL    HW276527   9.837  11.523   2.159
58835SOL     OW76528  11.064  12.395   3.450
58835SOL    HW176529  11.155  12.356   3.437
58835SOL    HW276530  11.072  12.491   3.474
58836SOL     OW76531  10.374  12.519   3.202
58836SOL    HW176532  10.294  12.496   3.257
58836SOL    HW276533  10.457  12.493   3.251
58837SOL     OW76534  10.421  12.367   2.962
58837SOL    HW176535  10.381  12.411   3.043
58837SOL    HW276536  10.380  12.404   2.879
58838SOL     OW76537  10.948  12.271   2.941
58838SOL    HW176538  10.953  12.352   3.000
58838SOL    HW276539  10.862  12.273   2.890
58839SOL     OW76540  10.225  11.261   3.264
58839SOL    HW176541  10.250  11.241   3.169
58839SOL    HW276542  10.297  11.317   3.306
58840SOL     OW76543  10.290  12.288   3.581
58840SOL    HW176544  10.191  12.294   3.591
58840SOL    HW276545  10.313  12.208   3.525
58841SOL     OW76546  10.015  12.222   2.230
58841SOL    HW176547  10.001  12.229   2.329
58841SOL    HW276548  10.099  12.171   2.212
58842SOL     OW76549   9.720  11.985   3.113
58842SOL    HW176550   9.806  11.997   3.163
58842SOL    HW276551   9.678  11.898   3.140
58843SOL     OW76552  10.584  11.558   3.124
58843SOL    HW176553  10.605  11.632   3.188
58843SOL    HW276554  10.495  11.575   3.081
58844SOL     OW76555   9.374  12.736   3.193
58844SOL    HW176556   9.328  12.818   3.159
58844SOL    HW276557   9.472  12.755   3.202
58845SOL     OW76558   9.677  12.272   2.363
58845SOL    HW176559   9.670  12.355   2.307
58845SOL    HW276560   9.681  12.192   2.303
58846SOL     OW76561   9.876  11.709   2.727
58846SOL    HW176562   9.888  11.775   2.653
58846SOL    HW276563   9.922  11.743   2.810
58847SOL     OW76564  10.562  12.520   2.250
58847SOL    HW176565  10.612  12.597   2.290
58847SOL    HW276566  10.467  12.522   2.282
58848SOL     OW76567  10.582  12.617   3.004
58848SOL    HW176568  10.629  12.630   3.091
58848SOL    HW276569  10.516  12.543   3.013
58849SOL     OW76570  10.892  11.811   2.334
58849SOL    HW176571  10.861  11.872   2.407
58849SOL    HW276572  10.942  11.863   2.265
58850SOL     OW76573   9.664  12.682   3.191
58850SOL    HW176574   9.643  12.638   3.104
58850SOL    HW276575   9.761  12.708   3.194
58851SOL     OW76576   9.712  11.923   3.460
58851SOL    HW176577   9.780  11.978   3.413
58851SOL    HW276578   9.752  11.835   3.487
58852SOL     OW76579  10.897  11.951   3.532
58852SOL    HW176580  10.805  11.989   3.527
58852SOL    HW276581  10.957  11.998   3.467
58853SOL     OW76582  10.323  11.277   3.632
58853SOL    HW176583  10.329  11.362   3.580
58853SOL    HW276584  10.355  11.201   3.575
58854SOL     OW76585   9.814  11.222   3.602
58854SOL    HW176586   9.772  11.165   3.532
58854SOL    HW276587   9.748  11.291   3.634
58855SOL     OW76588   9.883  12.042   2.891
58855SOL    HW176589   9.927  12.131   2.882
58855SOL    HW276590   9.820  12.042   2.968
58856SOL     OW76591  10.670  12.034   2.907
58856SOL    HW176592  10.595  12.034   2.841
58856SOL    HW276593  10.707  11.942   2.916
58857SOL     OW76594  10.519  11.697   2.137
58857SOL    HW176595  10.532  11.613   2.191
58857SOL    HW276596  10.490  11.771   2.197
58858SOL     OW76597   9.617  11.385   3.093
58858SOL    HW176598   9.594  11.422   3.183
58858SOL    HW276599   9.587  11.290   3.087
58859SOL     OW76600   9.347  12.482   3.144
58859SOL    HW176601   9.400  12.433   3.212
58859SOL    HW276602   9.369  12.580   3.149
58860SOL     OW76603  10.042  11.806   2.926
58860SOL    HW176604  10.101  11.780   2.850
58860SOL    HW276605  10.014  11.902   2.915
58861SOL     OW76606  11.038  12.107   3.716
58861SOL    HW176607  10.992  12.100   3.627
58861SOL    HW276608  10.976  12.151   3.782
58862SOL     OW76609   9.617  11.235   2.480
58862SOL    HW176610   9.606  11.329   2.513
58862SOL    HW276611   9.612  11.172   2.557
58863SOL     OW76612  10.932  11.539   2.236
58863SOL    HW176613  10.934  11.463   2.300
58863SOL    HW276614  10.884  11.616   2.276
58864SOL     OW76615  10.333  11.938   2.828
58864SOL    HW176616  10.348  11.959   2.924
58864SOL    HW276617  10.303  11.843   2.819
58865SOL     OW76618  11.169  12.690   3.467
58865SOL    HW176619  11.183  12.717   3.372
58865SOL    HW276620  11.252  12.712   3.520
58866SOL     OW76621   9.660  12.070   3.666
58866SOL    HW176622   9.736  12.114   3.714
58866SOL    HW276623   9.695  12.023   3.584
58867SOL     OW76624  10.850  11.446   1.987
58867SOL    HW176625  10.789  11.371   2.010
58867SOL    HW276626  10.872  11.498   2.070
58868SOL     OW76627  10.613  12.010   1.904
58868SOL    HW176628  10.647  11.917   1.919
58868SOL    HW276629  10.631  12.037   1.809
58869SOL     OW76630  10.378  12.505   2.711
58869SOL    HW176631  10.385  12.421   2.656
58869SOL    HW276632  10.440  12.574   2.675
58870SOL     OW76633   9.629  11.982   2.811
58870SOL    HW176634   9.722  12.018   2.816
58870SOL    HW276635   9.623  11.897   2.863
58871SOL     OW76636   9.649  11.681   2.868
58871SOL    HW176637   9.597  11.598   2.851
58871SOL    HW276638   9.726  11.686   2.804
58872SOL     OW76639  10.448  11.552   3.540
58872SOL    HW176640  10.403  11.615   3.604
58872SOL    HW276641  10.541  11.583   3.523
58873SOL     OW76642  10.470  11.379   3.339
58873SOL    HW176643  10.470  11.443   3.416
58873SOL    HW276644  10.498  11.427   3.256
58874SOL     OW76645   9.318  12.498   2.062
58874SOL    HW176646   9.225  12.519   2.031
58874SOL    HW276647   9.328  12.399   2.075
58875SOL     OW76648   9.814  12.740   2.772
58875SOL    HW176649   9.880  12.814   2.781
58875SOL    HW276650   9.858  12.661   2.730
58876SOL     OW76651  10.312  11.968   3.100
58876SOL    HW176652  10.353  11.936   3.186
58876SOL    HW276653  10.216  11.941   3.097
58877SOL     OW76654   9.350  11.716   2.976
58877SOL    HW176655   9.435  11.683   2.935
58877SOL    HW276656   9.363  11.731   3.074
58878SOL     OW76657   9.499  11.692   3.584
58878SOL    HW176658   9.558  11.652   3.514
58878SOL    HW276659   9.441  11.763   3.543
58879SOL     OW76660  10.679  12.122   3.522
58879SOL    HW176661  10.718  12.211   3.542
58879SOL    HW276662  10.689  12.102   3.425
58880SOL     OW76663  10.125  11.744   2.187
58880SOL    HW176664  10.132  11.655   2.141
58880SOL    HW276665  10.031  11.778   2.179
58881SOL     OW76666  10.967  11.776   3.068
58881SOL    HW176667  10.929  11.707   3.130
58881SOL    HW276668  11.049  11.740   3.024
58882SOL     OW76669   9.562  12.736   3.606
58882SOL    HW176670   9.532  12.793   3.682
58882SOL    HW276671   9.555  12.639   3.632
58883SOL     OW76672   9.981  11.636   3.131
58883SOL    HW176673   9.947  11.547   3.101
58883SOL    HW276674  10.007  11.690   3.051
58884SOL     OW76675   9.783  11.672   2.053
58884SOL    HW176676   9.844  11.752   2.057
58884SOL    HW276677   9.688  11.703   2.060
58885SOL     OW76678   9.469  12.309   3.328
58885SOL    HW176679   9.491  12.248   3.404
58885SOL    HW276680   9.479  12.260   3.242
58886SOL     OW76681  10.657  12.231   3.096
58886SOL    HW176682  10.681  12.168   3.022
58886SOL    HW276683  10.567  12.271   3.078
58887SOL     OW76684  10.612  12.027   2.171
58887SOL    HW176685  10.526  11.996   2.213
58887SOL    HW276686  10.608  12.013   2.072
58888SOL     OW76687  10.562  12.903   2.990
58888SOL    HW176688  10.646  12.908   2.936
58888SOL    HW276689  10.539  12.807   3.008
58889SOL     OW76690   9.393  12.430   2.884
58889SOL    HW176691   9.388  12.429   2.984
58889SOL    HW276692   9.310  12.389   2.846
58890SOL     OW76693  11.036  11.307   2.385
58890SOL    HW176694  11.109  11.290   2.318
58890SOL    HW276695  11.005  11.220   2.423
58891SOL     OW76696   9.440  12.966   3.713
58891SOL    HW176697   9.399  12.892   3.766
58891SOL    HW276698   9.504  13.017   3.771
58892SOL     OW76699  10.590  12.099   2.534
58892SOL    HW176700  10.650  12.018   2.536
58892SOL    HW276701  10.630  12.168   2.474
58893SOL     OW76702  10.140  12.445   3.284
58893SOL    HW176703  10.135  12.478   3.379
58893SOL    HW276704  10.054  12.464   3.238
58894SOL     OW76705   9.982  12.788   2.016
58894SOL    HW176706   9.991  12.798   1.917
58894SOL    HW276707   9.942  12.699   2.037
58895SOL     OW76708  11.151  11.347   2.825
58895SOL    HW176709  11.190  11.262   2.789
58895SOL    HW276710  11.053  11.349   2.806
58896SOL     OW76711   9.573  11.498   2.582
58896SOL    HW176712   9.494  11.549   2.548
58896SOL    HW276713   9.564  11.483   2.680
58897SOL     OW76714  10.504  12.784   1.893
58897SOL    HW176715  10.510  12.691   1.930
58897SOL    HW276716  10.445  12.784   1.813
58898SOL     OW76717  10.132  12.174   3.234
58898SOL    HW176718  10.172  12.173   3.142
58898SOL    HW276719  10.142  12.266   3.274
58899SOL     OW76720  10.226  12.082   2.153
58899SOL    HW176721  10.289  12.120   2.085
58899SOL    HW276722  10.266  11.999   2.192
58900SOL     OW76723   9.682  12.460   3.352
58900SOL    HW176724   9.669  12.553   3.318
58900SOL    HW276725   9.598  12.408   3.339
58901SOL     OW76726  10.924  12.464   3.151
58901SOL    HW176727  10.984  12.467   3.231
58901SOL    HW276728  10.849  12.528   3.164
58902SOL     OW76729  10.349  12.270   2.558
58902SOL    HW176730  10.279  12.223   2.612
58902SOL    HW276731  10.408  12.202   2.515
58903SOL     OW76732  10.324  11.408   2.833
58903SOL    HW176733  10.316  11.372   2.740
58903SOL    HW276734  10.322  11.332   2.898
58904SOL     OW76735   9.900  12.659   2.353
58904SOL    HW176736   9.942  12.601   2.283
58904SOL    HW276737   9.856  12.738   2.309
58905SOL     OW76738  11.019  11.557   3.243
58905SOL    HW176739  11.092  11.626   3.247
58905SOL    HW276740  11.047  11.482   3.184
58906SOL     OW76741   9.565  12.520   2.152
58906SOL    HW176742   9.469  12.521   2.125
58906SOL    HW276743   9.577  12.573   2.236
58907SOL     OW76744   9.415  12.185   3.588
58907SOL    HW176745   9.338  12.152   3.642
58907SOL    HW276746   9.500  12.155   3.630
58908SOL     OW76747   9.982  11.375   3.351
58908SOL    HW176748  10.072  11.359   3.311
58908SOL    HW276749   9.990  11.380   3.450
58909SOL     OW76750   9.385  11.517   1.895
58909SOL    HW176751   9.293  11.489   1.866
58909SOL    HW276752   9.416  11.594   1.839
58910SOL     OW76753  10.750  12.028   3.260
58910SOL    HW176754  10.693  12.080   3.197
58910SOL    HW276755  10.846  12.040   3.236
58911SOL     OW76756   9.382  11.338   2.180
58911SOL    HW176757   9.365  11.421   2.126
58911SOL    HW276758   9.472  11.301   2.158
58912SOL     OW76759  10.493  12.507   1.981
58912SOL    HW176760  10.394  12.496   1.983
58912SOL    HW276761  10.527  12.522   2.074
58913SOL     OW76762   9.923  12.014   3.293
58913SOL    HW176763   9.979  12.095   3.276
58913SOL    HW276764   9.982  11.934   3.296
58914SOL     OW76765  10.026  11.737   3.570
58914SOL    HW176766  10.045  11.802   3.644
58914SOL    HW276767  10.086  11.657   3.579
58915SOL     OW76768  10.760  12.392   3.495
58915SOL    HW176769  10.751  12.382   3.594
58915SOL    HW276770  10.856  12.385   3.469
58916SOL     OW76771  10.984  12.055   3.116
58916SOL    HW176772  10.957  11.966   3.079
58916SOL    HW276773  10.985  12.123   3.043
58917SOL     OW76774  10.535  11.497   2.311
58917SOL    HW176775  10.600  11.423   2.300
58917SOL    HW276776  10.555  11.547   2.395
58918SOL     OW76777   9.904  11.917   2.514
58918SOL    HW176778   9.954  12.002   2.495
58918SOL    HW276779   9.816  11.919   2.466
58919SOL     OW76780  11.087  11.514   3.504
58919SOL    HW176781  11.070  11.545   3.410
58919SOL    HW276782  11.003  11.477   3.542
58920SOL     OW76783  11.040  12.106   3.379
58920SOL    HW176784  11.078  12.197   3.394
58920SOL    HW276785  11.032  12.089   3.280
58921SOL     OW76786  10.169  12.546   1.878
58921SOL    HW176787  10.123  12.561   1.966
58921SOL    HW276788  10.213  12.631   1.848
58922SOL     OW76789  10.169  12.128   2.723
58922SOL    HW176790  10.223  12.059   2.771
58922SOL    HW276791  10.137  12.197   2.789
58923SOL     OW76792  10.393  12.156   1.949
58923SOL    HW176793  10.370  12.209   1.867
58923SOL    HW276794  10.474  12.100   1.930
58924SOL     OW76795  11.171  12.741   2.713
58924SOL    HW176796  11.100  12.729   2.643
58924SOL    HW276797  11.172  12.662   2.773
58925SOL     OW76798   9.531  12.486   3.706
58925SOL    HW176799   9.466  12.413   3.685
58925SOL    HW276800   9.535  12.500   3.804
58926SOL     OW76801   9.389  12.412   2.515
58926SOL    HW176802   9.388  12.365   2.603
58926SOL    HW276803   9.471  12.384   2.464
58927SOL     OW76804   9.982  12.563   3.486
58927SOL    HW176805   9.904  12.513   3.524
58927SOL    HW276806   9.979  12.658   3.517
58928SOL     OW76807  11.134  11.364   3.089
58928SOL    HW176808  11.130  11.274   3.133
58928SOL    HW276809  11.137  11.353   2.990
58929SOL     OW76810   9.738  11.596   2.382
58929SOL    HW176811   9.768  11.524   2.320
58929SOL    HW276812   9.699  11.556   2.465
58930SOL     OW76813  11.015  12.659   2.966
58930SOL    HW176814  10.922  12.634   2.939
58930SOL    HW276815  11.041  12.609   3.048
58931SOL     OW76816   9.627  11.719   3.142
58931SOL    HW176817   9.665  11.660   3.214
58931SOL    HW276818   9.667  11.693   3.054
58932SOL     OW76819  10.734  11.386   2.974
58932SOL    HW176820  10.786  11.321   3.029
58932SOL    HW276821  10.685  11.449   3.035
58933SOL     OW76822  10.311  11.206   3.016
58933SOL    HW176823  10.248  11.134   2.985
58933SOL    HW276824  10.404  11.170   3.016
58934SOL     OW76825  10.080  12.502   2.163
58934SOL    HW176826  10.034  12.415   2.180
58934SOL    HW276827  10.171  12.499   2.204
58935SOL     OW76828   9.928  12.739   3.146
58935SOL    HW176829   9.923  12.821   3.203
58935SOL    HW276830  10.017  12.736   3.101
58936SOL     OW76831  10.662  11.224   2.030
58936SOL    HW176832  10.697  11.183   1.946
58936SOL    HW276833  10.572  11.186   2.050
58937SOL     OW76834  10.610  11.625   2.553
58937SOL    HW176835  10.551  11.705   2.557
58937SOL    HW276836  10.625  11.590   2.646
58938SOL     OW76837  10.903  11.393   2.744
58938SOL    HW176838  10.819  11.392   2.798
58938SOL    HW276839  10.905  11.476   2.688
58939SOL     OW76840   9.349  12.249   2.162
58939SOL    HW176841   9.448  12.238   2.153
58939SOL    HW276842   9.309  12.163   2.194
58940SOL     OW76843   9.540  11.800   3.837
58940SOL    HW176844   9.447  11.798   3.874
58940SOL    HW276845   9.541  11.761   3.745
58941SOL     OW76846   9.535  11.447   4.720
58941SOL    HW176847   9.570  11.430   4.812
58941SOL    HW276848   9.447  11.402   4.708
58942SOL     OW76849   9.329  11.540   4.371
58942SOL    HW176850   9.247  11.583   4.410
58942SOL    HW276851   9.301  11.467   4.308
58943SOL     OW76852   9.879  12.447   4.889
58943SOL    HW176853   9.786  12.440   4.852
58943SOL    HW276854   9.890  12.536   4.933
58944SOL     OW76855  10.865  12.683   4.427
58944SOL    HW176856  10.808  12.667   4.508
58944SOL    HW276857  10.806  12.693   4.347
58945SOL     OW76858  10.445  11.875   4.441
58945SOL    HW176859  10.502  11.953   4.416
58945SOL    HW276860  10.385  11.901   4.517
58946SOL     OW76861  11.065  11.779   3.955
58946SOL    HW176862  11.053  11.766   3.856
58946SOL    HW276863  11.035  11.698   4.004
58947SOL     OW76864  10.078  12.316   4.747
58947SOL    HW176865  10.000  12.333   4.807
58947SOL    HW276866  10.112  12.403   4.711
58948SOL     OW76867  10.160  11.970   5.547
58948SOL    HW176868  10.156  12.046   5.612
58948SOL    HW276869  10.182  12.006   5.456
58949SOL     OW76870   9.995  12.184   4.389
58949SOL    HW176871  10.064  12.168   4.459
58949SOL    HW276872   9.922  12.241   4.427
58950SOL     OW76873   9.996  12.333   5.527
58950SOL    HW176874  10.056  12.412   5.541
58950SOL    HW276875   9.910  12.364   5.486
58951SOL     OW76876   9.645  12.607   4.785
58951SOL    HW176877   9.567  12.576   4.732
58951SOL    HW276878   9.703  12.665   4.728
58952SOL     OW76879  10.770  12.677   5.063
58952SOL    HW176880  10.794  12.771   5.089
58952SOL    HW276881  10.754  12.623   5.145
58953SOL     OW76882   9.748  11.564   5.223
58953SOL    HW176883   9.830  11.508   5.232
58953SOL    HW276884   9.667  11.506   5.227
58954SOL     OW76885  10.913  11.619   4.461
58954SOL    HW176886  10.839  11.665   4.411
58954SOL    HW276887  10.964  11.687   4.514
58955SOL     OW76888  10.437  12.513   5.414
58955SOL    HW176889  10.484  12.513   5.502
58955SOL    HW276890  10.389  12.426   5.403
58956SOL     OW76891   9.540  12.606   4.262
58956SOL    HW176892   9.514  12.702   4.262
58956SOL    HW276893   9.469  12.552   4.307
58957SOL     OW76894   9.550  12.263   4.610
58957SOL    HW176895   9.564  12.179   4.662
58957SOL    HW276896   9.495  12.327   4.665
58958SOL     OW76897   9.916  12.136   3.847
58958SOL    HW176898   9.923  12.220   3.793
58958SOL    HW276899   9.962  12.149   3.935
58959SOL     OW76900  10.904  11.286   5.204
58959SOL    HW176901  10.886  11.353   5.132
58959SOL    HW276902  10.901  11.332   5.293
58960SOL     OW76903   9.432  11.815   4.287
58960SOL    HW176904   9.387  11.727   4.304
58960SOL    HW276905   9.431  11.869   4.371
58961SOL     OW76906   9.337  12.768   3.841
58961SOL    HW176907   9.318  12.672   3.862
58961SOL    HW276908   9.304  12.826   3.916
58962SOL     OW76909  10.999  12.094   4.336
58962SOL    HW176910  11.094  12.065   4.344
58962SOL    HW276911  10.991  12.159   4.261
58963SOL     OW76912  10.951  12.280   4.156
58963SOL    HW176913  11.037  12.282   4.104
58963SOL    HW276914  10.965  12.327   4.244
58964SOL     OW76915   9.423  11.909   5.321
58964SOL    HW176916   9.511  11.896   5.366
58964SOL    HW276917   9.410  12.006   5.299
58965SOL     OW76918   9.923  12.537   4.450
58965SOL    HW176919   9.874  12.450   4.459
58965SOL    HW276920   9.900  12.580   4.363
58966SOL     OW76921  10.603  12.400   5.147
58966SOL    HW176922  10.640  12.327   5.089
58966SOL    HW276923  10.655  12.405   5.232
58967SOL     OW76924  10.119  11.176   4.226
58967SOL    HW176925  10.159  11.267   4.217
58967SOL    HW276926  10.019  11.184   4.232
58968SOL     OW76927   9.507  12.148   4.988
58968SOL    HW176928   9.596  12.103   4.974
58968SOL    HW276929   9.434  12.083   4.969
58969SOL     OW76930  10.835  12.171   3.914
58969SOL    HW176931  10.772  12.095   3.927
58969SOL    HW276932  10.883  12.189   4.000
58970SOL     OW76933   9.627  11.423   5.525
58970SOL    HW176934   9.698  11.494   5.531
58970SOL    HW276935   9.539  11.462   5.553
58971SOL     OW76936  10.776  12.589   4.677
58971SOL    HW176937  10.717  12.595   4.757
58971SOL    HW276938  10.761  12.501   4.631
58972SOL     OW76939   9.908  11.901   3.994
58972SOL    HW176940   9.932  11.970   3.926
58972SOL    HW276941   9.830  11.934   4.048
58973SOL     OW76942  10.591  11.517   4.668
58973SOL    HW176943  10.505  11.467   4.655
58973SOL    HW276944  10.653  11.463   4.724
58974SOL     OW76945  10.886  12.834   4.031
58974SOL    HW176946  10.975  12.880   4.034
58974SOL    HW276947  10.865  12.810   3.936
58975SOL     OW76948  10.117  11.777   5.189
58975SOL    HW176949  10.070  11.774   5.278
58975SOL    HW276950  10.066  11.722   5.123
58976SOL     OW76951  10.704  11.641   5.398
58976SOL    HW176952  10.684  11.684   5.486
58976SOL    HW276953  10.782  11.579   5.407
58977SOL     OW76954  10.283  12.062   5.296
58977SOL    HW176955  10.329  11.978   5.267
58977SOL    HW276956  10.227  12.096   5.221
58978SOL     OW76957  10.301  11.582   4.966
58978SOL    HW176958  10.224  11.616   5.020
58978SOL    HW276959  10.267  11.531   4.887
58979SOL     OW76960  10.351  11.873   4.153
58979SOL    HW176961  10.377  11.869   4.249
58979SOL    HW276962  10.266  11.822   4.139
58980SOL     OW76963   9.386  11.983   4.513
58980SOL    HW176964   9.485  11.971   4.522
58980SOL    HW276965   9.362  12.078   4.534
58981SOL     OW76966  10.175  11.520   3.919
58981SOL    HW176967  10.234  11.583   3.870
58981SOL    HW276968  10.194  11.426   3.890
58982SOL     OW76969  11.029  11.757   5.555
58982SOL    HW176970  11.003  11.846   5.519
58982SOL    HW276971  11.027  11.689   5.482
58983SOL     OW76972  10.672  12.316   4.269
58983SOL    HW176973  10.755  12.287   4.221
58983SOL    HW276974  10.623  12.383   4.213
58984SOL     OW76975   9.860  11.368   4.609
58984SOL    HW176976   9.855  11.363   4.709
58984SOL    HW276977   9.862  11.464   4.580
58985SOL     OW76978  10.318  12.628   4.201
58985SOL    HW176979  10.272  12.700   4.149
58985SOL    HW276980  10.314  12.648   4.299
58986SOL     OW76981  11.105  12.238   4.597
58986SOL    HW176982  11.043  12.223   4.521
58986SOL    HW276983  11.053  12.249   4.682
58987SOL     OW76984  10.537  12.722   5.230
58987SOL    HW176985  10.543  12.645   5.294
58987SOL    HW276986  10.485  12.696   5.150
58988SOL     OW76987   9.631  12.115   3.966
58988SOL    HW176988   9.713  12.154   3.924
58988SOL    HW276989   9.604  12.033   3.917
58989SOL     OW76990  10.768  11.907   4.452
58989SOL    HW176991  10.763  11.842   4.527
58989SOL    HW276992  10.848  11.966   4.465
58990SOL     OW76993   9.771  12.438   5.451
58990SOL    HW176994   9.721  12.439   5.365
58990SOL    HW276995   9.708  12.420   5.527
58991SOL     OW76996   9.512  11.457   5.222
58991SOL    HW176997   9.432  11.517   5.209
58991SOL    HW276998   9.502  11.408   5.308
58992SOL     OW76999  10.942  12.549   3.805
58992SOL    HW177000  10.910  12.643   3.795
58992SOL    HW277001  10.866  12.486   3.793
58993SOL     OW77002  10.710  11.279   4.150
58993SOL    HW177003  10.686  11.242   4.060
58993SOL    HW277004  10.809  11.295   4.154
58994SOL     OW77005   9.692  11.872   4.204
58994SOL    HW177006   9.737  11.782   4.201
58994SOL    HW277007   9.598  11.861   4.237
58995SOL     OW77008  10.857  11.394   5.453
58995SOL    HW177009  10.852  11.431   5.545
58995SOL    HW277010  10.785  11.325   5.441
58996SOL     OW77011   9.924  11.294   3.841
58996SOL    HW177012  10.022  11.272   3.848
58996SOL    HW277013   9.893  11.277   3.748
58997SOL     OW77014  10.091  11.436   5.473
58997SOL    HW177015  10.158  11.375   5.516
58997SOL    HW277016  10.018  11.455   5.538
58998SOL     OW77017  10.661  11.762   5.157
58998SOL    HW177018  10.689  11.719   5.242
58998SOL    HW277019  10.686  11.858   5.158
58999SOL     OW77020  10.113  12.574   4.648
58999SOL    HW177021  10.203  12.588   4.606
58999SOL    HW277022  10.042  12.576   4.577
59000SOL     OW77023  10.232  11.675   4.623
59000SOL    HW177024  10.207  11.666   4.527
59000SOL    HW277025  10.280  11.593   4.654
59001SOL     OW77026   9.849  11.236   4.236
59001SOL    HW177027   9.768  11.237   4.294
59001SOL    HW277028   9.852  11.319   4.181
59002SOL     OW77029  10.744  12.360   3.765
59002SOL    HW177030  10.776  12.284   3.822
59002SOL    HW277031  10.652  12.387   3.795
59003SOL     OW77032   9.607  11.207   3.895
59003SOL    HW177033   9.656  11.291   3.874
59003SOL    HW277034   9.669  11.142   3.940
59004SOL     OW77035  10.245  11.408   4.204
59004SOL    HW177036  10.197  11.449   4.126
59004SOL    HW277037  10.344  11.406   4.185
59005SOL     OW77038  10.386  11.855   5.188
59005SOL    HW177039  10.306  11.794   5.191
59005SOL    HW277040  10.467  11.802   5.164
59006SOL     OW77041  10.537  12.742   4.517
59006SOL    HW177042  10.558  12.816   4.452
59006SOL    HW277043  10.605  12.742   4.590
59007SOL     OW77044   9.769  12.324   4.465
59007SOL    HW177045   9.698  12.297   4.530
59007SOL    HW277046   9.743  12.296   4.372
59008SOL     OW77047  10.342  11.721   3.740
59008SOL    HW177048  10.301  11.803   3.701
59008SOL    HW277049  10.406  11.747   3.813
59009SOL     OW77050   9.388  11.728   5.110
59009SOL    HW177051   9.480  11.727   5.069
59009SOL    HW277052   9.382  11.802   5.177
59010SOL     OW77053   9.871  11.394   4.871
59010SOL    HW177054   9.909  11.310   4.908
59010SOL    HW277055   9.783  11.413   4.915
59011SOL     OW77056  10.176  11.626   4.366
59011SOL    HW177057  10.144  11.698   4.304
59011SOL    HW277058  10.200  11.545   4.313
59012SOL     OW77059  10.327  11.211   4.477
59012SOL    HW177060  10.255  11.216   4.408
59012SOL    HW277061  10.303  11.142   4.546
59013SOL     OW77062  10.739  12.345   4.591
59013SOL    HW177063  10.684  12.261   4.584
59013SOL    HW277064  10.765  12.374   4.499
59014SOL     OW77065  10.776  11.762   4.716
59014SOL    HW177066  10.746  11.667   4.723
59014SOL    HW277067  10.849  11.778   4.782
59015SOL     OW77068  11.167  12.005   4.101
59015SOL    HW177069  11.209  11.941   4.165
59015SOL    HW277070  11.129  11.954   4.023
59016SOL     OW77071   9.798  12.557   3.898
59016SOL    HW177072   9.711  12.542   3.945
59016SOL    HW277073   9.781  12.583   3.803
59017SOL     OW77074  10.974  12.452   4.381
59017SOL    HW177075  11.073  12.460   4.395
59017SOL    HW277076  10.929  12.536   4.412
59018SOL     OW77077  10.700  11.747   3.802
59018SOL    HW177078  10.646  11.726   3.883
59018SOL    HW277079  10.791  11.706   3.811
59019SOL     OW77080   9.837  11.428   4.052
59019SOL    HW177081   9.864  11.369   3.977
59019SOL    HW277082   9.837  11.523   4.021
59020SOL     OW77083  11.064  12.395   5.312
59020SOL    HW177084  11.155  12.356   5.299
59020SOL    HW277085  11.072  12.491   5.336
59021SOL     OW77086  10.374  12.519   5.064
59021SOL    HW177087  10.294  12.496   5.119
59021SOL    HW277088  10.457  12.493   5.113
59022SOL     OW77089  10.421  12.367   4.824
59022SOL    HW177090  10.381  12.411   4.905
59022SOL    HW277091  10.380  12.404   4.741
59023SOL     OW77092  10.948  12.271   4.803
59023SOL    HW177093  10.953  12.352   4.862
59023SOL    HW277094  10.862  12.273   4.752
59024SOL     OW77095  10.225  11.261   5.126
59024SOL    HW177096  10.250  11.241   5.031
59024SOL    HW277097  10.297  11.317   5.168
59025SOL     OW77098  10.290  12.288   5.443
59025SOL    HW177099  10.191  12.294   5.453
59025SOL    HW277100  10.313  12.208   5.387
59026SOL     OW77101  10.015  12.222   4.092
59026SOL    HW177102  10.001  12.229   4.191
59026SOL    HW277103  10.099  12.171   4.074
59027SOL     OW77104   9.720  11.985   4.975
59027SOL    HW177105   9.806  11.997   5.025
59027SOL    HW277106   9.678  11.898   5.002
59028SOL     OW77107  10.584  11.558   4.986
59028SOL    HW177108  10.605  11.632   5.050
59028SOL    HW277109  10.495  11.575   4.943
59029SOL     OW77110   9.374  12.736   5.055
59029SOL    HW177111   9.328  12.818   5.021
59029SOL    HW277112   9.472  12.755   5.064
59030SOL     OW77113   9.677  12.272   4.225
59030SOL    HW177114   9.670  12.355   4.169
59030SOL    HW277115   9.681  12.192   4.165
59031SOL     OW77116   9.876  11.709   4.589
59031SOL    HW177117   9.888  11.775   4.515
59031SOL    HW277118   9.922  11.743   4.672
59032SOL     OW77119  10.562  12.520   4.112
59032SOL    HW177120  10.612  12.597   4.152
59032SOL    HW277121  10.467  12.522   4.144
59033SOL     OW77122  10.582  12.617   4.866
59033SOL    HW177123  10.629  12.630   4.953
59033SOL    HW277124  10.516  12.543   4.875
59034SOL     OW77125  10.892  11.811   4.196
59034SOL    HW177126  10.861  11.872   4.269
59034SOL    HW277127  10.942  11.863   4.127
59035SOL     OW77128   9.664  12.682   5.053
59035SOL    HW177129   9.643  12.638   4.966
59035SOL    HW277130   9.761  12.708   5.056
59036SOL     OW77131   9.712  11.923   5.322
59036SOL    HW177132   9.780  11.978   5.275
59036SOL    HW277133   9.752  11.835   5.349
59037SOL     OW77134  10.897  11.951   5.394
59037SOL    HW177135  10.805  11.989   5.389
59037SOL    HW277136  10.957  11.998   5.329
59038SOL     OW77137  10.323  11.277   5.494
59038SOL    HW177138  10.329  11.362   5.442
59038SOL    HW277139  10.355  11.201   5.437
59039SOL     OW77140   9.814  11.222   5.464
59039SOL    HW177141   9.772  11.165   5.394
59039SOL    HW277142   9.748  11.291   5.496
59040SOL     OW77143   9.883  12.042   4.753
59040SOL    HW177144   9.927  12.131   4.744
59040SOL    HW277145   9.820  12.042   4.830
59041SOL     OW77146  10.670  12.034   4.769
59041SOL    HW177147  10.595  12.034   4.703
59041SOL    HW277148  10.707  11.942   4.778
59042SOL     OW77149  10.519  11.697   3.999
59042SOL    HW177150  10.532  11.613   4.053
59042SOL    HW277151  10.490  11.771   4.059
59043SOL     OW77152   9.617  11.385   4.955
59043SOL    HW177153   9.594  11.422   5.045
59043SOL    HW277154   9.587  11.290   4.949
59044SOL     OW77155   9.347  12.482   5.006
59044SOL    HW177156   9.400  12.433   5.074
59044SOL    HW277157   9.369  12.580   5.011
59045SOL     OW77158  10.042  11.806   4.788
59045SOL    HW177159  10.101  11.780   4.712
59045SOL    HW277160  10.014  11.902   4.777
59046SOL     OW77161  11.038  12.107   5.578
59046SOL    HW177162  10.992  12.100   5.489
59046SOL    HW277163  10.976  12.151   5.644
59047SOL     OW77164   9.617  11.235   4.342
59047SOL    HW177165   9.606  11.329   4.375
59047SOL    HW277166   9.612  11.172   4.419
59048SOL     OW77167  10.932  11.539   4.098
59048SOL    HW177168  10.934  11.463   4.162
59048SOL    HW277169  10.884  11.616   4.138
59049SOL     OW77170  10.333  11.938   4.690
59049SOL    HW177171  10.348  11.959   4.786
59049SOL    HW277172  10.303  11.843   4.681
59050SOL     OW77173  11.169  12.690   5.329
59050SOL    HW177174  11.183  12.717   5.234
59050SOL    HW277175  11.252  12.712   5.382
59051SOL     OW77176   9.660  12.070   5.528
59051SOL    HW177177   9.736  12.114   5.576
59051SOL    HW277178   9.695  12.023   5.446
59052SOL     OW77179  10.850  11.446   3.849
59052SOL    HW177180  10.789  11.371   3.872
59052SOL    HW277181  10.872  11.498   3.932
59053SOL     OW77182  10.613  12.010   3.766
59053SOL    HW177183  10.647  11.917   3.781
59053SOL    HW277184  10.631  12.037   3.671
59054SOL     OW77185  10.378  12.505   4.573
59054SOL    HW177186  10.385  12.421   4.518
59054SOL    HW277187  10.440  12.574   4.537
59055SOL     OW77188   9.629  11.982   4.673
59055SOL    HW177189   9.722  12.018   4.678
59055SOL    HW277190   9.623  11.897   4.725
59056SOL     OW77191   9.649  11.681   4.730
59056SOL    HW177192   9.597  11.598   4.713
59056SOL    HW277193   9.726  11.686   4.666
59057SOL     OW77194  10.448  11.552   5.402
59057SOL    HW177195  10.403  11.615   5.466
59057SOL    HW277196  10.541  11.583   5.385
59058SOL     OW77197  10.470  11.379   5.201
59058SOL    HW177198  10.470  11.443   5.278
59058SOL    HW277199  10.498  11.427   5.118
59059SOL     OW77200   9.318  12.498   3.924
59059SOL    HW177201   9.225  12.519   3.893
59059SOL    HW277202   9.328  12.399   3.937
59060SOL     OW77203   9.814  12.740   4.634
59060SOL    HW177204   9.880  12.814   4.643
59060SOL    HW277205   9.858  12.661   4.592
59061SOL     OW77206  10.312  11.968   4.962
59061SOL    HW177207  10.353  11.936   5.048
59061SOL    HW277208  10.216  11.941   4.959
59062SOL     OW77209   9.350  11.716   4.838
59062SOL    HW177210   9.435  11.683   4.797
59062SOL    HW277211   9.363  11.731   4.936
59063SOL     OW77212   9.499  11.692   5.446
59063SOL    HW177213   9.558  11.652   5.376
59063SOL    HW277214   9.441  11.763   5.405
59064SOL     OW77215  10.679  12.122   5.384
59064SOL    HW177216  10.718  12.211   5.404
59064SOL    HW277217  10.689  12.102   5.287
59065SOL     OW77218  10.125  11.744   4.049
59065SOL    HW177219  10.132  11.655   4.003
59065SOL    HW277220  10.031  11.778   4.041
59066SOL     OW77221  10.967  11.776   4.930
59066SOL    HW177222  10.929  11.707   4.992
59066SOL    HW277223  11.049  11.740   4.886
59067SOL     OW77224   9.562  12.736   5.468
59067SOL    HW177225   9.532  12.793   5.544
59067SOL    HW277226   9.555  12.639   5.494
59068SOL     OW77227   9.981  11.636   4.993
59068SOL    HW177228   9.947  11.547   4.963
59068SOL    HW277229  10.007  11.690   4.913
59069SOL     OW77230   9.783  11.672   3.915
59069SOL    HW177231   9.844  11.752   3.919
59069SOL    HW277232   9.688  11.703   3.922
59070SOL     OW77233   9.469  12.309   5.190
59070SOL    HW177234   9.491  12.248   5.266
59070SOL    HW277235   9.479  12.260   5.104
59071SOL     OW77236  10.657  12.231   4.958
59071SOL    HW177237  10.681  12.168   4.884
59071SOL    HW277238  10.567  12.271   4.940
59072SOL     OW77239  10.612  12.027   4.033
59072SOL    HW177240  10.526  11.996   4.075
59072SOL    HW277241  10.608  12.013   3.934
59073SOL     OW77242  10.562  12.903   4.852
59073SOL    HW177243  10.646  12.908   4.798
59073SOL    HW277244  10.539  12.807   4.870
59074SOL     OW77245   9.393  12.430   4.746
59074SOL    HW177246   9.388  12.429   4.846
59074SOL    HW277247   9.310  12.389   4.708
59075SOL     OW77248  11.036  11.307   4.247
59075SOL    HW177249  11.109  11.290   4.180
59075SOL    HW277250  11.005  11.220   4.285
59076SOL     OW77251   9.440  12.966   5.575
59076SOL    HW177252   9.399  12.892   5.628
59076SOL    HW277253   9.504  13.017   5.633
59077SOL     OW77254  10.590  12.099   4.396
59077SOL    HW177255  10.650  12.018   4.398
59077SOL    HW277256  10.630  12.168   4.336
59078SOL     OW77257  10.140  12.445   5.146
59078SOL    HW177258  10.135  12.478   5.241
59078SOL    HW277259  10.054  12.464   5.100
59079SOL     OW77260   9.982  12.788   3.878
59079SOL    HW177261   9.991  12.798   3.779
59079SOL    HW277262   9.942  12.699   3.899
59080SOL     OW77263  11.151  11.347   4.687
59080SOL    HW177264  11.190  11.262   4.651
59080SOL    HW277265  11.053  11.349   4.668
59081SOL     OW77266   9.573  11.498   4.444
59081SOL    HW177267   9.494  11.549   4.410
59081SOL    HW277268   9.564  11.483   4.542
59082SOL     OW77269  10.504  12.784   3.755
59082SOL    HW177270  10.510  12.691   3.792
59082SOL    HW277271  10.445  12.784   3.675
59083SOL     OW77272  10.132  12.174   5.096
59083SOL    HW177273  10.172  12.173   5.004
59083SOL    HW277274  10.142  12.266   5.136
59084SOL     OW77275  10.226  12.082   4.015
59084SOL    HW177276  10.289  12.120   3.947
59084SOL    HW277277  10.266  11.999   4.054
59085SOL     OW77278   9.682  12.460   5.214
59085SOL    HW177279   9.669  12.553   5.180
59085SOL    HW277280   9.598  12.408   5.201
59086SOL     OW77281  10.924  12.464   5.013
59086SOL    HW177282  10.984  12.467   5.093
59086SOL    HW277283  10.849  12.528   5.026
59087SOL     OW77284  10.349  12.270   4.420
59087SOL    HW177285  10.279  12.223   4.474
59087SOL    HW277286  10.408  12.202   4.377
59088SOL     OW77287  10.324  11.408   4.695
59088SOL    HW177288  10.316  11.372   4.602
59088SOL    HW277289  10.322  11.332   4.760
59089SOL     OW77290   9.900  12.659   4.215
59089SOL    HW177291   9.942  12.601   4.145
59089SOL    HW277292   9.856  12.738   4.171
59090SOL     OW77293  11.019  11.557   5.105
59090SOL    HW177294  11.092  11.626   5.109
59090SOL    HW277295  11.047  11.482   5.046
59091SOL     OW77296   9.565  12.520   4.014
59091SOL    HW177297   9.469  12.521   3.987
59091SOL    HW277298   9.577  12.573   4.098
59092SOL     OW77299   9.415  12.185   5.450
59092SOL    HW177300   9.338  12.152   5.504
59092SOL    HW277301   9.500  12.155   5.492
59093SOL     OW77302   9.982  11.375   5.213
59093SOL    HW177303  10.072  11.359   5.173
59093SOL    HW277304   9.990  11.380   5.312
59094SOL     OW77305   9.385  11.517   3.757
59094SOL    HW177306   9.293  11.489   3.728
59094SOL    HW277307   9.416  11.594   3.701
59095SOL     OW77308  10.750  12.028   5.122
59095SOL    HW177309  10.693  12.080   5.059
59095SOL    HW277310  10.846  12.040   5.098
59096SOL     OW77311   9.382  11.338   4.042
59096SOL    HW177312   9.365  11.421   3.988
59096SOL    HW277313   9.472  11.301   4.020
59097SOL     OW77314  10.493  12.507   3.843
59097SOL    HW177315  10.394  12.496   3.845
59097SOL    HW277316  10.527  12.522   3.936
59098SOL     OW77317   9.923  12.014   5.155
59098SOL    HW177318   9.979  12.095   5.138
59098SOL    HW277319   9.982  11.934   5.158
59099SOL     OW77320  10.026  11.737   5.432
59099SOL    HW177321  10.045  11.802   5.506
59099SOL    HW277322  10.086  11.657   5.441
59100SOL     OW77323  10.760  12.392   5.357
59100SOL    HW177324  10.751  12.382   5.456
59100SOL    HW277325  10.856  12.385   5.331
59101SOL     OW77326  10.984  12.055   4.978
59101SOL    HW177327  10.957  11.966   4.941
59101SOL    HW277328  10.985  12.123   4.905
59102SOL     OW77329  10.535  11.497   4.173
59102SOL    HW177330  10.600  11.423   4.162
59102SOL    HW277331  10.555  11.547   4.257
59103SOL     OW77332   9.904  11.917   4.376
59103SOL    HW177333   9.954  12.002   4.357
59103SOL    HW277334   9.816  11.919   4.328
59104SOL     OW77335  11.087  11.514   5.366
59104SOL    HW177336  11.070  11.545   5.272
59104SOL    HW277337  11.003  11.477   5.404
59105SOL     OW77338  11.040  12.106   5.241
59105SOL    HW177339  11.078  12.197   5.256
59105SOL    HW277340  11.032  12.089   5.142
59106SOL     OW77341  10.169  12.546   3.740
59106SOL    HW177342  10.123  12.561   3.828
59106SOL    HW277343  10.213  12.631   3.710
59107SOL     OW77344  10.169  12.128   4.585
59107SOL    HW177345  10.223  12.059   4.633
59107SOL    HW277346  10.137  12.197   4.651
59108SOL     OW77347  10.393  12.156   3.811
59108SOL    HW177348  10.370  12.209   3.729
59108SOL    HW277349  10.474  12.100   3.792
59109SOL     OW77350  11.171  12.741   4.575
59109SOL    HW177351  11.100  12.729   4.505
59109SOL    HW277352  11.172  12.662   4.635
59110SOL     OW77353   9.531  12.486   5.568
59110SOL    HW177354   9.466  12.413   5.547
59110SOL    HW277355   9.535  12.500   5.666
59111SOL     OW77356   9.389  12.412   4.377
59111SOL    HW177357   9.388  12.365   4.465
59111SOL    HW277358   9.471  12.384   4.326
59112SOL     OW77359   9.982  12.563   5.348
59112SOL    HW177360   9.904  12.513   5.386
59112SOL    HW277361   9.979  12.658   5.379
59113SOL     OW77362  11.134  11.364   4.951
59113SOL    HW177363  11.130  11.274   4.995
59113SOL    HW277364  11.137  11.353   4.852
59114SOL     OW77365   9.738  11.596   4.244
59114SOL    HW177366   9.768  11.524   4.182
59114SOL    HW277367   9.699  11.556   4.327
59115SOL     OW77368  11.015  12.659   4.828
59115SOL    HW177369  10.922  12.634   4.801
59115SOL    HW277370  11.041  12.609   4.910
59116SOL     OW77371   9.627  11.719   5.004
59116SOL    HW177372   9.665  11.660   5.076
59116SOL    HW277373   9.667  11.693   4.916
59117SOL     OW77374  10.734  11.386   4.836
59117SOL    HW177375  10.786  11.321   4.891
59117SOL    HW277376  10.685  11.449   4.897
59118SOL     OW77377  10.311  11.206   4.878
59118SOL    HW177378  10.248  11.134   4.847
59118SOL    HW277379  10.404  11.170   4.878
59119SOL     OW77380  10.080  12.502   4.025
59119SOL    HW177381  10.034  12.415   4.042
59119SOL    HW277382  10.171  12.499   4.066
59120SOL     OW77383   9.928  12.739   5.008
59120SOL    HW177384   9.923  12.821   5.065
59120SOL    HW277385  10.017  12.736   4.963
59121SOL     OW77386  10.662  11.224   3.892
59121SOL    HW177387  10.697  11.183   3.808
59121SOL    HW277388  10.572  11.186   3.912
59122SOL     OW77389  10.610  11.625   4.415
59122SOL    HW177390  10.551  11.705   4.419
59122SOL    HW277391  10.625  11.590   4.508
59123SOL     OW77392  10.903  11.393   4.606
59123SOL    HW177393  10.819  11.392   4.660
59123SOL    HW277394  10.905  11.476   4.550
59124SOL     OW77395   9.349  12.249   4.024
59124SOL    HW177396   9.448  12.238   4.015
59124SOL    HW277397   9.309  12.163   4.056
59125SOL     OW77398   9.540  11.800   5.699
59125SOL    HW177399   9.447  11.798   5.736
59125SOL    HW277400   9.541  11.761   5.607
59126SOL     OW77401   9.535  11.447   6.582
59126SOL    HW177402   9.570  11.430   6.674
59126SOL    HW277403   9.447  11.402   6.570
59127SOL     OW77404   9.329  11.540   6.233
59127SOL    HW177405   9.247  11.583   6.272
59127SOL    HW277406   9.301  11.467   6.170
59128SOL     OW77407   9.879  12.447   6.751
59128SOL    HW177408   9.786  12.440   6.714
59128SOL    HW277409   9.890  12.536   6.795
59129SOL     OW77410  10.865  12.683   6.289
59129SOL    HW177411  10.808  12.667   6.370
59129SOL    HW277412  10.806  12.693   6.209
59130SOL     OW77413  10.445  11.875   6.303
59130SOL    HW177414  10.502  11.953   6.278
59130SOL    HW277415  10.385  11.901   6.379
59131SOL     OW77416  11.065  11.779   5.817
59131SOL    HW177417  11.053  11.766   5.718
59131SOL    HW277418  11.035  11.698   5.866
59132SOL     OW77419  10.078  12.316   6.609
59132SOL    HW177420  10.000  12.333   6.669
59132SOL    HW277421  10.112  12.403   6.573
59133SOL     OW77422  10.160  11.970   7.409
59133SOL    HW177423  10.156  12.046   7.474
59133SOL    HW277424  10.182  12.006   7.318
59134SOL     OW77425   9.995  12.184   6.251
59134SOL    HW177426  10.064  12.168   6.321
59134SOL    HW277427   9.922  12.241   6.289
59135SOL     OW77428   9.996  12.333   7.389
59135SOL    HW177429  10.056  12.412   7.403
59135SOL    HW277430   9.910  12.364   7.348
59136SOL     OW77431   9.645  12.607   6.647
59136SOL    HW177432   9.567  12.576   6.594
59136SOL    HW277433   9.703  12.665   6.590
59137SOL     OW77434  10.770  12.677   6.925
59137SOL    HW177435  10.794  12.771   6.951
59137SOL    HW277436  10.754  12.623   7.007
59138SOL     OW77437   9.748  11.564   7.085
59138SOL    HW177438   9.830  11.508   7.094
59138SOL    HW277439   9.667  11.506   7.089
59139SOL     OW77440  10.913  11.619   6.323
59139SOL    HW177441  10.839  11.665   6.273
59139SOL    HW277442  10.964  11.687   6.376
59140SOL     OW77443  10.437  12.513   7.276
59140SOL    HW177444  10.484  12.513   7.364
59140SOL    HW277445  10.389  12.426   7.265
59141SOL     OW77446   9.540  12.606   6.124
59141SOL    HW177447   9.514  12.702   6.124
59141SOL    HW277448   9.469  12.552   6.169
59142SOL     OW77449   9.550  12.263   6.472
59142SOL    HW177450   9.564  12.179   6.524
59142SOL    HW277451   9.495  12.327   6.527
59143SOL     OW77452   9.916  12.136   5.709
59143SOL    HW177453   9.923  12.220   5.655
59143SOL    HW277454   9.962  12.149   5.797
59144SOL     OW77455  10.904  11.286   7.066
59144SOL    HW177456  10.886  11.353   6.994
59144SOL    HW277457  10.901  11.332   7.155
59145SOL     OW77458   9.432  11.815   6.149
59145SOL    HW177459   9.387  11.727   6.166
59145SOL    HW277460   9.431  11.869   6.233
59146SOL     OW77461   9.337  12.768   5.703
59146SOL    HW177462   9.318  12.672   5.724
59146SOL    HW277463   9.304  12.826   5.778
59147SOL     OW77464  10.999  12.094   6.198
59147SOL    HW177465  11.094  12.065   6.206
59147SOL    HW277466  10.991  12.159   6.123
59148SOL     OW77467  10.951  12.280   6.018
59148SOL    HW177468  11.037  12.282   5.966
59148SOL    HW277469  10.965  12.327   6.106
59149SOL     OW77470   9.423  11.909   7.183
59149SOL    HW177471   9.511  11.896   7.228
59149SOL    HW277472   9.410  12.006   7.161
59150SOL     OW77473   9.923  12.537   6.312
59150SOL    HW177474   9.874  12.450   6.321
59150SOL    HW277475   9.900  12.580   6.225
59151SOL     OW77476  10.603  12.400   7.009
59151SOL    HW177477  10.640  12.327   6.951
59151SOL    HW277478  10.655  12.405   7.094
59152SOL     OW77479  10.119  11.176   6.088
59152SOL    HW177480  10.159  11.267   6.079
59152SOL    HW277481  10.019  11.184   6.094
59153SOL     OW77482   9.507  12.148   6.850
59153SOL    HW177483   9.596  12.103   6.836
59153SOL    HW277484   9.434  12.083   6.831
59154SOL     OW77485  10.835  12.171   5.776
59154SOL    HW177486  10.772  12.095   5.789
59154SOL    HW277487  10.883  12.189   5.862
59155SOL     OW77488   9.627  11.423   7.387
59155SOL    HW177489   9.698  11.494   7.393
59155SOL    HW277490   9.539  11.462   7.415
59156SOL     OW77491  10.776  12.589   6.539
59156SOL    HW177492  10.717  12.595   6.619
59156SOL    HW277493  10.761  12.501   6.493
59157SOL     OW77494   9.908  11.901   5.856
59157SOL    HW177495   9.932  11.970   5.788
59157SOL    HW277496   9.830  11.934   5.910
59158SOL     OW77497  10.591  11.517   6.530
59158SOL    HW177498  10.505  11.467   6.517
59158SOL    HW277499  10.653  11.463   6.586
59159SOL     OW77500  10.886  12.834   5.893
59159SOL    HW177501  10.975  12.880   5.896
59159SOL    HW277502  10.865  12.810   5.798
59160SOL     OW77503  10.117  11.777   7.051
59160SOL    HW177504  10.070  11.774   7.140
59160SOL    HW277505  10.066  11.722   6.985
59161SOL     OW77506  10.704  11.641   7.260
59161SOL    HW177507  10.684  11.684   7.348
59161SOL    HW277508  10.782  11.579   7.269
59162SOL     OW77509  10.283  12.062   7.158
59162SOL    HW177510  10.329  11.978   7.129
59162SOL    HW277511  10.227  12.096   7.083
59163SOL     OW77512  10.301  11.582   6.828
59163SOL    HW177513  10.224  11.616   6.882
59163SOL    HW277514  10.267  11.531   6.749
59164SOL     OW77515  10.351  11.873   6.015
59164SOL    HW177516  10.377  11.869   6.111
59164SOL    HW277517  10.266  11.822   6.001
59165SOL     OW77518   9.386  11.983   6.375
59165SOL    HW177519   9.485  11.971   6.384
59165SOL    HW277520   9.362  12.078   6.396
59166SOL     OW77521  10.175  11.520   5.781
59166SOL    HW177522  10.234  11.583   5.732
59166SOL    HW277523  10.194  11.426   5.752
59167SOL     OW77524  11.029  11.757   7.417
59167SOL    HW177525  11.003  11.846   7.381
59167SOL    HW277526  11.027  11.689   7.344
59168SOL     OW77527  10.672  12.316   6.131
59168SOL    HW177528  10.755  12.287   6.083
59168SOL    HW277529  10.623  12.383   6.075
59169SOL     OW77530   9.860  11.368   6.471
59169SOL    HW177531   9.855  11.363   6.571
59169SOL    HW277532   9.862  11.464   6.442
59170SOL     OW77533  10.318  12.628   6.063
59170SOL    HW177534  10.272  12.700   6.011
59170SOL    HW277535  10.314  12.648   6.161
59171SOL     OW77536  11.105  12.238   6.459
59171SOL    HW177537  11.043  12.223   6.383
59171SOL    HW277538  11.053  12.249   6.544
59172SOL     OW77539  10.537  12.722   7.092
59172SOL    HW177540  10.543  12.645   7.156
59172SOL    HW277541  10.485  12.696   7.012
59173SOL     OW77542   9.631  12.115   5.828
59173SOL    HW177543   9.713  12.154   5.786
59173SOL    HW277544   9.604  12.033   5.779
59174SOL     OW77545  10.768  11.907   6.314
59174SOL    HW177546  10.763  11.842   6.389
59174SOL    HW277547  10.848  11.966   6.327
59175SOL     OW77548   9.771  12.438   7.313
59175SOL    HW177549   9.721  12.439   7.227
59175SOL    HW277550   9.708  12.420   7.389
59176SOL     OW77551   9.512  11.457   7.084
59176SOL    HW177552   9.432  11.517   7.071
59176SOL    HW277553   9.502  11.408   7.170
59177SOL     OW77554  10.942  12.549   5.667
59177SOL    HW177555  10.910  12.643   5.657
59177SOL    HW277556  10.866  12.486   5.655
59178SOL     OW77557  10.710  11.279   6.012
59178SOL    HW177558  10.686  11.242   5.922
59178SOL    HW277559  10.809  11.295   6.016
59179SOL     OW77560   9.692  11.872   6.066
59179SOL    HW177561   9.737  11.782   6.063
59179SOL    HW277562   9.598  11.861   6.099
59180SOL     OW77563  10.857  11.394   7.315
59180SOL    HW177564  10.852  11.431   7.407
59180SOL    HW277565  10.785  11.325   7.303
59181SOL     OW77566   9.924  11.294   5.703
59181SOL    HW177567  10.022  11.272   5.710
59181SOL    HW277568   9.893  11.277   5.610
59182SOL     OW77569  10.091  11.436   7.335
59182SOL    HW177570  10.158  11.375   7.378
59182SOL    HW277571  10.018  11.455   7.400
59183SOL     OW77572  10.661  11.762   7.019
59183SOL    HW177573  10.689  11.719   7.104
59183SOL    HW277574  10.686  11.858   7.020
59184SOL     OW77575  10.113  12.574   6.510
59184SOL    HW177576  10.203  12.588   6.468
59184SOL    HW277577  10.042  12.576   6.439
59185SOL     OW77578  10.232  11.675   6.485
59185SOL    HW177579  10.207  11.666   6.389
59185SOL    HW277580  10.280  11.593   6.516
59186SOL     OW77581   9.849  11.236   6.098
59186SOL    HW177582   9.768  11.237   6.156
59186SOL    HW277583   9.852  11.319   6.043
59187SOL     OW77584  10.744  12.360   5.627
59187SOL    HW177585  10.776  12.284   5.684
59187SOL    HW277586  10.652  12.387   5.657
59188SOL     OW77587   9.607  11.207   5.757
59188SOL    HW177588   9.656  11.291   5.736
59188SOL    HW277589   9.669  11.142   5.802
59189SOL     OW77590  10.245  11.408   6.066
59189SOL    HW177591  10.197  11.449   5.988
59189SOL    HW277592  10.344  11.406   6.047
59190SOL     OW77593  10.386  11.855   7.050
59190SOL    HW177594  10.306  11.794   7.053
59190SOL    HW277595  10.467  11.802   7.026
59191SOL     OW77596  10.537  12.742   6.379
59191SOL    HW177597  10.558  12.816   6.314
59191SOL    HW277598  10.605  12.742   6.452
59192SOL     OW77599   9.769  12.324   6.327
59192SOL    HW177600   9.698  12.297   6.392
59192SOL    HW277601   9.743  12.296   6.234
59193SOL     OW77602  10.342  11.721   5.602
59193SOL    HW177603  10.301  11.803   5.563
59193SOL    HW277604  10.406  11.747   5.675
59194SOL     OW77605   9.388  11.728   6.972
59194SOL    HW177606   9.480  11.727   6.931
59194SOL    HW277607   9.382  11.802   7.039
59195SOL     OW77608   9.871  11.394   6.733
59195SOL    HW177609   9.909  11.310   6.770
59195SOL    HW277610   9.783  11.413   6.777
59196SOL     OW77611  10.176  11.626   6.228
59196SOL    HW177612  10.144  11.698   6.166
59196SOL    HW277613  10.200  11.545   6.175
59197SOL     OW77614  10.327  11.211   6.339
59197SOL    HW177615  10.255  11.216   6.270
59197SOL    HW277616  10.303  11.142   6.408
59198SOL     OW77617  10.739  12.345   6.453
59198SOL    HW177618  10.684  12.261   6.446
59198SOL    HW277619  10.765  12.374   6.361
59199SOL     OW77620  10.776  11.762   6.578
59199SOL    HW177621  10.746  11.667   6.585
59199SOL    HW277622  10.849  11.778   6.644
59200SOL     OW77623  11.167  12.005   5.963
59200SOL    HW177624  11.209  11.941   6.027
59200SOL    HW277625  11.129  11.954   5.885
59201SOL     OW77626   9.798  12.557   5.760
59201SOL    HW177627   9.711  12.542   5.807
59201SOL    HW277628   9.781  12.583   5.665
59202SOL     OW77629  10.974  12.452   6.243
59202SOL    HW177630  11.073  12.460   6.257
59202SOL    HW277631  10.929  12.536   6.274
59203SOL     OW77632  10.700  11.747   5.664
59203SOL    HW177633  10.646  11.726   5.745
59203SOL    HW277634  10.791  11.706   5.673
59204SOL     OW77635   9.837  11.428   5.914
59204SOL    HW177636   9.864  11.369   5.839
59204SOL    HW277637   9.837  11.523   5.883
59205SOL     OW77638  11.064  12.395   7.174
59205SOL    HW177639  11.155  12.356   7.161
59205SOL    HW277640  11.072  12.491   7.198
59206SOL     OW77641  10.374  12.519   6.926
59206SOL    HW177642  10.294  12.496   6.981
59206SOL    HW277643  10.457  12.493   6.975
59207SOL     OW77644  10.421  12.367   6.686
59207SOL    HW177645  10.381  12.411   6.767
59207SOL    HW277646  10.380  12.404   6.603
59208SOL     OW77647  10.948  12.271   6.665
59208SOL    HW177648  10.953  12.352   6.724
59208SOL    HW277649  10.862  12.273   6.614
59209SOL     OW77650  10.225  11.261   6.988
59209SOL    HW177651  10.250  11.241   6.893
59209SOL    HW277652  10.297  11.317   7.030
59210SOL     OW77653  10.290  12.288   7.305
59210SOL    HW177654  10.191  12.294   7.315
59210SOL    HW277655  10.313  12.208   7.249
59211SOL     OW77656  10.015  12.222   5.954
59211SOL    HW177657  10.001  12.229   6.053
59211SOL    HW277658  10.099  12.171   5.936
59212SOL     OW77659   9.720  11.985   6.837
59212SOL    HW177660   9.806  11.997   6.887
59212SOL    HW277661   9.678  11.898   6.864
59213SOL     OW77662  10.584  11.558   6.848
59213SOL    HW177663  10.605  11.632   6.912
59213SOL    HW277664  10.495  11.575   6.805
59214SOL     OW77665   9.374  12.736   6.917
59214SOL    HW177666   9.328  12.818   6.883
59214SOL    HW277667   9.472  12.755   6.926
59215SOL     OW77668   9.677  12.272   6.087
59215SOL    HW177669   9.670  12.355   6.031
59215SOL    HW277670   9.681  12.192   6.027
59216SOL     OW77671   9.876  11.709   6.451
59216SOL    HW177672   9.888  11.775   6.377
59216SOL    HW277673   9.922  11.743   6.534
59217SOL     OW77674  10.562  12.520   5.974
59217SOL    HW177675  10.612  12.597   6.014
59217SOL    HW277676  10.467  12.522   6.006
59218SOL     OW77677  10.582  12.617   6.728
59218SOL    HW177678  10.629  12.630   6.815
59218SOL    HW277679  10.516  12.543   6.737
59219SOL     OW77680  10.892  11.811   6.058
59219SOL    HW177681  10.861  11.872   6.131
59219SOL    HW277682  10.942  11.863   5.989
59220SOL     OW77683   9.664  12.682   6.915
59220SOL    HW177684   9.643  12.638   6.828
59220SOL    HW277685   9.761  12.708   6.918
59221SOL     OW77686   9.712  11.923   7.184
59221SOL    HW177687   9.780  11.978   7.137
59221SOL    HW277688   9.752  11.835   7.211
59222SOL     OW77689  10.897  11.951   7.256
59222SOL    HW177690  10.805  11.989   7.251
59222SOL    HW277691  10.957  11.998   7.191
59223SOL     OW77692  10.323  11.277   7.356
59223SOL    HW177693  10.329  11.362   7.304
59223SOL    HW277694  10.355  11.201   7.299
59224SOL     OW77695   9.814  11.222   7.326
59224SOL    HW177696   9.772  11.165   7.256
59224SOL    HW277697   9.748  11.291   7.358
59225SOL     OW77698   9.883  12.042   6.615
59225SOL    HW177699   9.927  12.131   6.606
59225SOL    HW277700   9.820  12.042   6.692
59226SOL     OW77701  10.670  12.034   6.631
59226SOL    HW177702  10.595  12.034   6.565
59226SOL    HW277703  10.707  11.942   6.640
59227SOL     OW77704  10.519  11.697   5.861
59227SOL    HW177705  10.532  11.613   5.915
59227SOL    HW277706  10.490  11.771   5.921
59228SOL     OW77707   9.617  11.385   6.817
59228SOL    HW177708   9.594  11.422   6.907
59228SOL    HW277709   9.587  11.290   6.811
59229SOL     OW77710   9.347  12.482   6.868
59229SOL    HW177711   9.400  12.433   6.936
59229SOL    HW277712   9.369  12.580   6.873
59230SOL     OW77713  10.042  11.806   6.650
59230SOL    HW177714  10.101  11.780   6.574
59230SOL    HW277715  10.014  11.902   6.639
59231SOL     OW77716  11.038  12.107   7.440
59231SOL    HW177717  10.992  12.100   7.351
59231SOL    HW277718  10.976  12.151   7.506
59232SOL     OW77719   9.617  11.235   6.204
59232SOL    HW177720   9.606  11.329   6.237
59232SOL    HW277721   9.612  11.172   6.281
59233SOL     OW77722  10.932  11.539   5.960
59233SOL    HW177723  10.934  11.463   6.024
59233SOL    HW277724  10.884  11.616   6.000
59234SOL     OW77725  10.333  11.938   6.552
59234SOL    HW177726  10.348  11.959   6.648
59234SOL    HW277727  10.303  11.843   6.543
59235SOL     OW77728  11.169  12.690   7.191
59235SOL    HW177729  11.183  12.717   7.096
59235SOL    HW277730  11.252  12.712   7.244
59236SOL     OW77731   9.660  12.070   7.390
59236SOL    HW177732   9.736  12.114   7.438
59236SOL    HW277733   9.695  12.023   7.308
59237SOL     OW77734  10.850  11.446   5.711
59237SOL    HW177735  10.789  11.371   5.734
59237SOL    HW277736  10.872  11.498   5.794
59238SOL     OW77737  10.613  12.010   5.628
59238SOL    HW177738  10.647  11.917   5.643
59238SOL    HW277739  10.631  12.037   5.533
59239SOL     OW77740  10.378  12.505   6.435
59239SOL    HW177741  10.385  12.421   6.380
59239SOL    HW277742  10.440  12.574   6.399
59240SOL     OW77743   9.629  11.982   6.535
59240SOL    HW177744   9.722  12.018   6.540
59240SOL    HW277745   9.623  11.897   6.587
59241SOL     OW77746   9.649  11.681   6.592
59241SOL    HW177747   9.597  11.598   6.575
59241SOL    HW277748   9.726  11.686   6.528
59242SOL     OW77749  10.448  11.552   7.264
59242SOL    HW177750  10.403  11.615   7.328
59242SOL    HW277751  10.541  11.583   7.247
59243SOL     OW77752  10.470  11.379   7.063
59243SOL    HW177753  10.470  11.443   7.140
59243SOL    HW277754  10.498  11.427   6.980
59244SOL     OW77755   9.318  12.498   5.786
59244SOL    HW177756   9.225  12.519   5.755
59244SOL    HW277757   9.328  12.399   5.799
59245SOL     OW77758   9.814  12.740   6.496
59245SOL    HW177759   9.880  12.814   6.505
59245SOL    HW277760   9.858  12.661   6.454
59246SOL     OW77761  10.312  11.968   6.824
59246SOL    HW177762  10.353  11.936   6.910
59246SOL    HW277763  10.216  11.941   6.821
59247SOL     OW77764   9.350  11.716   6.700
59247SOL    HW177765   9.435  11.683   6.659
59247SOL    HW277766   9.363  11.731   6.798
59248SOL     OW77767   9.499  11.692   7.308
59248SOL    HW177768   9.558  11.652   7.238
59248SOL    HW277769   9.441  11.763   7.267
59249SOL     OW77770  10.679  12.122   7.246
59249SOL    HW177771  10.718  12.211   7.266
59249SOL    HW277772  10.689  12.102   7.149
59250SOL     OW77773  10.125  11.744   5.911
59250SOL    HW177774  10.132  11.655   5.865
59250SOL    HW277775  10.031  11.778   5.903
59251SOL     OW77776  10.967  11.776   6.792
59251SOL    HW177777  10.929  11.707   6.854
59251SOL    HW277778  11.049  11.740   6.748
59252SOL     OW77779   9.562  12.736   7.330
59252SOL    HW177780   9.532  12.793   7.406
59252SOL    HW277781   9.555  12.639   7.356
59253SOL     OW77782   9.981  11.636   6.855
59253SOL    HW177783   9.947  11.547   6.825
59253SOL    HW277784  10.007  11.690   6.775
59254SOL     OW77785   9.783  11.672   5.777
59254SOL    HW177786   9.844  11.752   5.781
59254SOL    HW277787   9.688  11.703   5.784
59255SOL     OW77788   9.469  12.309   7.052
59255SOL    HW177789   9.491  12.248   7.128
59255SOL    HW277790   9.479  12.260   6.966
59256SOL     OW77791  10.657  12.231   6.820
59256SOL    HW177792  10.681  12.168   6.746
59256SOL    HW277793  10.567  12.271   6.802
59257SOL     OW77794  10.612  12.027   5.895
59257SOL    HW177795  10.526  11.996   5.937
59257SOL    HW277796  10.608  12.013   5.796
59258SOL     OW77797  10.562  12.903   6.714
59258SOL    HW177798  10.646  12.908   6.660
59258SOL    HW277799  10.539  12.807   6.732
59259SOL     OW77800   9.393  12.430   6.608
59259SOL    HW177801   9.388  12.429   6.708
59259SOL    HW277802   9.310  12.389   6.570
59260SOL     OW77803  11.036  11.307   6.109
59260SOL    HW177804  11.109  11.290   6.042
59260SOL    HW277805  11.005  11.220   6.147
59261SOL     OW77806   9.440  12.966   7.437
59261SOL    HW177807   9.399  12.892   7.490
59261SOL    HW277808   9.504  13.017   7.495
59262SOL     OW77809  10.590  12.099   6.258
59262SOL    HW177810  10.650  12.018   6.260
59262SOL    HW277811  10.630  12.168   6.198
59263SOL     OW77812  10.140  12.445   7.008
59263SOL    HW177813  10.135  12.478   7.103
59263SOL    HW277814  10.054  12.464   6.962
59264SOL     OW77815   9.982  12.788   5.740
59264SOL    HW177816   9.991  12.798   5.641
59264SOL    HW277817   9.942  12.699   5.761
59265SOL     OW77818  11.151  11.347   6.549
59265SOL    HW177819  11.190  11.262   6.513
59265SOL    HW277820  11.053  11.349   6.530
59266SOL     OW77821   9.573  11.498   6.306
59266SOL    HW177822   9.494  11.549   6.272
59266SOL    HW277823   9.564  11.483   6.404
59267SOL     OW77824  10.504  12.784   5.617
59267SOL    HW177825  10.510  12.691   5.654
59267SOL    HW277826  10.445  12.784   5.537
59268SOL     OW77827  10.132  12.174   6.958
59268SOL    HW177828  10.172  12.173   6.866
59268SOL    HW277829  10.142  12.266   6.998
59269SOL     OW77830  10.226  12.082   5.877
59269SOL    HW177831  10.289  12.120   5.809
59269SOL    HW277832  10.266  11.999   5.916
59270SOL     OW77833   9.682  12.460   7.076
59270SOL    HW177834   9.669  12.553   7.042
59270SOL    HW277835   9.598  12.408   7.063
59271SOL     OW77836  10.924  12.464   6.875
59271SOL    HW177837  10.984  12.467   6.955
59271SOL    HW277838  10.849  12.528   6.888
59272SOL     OW77839  10.349  12.270   6.282
59272SOL    HW177840  10.279  12.223   6.336
59272SOL    HW277841  10.408  12.202   6.239
59273SOL     OW77842  10.324  11.408   6.557
59273SOL    HW177843  10.316  11.372   6.464
59273SOL    HW277844  10.322  11.332   6.622
59274SOL     OW77845   9.900  12.659   6.077
59274SOL    HW177846   9.942  12.601   6.007
59274SOL    HW277847   9.856  12.738   6.033
59275SOL     OW77848  11.019  11.557   6.967
59275SOL    HW177849  11.092  11.626   6.971
59275SOL    HW277850  11.047  11.482   6.908
59276SOL     OW77851   9.565  12.520   5.876
59276SOL    HW177852   9.469  12.521   5.849
59276SOL    HW277853   9.577  12.573   5.960
59277SOL     OW77854   9.415  12.185   7.312
59277SOL    HW177855   9.338  12.152   7.366
59277SOL    HW277856   9.500  12.155   7.354
59278SOL     OW77857   9.982  11.375   7.075
59278SOL    HW177858  10.072  11.359   7.035
59278SOL    HW277859   9.990  11.380   7.174
59279SOL     OW77860   9.385  11.517   5.619
59279SOL    HW177861   9.293  11.489   5.590
59279SOL    HW277862   9.416  11.594   5.563
59280SOL     OW77863  10.750  12.028   6.984
59280SOL    HW177864  10.693  12.080   6.921
59280SOL    HW277865  10.846  12.040   6.960
59281SOL     OW77866   9.382  11.338   5.904
59281SOL    HW177867   9.365  11.421   5.850
59281SOL    HW277868   9.472  11.301   5.882
59282SOL     OW77869  10.493  12.507   5.705
59282SOL    HW177870  10.394  12.496   5.707
59282SOL    HW277871  10.527  12.522   5.798
59283SOL     OW77872   9.923  12.014   7.017
59283SOL    HW177873   9.979  12.095   7.000
59283SOL    HW277874   9.982  11.934   7.020
59284SOL     OW77875  10.026  11.737   7.294
59284SOL    HW177876  10.045  11.802   7.368
59284SOL    HW277877  10.086  11.657   7.303
59285SOL     OW77878  10.760  12.392   7.219
59285SOL    HW177879  10.751  12.382   7.318
59285SOL    HW277880  10.856  12.385   7.193
59286SOL     OW77881  10.984  12.055   6.840
59286SOL    HW177882  10.957  11.966   6.803
59286SOL    HW277883  10.985  12.123   6.767
59287SOL     OW77884  10.535  11.497   6.035
59287SOL    HW177885  10.600  11.423   6.024
59287SOL    HW277886  10.555  11.547   6.119
59288SOL     OW77887   9.904  11.917   6.238
59288SOL    HW177888   9.954  12.002   6.219
59288SOL    HW277889   9.816  11.919   6.190
59289SOL     OW77890  11.087  11.514   7.228
59289SOL    HW177891  11.070  11.545   7.134
59289SOL    HW277892  11.003  11.477   7.266
59290SOL     OW77893  11.040  12.106   7.103
59290SOL    HW177894  11.078  12.197   7.118
59290SOL    HW277895  11.032  12.089   7.004
59291SOL     OW77896  10.169  12.546   5.602
59291SOL    HW177897  10.123  12.561   5.690
59291SOL    HW277898  10.213  12.631   5.572
59292SOL     OW77899  10.169  12.128   6.447
59292SOL    HW177900  10.223  12.059   6.495
59292SOL    HW277901  10.137  12.197   6.513
59293SOL     OW77902  10.393  12.156   5.673
59293SOL    HW177903  10.370  12.209   5.591
59293SOL    HW277904  10.474  12.100   5.654
59294SOL     OW77905  11.171  12.741   6.437
59294SOL    HW177906  11.100  12.729   6.367
59294SOL    HW277907  11.172  12.662   6.497
59295SOL     OW77908   9.531  12.486   7.430
59295SOL    HW177909   9.466  12.413   7.409
59295SOL    HW277910   9.535  12.500   7.528
59296SOL     OW77911   9.389  12.412   6.239
59296SOL    HW177912   9.388  12.365   6.327
59296SOL    HW277913   9.471  12.384   6.188
59297SOL     OW77914   9.982  12.563   7.210
59297SOL    HW177915   9.904  12.513   7.248
59297SOL    HW277916   9.979  12.658   7.241
59298SOL     OW77917  11.134  11.364   6.813
59298SOL    HW177918  11.130  11.274   6.857
59298SOL    HW277919  11.137  11.353   6.714
59299SOL     OW77920   9.738  11.596   6.106
59299SOL    HW177921   9.768  11.524   6.044
59299SOL    HW277922   9.699  11.556   6.189
59300SOL     OW77923  11.015  12.659   6.690
59300SOL    HW177924  10.922  12.634   6.663
59300SOL    HW277925  11.041  12.609   6.772
59301SOL     OW77926   9.627  11.719   6.866
59301SOL    HW177927   9.665  11.660   6.938
59301SOL    HW277928   9.667  11.693   6.778
59302SOL     OW77929  10.734  11.386   6.698
59302SOL    HW177930  10.786  11.321   6.753
59302SOL    HW277931  10.685  11.449   6.759
59303SOL     OW77932  10.311  11.206   6.740
59303SOL    HW177933  10.248  11.134   6.709
59303SOL    HW277934  10.404  11.170   6.740
59304SOL     OW77935  10.080  12.502   5.887
59304SOL    HW177936  10.034  12.415   5.904
59304SOL    HW277937  10.171  12.499   5.928
59305SOL     OW77938   9.928  12.739   6.870
59305SOL    HW177939   9.923  12.821   6.927
59305SOL    HW277940  10.017  12.736   6.825
59306SOL     OW77941  10.662  11.224   5.754
59306SOL    HW177942  10.697  11.183   5.670
59306SOL    HW277943  10.572  11.186   5.774
59307SOL     OW77944  10.610  11.625   6.277
59307SOL    HW177945  10.551  11.705   6.281
59307SOL    HW277946  10.625  11.590   6.370
59308SOL     OW77947  10.903  11.393   6.468
59308SOL    HW177948  10.819  11.392   6.522
59308SOL    HW277949  10.905  11.476   6.412
59309SOL     OW77950   9.349  12.249   5.886
59309SOL    HW177951   9.448  12.238   5.877
59309SOL    HW277952   9.309  12.163   5.918
59310SOL     OW77953   9.540  11.800   7.561
59310SOL    HW177954   9.447  11.798   7.598
59310SOL    HW277955   9.541  11.761   7.469
59311SOL     OW77956   9.535  11.447   8.444
59311SOL    HW177957   9.570  11.430   8.536
59311SOL    HW277958   9.447  11.402   8.432
59312SOL     OW77959   9.329  11.540   8.095
59312SOL    HW177960   9.247  11.583   8.134
59312SOL    HW277961   9.301  11.467   8.032
59313SOL     OW77962   9.879  12.447   8.613
59313SOL    HW177963   9.786  12.440   8.576
59313SOL    HW277964   9.890  12.536   8.657
59314SOL     OW77965  10.865  12.683   8.151
59314SOL    HW177966  10.808  12.667   8.232
59314SOL    HW277967  10.806  12.693   8.071
59315SOL     OW77968  10.445  11.875   8.165
59315SOL    HW177969  10.502  11.953   8.140
59315SOL    HW277970  10.385  11.901   8.241
59316SOL     OW77971  11.065  11.779   7.679
59316SOL    HW177972  11.053  11.766   7.580
59316SOL    HW277973  11.035  11.698   7.728
59317SOL     OW77974  10.078  12.316   8.471
59317SOL    HW177975  10.000  12.333   8.531
59317SOL    HW277976  10.112  12.403   8.435
59318SOL     OW77977  10.160  11.970   9.271
59318SOL    HW177978  10.156  12.046   9.336
59318SOL    HW277979  10.182  12.006   9.180
59319SOL     OW77980   9.995  12.184   8.113
59319SOL    HW177981  10.064  12.168   8.183
59319SOL    HW277982   9.922  12.241   8.151
59320SOL     OW77983   9.996  12.333   9.251
59320SOL    HW177984  10.056  12.412   9.265
59320SOL    HW277985   9.910  12.364   9.210
59321SOL     OW77986   9.645  12.607   8.509
59321SOL    HW177987   9.567  12.576   8.456
59321SOL    HW277988   9.703  12.665   8.452
59322SOL     OW77989  10.770  12.677   8.787
59322SOL    HW177990  10.794  12.771   8.813
59322SOL    HW277991  10.754  12.623   8.869
59323SOL     OW77992   9.748  11.564   8.947
59323SOL    HW177993   9.830  11.508   8.956
59323SOL    HW277994   9.667  11.506   8.951
59324SOL     OW77995  10.913  11.619   8.185
59324SOL    HW177996  10.839  11.665   8.135
59324SOL    HW277997  10.964  11.687   8.238
59325SOL     OW77998  10.437  12.513   9.138
59325SOL    HW177999  10.484  12.513   9.226
59325SOL    HW278000  10.389  12.426   9.127
59326SOL     OW78001   9.540  12.606   7.986
59326SOL    HW178002   9.514  12.702   7.986
59326SOL    HW278003   9.469  12.552   8.031
59327SOL     OW78004   9.550  12.263   8.334
59327SOL    HW178005   9.564  12.179   8.386
59327SOL    HW278006   9.495  12.327   8.389
59328SOL     OW78007   9.916  12.136   7.571
59328SOL    HW178008   9.923  12.220   7.517
59328SOL    HW278009   9.962  12.149   7.659
59329SOL     OW78010  10.904  11.286   8.928
59329SOL    HW178011  10.886  11.353   8.856
59329SOL    HW278012  10.901  11.332   9.017
59330SOL     OW78013   9.432  11.815   8.011
59330SOL    HW178014   9.387  11.727   8.028
59330SOL    HW278015   9.431  11.869   8.095
59331SOL     OW78016   9.337  12.768   7.565
59331SOL    HW178017   9.318  12.672   7.586
59331SOL    HW278018   9.304  12.826   7.640
59332SOL     OW78019  10.999  12.094   8.060
59332SOL    HW178020  11.094  12.065   8.068
59332SOL    HW278021  10.991  12.159   7.985
59333SOL     OW78022  10.951  12.280   7.880
59333SOL    HW178023  11.037  12.282   7.828
59333SOL    HW278024  10.965  12.327   7.968
59334SOL     OW78025   9.423  11.909   9.045
59334SOL    HW178026   9.511  11.896   9.090
59334SOL    HW278027   9.410  12.006   9.023
59335SOL     OW78028   9.923  12.537   8.174
59335SOL    HW178029   9.874  12.450   8.183
59335SOL    HW278030   9.900  12.580   8.087
59336SOL     OW78031  10.603  12.400   8.871
59336SOL    HW178032  10.640  12.327   8.813
59336SOL    HW278033  10.655  12.405   8.956
59337SOL     OW78034  10.119  11.176   7.950
59337SOL    HW178035  10.159  11.267   7.941
59337SOL    HW278036  10.019  11.184   7.956
59338SOL     OW78037   9.507  12.148   8.712
59338SOL    HW178038   9.596  12.103   8.698
59338SOL    HW278039   9.434  12.083   8.693
59339SOL     OW78040  10.835  12.171   7.638
59339SOL    HW178041  10.772  12.095   7.651
59339SOL    HW278042  10.883  12.189   7.724
59340SOL     OW78043   9.627  11.423   9.249
59340SOL    HW178044   9.698  11.494   9.255
59340SOL    HW278045   9.539  11.462   9.277
59341SOL     OW78046  10.776  12.589   8.401
59341SOL    HW178047  10.717  12.595   8.481
59341SOL    HW278048  10.761  12.501   8.355
59342SOL     OW78049   9.908  11.901   7.718
59342SOL    HW178050   9.932  11.970   7.650
59342SOL    HW278051   9.830  11.934   7.772
59343SOL     OW78052  10.591  11.517   8.392
59343SOL    HW178053  10.505  11.467   8.379
59343SOL    HW278054  10.653  11.463   8.448
59344SOL     OW78055  10.886  12.834   7.755
59344SOL    HW178056  10.975  12.880   7.758
59344SOL    HW278057  10.865  12.810   7.660
59345SOL     OW78058  10.117  11.777   8.913
59345SOL    HW178059  10.070  11.774   9.002
59345SOL    HW278060  10.066  11.722   8.847
59346SOL     OW78061  10.704  11.641   9.122
59346SOL    HW178062  10.684  11.684   9.210
59346SOL    HW278063  10.782  11.579   9.131
59347SOL     OW78064  10.283  12.062   9.020
59347SOL    HW178065  10.329  11.978   8.991
59347SOL    HW278066  10.227  12.096   8.945
59348SOL     OW78067  10.301  11.582   8.690
59348SOL    HW178068  10.224  11.616   8.744
59348SOL    HW278069  10.267  11.531   8.611
59349SOL     OW78070  10.351  11.873   7.877
59349SOL    HW178071  10.377  11.869   7.973
59349SOL    HW278072  10.266  11.822   7.863
59350SOL     OW78073   9.386  11.983   8.237
59350SOL    HW178074   9.485  11.971   8.246
59350SOL    HW278075   9.362  12.078   8.258
59351SOL     OW78076  10.175  11.520   7.643
59351SOL    HW178077  10.234  11.583   7.594
59351SOL    HW278078  10.194  11.426   7.614
59352SOL     OW78079  11.029  11.757   9.279
59352SOL    HW178080  11.003  11.846   9.243
59352SOL    HW278081  11.027  11.689   9.206
59353SOL     OW78082  10.672  12.316   7.993
59353SOL    HW178083  10.755  12.287   7.945
59353SOL    HW278084  10.623  12.383   7.937
59354SOL     OW78085   9.860  11.368   8.333
59354SOL    HW178086   9.855  11.363   8.433
59354SOL    HW278087   9.862  11.464   8.304
59355SOL     OW78088  10.318  12.628   7.925
59355SOL    HW178089  10.272  12.700   7.873
59355SOL    HW278090  10.314  12.648   8.023
59356SOL     OW78091  11.105  12.238   8.321
59356SOL    HW178092  11.043  12.223   8.245
59356SOL    HW278093  11.053  12.249   8.406
59357SOL     OW78094  10.537  12.722   8.954
59357SOL    HW178095  10.543  12.645   9.018
59357SOL    HW278096  10.485  12.696   8.874
59358SOL     OW78097   9.631  12.115   7.690
59358SOL    HW178098   9.713  12.154   7.648
59358SOL    HW278099   9.604  12.033   7.641
59359SOL     OW78100  10.768  11.907   8.176
59359SOL    HW178101  10.763  11.842   8.251
59359SOL    HW278102  10.848  11.966   8.189
59360SOL     OW78103   9.771  12.438   9.175
59360SOL    HW178104   9.721  12.439   9.089
59360SOL    HW278105   9.708  12.420   9.251
59361SOL     OW78106   9.512  11.457   8.946
59361SOL    HW178107   9.432  11.517   8.933
59361SOL    HW278108   9.502  11.408   9.032
59362SOL     OW78109  10.942  12.549   7.529
59362SOL    HW178110  10.910  12.643   7.519
59362SOL    HW278111  10.866  12.486   7.517
59363SOL     OW78112  10.710  11.279   7.874
59363SOL    HW178113  10.686  11.242   7.784
59363SOL    HW278114  10.809  11.295   7.878
59364SOL     OW78115   9.692  11.872   7.928
59364SOL    HW178116   9.737  11.782   7.925
59364SOL    HW278117   9.598  11.861   7.961
59365SOL     OW78118  10.857  11.394   9.177
59365SOL    HW178119  10.852  11.431   9.269
59365SOL    HW278120  10.785  11.325   9.165
59366SOL     OW78121   9.924  11.294   7.565
59366SOL    HW178122  10.022  11.272   7.572
59366SOL    HW278123   9.893  11.277   7.472
59367SOL     OW78124  10.091  11.436   9.197
59367SOL    HW178125  10.158  11.375   9.240
59367SOL    HW278126  10.018  11.455   9.262
59368SOL     OW78127  10.661  11.762   8.881
59368SOL    HW178128  10.689  11.719   8.966
59368SOL    HW278129  10.686  11.858   8.882
59369SOL     OW78130  10.232  11.675   8.347
59369SOL    HW178131  10.207  11.666   8.251
59369SOL    HW278132  10.280  11.593   8.378
59370SOL     OW78133   9.849  11.236   7.960
59370SOL    HW178134   9.768  11.237   8.018
59370SOL    HW278135   9.852  11.319   7.905
59371SOL     OW78136  10.744  12.360   7.489
59371SOL    HW178137  10.776  12.284   7.546
59371SOL    HW278138  10.652  12.387   7.519
59372SOL     OW78139   9.607  11.207   7.619
59372SOL    HW178140   9.656  11.291   7.598
59372SOL    HW278141   9.669  11.142   7.664
59373SOL     OW78142  10.245  11.408   7.928
59373SOL    HW178143  10.197  11.449   7.850
59373SOL    HW278144  10.344  11.406   7.909
59374SOL     OW78145  10.386  11.855   8.912
59374SOL    HW178146  10.306  11.794   8.915
59374SOL    HW278147  10.467  11.802   8.888
59375SOL     OW78148  10.537  12.742   8.241
59375SOL    HW178149  10.558  12.816   8.176
59375SOL    HW278150  10.605  12.742   8.314
59376SOL     OW78151   9.769  12.324   8.189
59376SOL    HW178152   9.698  12.297   8.254
59376SOL    HW278153   9.743  12.296   8.096
59377SOL     OW78154  10.342  11.721   7.464
59377SOL    HW178155  10.301  11.803   7.425
59377SOL    HW278156  10.406  11.747   7.537
59378SOL     OW78157   9.388  11.728   8.834
59378SOL    HW178158   9.480  11.727   8.793
59378SOL    HW278159   9.382  11.802   8.901
59379SOL     OW78160   9.871  11.394   8.595
59379SOL    HW178161   9.909  11.310   8.632
59379SOL    HW278162   9.783  11.413   8.639
59380SOL     OW78163  10.176  11.626   8.090
59380SOL    HW178164  10.144  11.698   8.028
59380SOL    HW278165  10.200  11.545   8.037
59381SOL     OW78166  10.327  11.211   8.201
59381SOL    HW178167  10.255  11.216   8.132
59381SOL    HW278168  10.303  11.142   8.270
59382SOL     OW78169  10.739  12.345   8.315
59382SOL    HW178170  10.684  12.261   8.308
59382SOL    HW278171  10.765  12.374   8.223
59383SOL     OW78172  10.776  11.762   8.440
59383SOL    HW178173  10.746  11.667   8.447
59383SOL    HW278174  10.849  11.778   8.506
59384SOL     OW78175  11.167  12.005   7.825
59384SOL    HW178176  11.209  11.941   7.889
59384SOL    HW278177  11.129  11.954   7.747
59385SOL     OW78178   9.798  12.557   7.622
59385SOL    HW178179   9.711  12.542   7.669
59385SOL    HW278180   9.781  12.583   7.527
59386SOL     OW78181  10.974  12.452   8.105
59386SOL    HW178182  11.073  12.460   8.119
59386SOL    HW278183  10.929  12.536   8.136
59387SOL     OW78184  10.700  11.747   7.526
59387SOL    HW178185  10.646  11.726   7.607
59387SOL    HW278186  10.791  11.706   7.535
59388SOL     OW78187   9.837  11.428   7.776
59388SOL    HW178188   9.864  11.369   7.701
59388SOL    HW278189   9.837  11.523   7.745
59389SOL     OW78190  11.064  12.395   9.036
59389SOL    HW178191  11.155  12.356   9.023
59389SOL    HW278192  11.072  12.491   9.060
59390SOL     OW78193  10.374  12.519   8.788
59390SOL    HW178194  10.294  12.496   8.843
59390SOL    HW278195  10.457  12.493   8.837
59391SOL     OW78196  10.421  12.367   8.548
59391SOL    HW178197  10.381  12.411   8.629
59391SOL    HW278198  10.380  12.404   8.465
59392SOL     OW78199  10.948  12.271   8.527
59392SOL    HW178200  10.953  12.352   8.586
59392SOL    HW278201  10.862  12.273   8.476
59393SOL     OW78202  10.225  11.261   8.850
59393SOL    HW178203  10.250  11.241   8.755
59393SOL    HW278204  10.297  11.317   8.892
59394SOL     OW78205  10.290  12.288   9.167
59394SOL    HW178206  10.191  12.294   9.177
59394SOL    HW278207  10.313  12.208   9.111
59395SOL     OW78208  10.015  12.222   7.816
59395SOL    HW178209  10.001  12.229   7.915
59395SOL    HW278210  10.099  12.171   7.798
59396SOL     OW78211   9.720  11.985   8.699
59396SOL    HW178212   9.806  11.997   8.749
59396SOL    HW278213   9.678  11.898   8.726
59397SOL     OW78214  10.584  11.558   8.710
59397SOL    HW178215  10.605  11.632   8.774
59397SOL    HW278216  10.495  11.575   8.667
59398SOL     OW78217   9.374  12.736   8.779
59398SOL    HW178218   9.328  12.818   8.745
59398SOL    HW278219   9.472  12.755   8.788
59399SOL     OW78220   9.677  12.272   7.949
59399SOL    HW178221   9.670  12.355   7.893
59399SOL    HW278222   9.681  12.192   7.889
59400SOL     OW78223   9.876  11.709   8.313
59400SOL    HW178224   9.888  11.775   8.239
59400SOL    HW278225   9.922  11.743   8.396
59401SOL     OW78226  10.562  12.520   7.836
59401SOL    HW178227  10.612  12.597   7.876
59401SOL    HW278228  10.467  12.522   7.868
59402SOL     OW78229  10.582  12.617   8.590
59402SOL    HW178230  10.629  12.630   8.677
59402SOL    HW278231  10.516  12.543   8.599
59403SOL     OW78232  10.892  11.811   7.920
59403SOL    HW178233  10.861  11.872   7.993
59403SOL    HW278234  10.942  11.863   7.851
59404SOL     OW78235   9.664  12.682   8.777
59404SOL    HW178236   9.643  12.638   8.690
59404SOL    HW278237   9.761  12.708   8.780
59405SOL     OW78238   9.712  11.923   9.046
59405SOL    HW178239   9.780  11.978   8.999
59405SOL    HW278240   9.752  11.835   9.073
59406SOL     OW78241  10.897  11.951   9.118
59406SOL    HW178242  10.805  11.989   9.113
59406SOL    HW278243  10.957  11.998   9.053
59407SOL     OW78244  10.323  11.277   9.218
59407SOL    HW178245  10.329  11.362   9.166
59407SOL    HW278246  10.355  11.201   9.161
59408SOL     OW78247   9.814  11.222   9.188
59408SOL    HW178248   9.772  11.165   9.118
59408SOL    HW278249   9.748  11.291   9.220
59409SOL     OW78250   9.883  12.042   8.477
59409SOL    HW178251   9.927  12.131   8.468
59409SOL    HW278252   9.820  12.042   8.554
59410SOL     OW78253  10.670  12.034   8.493
59410SOL    HW178254  10.595  12.034   8.427
59410SOL    HW278255  10.707  11.942   8.502
59411SOL     OW78256  10.519  11.697   7.723
59411SOL    HW178257  10.532  11.613   7.777
59411SOL    HW278258  10.490  11.771   7.783
59412SOL     OW78259   9.617  11.385   8.679
59412SOL    HW178260   9.594  11.422   8.769
59412SOL    HW278261   9.587  11.290   8.673
59413SOL     OW78262   9.347  12.482   8.730
59413SOL    HW178263   9.400  12.433   8.798
59413SOL    HW278264   9.369  12.580   8.735
59414SOL     OW78265  10.042  11.806   8.512
59414SOL    HW178266  10.101  11.780   8.436
59414SOL    HW278267  10.014  11.902   8.501
59415SOL     OW78268  11.038  12.107   9.302
59415SOL    HW178269  10.992  12.100   9.213
59415SOL    HW278270  10.976  12.151   9.368
59416SOL     OW78271   9.617  11.235   8.066
59416SOL    HW178272   9.606  11.329   8.099
59416SOL    HW278273   9.612  11.172   8.143
59417SOL     OW78274  10.932  11.539   7.822
59417SOL    HW178275  10.934  11.463   7.886
59417SOL    HW278276  10.884  11.616   7.862
59418SOL     OW78277  10.333  11.938   8.414
59418SOL    HW178278  10.348  11.959   8.510
59418SOL    HW278279  10.303  11.843   8.405
59419SOL     OW78280  11.169  12.690   9.053
59419SOL    HW178281  11.183  12.717   8.958
59419SOL    HW278282  11.252  12.712   9.106
59420SOL     OW78283   9.660  12.070   9.252
59420SOL    HW178284   9.736  12.114   9.300
59420SOL    HW278285   9.695  12.023   9.170
59421SOL     OW78286  10.850  11.446   7.573
59421SOL    HW178287  10.789  11.371   7.596
59421SOL    HW278288  10.872  11.498   7.656
59422SOL     OW78289  10.613  12.010   7.490
59422SOL    HW178290  10.647  11.917   7.505
59422SOL    HW278291  10.631  12.037   7.395
59423SOL     OW78292  10.378  12.505   8.297
59423SOL    HW178293  10.385  12.421   8.242
59423SOL    HW278294  10.440  12.574   8.261
59424SOL     OW78295   9.629  11.982   8.397
59424SOL    HW178296   9.722  12.018   8.402
59424SOL    HW278297   9.623  11.897   8.449
59425SOL     OW78298   9.649  11.681   8.454
59425SOL    HW178299   9.597  11.598   8.437
59425SOL    HW278300   9.726  11.686   8.390
59426SOL     OW78301  10.448  11.552   9.126
59426SOL    HW178302  10.403  11.615   9.190
59426SOL    HW278303  10.541  11.583   9.109
59427SOL     OW78304  10.470  11.379   8.925
59427SOL    HW178305  10.470  11.443   9.002
59427SOL    HW278306  10.498  11.427   8.842
59428SOL     OW78307   9.318  12.498   7.648
59428SOL    HW178308   9.225  12.519   7.617
59428SOL    HW278309   9.328  12.399   7.661
59429SOL     OW78310   9.814  12.740   8.358
59429SOL    HW178311   9.880  12.814   8.367
59429SOL    HW278312   9.858  12.661   8.316
59430SOL     OW78313  10.312  11.968   8.686
59430SOL    HW178314  10.353  11.936   8.772
59430SOL    HW278315  10.216  11.941   8.683
59431SOL     OW78316   9.350  11.716   8.562
59431SOL    HW178317   9.435  11.683   8.521
59431SOL    HW278318   9.363  11.731   8.660
59432SOL     OW78319   9.499  11.692   9.170
59432SOL    HW178320   9.558  11.652   9.100
59432SOL    HW278321   9.441  11.763   9.129
59433SOL     OW78322  10.679  12.122   9.108
59433SOL    HW178323  10.718  12.211   9.128
59433SOL    HW278324  10.689  12.102   9.011
59434SOL     OW78325  10.125  11.744   7.773
59434SOL    HW178326  10.132  11.655   7.727
59434SOL    HW278327  10.031  11.778   7.765
59435SOL     OW78328  10.967  11.776   8.654
59435SOL    HW178329  10.929  11.707   8.716
59435SOL    HW278330  11.049  11.740   8.610
59436SOL     OW78331   9.562  12.736   9.192
59436SOL    HW178332   9.532  12.793   9.268
59436SOL    HW278333   9.555  12.639   9.218
59437SOL     OW78334   9.981  11.636   8.717
59437SOL    HW178335   9.947  11.547   8.687
59437SOL    HW278336  10.007  11.690   8.637
59438SOL     OW78337   9.783  11.672   7.639
59438SOL    HW178338   9.844  11.752   7.643
59438SOL    HW278339   9.688  11.703   7.646
59439SOL     OW78340   9.469  12.309   8.914
59439SOL    HW178341   9.491  12.248   8.990
59439SOL    HW278342   9.479  12.260   8.828
59440SOL     OW78343  10.657  12.231   8.682
59440SOL    HW178344  10.681  12.168   8.608
59440SOL    HW278345  10.567  12.271   8.664
59441SOL     OW78346  10.612  12.027   7.757
59441SOL    HW178347  10.526  11.996   7.799
59441SOL    HW278348  10.608  12.013   7.658
59442SOL     OW78349  10.562  12.903   8.576
59442SOL    HW178350  10.646  12.908   8.522
59442SOL    HW278351  10.539  12.807   8.594
59443SOL     OW78352   9.393  12.430   8.470
59443SOL    HW178353   9.388  12.429   8.570
59443SOL    HW278354   9.310  12.389   8.432
59444SOL     OW78355  11.036  11.307   7.971
59444SOL    HW178356  11.109  11.290   7.904
59444SOL    HW278357  11.005  11.220   8.009
59445SOL     OW78358   9.440  12.966   9.299
59445SOL    HW178359   9.399  12.892   9.352
59445SOL    HW278360   9.504  13.017   9.357
59446SOL     OW78361  10.590  12.099   8.120
59446SOL    HW178362  10.650  12.018   8.122
59446SOL    HW278363  10.630  12.168   8.060
59447SOL     OW78364  10.140  12.445   8.870
59447SOL    HW178365  10.135  12.478   8.965
59447SOL    HW278366  10.054  12.464   8.824
59448SOL     OW78367   9.982  12.788   7.602
59448SOL    HW178368   9.991  12.798   7.503
59448SOL    HW278369   9.942  12.699   7.623
59449SOL     OW78370  11.151  11.347   8.411
59449SOL    HW178371  11.190  11.262   8.375
59449SOL    HW278372  11.053  11.349   8.392
59450SOL     OW78373   9.573  11.498   8.168
59450SOL    HW178374   9.494  11.549   8.134
59450SOL    HW278375   9.564  11.483   8.266
59451SOL     OW78376  10.504  12.784   7.479
59451SOL    HW178377  10.510  12.691   7.516
59451SOL    HW278378  10.445  12.784   7.399
59452SOL     OW78379  10.132  12.174   8.820
59452SOL    HW178380  10.172  12.173   8.728
59452SOL    HW278381  10.142  12.266   8.860
59453SOL     OW78382  10.226  12.082   7.739
59453SOL    HW178383  10.289  12.120   7.671
59453SOL    HW278384  10.266  11.999   7.778
59454SOL     OW78385   9.682  12.460   8.938
59454SOL    HW178386   9.669  12.553   8.904
59454SOL    HW278387   9.598  12.408   8.925
59455SOL     OW78388  10.924  12.464   8.737
59455SOL    HW178389  10.984  12.467   8.817
59455SOL    HW278390  10.849  12.528   8.750
59456SOL     OW78391  10.349  12.270   8.144
59456SOL    HW178392  10.279  12.223   8.198
59456SOL    HW278393  10.408  12.202   8.101
59457SOL     OW78394  10.324  11.408   8.419
59457SOL    HW178395  10.316  11.372   8.326
59457SOL    HW278396  10.322  11.332   8.484
59458SOL     OW78397   9.900  12.659   7.939
59458SOL    HW178398   9.942  12.601   7.869
59458SOL    HW278399   9.856  12.738   7.895
59459SOL     OW78400  11.019  11.557   8.829
59459SOL    HW178401  11.092  11.626   8.833
59459SOL    HW278402  11.047  11.482   8.770
59460SOL     OW78403   9.565  12.520   7.738
59460SOL    HW178404   9.469  12.521   7.711
59460SOL    HW278405   9.577  12.573   7.822
59461SOL     OW78406   9.415  12.185   9.174
59461SOL    HW178407   9.338  12.152   9.228
59461SOL    HW278408   9.500  12.155   9.216
59462SOL     OW78409   9.982  11.375   8.937
59462SOL    HW178410  10.072  11.359   8.897
59462SOL    HW278411   9.990  11.380   9.036
59463SOL     OW78412   9.385  11.517   7.481
59463SOL    HW178413   9.293  11.489   7.452
59463SOL    HW278414   9.416  11.594   7.425
59464SOL     OW78415  10.750  12.028   8.846
59464SOL    HW178416  10.693  12.080   8.783
59464SOL    HW278417  10.846  12.040   8.822
59465SOL     OW78418   9.382  11.338   7.766
59465SOL    HW178419   9.365  11.421   7.712
59465SOL    HW278420   9.472  11.301   7.744
59466SOL     OW78421  10.493  12.507   7.567
59466SOL    HW178422  10.394  12.496   7.569
59466SOL    HW278423  10.527  12.522   7.660
59467SOL     OW78424   9.923  12.014   8.879
59467SOL    HW178425   9.979  12.095   8.862
59467SOL    HW278426   9.982  11.934   8.882
59468SOL     OW78427  10.026  11.737   9.156
59468SOL    HW178428  10.045  11.802   9.230
59468SOL    HW278429  10.086  11.657   9.165
59469SOL     OW78430  10.760  12.392   9.081
59469SOL    HW178431  10.751  12.382   9.180
59469SOL    HW278432  10.856  12.385   9.055
59470SOL     OW78433  10.984  12.055   8.702
59470SOL    HW178434  10.957  11.966   8.665
59470SOL    HW278435  10.985  12.123   8.629
59471SOL     OW78436  10.535  11.497   7.897
59471SOL    HW178437  10.600  11.423   7.886
59471SOL    HW278438  10.555  11.547   7.981
59472SOL     OW78439   9.904  11.917   8.100
59472SOL    HW178440   9.954  12.002   8.081
59472SOL    HW278441   9.816  11.919   8.052
59473SOL     OW78442  11.087  11.514   9.090
59473SOL    HW178443  11.070  11.545   8.996
59473SOL    HW278444  11.003  11.477   9.128
59474SOL     OW78445  11.040  12.106   8.965
59474SOL    HW178446  11.078  12.197   8.980
59474SOL    HW278447  11.032  12.089   8.866
59475SOL     OW78448  10.169  12.546   7.464
59475SOL    HW178449  10.123  12.561   7.552
59475SOL    HW278450  10.213  12.631   7.434
59476SOL     OW78451  10.169  12.128   8.309
59476SOL    HW178452  10.223  12.059   8.357
59476SOL    HW278453  10.137  12.197   8.375
59477SOL     OW78454  10.393  12.156   7.535
59477SOL    HW178455  10.370  12.209   7.453
59477SOL    HW278456  10.474  12.100   7.516
59478SOL     OW78457  11.171  12.741   8.299
59478SOL    HW178458  11.100  12.729   8.229
59478SOL    HW278459  11.172  12.662   8.359
59479SOL     OW78460   9.531  12.486   9.292
59479SOL    HW178461   9.466  12.413   9.271
59479SOL    HW278462   9.535  12.500   9.390
59480SOL     OW78463   9.389  12.412   8.101
59480SOL    HW178464   9.388  12.365   8.189
59480SOL    HW278465   9.471  12.384   8.050
59481SOL     OW78466   9.982  12.563   9.072
59481SOL    HW178467   9.904  12.513   9.110
59481SOL    HW278468   9.979  12.658   9.103
59482SOL     OW78469  11.134  11.364   8.675
59482SOL    HW178470  11.130  11.274   8.719
59482SOL    HW278471  11.137  11.353   8.576
59483SOL     OW78472   9.738  11.596   7.968
59483SOL    HW178473   9.768  11.524   7.906
59483SOL    HW278474   9.699  11.556   8.051
59484SOL     OW78475  11.015  12.659   8.552
59484SOL    HW178476  10.922  12.634   8.525
59484SOL    HW278477  11.041  12.609   8.634
59485SOL     OW78478   9.627  11.719   8.728
59485SOL    HW178479   9.665  11.660   8.800
59485SOL    HW278480   9.667  11.693   8.640
59486SOL     OW78481  10.734  11.386   8.560
59486SOL    HW178482  10.786  11.321   8.615
59486SOL    HW278483  10.685  11.449   8.621
59487SOL     OW78484  10.311  11.206   8.602
59487SOL    HW178485  10.248  11.134   8.571
59487SOL    HW278486  10.404  11.170   8.602
59488SOL     OW78487  10.080  12.502   7.749
59488SOL    HW178488  10.034  12.415   7.766
59488SOL    HW278489  10.171  12.499   7.790
59489SOL     OW78490   9.928  12.739   8.732
59489SOL    HW178491   9.923  12.821   8.789
59489SOL    HW278492  10.017  12.736   8.687
59490SOL     OW78493  10.662  11.224   7.616
59490SOL    HW178494  10.697  11.183   7.532
59490SOL    HW278495  10.572  11.186   7.636
59491SOL     OW78496  10.610  11.625   8.139
59491SOL    HW178497  10.551  11.705   8.143
59491SOL    HW278498  10.625  11.590   8.232
59492SOL     OW78499  10.903  11.393   8.330
59492SOL    HW178500  10.819  11.392   8.384
59492SOL    HW278501  10.905  11.476   8.274
59493SOL     OW78502   9.349  12.249   7.748
59493SOL    HW178503   9.448  12.238   7.739
59493SOL    HW278504   9.309  12.163   7.780
59494SOL     OW78505   9.540  11.800   9.423
59494SOL    HW178506   9.447  11.798   9.460
59494SOL    HW278507   9.541  11.761   9.331
59495SOL     OW78508   9.535  11.447  10.306
59495SOL    HW178509   9.570  11.430  10.398
59495SOL    HW278510   9.447  11.402  10.294
59496SOL     OW78511   9.329  11.540   9.957
59496SOL    HW178512   9.247  11.583   9.996
59496SOL    HW278513   9.301  11.467   9.894
59497SOL     OW78514   9.879  12.447  10.475
59497SOL    HW178515   9.786  12.440  10.438
59497SOL    HW278516   9.890  12.536  10.519
59498SOL     OW78517  10.865  12.683  10.013
59498SOL    HW178518  10.808  12.667  10.094
59498SOL    HW278519  10.806  12.693   9.933
59499SOL     OW78520  10.445  11.875  10.027
59499SOL    HW178521  10.502  11.953  10.002
59499SOL    HW278522  10.385  11.901  10.103
59500SOL     OW78523  11.065  11.779   9.541
59500SOL    HW178524  11.053  11.766   9.442
59500SOL    HW278525  11.035  11.698   9.590
59501SOL     OW78526  10.078  12.316  10.333
59501SOL    HW178527  10.000  12.333  10.393
59501SOL    HW278528  10.112  12.403  10.297
59502SOL     OW78529  10.160  11.970  11.133
59502SOL    HW178530  10.156  12.046  11.198
59502SOL    HW278531  10.182  12.006  11.042
59503SOL     OW78532   9.995  12.184   9.975
59503SOL    HW178533  10.064  12.168  10.045
59503SOL    HW278534   9.922  12.241  10.013
59504SOL     OW78535   9.996  12.333  11.113
59504SOL    HW178536  10.056  12.412  11.127
59504SOL    HW278537   9.910  12.364  11.072
59505SOL     OW78538   9.645  12.607  10.371
59505SOL    HW178539   9.567  12.576  10.318
59505SOL    HW278540   9.703  12.665  10.314
59506SOL     OW78541  10.770  12.677  10.649
59506SOL    HW178542  10.794  12.771  10.675
59506SOL    HW278543  10.754  12.623  10.731
59507SOL     OW78544   9.748  11.564  10.809
59507SOL    HW178545   9.830  11.508  10.818
59507SOL    HW278546   9.667  11.506  10.813
59508SOL     OW78547  10.913  11.619  10.047
59508SOL    HW178548  10.839  11.665   9.997
59508SOL    HW278549  10.964  11.687  10.100
59509SOL     OW78550  10.437  12.513  11.000
59509SOL    HW178551  10.484  12.513  11.088
59509SOL    HW278552  10.389  12.426  10.989
59510SOL     OW78553   9.540  12.606   9.848
59510SOL    HW178554   9.514  12.702   9.848
59510SOL    HW278555   9.469  12.552   9.893
59511SOL     OW78556   9.550  12.263  10.196
59511SOL    HW178557   9.564  12.179  10.248
59511SOL    HW278558   9.495  12.327  10.251
59512SOL     OW78559   9.916  12.136   9.433
59512SOL    HW178560   9.923  12.220   9.379
59512SOL    HW278561   9.962  12.149   9.521
59513SOL     OW78562  10.904  11.286  10.790
59513SOL    HW178563  10.886  11.353  10.718
59513SOL    HW278564  10.901  11.332  10.879
59514SOL     OW78565   9.432  11.815   9.873
59514SOL    HW178566   9.387  11.727   9.890
59514SOL    HW278567   9.431  11.869   9.957
59515SOL     OW78568   9.337  12.768   9.427
59515SOL    HW178569   9.318  12.672   9.448
59515SOL    HW278570   9.304  12.826   9.502
59516SOL     OW78571  10.999  12.094   9.922
59516SOL    HW178572  11.094  12.065   9.930
59516SOL    HW278573  10.991  12.159   9.847
59517SOL     OW78574  10.951  12.280   9.742
59517SOL    HW178575  11.037  12.282   9.690
59517SOL    HW278576  10.965  12.327   9.830
59518SOL     OW78577   9.423  11.909  10.907
59518SOL    HW178578   9.511  11.896  10.952
59518SOL    HW278579   9.410  12.006  10.885
59519SOL     OW78580   9.923  12.537  10.036
59519SOL    HW178581   9.874  12.450  10.045
59519SOL    HW278582   9.900  12.580   9.949
59520SOL     OW78583  10.603  12.400  10.733
59520SOL    HW178584  10.640  12.327  10.675
59520SOL    HW278585  10.655  12.405  10.818
59521SOL     OW78586  10.119  11.176   9.812
59521SOL    HW178587  10.159  11.267   9.803
59521SOL    HW278588  10.019  11.184   9.818
59522SOL     OW78589   9.507  12.148  10.574
59522SOL    HW178590   9.596  12.103  10.560
59522SOL    HW278591   9.434  12.083  10.555
59523SOL     OW78592  10.835  12.171   9.500
59523SOL    HW178593  10.772  12.095   9.513
59523SOL    HW278594  10.883  12.189   9.586
59524SOL     OW78595   9.627  11.423  11.111
59524SOL    HW178596   9.698  11.494  11.117
59524SOL    HW278597   9.539  11.462  11.139
59525SOL     OW78598  10.776  12.589  10.263
59525SOL    HW178599  10.717  12.595  10.343
59525SOL    HW278600  10.761  12.501  10.217
59526SOL     OW78601   9.908  11.901   9.580
59526SOL    HW178602   9.932  11.970   9.512
59526SOL    HW278603   9.830  11.934   9.634
59527SOL     OW78604  10.591  11.517  10.254
59527SOL    HW178605  10.505  11.467  10.241
59527SOL    HW278606  10.653  11.463  10.310
59528SOL     OW78607  10.886  12.834   9.617
59528SOL    HW178608  10.975  12.880   9.620
59528SOL    HW278609  10.865  12.810   9.522
59529SOL     OW78610  10.117  11.777  10.775
59529SOL    HW178611  10.070  11.774  10.864
59529SOL    HW278612  10.066  11.722  10.709
59530SOL     OW78613  10.704  11.641  10.984
59530SOL    HW178614  10.684  11.684  11.072
59530SOL    HW278615  10.782  11.579  10.993
59531SOL     OW78616  10.283  12.062  10.882
59531SOL    HW178617  10.329  11.978  10.853
59531SOL    HW278618  10.227  12.096  10.807
59532SOL     OW78619  10.301  11.582  10.552
59532SOL    HW178620  10.224  11.616  10.606
59532SOL    HW278621  10.267  11.531  10.473
59533SOL     OW78622  10.351  11.873   9.739
59533SOL    HW178623  10.377  11.869   9.835
59533SOL    HW278624  10.266  11.822   9.725
59534SOL     OW78625   9.386  11.983  10.099
59534SOL    HW178626   9.485  11.971  10.108
59534SOL    HW278627   9.362  12.078  10.120
59535SOL     OW78628  10.175  11.520   9.505
59535SOL    HW178629  10.234  11.583   9.456
59535SOL    HW278630  10.194  11.426   9.476
59536SOL     OW78631  11.029  11.757  11.141
59536SOL    HW178632  11.003  11.846  11.105
59536SOL    HW278633  11.027  11.689  11.068
59537SOL     OW78634  10.672  12.316   9.855
59537SOL    HW178635  10.755  12.287   9.807
59537SOL    HW278636  10.623  12.383   9.799
59538SOL     OW78637   9.860  11.368  10.195
59538SOL    HW178638   9.855  11.363  10.295
59538SOL    HW278639   9.862  11.464  10.166
59539SOL     OW78640  10.318  12.628   9.787
59539SOL    HW178641  10.272  12.700   9.735
59539SOL    HW278642  10.314  12.648   9.885
59540SOL     OW78643  11.105  12.238  10.183
59540SOL    HW178644  11.043  12.223  10.107
59540SOL    HW278645  11.053  12.249  10.268
59541SOL     OW78646  10.537  12.722  10.816
59541SOL    HW178647  10.543  12.645  10.880
59541SOL    HW278648  10.485  12.696  10.736
59542SOL     OW78649   9.631  12.115   9.552
59542SOL    HW178650   9.713  12.154   9.510
59542SOL    HW278651   9.604  12.033   9.503
59543SOL     OW78652  10.768  11.907  10.038
59543SOL    HW178653  10.763  11.842  10.113
59543SOL    HW278654  10.848  11.966  10.051
59544SOL     OW78655   9.771  12.438  11.037
59544SOL    HW178656   9.721  12.439  10.951
59544SOL    HW278657   9.708  12.420  11.113
59545SOL     OW78658   9.512  11.457  10.808
59545SOL    HW178659   9.432  11.517  10.795
59545SOL    HW278660   9.502  11.408  10.894
59546SOL     OW78661  10.942  12.549   9.391
59546SOL    HW178662  10.910  12.643   9.381
59546SOL    HW278663  10.866  12.486   9.379
59547SOL     OW78664  10.710  11.279   9.736
59547SOL    HW178665  10.686  11.242   9.646
59547SOL    HW278666  10.809  11.295   9.740
59548SOL     OW78667   9.692  11.872   9.790
59548SOL    HW178668   9.737  11.782   9.787
59548SOL    HW278669   9.598  11.861   9.823
59549SOL     OW78670  10.857  11.394  11.039
59549SOL    HW178671  10.852  11.431  11.131
59549SOL    HW278672  10.785  11.325  11.027
59550SOL     OW78673   9.924  11.294   9.427
59550SOL    HW178674  10.022  11.272   9.434
59550SOL    HW278675   9.893  11.277   9.334
59551SOL     OW78676  10.091  11.436  11.059
59551SOL    HW178677  10.158  11.375  11.102
59551SOL    HW278678  10.018  11.455  11.124
59552SOL     OW78679  10.661  11.762  10.743
59552SOL    HW178680  10.689  11.719  10.828
59552SOL    HW278681  10.686  11.858  10.744
59553SOL     OW78682  10.113  12.574  10.234
59553SOL    HW178683  10.203  12.588  10.192
59553SOL    HW278684  10.042  12.576  10.163
59554SOL     OW78685  10.232  11.675  10.209
59554SOL    HW178686  10.207  11.666  10.113
59554SOL    HW278687  10.280  11.593  10.240
59555SOL     OW78688   9.849  11.236   9.822
59555SOL    HW178689   9.768  11.237   9.880
59555SOL    HW278690   9.852  11.319   9.767
59556SOL     OW78691  10.744  12.360   9.351
59556SOL    HW178692  10.776  12.284   9.408
59556SOL    HW278693  10.652  12.387   9.381
59557SOL     OW78694   9.607  11.207   9.481
59557SOL    HW178695   9.656  11.291   9.460
59557SOL    HW278696   9.669  11.142   9.526
59558SOL     OW78697  10.245  11.408   9.790
59558SOL    HW178698  10.197  11.449   9.712
59558SOL    HW278699  10.344  11.406   9.771
59559SOL     OW78700  10.386  11.855  10.774
59559SOL    HW178701  10.306  11.794  10.777
59559SOL    HW278702  10.467  11.802  10.750
59560SOL     OW78703  10.537  12.742  10.103
59560SOL    HW178704  10.558  12.816  10.038
59560SOL    HW278705  10.605  12.742  10.176
59561SOL     OW78706   9.769  12.324  10.051
59561SOL    HW178707   9.698  12.297  10.116
59561SOL    HW278708   9.743  12.296   9.958
59562SOL     OW78709  10.342  11.721   9.326
59562SOL    HW178710  10.301  11.803   9.287
59562SOL    HW278711  10.406  11.747   9.399
59563SOL     OW78712   9.388  11.728  10.696
59563SOL    HW178713   9.480  11.727  10.655
59563SOL    HW278714   9.382  11.802  10.763
59564SOL     OW78715   9.871  11.394  10.457
59564SOL    HW178716   9.909  11.310  10.494
59564SOL    HW278717   9.783  11.413  10.501
59565SOL     OW78718  10.176  11.626   9.952
59565SOL    HW178719  10.144  11.698   9.890
59565SOL    HW278720  10.200  11.545   9.899
59566SOL     OW78721  10.327  11.211  10.063
59566SOL    HW178722  10.255  11.216   9.994
59566SOL    HW278723  10.303  11.142  10.132
59567SOL     OW78724  10.739  12.345  10.177
59567SOL    HW178725  10.684  12.261  10.170
59567SOL    HW278726  10.765  12.374  10.085
59568SOL     OW78727  10.776  11.762  10.302
59568SOL    HW178728  10.746  11.667  10.309
59568SOL    HW278729  10.849  11.778  10.368
59569SOL     OW78730  11.167  12.005   9.687
59569SOL    HW178731  11.209  11.941   9.751
59569SOL    HW278732  11.129  11.954   9.609
59570SOL     OW78733   9.798  12.557   9.484
59570SOL    HW178734   9.711  12.542   9.531
59570SOL    HW278735   9.781  12.583   9.389
59571SOL     OW78736  10.974  12.452   9.967
59571SOL    HW178737  11.073  12.460   9.981
59571SOL    HW278738  10.929  12.536   9.998
59572SOL     OW78739  10.700  11.747   9.388
59572SOL    HW178740  10.646  11.726   9.469
59572SOL    HW278741  10.791  11.706   9.397
59573SOL     OW78742   9.837  11.428   9.638
59573SOL    HW178743   9.864  11.369   9.563
59573SOL    HW278744   9.837  11.523   9.607
59574SOL     OW78745  11.064  12.395  10.898
59574SOL    HW178746  11.155  12.356  10.885
59574SOL    HW278747  11.072  12.491  10.922
59575SOL     OW78748  10.374  12.519  10.650
59575SOL    HW178749  10.294  12.496  10.705
59575SOL    HW278750  10.457  12.493  10.699
59576SOL     OW78751  10.421  12.367  10.410
59576SOL    HW178752  10.381  12.411  10.491
59576SOL    HW278753  10.380  12.404  10.327
59577SOL     OW78754  10.948  12.271  10.389
59577SOL    HW178755  10.953  12.352  10.448
59577SOL    HW278756  10.862  12.273  10.338
59578SOL     OW78757  10.225  11.261  10.712
59578SOL    HW178758  10.250  11.241  10.617
59578SOL    HW278759  10.297  11.317  10.754
59579SOL     OW78760  10.290  12.288  11.029
59579SOL    HW178761  10.191  12.294  11.039
59579SOL    HW278762  10.313  12.208  10.973
59580SOL     OW78763  10.015  12.222   9.678
59580SOL    HW178764  10.001  12.229   9.777
59580SOL    HW278765  10.099  12.171   9.660
59581SOL     OW78766   9.720  11.985  10.561
59581SOL    HW178767   9.806  11.997  10.611
59581SOL    HW278768   9.678  11.898  10.588
59582SOL     OW78769  10.584  11.558  10.572
59582SOL    HW178770  10.605  11.632  10.636
59582SOL    HW278771  10.495  11.575  10.529
59583SOL     OW78772   9.374  12.736  10.641
59583SOL    HW178773   9.328  12.818  10.607
59583SOL    HW278774   9.472  12.755  10.650
59584SOL     OW78775   9.677  12.272   9.811
59584SOL    HW178776   9.670  12.355   9.755
59584SOL    HW278777   9.681  12.192   9.751
59585SOL     OW78778   9.876  11.709  10.175
59585SOL    HW178779   9.888  11.775  10.101
59585SOL    HW278780   9.922  11.743  10.258
59586SOL     OW78781  10.562  12.520   9.698
59586SOL    HW178782  10.612  12.597   9.738
59586SOL    HW278783  10.467  12.522   9.730
59587SOL     OW78784  10.582  12.617  10.452
59587SOL    HW178785  10.629  12.630  10.539
59587SOL    HW278786  10.516  12.543  10.461
59588SOL     OW78787  10.892  11.811   9.782
59588SOL    HW178788  10.861  11.872   9.855
59588SOL    HW278789  10.942  11.863   9.713
59589SOL     OW78790   9.664  12.682  10.639
59589SOL    HW178791   9.643  12.638  10.552
59589SOL    HW278792   9.761  12.708  10.642
59590SOL     OW78793   9.712  11.923  10.908
59590SOL    HW178794   9.780  11.978  10.861
59590SOL    HW278795   9.752  11.835  10.935
59591SOL     OW78796  10.897  11.951  10.980
59591SOL    HW178797  10.805  11.989  10.975
59591SOL    HW278798  10.957  11.998  10.915
59592SOL     OW78799  10.323  11.277  11.080
59592SOL    HW178800  10.329  11.362  11.028
59592SOL    HW278801  10.355  11.201  11.023
59593SOL     OW78802   9.814  11.222  11.050
59593SOL    HW178803   9.772  11.165  10.980
59593SOL    HW278804   9.748  11.291  11.082
59594SOL     OW78805   9.883  12.042  10.339
59594SOL    HW178806   9.927  12.131  10.330
59594SOL    HW278807   9.820  12.042  10.416
59595SOL     OW78808  10.670  12.034  10.355
59595SOL    HW178809  10.595  12.034  10.289
59595SOL    HW278810  10.707  11.942  10.364
59596SOL     OW78811  10.519  11.697   9.585
59596SOL    HW178812  10.532  11.613   9.639
59596SOL    HW278813  10.490  11.771   9.645
59597SOL     OW78814   9.617  11.385  10.541
59597SOL    HW178815   9.594  11.422  10.631
59597SOL    HW278816   9.587  11.290  10.535
59598SOL     OW78817   9.347  12.482  10.592
59598SOL    HW178818   9.400  12.433  10.660
59598SOL    HW278819   9.369  12.580  10.597
59599SOL     OW78820  10.042  11.806  10.374
59599SOL    HW178821  10.101  11.780  10.298
59599SOL    HW278822  10.014  11.902  10.363
59600SOL     OW78823  11.038  12.107  11.164
59600SOL    HW178824  10.992  12.100  11.075
59600SOL    HW278825  10.976  12.151  11.230
59601SOL     OW78826   9.617  11.235   9.928
59601SOL    HW178827   9.606  11.329   9.961
59601SOL    HW278828   9.612  11.172  10.005
59602SOL     OW78829  10.932  11.539   9.684
59602SOL    HW178830  10.934  11.463   9.748
59602SOL    HW278831  10.884  11.616   9.724
59603SOL     OW78832  10.333  11.938  10.276
59603SOL    HW178833  10.348  11.959  10.372
59603SOL    HW278834  10.303  11.843  10.267
59604SOL     OW78835  11.169  12.690  10.915
59604SOL    HW178836  11.183  12.717  10.820
59604SOL    HW278837  11.252  12.712  10.968
59605SOL     OW78838   9.660  12.070  11.114
59605SOL    HW178839   9.736  12.114  11.162
59605SOL    HW278840   9.695  12.023  11.032
59606SOL     OW78841  10.850  11.446   9.435
59606SOL    HW178842  10.789  11.371   9.458
59606SOL    HW278843  10.872  11.498   9.518
59607SOL     OW78844  10.613  12.010   9.352
59607SOL    HW178845  10.647  11.917   9.367
59607SOL    HW278846  10.631  12.037   9.257
59608SOL     OW78847   9.629  11.982  10.259
59608SOL    HW178848   9.722  12.018  10.264
59608SOL    HW278849   9.623  11.897  10.311
59609SOL     OW78850   9.649  11.681  10.316
59609SOL    HW178851   9.597  11.598  10.299
59609SOL    HW278852   9.726  11.686  10.252
59610SOL     OW78853  10.448  11.552  10.988
59610SOL    HW178854  10.403  11.615  11.052
59610SOL    HW278855  10.541  11.583  10.971
59611SOL     OW78856  10.470  11.379  10.787
59611SOL    HW178857  10.470  11.443  10.864
59611SOL    HW278858  10.498  11.427  10.704
59612SOL     OW78859   9.318  12.498   9.510
59612SOL    HW178860   9.225  12.519   9.479
59612SOL    HW278861   9.328  12.399   9.523
59613SOL     OW78862   9.814  12.740  10.220
59613SOL    HW178863   9.880  12.814  10.229
59613SOL    HW278864   9.858  12.661  10.178
59614SOL     OW78865  10.312  11.968  10.548
59614SOL    HW178866  10.353  11.936  10.634
59614SOL    HW278867  10.216  11.941  10.545
59615SOL     OW78868   9.350  11.716  10.424
59615SOL    HW178869   9.435  11.683  10.383
59615SOL    HW278870   9.363  11.731  10.522
59616SOL     OW78871   9.499  11.692  11.032
59616SOL    HW178872   9.558  11.652  10.962
59616SOL    HW278873   9.441  11.763  10.991
59617SOL     OW78874  10.679  12.122  10.970
59617SOL    HW178875  10.718  12.211  10.990
59617SOL    HW278876  10.689  12.102  10.873
59618SOL     OW78877  10.125  11.744   9.635
59618SOL    HW178878  10.132  11.655   9.589
59618SOL    HW278879  10.031  11.778   9.627
59619SOL     OW78880  10.967  11.776  10.516
59619SOL    HW178881  10.929  11.707  10.578
59619SOL    HW278882  11.049  11.740  10.472
59620SOL     OW78883   9.562  12.736  11.054
59620SOL    HW178884   9.532  12.793  11.130
59620SOL    HW278885   9.555  12.639  11.080
59621SOL     OW78886   9.981  11.636  10.579
59621SOL    HW178887   9.947  11.547  10.549
59621SOL    HW278888  10.007  11.690  10.499
59622SOL     OW78889   9.783  11.672   9.501
59622SOL    HW178890   9.844  11.752   9.505
59622SOL    HW278891   9.688  11.703   9.508
59623SOL     OW78892   9.469  12.309  10.776
59623SOL    HW178893   9.491  12.248  10.852
59623SOL    HW278894   9.479  12.260  10.690
59624SOL     OW78895  10.657  12.231  10.544
59624SOL    HW178896  10.681  12.168  10.470
59624SOL    HW278897  10.567  12.271  10.526
59625SOL     OW78898  10.612  12.027   9.619
59625SOL    HW178899  10.526  11.996   9.661
59625SOL    HW278900  10.608  12.013   9.520
59626SOL     OW78901  10.562  12.903  10.438
59626SOL    HW178902  10.646  12.908  10.384
59626SOL    HW278903  10.539  12.807  10.456
59627SOL     OW78904   9.393  12.430  10.332
59627SOL    HW178905   9.388  12.429  10.432
59627SOL    HW278906   9.310  12.389  10.294
59628SOL     OW78907  11.036  11.307   9.833
59628SOL    HW178908  11.109  11.290   9.766
59628SOL    HW278909  11.005  11.220   9.871
59629SOL     OW78910   9.440  12.966  11.161
59629SOL    HW178911   9.399  12.892  11.214
59629SOL    HW278912   9.504  13.017  11.219
59630SOL     OW78913  10.590  12.099   9.982
59630SOL    HW178914  10.650  12.018   9.984
59630SOL    HW278915  10.630  12.168   9.922
59631SOL     OW78916  10.140  12.445  10.732
59631SOL    HW178917  10.135  12.478  10.827
59631SOL    HW278918  10.054  12.464  10.686
59632SOL     OW78919   9.982  12.788   9.464
59632SOL    HW178920   9.991  12.798   9.365
59632SOL    HW278921   9.942  12.699   9.485
59633SOL     OW78922  11.151  11.347  10.273
59633SOL    HW178923  11.190  11.262  10.237
59633SOL    HW278924  11.053  11.349  10.254
59634SOL     OW78925   9.573  11.498  10.030
59634SOL    HW178926   9.494  11.549   9.996
59634SOL    HW278927   9.564  11.483  10.128
59635SOL     OW78928  10.504  12.784   9.341
59635SOL    HW178929  10.510  12.691   9.378
59635SOL    HW278930  10.445  12.784   9.261
59636SOL     OW78931  10.132  12.174  10.682
59636SOL    HW178932  10.172  12.173  10.590
59636SOL    HW278933  10.142  12.266  10.722
59637SOL     OW78934  10.226  12.082   9.601
59637SOL    HW178935  10.289  12.120   9.533
59637SOL    HW278936  10.266  11.999   9.640
59638SOL     OW78937   9.682  12.460  10.800
59638SOL    HW178938   9.669  12.553  10.766
59638SOL    HW278939   9.598  12.408  10.787
59639SOL     OW78940  10.924  12.464  10.599
59639SOL    HW178941  10.984  12.467  10.679
59639SOL    HW278942  10.849  12.528  10.612
59640SOL     OW78943  10.349  12.270  10.006
59640SOL    HW178944  10.279  12.223  10.060
59640SOL    HW278945  10.408  12.202   9.963
59641SOL     OW78946  10.324  11.408  10.281
59641SOL    HW178947  10.316  11.372  10.188
59641SOL    HW278948  10.322  11.332  10.346
59642SOL     OW78949   9.900  12.659   9.801
59642SOL    HW178950   9.942  12.601   9.731
59642SOL    HW278951   9.856  12.738   9.757
59643SOL     OW78952  11.019  11.557  10.691
59643SOL    HW178953  11.092  11.626  10.695
59643SOL    HW278954  11.047  11.482  10.632
59644SOL     OW78955   9.565  12.520   9.600
59644SOL    HW178956   9.469  12.521   9.573
59644SOL    HW278957   9.577  12.573   9.684
59645SOL     OW78958   9.415  12.185  11.036
59645SOL    HW178959   9.338  12.152  11.090
59645SOL    HW278960   9.500  12.155  11.078
59646SOL     OW78961   9.982  11.375  10.799
59646SOL    HW178962  10.072  11.359  10.759
59646SOL    HW278963   9.990  11.380  10.898
59647SOL     OW78964   9.385  11.517   9.343
59647SOL    HW178965   9.293  11.489   9.314
59647SOL    HW278966   9.416  11.594   9.287
59648SOL     OW78967  10.750  12.028  10.708
59648SOL    HW178968  10.693  12.080  10.645
59648SOL    HW278969  10.846  12.040  10.684
59649SOL     OW78970   9.382  11.338   9.628
59649SOL    HW178971   9.365  11.421   9.574
59649SOL    HW278972   9.472  11.301   9.606
59650SOL     OW78973  10.493  12.507   9.429
59650SOL    HW178974  10.394  12.496   9.431
59650SOL    HW278975  10.527  12.522   9.522
59651SOL     OW78976   9.923  12.014  10.741
59651SOL    HW178977   9.979  12.095  10.724
59651SOL    HW278978   9.982  11.934  10.744
59652SOL     OW78979  10.026  11.737  11.018
59652SOL    HW178980  10.045  11.802  11.092
59652SOL    HW278981  10.086  11.657  11.027
59653SOL     OW78982  10.760  12.392  10.943
59653SOL    HW178983  10.751  12.382  11.042
59653SOL    HW278984  10.856  12.385  10.917
59654SOL     OW78985  10.984  12.055  10.564
59654SOL    HW178986  10.957  11.966  10.527
59654SOL    HW278987  10.985  12.123  10.491
59655SOL     OW78988  10.535  11.497   9.759
59655SOL    HW178989  10.600  11.423   9.748
59655SOL    HW278990  10.555  11.547   9.843
59656SOL     OW78991   9.904  11.917   9.962
59656SOL    HW178992   9.954  12.002   9.943
59656SOL    HW278993   9.816  11.919   9.914
59657SOL     OW78994  11.087  11.514  10.952
59657SOL    HW178995  11.070  11.545  10.858
59657SOL    HW278996  11.003  11.477  10.990
59658SOL     OW78997  11.040  12.106  10.827
59658SOL    HW178998  11.078  12.197  10.842
59658SOL    HW278999  11.032  12.089  10.728
59659SOL     OW79000  10.169  12.546   9.326
59659SOL    HW179001  10.123  12.561   9.414
59659SOL    HW279002  10.213  12.631   9.296
59660SOL     OW79003  10.169  12.128  10.171
59660SOL    HW179004  10.223  12.059  10.219
59660SOL    HW279005  10.137  12.197  10.237
59661SOL     OW79006  10.393  12.156   9.397
59661SOL    HW179007  10.370  12.209   9.315
59661SOL    HW279008  10.474  12.100   9.378
59662SOL     OW79009  11.171  12.741  10.161
59662SOL    HW179010  11.100  12.729  10.091
59662SOL    HW279011  11.172  12.662  10.221
59663SOL     OW79012   9.531  12.486  11.154
59663SOL    HW179013   9.466  12.413  11.133
59663SOL    HW279014   9.535  12.500  11.252
59664SOL     OW79015   9.389  12.412   9.963
59664SOL    HW179016   9.388  12.365  10.051
59664SOL    HW279017   9.471  12.384   9.912
59665SOL     OW79018   9.982  12.563  10.934
59665SOL    HW179019   9.904  12.513  10.972
59665SOL    HW279020   9.979  12.658  10.965
59666SOL     OW79021  11.134  11.364  10.537
59666SOL    HW179022  11.130  11.274  10.581
59666SOL    HW279023  11.137  11.353  10.438
59667SOL     OW79024   9.738  11.596   9.830
59667SOL    HW179025   9.768  11.524   9.768
59667SOL    HW279026   9.699  11.556   9.913
59668SOL     OW79027  11.015  12.659  10.414
59668SOL    HW179028  10.922  12.634  10.387
59668SOL    HW279029  11.041  12.609  10.496
59669SOL     OW79030   9.627  11.719  10.590
59669SOL    HW179031   9.665  11.660  10.662
59669SOL    HW279032   9.667  11.693  10.502
59670SOL     OW79033  10.734  11.386  10.422
59670SOL    HW179034  10.786  11.321  10.477
59670SOL    HW279035  10.685  11.449  10.483
59671SOL     OW79036  10.311  11.206  10.464
59671SOL    HW179037  10.248  11.134  10.433
59671SOL    HW279038  10.404  11.170  10.464
59672SOL     OW79039  10.080  12.502   9.611
59672SOL    HW179040  10.034  12.415   9.628
59672SOL    HW279041  10.171  12.499   9.652
59673SOL     OW79042   9.928  12.739  10.594
59673SOL    HW179043   9.923  12.821  10.651
59673SOL    HW279044  10.017  12.736  10.549
59674SOL     OW79045  10.662  11.224   9.478
59674SOL    HW179046  10.697  11.183   9.394
59674SOL    HW279047  10.572  11.186   9.498
59675SOL     OW79048  10.610  11.625  10.001
59675SOL    HW179049  10.551  11.705  10.005
59675SOL    HW279050  10.625  11.590  10.094
59676SOL     OW79051  10.903  11.393  10.192
59676SOL    HW179052  10.819  11.392  10.246
59676SOL    HW279053  10.905  11.476  10.136
59677SOL     OW79054   9.349  12.249   9.610
59677SOL    HW179055   9.448  12.238   9.601
59677SOL    HW279056   9.309  12.163   9.642
59678SOL     OW79057   9.540  11.800  11.285
59678SOL    HW179058   9.447  11.798  11.322
59678SOL    HW279059   9.541  11.761  11.193
59679SOL     OW79060   9.535  11.447  12.168
59679SOL    HW179061   9.570  11.430  12.260
59679SOL    HW279062   9.447  11.402  12.156
59680SOL     OW79063   9.329  11.540  11.819
59680SOL    HW179064   9.247  11.583  11.858
59680SOL    HW279065   9.301  11.467  11.756
59681SOL     OW79066   9.879  12.447  12.337
59681SOL    HW179067   9.786  12.440  12.300
59681SOL    HW279068   9.890  12.536  12.381
59682SOL     OW79069  10.865  12.683  11.875
59682SOL    HW179070  10.808  12.667  11.956
59682SOL    HW279071  10.806  12.693  11.795
59683SOL     OW79072  10.445  11.875  11.889
59683SOL    HW179073  10.502  11.953  11.864
59683SOL    HW279074  10.385  11.901  11.965
59684SOL     OW79075  11.065  11.779  11.403
59684SOL    HW179076  11.053  11.766  11.304
59684SOL    HW279077  11.035  11.698  11.452
59685SOL     OW79078  10.078  12.316  12.195
59685SOL    HW179079  10.000  12.333  12.255
59685SOL    HW279080  10.112  12.403  12.159
59686SOL     OW79081   9.995  12.184  11.837
59686SOL    HW179082  10.064  12.168  11.907
59686SOL    HW279083   9.922  12.241  11.875
59687SOL     OW79084   9.645  12.607  12.233
59687SOL    HW179085   9.567  12.576  12.180
59687SOL    HW279086   9.703  12.665  12.176
59688SOL     OW79087  10.770  12.677  12.511
59688SOL    HW179088  10.794  12.771  12.537
59688SOL    HW279089  10.754  12.623  12.593
59689SOL     OW79090   9.748  11.564  12.671
59689SOL    HW179091   9.830  11.508  12.680
59689SOL    HW279092   9.667  11.506  12.675
59690SOL     OW79093  10.913  11.619  11.909
59690SOL    HW179094  10.839  11.665  11.859
59690SOL    HW279095  10.964  11.687  11.962
59691SOL     OW79096   9.540  12.606  11.710
59691SOL    HW179097   9.514  12.702  11.710
59691SOL    HW279098   9.469  12.552  11.755
59692SOL     OW79099   9.550  12.263  12.058
59692SOL    HW179100   9.564  12.179  12.110
59692SOL    HW279101   9.495  12.327  12.113
59693SOL     OW79102   9.916  12.136  11.295
59693SOL    HW179103   9.923  12.220  11.241
59693SOL    HW279104   9.962  12.149  11.383
59694SOL     OW79105  10.904  11.286  12.652
59694SOL    HW179106  10.886  11.353  12.580
59694SOL    HW279107  10.901  11.332  12.741
59695SOL     OW79108   9.432  11.815  11.735
59695SOL    HW179109   9.387  11.727  11.752
59695SOL    HW279110   9.431  11.869  11.819
59696SOL     OW79111   9.337  12.768  11.289
59696SOL    HW179112   9.318  12.672  11.310
59696SOL    HW279113   9.304  12.826  11.364
59697SOL     OW79114  10.999  12.094  11.784
59697SOL    HW179115  11.094  12.065  11.792
59697SOL    HW279116  10.991  12.159  11.709
59698SOL     OW79117  10.951  12.280  11.604
59698SOL    HW179118  11.037  12.282  11.552
59698SOL    HW279119  10.965  12.327  11.692
59699SOL     OW79120   9.423  11.909  12.769
59699SOL    HW179121   9.511  11.896  12.814
59699SOL    HW279122   9.410  12.006  12.747
59700SOL     OW79123   9.923  12.537  11.898
59700SOL    HW179124   9.874  12.450  11.907
59700SOL    HW279125   9.900  12.580  11.811
59701SOL     OW79126  10.603  12.400  12.595
59701SOL    HW179127  10.640  12.327  12.537
59701SOL    HW279128  10.655  12.405  12.680
59702SOL     OW79129  10.119  11.176  11.674
59702SOL    HW179130  10.159  11.267  11.665
59702SOL    HW279131  10.019  11.184  11.680
59703SOL     OW79132   9.507  12.148  12.436
59703SOL    HW179133   9.596  12.103  12.422
59703SOL    HW279134   9.434  12.083  12.417
59704SOL     OW79135  10.835  12.171  11.362
59704SOL    HW179136  10.772  12.095  11.375
59704SOL    HW279137  10.883  12.189  11.448
59705SOL     OW79138  10.776  12.589  12.125
59705SOL    HW179139  10.717  12.595  12.205
59705SOL    HW279140  10.761  12.501  12.079
59706SOL     OW79141   9.908  11.901  11.442
59706SOL    HW179142   9.932  11.970  11.374
59706SOL    HW279143   9.830  11.934  11.496
59707SOL     OW79144  10.591  11.517  12.116
59707SOL    HW179145  10.505  11.467  12.103
59707SOL    HW279146  10.653  11.463  12.172
59708SOL     OW79147  10.886  12.834  11.479
59708SOL    HW179148  10.975  12.880  11.482
59708SOL    HW279149  10.865  12.810  11.384
59709SOL     OW79150  10.117  11.777  12.637
59709SOL    HW179151  10.070  11.774  12.726
59709SOL    HW279152  10.066  11.722  12.571
59710SOL     OW79153  10.283  12.062  12.744
59710SOL    HW179154  10.329  11.978  12.715
59710SOL    HW279155  10.227  12.096  12.669
59711SOL     OW79156  10.301  11.582  12.414
59711SOL    HW179157  10.224  11.616  12.468
59711SOL    HW279158  10.267  11.531  12.335
59712SOL     OW79159  10.351  11.873  11.601
59712SOL    HW179160  10.377  11.869  11.697
59712SOL    HW279161  10.266  11.822  11.587
59713SOL     OW79162   9.386  11.983  11.961
59713SOL    HW179163   9.485  11.971  11.970
59713SOL    HW279164   9.362  12.078  11.982
59714SOL     OW79165  10.175  11.520  11.367
59714SOL    HW179166  10.234  11.583  11.318
59714SOL    HW279167  10.194  11.426  11.338
59715SOL     OW79168  10.672  12.316  11.717
59715SOL    HW179169  10.755  12.287  11.669
59715SOL    HW279170  10.623  12.383  11.661
59716SOL     OW79171   9.860  11.368  12.057
59716SOL    HW179172   9.855  11.363  12.157
59716SOL    HW279173   9.862  11.464  12.028
59717SOL     OW79174  10.318  12.628  11.649
59717SOL    HW179175  10.272  12.700  11.597
59717SOL    HW279176  10.314  12.648  11.747
59718SOL     OW79177  11.105  12.238  12.045
59718SOL    HW179178  11.043  12.223  11.969
59718SOL    HW279179  11.053  12.249  12.130
59719SOL     OW79180  10.537  12.722  12.678
59719SOL    HW179181  10.543  12.645  12.742
59719SOL    HW279182  10.485  12.696  12.598
59720SOL     OW79183   9.631  12.115  11.414
59720SOL    HW179184   9.713  12.154  11.372
59720SOL    HW279185   9.604  12.033  11.365
59721SOL     OW79186  10.768  11.907  11.900
59721SOL    HW179187  10.763  11.842  11.975
59721SOL    HW279188  10.848  11.966  11.913
59722SOL     OW79189   9.512  11.457  12.670
59722SOL    HW179190   9.432  11.517  12.657
59722SOL    HW279191   9.502  11.408  12.756
59723SOL     OW79192  10.942  12.549  11.253
59723SOL    HW179193  10.910  12.643  11.243
59723SOL    HW279194  10.866  12.486  11.241
59724SOL     OW79195  10.710  11.279  11.598
59724SOL    HW179196  10.686  11.242  11.508
59724SOL    HW279197  10.809  11.295  11.602
59725SOL     OW79198   9.692  11.872  11.652
59725SOL    HW179199   9.737  11.782  11.649
59725SOL    HW279200   9.598  11.861  11.685
59726SOL     OW79201   9.924  11.294  11.289
59726SOL    HW179202  10.022  11.272  11.296
59726SOL    HW279203   9.893  11.277  11.196
59727SOL     OW79204  10.661  11.762  12.605
59727SOL    HW179205  10.689  11.719  12.690
59727SOL    HW279206  10.686  11.858  12.606
59728SOL     OW79207  10.113  12.574  12.096
59728SOL    HW179208  10.203  12.588  12.054
59728SOL    HW279209  10.042  12.576  12.025
59729SOL     OW79210  10.232  11.675  12.071
59729SOL    HW179211  10.207  11.666  11.975
59729SOL    HW279212  10.280  11.593  12.102
59730SOL     OW79213   9.849  11.236  11.684
59730SOL    HW179214   9.768  11.237  11.742
59730SOL    HW279215   9.852  11.319  11.629
59731SOL     OW79216  10.744  12.360  11.213
59731SOL    HW179217  10.776  12.284  11.270
59731SOL    HW279218  10.652  12.387  11.243
59732SOL     OW79219   9.607  11.207  11.343
59732SOL    HW179220   9.656  11.291  11.322
59732SOL    HW279221   9.669  11.142  11.388
59733SOL     OW79222  10.245  11.408  11.652
59733SOL    HW179223  10.197  11.449  11.574
59733SOL    HW279224  10.344  11.406  11.633
59734SOL     OW79225  10.386  11.855  12.636
59734SOL    HW179226  10.306  11.794  12.639
59734SOL    HW279227  10.467  11.802  12.612
59735SOL     OW79228  10.537  12.742  11.965
59735SOL    HW179229  10.558  12.816  11.900
59735SOL    HW279230  10.605  12.742  12.038
59736SOL     OW79231   9.769  12.324  11.913
59736SOL    HW179232   9.698  12.297  11.978
59736SOL    HW279233   9.743  12.296  11.820
59737SOL     OW79234  10.342  11.721  11.188
59737SOL    HW179235  10.301  11.803  11.149
59737SOL    HW279236  10.406  11.747  11.261
59738SOL     OW79237   9.388  11.728  12.558
59738SOL    HW179238   9.480  11.727  12.517
59738SOL    HW279239   9.382  11.802  12.625
59739SOL     OW79240   9.871  11.394  12.319
59739SOL    HW179241   9.909  11.310  12.356
59739SOL    HW279242   9.783  11.413  12.363
59740SOL     OW79243  10.176  11.626  11.814
59740SOL    HW179244  10.144  11.698  11.752
59740SOL    HW279245  10.200  11.545  11.761
59741SOL     OW79246  10.327  11.211  11.925
59741SOL    HW179247  10.255  11.216  11.856
59741SOL    HW279248  10.303  11.142  11.994
59742SOL     OW79249  10.739  12.345  12.039
59742SOL    HW179250  10.684  12.261  12.032
59742SOL    HW279251  10.765  12.374  11.947
59743SOL     OW79252  10.776  11.762  12.164
59743SOL    HW179253  10.746  11.667  12.171
59743SOL    HW279254  10.849  11.778  12.230
59744SOL     OW79255  11.167  12.005  11.549
59744SOL    HW179256  11.209  11.941  11.613
59744SOL    HW279257  11.129  11.954  11.471
59745SOL     OW79258   9.798  12.557  11.346
59745SOL    HW179259   9.711  12.542  11.393
59745SOL    HW279260   9.781  12.583  11.251
59746SOL     OW79261  10.974  12.452  11.829
59746SOL    HW179262  11.073  12.460  11.843
59746SOL    HW279263  10.929  12.536  11.860
59747SOL     OW79264  10.700  11.747  11.250
59747SOL    HW179265  10.646  11.726  11.331
59747SOL    HW279266  10.791  11.706  11.259
59748SOL     OW79267   9.837  11.428  11.500
59748SOL    HW179268   9.864  11.369  11.425
59748SOL    HW279269   9.837  11.523  11.469
59749SOL     OW79270  11.064  12.395  12.760
59749SOL    HW179271  11.155  12.356  12.747
59749SOL    HW279272  11.072  12.491  12.784
59750SOL     OW79273  10.374  12.519  12.512
59750SOL    HW179274  10.294  12.496  12.567
59750SOL    HW279275  10.457  12.493  12.561
59751SOL     OW79276  10.421  12.367  12.272
59751SOL    HW179277  10.381  12.411  12.353
59751SOL    HW279278  10.380  12.404  12.189
59752SOL     OW79279  10.948  12.271  12.251
59752SOL    HW179280  10.953  12.352  12.310
59752SOL    HW279281  10.862  12.273  12.200
59753SOL     OW79282  10.225  11.261  12.574
59753SOL    HW179283  10.250  11.241  12.479
59753SOL    HW279284  10.297  11.317  12.616
59754SOL     OW79285  10.015  12.222  11.540
59754SOL    HW179286  10.001  12.229  11.639
59754SOL    HW279287  10.099  12.171  11.522
59755SOL     OW79288   9.720  11.985  12.423
59755SOL    HW179289   9.806  11.997  12.473
59755SOL    HW279290   9.678  11.898  12.450
59756SOL     OW79291  10.584  11.558  12.434
59756SOL    HW179292  10.605  11.632  12.498
59756SOL    HW279293  10.495  11.575  12.391
59757SOL     OW79294   9.374  12.736  12.503
59757SOL    HW179295   9.328  12.818  12.469
59757SOL    HW279296   9.472  12.755  12.512
59758SOL     OW79297   9.677  12.272  11.673
59758SOL    HW179298   9.670  12.355  11.617
59758SOL    HW279299   9.681  12.192  11.613
59759SOL     OW79300   9.876  11.709  12.037
59759SOL    HW179301   9.888  11.775  11.963
59759SOL    HW279302   9.922  11.743  12.120
59760SOL     OW79303  10.562  12.520  11.560
59760SOL    HW179304  10.612  12.597  11.600
59760SOL    HW279305  10.467  12.522  11.592
59761SOL     OW79306  10.582  12.617  12.314
59761SOL    HW179307  10.629  12.630  12.401
59761SOL    HW279308  10.516  12.543  12.323
59762SOL     OW79309  10.892  11.811  11.644
59762SOL    HW179310  10.861  11.872  11.717
59762SOL    HW279311  10.942  11.863  11.575
59763SOL     OW79312   9.664  12.682  12.501
59763SOL    HW179313   9.643  12.638  12.414
59763SOL    HW279314   9.761  12.708  12.504
59764SOL     OW79315   9.712  11.923  12.770
59764SOL    HW179316   9.780  11.978  12.723
59764SOL    HW279317   9.752  11.835  12.797
59765SOL     OW79318  10.897  11.951  12.842
59765SOL    HW179319  10.805  11.989  12.837
59765SOL    HW279320  10.957  11.998  12.777
59766SOL     OW79321   9.883  12.042  12.201
59766SOL    HW179322   9.927  12.131  12.192
59766SOL    HW279323   9.820  12.042  12.278
59767SOL     OW79324  10.670  12.034  12.217
59767SOL    HW179325  10.595  12.034  12.151
59767SOL    HW279326  10.707  11.942  12.226
59768SOL     OW79327  10.519  11.697  11.447
59768SOL    HW179328  10.532  11.613  11.501
59768SOL    HW279329  10.490  11.771  11.507
59769SOL     OW79330   9.347  12.482  12.454
59769SOL    HW179331   9.400  12.433  12.522
59769SOL    HW279332   9.369  12.580  12.459
59770SOL     OW79333  10.042  11.806  12.236
59770SOL    HW179334  10.101  11.780  12.160
59770SOL    HW279335  10.014  11.902  12.225
59771SOL     OW79336   9.617  11.235  11.790
59771SOL    HW179337   9.606  11.329  11.823
59771SOL    HW279338   9.612  11.172  11.867
59772SOL     OW79339  10.932  11.539  11.546
59772SOL    HW179340  10.934  11.463  11.610
59772SOL    HW279341  10.884  11.616  11.586
59773SOL     OW79342  10.333  11.938  12.138
59773SOL    HW179343  10.348  11.959  12.234
59773SOL    HW279344  10.303  11.843  12.129
59774SOL     OW79345  10.850  11.446  11.297
59774SOL    HW179346  10.789  11.371  11.320
59774SOL    HW279347  10.872  11.498  11.380
59775SOL     OW79348  10.613  12.010  11.214
59775SOL    HW179349  10.647  11.917  11.229
59775SOL    HW279350  10.631  12.037  11.119
59776SOL     OW79351  10.378  12.505  12.021
59776SOL    HW179352  10.385  12.421  11.966
59776SOL    HW279353  10.440  12.574  11.985
59777SOL     OW79354   9.629  11.982  12.121
59777SOL    HW179355   9.722  12.018  12.126
59777SOL    HW279356   9.623  11.897  12.173
59778SOL     OW79357   9.649  11.681  12.178
59778SOL    HW179358   9.597  11.598  12.161
59778SOL    HW279359   9.726  11.686  12.114
59779SOL     OW79360  10.470  11.379  12.649
59779SOL    HW179361  10.470  11.443  12.726
59779SOL    HW279362  10.498  11.427  12.566
59780SOL     OW79363   9.318  12.498  11.372
59780SOL    HW179364   9.225  12.519  11.341
59780SOL    HW279365   9.328  12.399  11.385
59781SOL     OW79366   9.814  12.740  12.082
59781SOL    HW179367   9.880  12.814  12.091
59781SOL    HW279368   9.858  12.661  12.040
59782SOL     OW79369  10.312  11.968  12.410
59782SOL    HW179370  10.353  11.936  12.496
59782SOL    HW279371  10.216  11.941  12.407
59783SOL     OW79372   9.350  11.716  12.286
59783SOL    HW179373   9.435  11.683  12.245
59783SOL    HW279374   9.363  11.731  12.384
59784SOL     OW79375  10.125  11.744  11.497
59784SOL    HW179376  10.132  11.655  11.451
59784SOL    HW279377  10.031  11.778  11.489
59785SOL     OW79378  10.967  11.776  12.378
59785SOL    HW179379  10.929  11.707  12.440
59785SOL    HW279380  11.049  11.740  12.334
59786SOL     OW79381   9.981  11.636  12.441
59786SOL    HW179382   9.947  11.547  12.411
59786SOL    HW279383  10.007  11.690  12.361
59787SOL     OW79384   9.783  11.672  11.363
59787SOL    HW179385   9.844  11.752  11.367
59787SOL    HW279386   9.688  11.703  11.370
59788SOL     OW79387   9.469  12.309  12.638
59788SOL    HW179388   9.491  12.248  12.714
59788SOL    HW279389   9.479  12.260  12.552
59789SOL     OW79390  10.657  12.231  12.406
59789SOL    HW179391  10.681  12.168  12.332
59789SOL    HW279392  10.567  12.271  12.388
59790SOL     OW79393  10.612  12.027  11.481
59790SOL    HW179394  10.526  11.996  11.523
59790SOL    HW279395  10.608  12.013  11.382
59791SOL     OW79396  10.562  12.903  12.300
59791SOL    HW179397  10.646  12.908  12.246
59791SOL    HW279398  10.539  12.807  12.318
59792SOL     OW79399   9.393  12.430  12.194
59792SOL    HW179400   9.388  12.429  12.294
59792SOL    HW279401   9.310  12.389  12.156
59793SOL     OW79402  11.036  11.307  11.695
59793SOL    HW179403  11.109  11.290  11.628
59793SOL    HW279404  11.005  11.220  11.733
59794SOL     OW79405  10.590  12.099  11.844
59794SOL    HW179406  10.650  12.018  11.846
59794SOL    HW279407  10.630  12.168  11.784
59795SOL     OW79408  10.140  12.445  12.594
59795SOL    HW179409  10.135  12.478  12.689
59795SOL    HW279410  10.054  12.464  12.548
59796SOL     OW79411   9.982  12.788  11.326
59796SOL    HW179412   9.991  12.798  11.227
59796SOL    HW279413   9.942  12.699  11.347
59797SOL     OW79414  11.151  11.347  12.135
59797SOL    HW179415  11.190  11.262  12.099
59797SOL    HW279416  11.053  11.349  12.116
59798SOL     OW79417   9.573  11.498  11.892
59798SOL    HW179418   9.494  11.549  11.858
59798SOL    HW279419   9.564  11.483  11.990
59799SOL     OW79420  10.504  12.784  11.203
59799SOL    HW179421  10.510  12.691  11.240
59799SOL    HW279422  10.445  12.784  11.123
59800SOL     OW79423  10.132  12.174  12.544
59800SOL    HW179424  10.172  12.173  12.452
59800SOL    HW279425  10.142  12.266  12.584
59801SOL     OW79426  10.226  12.082  11.463
59801SOL    HW179427  10.289  12.120  11.395
59801SOL    HW279428  10.266  11.999  11.502
59802SOL     OW79429   9.682  12.460  12.662
59802SOL    HW179430   9.669  12.553  12.628
59802SOL    HW279431   9.598  12.408  12.649
59803SOL     OW79432  10.924  12.464  12.461
59803SOL    HW179433  10.984  12.467  12.541
59803SOL    HW279434  10.849  12.528  12.474
59804SOL     OW79435  10.349  12.270  11.868
59804SOL    HW179436  10.279  12.223  11.922
59804SOL    HW279437  10.408  12.202  11.825
59805SOL     OW79438  10.324  11.408  12.143
59805SOL    HW179439  10.316  11.372  12.050
59805SOL    HW279440  10.322  11.332  12.208
59806SOL     OW79441   9.900  12.659  11.663
59806SOL    HW179442   9.942  12.601  11.593
59806SOL    HW279443   9.856  12.738  11.619
59807SOL     OW79444  11.019  11.557  12.553
59807SOL    HW179445  11.092  11.626  12.557
59807SOL    HW279446  11.047  11.482  12.494
59808SOL     OW79447   9.565  12.520  11.462
59808SOL    HW179448   9.469  12.521  11.435
59808SOL    HW279449   9.577  12.573  11.546
59809SOL     OW79450   9.415  12.185  12.898
59809SOL    HW179451   9.338  12.152  12.952
59809SOL    HW279452   9.500  12.155  12.940
59810SOL     OW79453   9.982  11.375  12.661
59810SOL    HW179454  10.072  11.359  12.621
59810SOL    HW279455   9.990  11.380  12.760
59811SOL     OW79456   9.385  11.517  11.205
59811SOL    HW179457   9.293  11.489  11.176
59811SOL    HW279458   9.416  11.594  11.149
59812SOL     OW79459  10.750  12.028  12.570
59812SOL    HW179460  10.693  12.080  12.507
59812SOL    HW279461  10.846  12.040  12.546
59813SOL     OW79462   9.382  11.338  11.490
59813SOL    HW179463   9.365  11.421  11.436
59813SOL    HW279464   9.472  11.301  11.468
59814SOL     OW79465  10.493  12.507  11.291
59814SOL    HW179466  10.394  12.496  11.293
59814SOL    HW279467  10.527  12.522  11.384
59815SOL     OW79468   9.923  12.014  12.603
59815SOL    HW179469   9.979  12.095  12.586
59815SOL    HW279470   9.982  11.934  12.606
59816SOL     OW79471  10.026  11.737  12.880
59816SOL    HW179472  10.045  11.802  12.954
59816SOL    HW279473  10.086  11.657  12.889
59817SOL     OW79474  10.984  12.055  12.426
59817SOL    HW179475  10.957  11.966  12.389
59817SOL    HW279476  10.985  12.123  12.353
59818SOL     OW79477  10.535  11.497  11.621
59818SOL    HW179478  10.600  11.423  11.610
59818SOL    HW279479  10.555  11.547  11.705
59819SOL     OW79480   9.904  11.917  11.824
59819SOL    HW179481   9.954  12.002  11.805
59819SOL    HW279482   9.816  11.919  11.776
59820SOL     OW79483  11.087  11.514  12.814
59820SOL    HW179484  11.070  11.545  12.720
59820SOL    HW279485  11.003  11.477  12.852
59821SOL     OW79486  11.040  12.106  12.689
59821SOL    HW179487  11.078  12.197  12.704
59821SOL    HW279488  11.032  12.089  12.590
59822SOL     OW79489  10.169  12.546  11.188
59822SOL    HW179490  10.123  12.561  11.276
59822SOL    HW279491  10.213  12.631  11.158
59823SOL     OW79492  10.169  12.128  12.033
59823SOL    HW179493  10.223  12.059  12.081
59823SOL    HW279494  10.137  12.197  12.099
59824SOL     OW79495  10.393  12.156  11.259
59824SOL    HW179496  10.370  12.209  11.177
59824SOL    HW279497  10.474  12.100  11.240
59825SOL     OW79498  11.171  12.741  12.023
59825SOL    HW179499  11.100  12.729  11.953
59825SOL    HW279500  11.172  12.662  12.083
59826SOL     OW79501   9.389  12.412  11.825
59826SOL    HW179502   9.388  12.365  11.913
59826SOL    HW279503   9.471  12.384  11.774
59827SOL     OW79504   9.982  12.563  12.796
59827SOL    HW179505   9.904  12.513  12.834
59827SOL    HW279506   9.979  12.658  12.827
59828SOL     OW79507  11.134  11.364  12.399
59828SOL    HW179508  11.130  11.274  12.443
59828SOL    HW279509  11.137  11.353  12.300
59829SOL     OW79510   9.738  11.596  11.692
59829SOL    HW179511   9.768  11.524  11.630
59829SOL    HW279512   9.699  11.556  11.775
59830SOL     OW79513  11.015  12.659  12.276
59830SOL    HW179514  10.922  12.634  12.249
59830SOL    HW279515  11.041  12.609  12.358
59831SOL     OW79516   9.627  11.719  12.452
59831SOL    HW179517   9.665  11.660  12.524
59831SOL    HW279518   9.667  11.693  12.364
59832SOL     OW79519  10.734  11.386  12.284
59832SOL    HW179520  10.786  11.321  12.339
59832SOL    HW279521  10.685  11.449  12.345
59833SOL     OW79522  10.311  11.206  12.326
59833SOL    HW179523  10.248  11.134  12.295
59833SOL    HW279524  10.404  11.170  12.326
59834SOL     OW79525  10.080  12.502  11.473
59834SOL    HW179526  10.034  12.415  11.490
59834SOL    HW279527  10.171  12.499  11.514
59835SOL     OW79528   9.928  12.739  12.456
59835SOL    HW179529   9.923  12.821  12.513
59835SOL    HW279530  10.017  12.736  12.411
59836SOL     OW79531  10.662  11.224  11.340
59836SOL    HW179532  10.697  11.183  11.256
59836SOL    HW279533  10.572  11.186  11.360
59837SOL     OW79534  10.610  11.625  11.863
59837SOL    HW179535  10.551  11.705  11.867
59837SOL    HW279536  10.625  11.590  11.956
59838SOL     OW79537  10.903  11.393  12.054
59838SOL    HW179538  10.819  11.392  12.108
59838SOL    HW279539  10.905  11.476  11.998
59839SOL     OW79540   9.349  12.249  11.472
59839SOL    HW179541   9.448  12.238  11.463
59839SOL    HW279542   9.309  12.163  11.504
59840SOL     OW79543  11.402   0.628   0.113
59840SOL    HW179544  11.309   0.626   0.150
59840SOL    HW279545  11.403   0.589   0.021
59841SOL     OW79546  11.397   0.275   0.996
59841SOL    HW179547  11.432   0.258   1.088
59841SOL    HW279548  11.309   0.230   0.984
59842SOL     OW79549  11.191   0.368   0.647
59842SOL    HW179550  11.109   0.411   0.686
59842SOL    HW279551  11.163   0.295   0.584
59843SOL     OW79552  11.741   1.275   1.165
59843SOL    HW179553  11.648   1.268   1.128
59843SOL    HW279554  11.752   1.364   1.209
59844SOL     OW79555  12.727   1.511   0.703
59844SOL    HW179556  12.670   1.495   0.784
59844SOL    HW279557  12.668   1.521   0.623
59845SOL     OW79558  12.307   0.703   0.717
59845SOL    HW179559  12.364   0.781   0.692
59845SOL    HW279560  12.247   0.729   0.793
59846SOL     OW79561  11.940   1.144   1.023
59846SOL    HW179562  11.862   1.161   1.083
59846SOL    HW279563  11.974   1.231   0.987
59847SOL     OW79564  12.022   0.798   1.823
59847SOL    HW179565  12.018   0.874   1.888
59847SOL    HW279566  12.044   0.834   1.732
59848SOL     OW79567  11.857   1.012   0.665
59848SOL    HW179568  11.926   0.996   0.735
59848SOL    HW279569  11.784   1.069   0.703
59849SOL     OW79570  11.858   1.161   1.803
59849SOL    HW179571  11.918   1.240   1.817
59849SOL    HW279572  11.772   1.192   1.762
59850SOL     OW79573  11.507   1.435   1.061
59850SOL    HW179574  11.429   1.404   1.008
59850SOL    HW279575  11.565   1.493   1.004
59851SOL     OW79576  12.632   1.505   1.339
59851SOL    HW179577  12.656   1.599   1.365
59851SOL    HW279578  12.616   1.451   1.421
59852SOL     OW79579  11.610   0.392   1.499
59852SOL    HW179580  11.692   0.336   1.508
59852SOL    HW279581  11.529   0.334   1.503
59853SOL     OW79582  11.403   1.713   0.483
59853SOL    HW179583  11.437   1.790   0.537
59853SOL    HW279584  11.447   1.713   0.393
59854SOL     OW79585  12.299   1.341   1.690
59854SOL    HW179586  12.346   1.341   1.778
59854SOL    HW279587  12.251   1.254   1.679
59855SOL     OW79588  11.402   1.434   0.538
59855SOL    HW179589  11.376   1.530   0.538
59855SOL    HW279590  11.331   1.380   0.583
59856SOL     OW79591  11.412   1.091   0.886
59856SOL    HW179592  11.426   1.007   0.938
59856SOL    HW279593  11.357   1.155   0.941
59857SOL     OW79594  11.792   1.786   1.439
59857SOL    HW179595  11.700   1.769   1.474
59857SOL    HW279596  11.820   1.878   1.465
59858SOL     OW79597  11.778   0.964   0.123
59858SOL    HW179598  11.785   1.048   0.069
59858SOL    HW279599  11.824   0.977   0.211
59859SOL     OW79600  12.766   0.114   1.480
59859SOL    HW179601  12.748   0.181   1.408
59859SOL    HW279602  12.763   0.160   1.569
59860SOL     OW79603  11.294   0.643   0.563
59860SOL    HW179604  11.249   0.555   0.580
59860SOL    HW279605  11.293   0.697   0.647
59861SOL     OW79606  11.199   1.596   0.117
59861SOL    HW179607  11.180   1.500   0.138
59861SOL    HW279608  11.166   1.654   0.192
59862SOL     OW79609  12.861   0.922   0.612
59862SOL    HW179610  12.956   0.893   0.620
59862SOL    HW279611  12.853   0.987   0.537
59863SOL     OW79612  11.285   0.737   1.597
59863SOL    HW179613  11.373   0.724   1.642
59863SOL    HW279614  11.272   0.834   1.575
59864SOL     OW79615  11.785   1.365   0.726
59864SOL    HW179616  11.736   1.278   0.735
59864SOL    HW279617  11.762   1.408   0.639
59865SOL     OW79618  12.465   1.228   1.423
59865SOL    HW179619  12.502   1.155   1.365
59865SOL    HW279620  12.517   1.233   1.508
59866SOL     OW79621  11.981   0.004   0.502
59866SOL    HW179622  12.021   0.095   0.493
59866SOL    HW279623  11.881   0.012   0.508
59867SOL     OW79624  11.369   0.976   1.264
59867SOL    HW179625  11.458   0.931   1.250
59867SOL    HW279626  11.296   0.911   1.245
59868SOL     OW79627  12.359   1.792   1.616
59868SOL    HW179628  12.383   1.852   1.540
59868SOL    HW279629  12.366   1.697   1.586
59869SOL     OW79630  11.489   0.251   1.801
59869SOL    HW179631  11.560   0.322   1.807
59869SOL    HW279632  11.401   0.290   1.829
59870SOL     OW79633  12.638   1.417   0.953
59870SOL    HW179634  12.579   1.423   1.033
59870SOL    HW279635  12.623   1.329   0.907
59871SOL     OW79636  12.839   1.714   0.572
59871SOL    HW179637  12.798   1.691   0.484
59871SOL    HW279638  12.821   1.640   0.637
59872SOL     OW79639  11.770   0.729   0.270
59872SOL    HW179640  11.794   0.798   0.202
59872SOL    HW279641  11.692   0.762   0.324
59873SOL     OW79642  12.453   0.345   0.944
59873SOL    HW179643  12.367   0.295   0.931
59873SOL    HW279644  12.515   0.291   1.000
59874SOL     OW79645  11.979   0.605   1.465
59874SOL    HW179646  11.932   0.602   1.554
59874SOL    HW279647  11.928   0.550   1.399
59875SOL     OW79648  12.566   0.469   1.674
59875SOL    HW179649  12.546   0.512   1.762
59875SOL    HW279650  12.644   0.407   1.683
59876SOL     OW79651  12.145   0.890   1.572
59876SOL    HW179652  12.191   0.806   1.543
59876SOL    HW279653  12.089   0.924   1.497
59877SOL     OW79654  12.163   0.410   1.242
59877SOL    HW179655  12.086   0.444   1.296
59877SOL    HW279656  12.129   0.359   1.163
59878SOL     OW79657  12.213   0.701   0.429
59878SOL    HW179658  12.239   0.697   0.525
59878SOL    HW279659  12.128   0.650   0.415
59879SOL     OW79660  11.248   0.811   0.789
59879SOL    HW179661  11.347   0.799   0.798
59879SOL    HW279662  11.224   0.906   0.810
59880SOL     OW79663  11.302   1.821   1.571
59880SOL    HW179664  11.292   1.806   1.670
59880SOL    HW279665  11.216   1.857   1.535
59881SOL     OW79666  12.037   0.348   0.195
59881SOL    HW179667  12.096   0.411   0.146
59881SOL    HW279668  12.056   0.254   0.166
59882SOL     OW79669  12.534   1.144   0.545
59882SOL    HW179670  12.617   1.115   0.497
59882SOL    HW279671  12.485   1.211   0.489
59883SOL     OW79672  11.722   0.196   0.885
59883SOL    HW179673  11.717   0.191   0.985
59883SOL    HW279674  11.724   0.292   0.856
59884SOL     OW79675  12.180   1.456   0.477
59884SOL    HW179676  12.134   1.528   0.425
59884SOL    HW279677  12.176   1.476   0.575
59885SOL     OW79678  11.523   1.801   0.853
59885SOL    HW179679  11.573   1.715   0.859
59885SOL    HW279680  11.588   1.878   0.850
59886SOL     OW79681  12.399   1.550   1.506
59886SOL    HW179682  12.405   1.473   1.570
59886SOL    HW279683  12.347   1.524   1.426
59887SOL     OW79684  11.493   0.943   0.242
59887SOL    HW179685  11.575   0.982   0.200
59887SOL    HW279686  11.466   0.861   0.193
59888SOL     OW79687  12.630   0.735   0.728
59888SOL    HW179688  12.625   0.670   0.803
59888SOL    HW279689  12.710   0.794   0.741
59889SOL     OW79690  11.633   1.266   1.727
59889SOL    HW179691  11.583   1.267   1.641
59889SOL    HW279692  11.570   1.248   1.803
59890SOL     OW79693  12.283   1.776   0.237
59890SOL    HW179694  12.223   1.714   0.287
59890SOL    HW279695  12.314   1.732   0.152
59891SOL     OW79696  11.374   0.285   1.498
59891SOL    HW179697  11.294   0.345   1.485
59891SOL    HW279698  11.364   0.236   1.584
59892SOL     OW79699  11.636   1.743   0.323
59892SOL    HW179700  11.669   1.782   0.409
59892SOL    HW279701  11.712   1.736   0.258
59893SOL     OW79702  12.572   0.107   0.426
59893SOL    HW179703  12.548   0.070   0.336
59893SOL    HW279704  12.671   0.123   0.430
59894SOL     OW79705  11.421   1.785   1.241
59894SOL    HW179706  11.478   1.720   1.291
59894SOL    HW279707  11.405   1.752   1.148
59895SOL     OW79708  12.112   1.698   0.904
59895SOL    HW179709  12.192   1.641   0.925
59895SOL    HW279710  12.063   1.658   0.827
59896SOL     OW79711  11.554   0.700   0.480
59896SOL    HW179712  11.599   0.610   0.477
59896SOL    HW279713  11.460   0.689   0.513
59897SOL     OW79714  11.786   0.122   0.117
59897SOL    HW179715  11.884   0.100   0.124
59897SOL    HW279716  11.755   0.105   0.024
59898SOL     OW79717  11.953   0.264   1.749
59898SOL    HW179718  12.020   0.203   1.792
59898SOL    HW279719  11.880   0.283   1.814
59899SOL     OW79720  12.060   1.514   1.195
59899SOL    HW179721  12.037   1.489   1.101
59899SOL    HW279722  12.121   1.445   1.234
59900SOL     OW79723  12.523   0.590   1.433
59900SOL    HW179724  12.551   0.547   1.518
59900SOL    HW279725  12.548   0.686   1.434
59901SOL     OW79726  11.975   1.402   0.924
59901SOL    HW179727  12.065   1.416   0.882
59901SOL    HW279728  11.904   1.404   0.853
59902SOL     OW79729  12.094   0.503   0.899
59902SOL    HW179730  12.069   0.494   0.803
59902SOL    HW279731  12.142   0.421   0.930
59903SOL     OW79732  11.711   0.064   0.512
59903SOL    HW179733  11.630   0.065   0.570
59903SOL    HW279734  11.714   0.147   0.457
59904SOL     OW79735  12.606   1.188   0.041
59904SOL    HW179736  12.638   1.112   0.098
59904SOL    HW279737  12.514   1.215   0.071
59905SOL     OW79738  11.469   0.035   0.171
59905SOL    HW179739  11.518   0.119   0.150
59905SOL    HW279740  11.531  -0.030   0.216
59906SOL     OW79741  12.107   0.236   0.480
59906SOL    HW179742  12.059   0.277   0.402
59906SOL    HW279743  12.206   0.234   0.461
59907SOL     OW79744  12.248   0.683   1.464
59907SOL    HW179745  12.168   0.622   1.467
59907SOL    HW279746  12.329   0.630   1.440
59908SOL     OW79747  12.399   1.570   0.793
59908SOL    HW179748  12.420   1.644   0.728
59908SOL    HW279749  12.467   1.570   0.866
59909SOL     OW79750  11.631   1.152   0.741
59909SOL    HW179751  11.560   1.125   0.806
59909SOL    HW279752  11.605   1.124   0.648
59910SOL     OW79753  12.443   1.797   0.591
59910SOL    HW179754  12.487   1.861   0.527
59910SOL    HW279755  12.393   1.849   0.661
59911SOL     OW79756  12.204   0.549   0.016
59911SOL    HW179757  12.163   0.631  -0.023
59911SOL    HW279758  12.268   0.575   0.089
59912SOL     OW79759  11.250   0.556   1.386
59912SOL    HW179760  11.342   0.555   1.345
59912SOL    HW279761  11.244   0.630   1.453
59913SOL     OW79762  11.733   0.222   1.147
59913SOL    HW179763  11.771   0.138   1.184
59913SOL    HW279764  11.645   0.241   1.191
59914SOL     OW79765  12.038   0.454   0.642
59914SOL    HW179766  12.006   0.526   0.580
59914SOL    HW279767  12.062   0.373   0.589
59915SOL     OW79768  12.189   0.039   0.753
59915SOL    HW179769  12.117   0.044   0.684
59915SOL    HW279770  12.165  -0.030   0.822
59916SOL     OW79771  12.601   1.173   0.867
59916SOL    HW179772  12.546   1.089   0.860
59916SOL    HW279773  12.627   1.202   0.775
59917SOL     OW79774  12.638   0.590   0.992
59917SOL    HW179775  12.608   0.495   0.999
59917SOL    HW279776  12.711   0.606   1.058
59918SOL     OW79777  11.660   1.385   0.174
59918SOL    HW179778  11.573   1.370   0.221
59918SOL    HW279779  11.643   1.411   0.079
59919SOL     OW79780  12.562   0.575   0.078
59919SOL    HW179781  12.508   0.554   0.159
59919SOL    HW279782  12.653   0.534   0.087
59920SOL     OW79783  11.699   0.256   0.328
59920SOL    HW179784  11.726   0.197   0.253
59920SOL    HW279785  11.699   0.351   0.297
59921SOL     OW79786  12.236   1.347   1.340
59921SOL    HW179787  12.156   1.324   1.395
59921SOL    HW279788  12.319   1.321   1.389
59922SOL     OW79789  12.764   1.629   1.625
59922SOL    HW179790  12.791   1.663   1.535
59922SOL    HW279791  12.843   1.591   1.671
59923SOL     OW79792  12.283   1.195   1.100
59923SOL    HW179793  12.243   1.239   1.181
59923SOL    HW279794  12.242   1.232   1.017
59924SOL     OW79795  12.087   0.089   1.402
59924SOL    HW179796  12.112   0.069   1.307
59924SOL    HW279797  12.159   0.145   1.444
59925SOL     OW79798  12.152   1.116   1.719
59925SOL    HW179799  12.053   1.122   1.729
59925SOL    HW279800  12.175   1.036   1.663
59926SOL     OW79801  11.877   1.050   0.368
59926SOL    HW179802  11.863   1.057   0.467
59926SOL    HW279803  11.961   0.999   0.350
59927SOL     OW79804  11.582   0.813   1.251
59927SOL    HW179805  11.668   0.825   1.301
59927SOL    HW279806  11.540   0.726   1.278
59928SOL     OW79807  12.446   0.386   1.262
59928SOL    HW179808  12.467   0.460   1.326
59928SOL    HW279809  12.357   0.403   1.219
59929SOL     OW79810  11.236   1.564   1.331
59929SOL    HW179811  11.190   1.646   1.297
59929SOL    HW279812  11.334   1.583   1.340
59930SOL     OW79813  11.539   1.100   0.501
59930SOL    HW179814  11.532   1.183   0.445
59930SOL    HW279815  11.543   1.020   0.441
59931SOL     OW79816  11.738   0.537   0.865
59931SOL    HW179817  11.750   0.603   0.791
59931SOL    HW279818  11.784   0.571   0.948
59932SOL     OW79819  12.424   1.348   0.388
59932SOL    HW179820  12.474   1.425   0.428
59932SOL    HW279821  12.329   1.350   0.420
59933SOL     OW79822  12.444   1.445   1.142
59933SOL    HW179823  12.491   1.458   1.229
59933SOL    HW279824  12.378   1.371   1.151
59934SOL     OW79825  12.754   0.639   0.472
59934SOL    HW179826  12.723   0.700   0.545
59934SOL    HW279827  12.804   0.691   0.403
59935SOL     OW79828  11.526   1.510   1.329
59935SOL    HW179829  11.505   1.466   1.242
59935SOL    HW279830  11.623   1.536   1.332
59936SOL     OW79831  11.574   0.751   1.598
59936SOL    HW179832  11.642   0.806   1.551
59936SOL    HW279833  11.614   0.663   1.625
59937SOL     OW79834  12.185   0.105   1.770
59937SOL    HW179835  12.191   0.190   1.718
59937SOL    HW279836  12.217   0.029   1.713
59938SOL     OW79837  11.676   0.050   1.740
59938SOL    HW179838  11.634  -0.007   1.670
59938SOL    HW279839  11.610   0.119   1.772
59939SOL     OW79840  11.745   0.870   1.029
59939SOL    HW179841  11.789   0.959   1.020
59939SOL    HW279842  11.682   0.870   1.106
59940SOL     OW79843  12.532   0.862   1.045
59940SOL    HW179844  12.457   0.862   0.979
59940SOL    HW279845  12.569   0.770   1.054
59941SOL     OW79846  12.381   0.525   0.275
59941SOL    HW179847  12.394   0.441   0.329
59941SOL    HW279848  12.352   0.599   0.335
59942SOL     OW79849  11.479   0.213   1.231
59942SOL    HW179850  11.456   0.250   1.321
59942SOL    HW279851  11.449   0.118   1.225
59943SOL     OW79852  11.209   1.310   1.282
59943SOL    HW179853  11.262   1.261   1.350
59943SOL    HW279854  11.231   1.408   1.287
59944SOL     OW79855  11.904   0.634   1.064
59944SOL    HW179856  11.963   0.608   0.988
59944SOL    HW279857  11.876   0.730   1.053
59945SOL     OW79858  11.479   0.063   0.618
59945SOL    HW179859  11.468   0.157   0.651
59945SOL    HW279860  11.474   0.000   0.695
59946SOL     OW79861  12.794   0.367   0.374
59946SOL    HW179862  12.796   0.291   0.438
59946SOL    HW279863  12.746   0.444   0.414
59947SOL     OW79864  12.195   0.766   0.966
59947SOL    HW179865  12.210   0.787   1.062
59947SOL    HW279866  12.165   0.671   0.957
59948SOL     OW79867  12.152   1.573   1.700
59948SOL    HW179868  12.132   1.617   1.612
59948SOL    HW279869  12.191   1.482   1.684
59949SOL     OW79870  11.522   0.898   1.804
59949SOL    HW179871  11.598   0.942   1.852
59949SOL    HW279872  11.557   0.851   1.722
59950SOL     OW79873  12.712   0.274   0.125
59950SOL    HW179874  12.651   0.199   0.148
59950SOL    HW279875  12.734   0.326   0.208
59951SOL     OW79876  12.475   0.838   0.042
59951SOL    HW179877  12.509   0.745   0.057
59951SOL    HW279878  12.493   0.865  -0.053
59952SOL     OW79879  12.240   1.333   0.849
59952SOL    HW179880  12.247   1.249   0.794
59952SOL    HW279881  12.302   1.402   0.813
59953SOL     OW79882  11.491   0.810   0.949
59953SOL    HW179883  11.584   0.846   0.954
59953SOL    HW279884  11.485   0.725   1.001
59954SOL     OW79885  11.511   0.509   1.006
59954SOL    HW179886  11.459   0.426   0.989
59954SOL    HW279887  11.588   0.514   0.942
59955SOL     OW79888  12.310   0.380   1.678
59955SOL    HW179889  12.265   0.443   1.742
59955SOL    HW279890  12.403   0.411   1.661
59956SOL     OW79891  12.332   0.207   1.477
59956SOL    HW179892  12.332   0.271   1.554
59956SOL    HW279893  12.360   0.255   1.394
59957SOL     OW79894  11.180   1.326   0.200
59957SOL    HW179895  11.087   1.347   0.169
59957SOL    HW279896  11.190   1.227   0.213
59958SOL     OW79897  11.260   1.801   0.927
59958SOL    HW179898  11.218   1.715   0.900
59958SOL    HW279899  11.354   1.804   0.893
59959SOL     OW79900  11.676   1.568   0.910
59959SOL    HW179901  11.742   1.642   0.919
59959SOL    HW279902  11.720   1.489   0.868
59960SOL     OW79903  12.174   0.796   1.238
59960SOL    HW179904  12.215   0.764   1.324
59960SOL    HW279905  12.078   0.769   1.235
59961SOL     OW79906  11.212   0.544   1.114
59961SOL    HW179907  11.297   0.511   1.073
59961SOL    HW279908  11.225   0.559   1.212
59962SOL     OW79909  11.361   0.520   1.722
59962SOL    HW179910  11.420   0.480   1.652
59962SOL    HW279911  11.303   0.591   1.681
59963SOL     OW79912  12.541   0.950   1.660
59963SOL    HW179913  12.580   1.039   1.680
59963SOL    HW279914  12.551   0.930   1.563
59964SOL     OW79915  11.987   0.572   0.325
59964SOL    HW179916  11.994   0.483   0.279
59964SOL    HW279917  11.893   0.606   0.317
59965SOL     OW79918  11.424   1.564   1.744
59965SOL    HW179919  11.394   1.621   1.820
59965SOL    HW279920  11.417   1.467   1.770
59966SOL     OW79921  11.843   0.464   1.269
59966SOL    HW179922  11.809   0.375   1.239
59966SOL    HW279923  11.869   0.518   1.189
59967SOL     OW79924  12.102   1.678   1.465
59967SOL    HW179925  12.078   1.660   1.370
59967SOL    HW279926  12.132   1.772   1.475
59968SOL     OW79927  11.645   0.500   0.191
59968SOL    HW179928  11.706   0.580   0.195
59968SOL    HW279929  11.550   0.531   0.198
59969SOL     OW79930  11.331   1.137   1.466
59969SOL    HW179931  11.353   1.076   1.542
59969SOL    HW279932  11.341   1.088   1.380
59970SOL     OW79933  12.519   1.059   1.234
59970SOL    HW179934  12.543   0.996   1.160
59970SOL    HW279935  12.429   1.099   1.216
59971SOL     OW79936  12.474   0.855   0.309
59971SOL    HW179937  12.388   0.824   0.351
59971SOL    HW279938  12.470   0.841   0.210
59972SOL     OW79939  12.424   1.731   1.128
59972SOL    HW179940  12.508   1.736   1.074
59972SOL    HW279941  12.401   1.635   1.146
59973SOL     OW79942  11.255   1.258   1.022
59973SOL    HW179943  11.250   1.257   1.122
59973SOL    HW279944  11.172   1.217   0.984
59974SOL     OW79945  11.860   1.662   1.716
59974SOL    HW179946  11.804   1.743   1.725
59974SOL    HW279947  11.912   1.666   1.630
59975SOL     OW79948  12.075   0.086   0.133
59975SOL    HW179949  12.126   0.087   0.047
59975SOL    HW279950  12.131   0.044   0.204
59976SOL     OW79951  12.898   0.135   0.523
59976SOL    HW179952  12.971   0.118   0.456
59976SOL    HW279953  12.867   0.048   0.561
59977SOL     OW79954  12.560   1.573   0.477
59977SOL    HW179955  12.627   1.585   0.403
59977SOL    HW279956  12.520   1.662   0.500
59978SOL     OW79957  11.302   1.794   1.851
59978SOL    HW179958  11.261   1.720   1.904
59978SOL    HW279959  11.366   1.845   1.909
59979SOL     OW79960  12.452   0.927   0.672
59979SOL    HW179961  12.512   0.846   0.674
59979SOL    HW279962  12.492   0.996   0.612
59980SOL     OW79963  12.002   1.273   1.422
59980SOL    HW179964  11.997   1.306   1.517
59980SOL    HW279965  11.916   1.292   1.376
59981SOL     OW79966  11.844   1.616   0.154
59981SOL    HW179967  11.853   1.626   0.055
59981SOL    HW279968  11.804   1.527   0.175
59982SOL     OW79969  11.435   0.326   0.720
59982SOL    HW179970  11.356   0.377   0.686
59982SOL    HW279971  11.426   0.311   0.818
59983SOL     OW79972  12.366   1.612   0.031
59983SOL    HW179973  12.372   1.519   0.068
59983SOL    HW279974  12.307   1.612  -0.049
59984SOL     OW79975  11.994   1.002   1.372
59984SOL    HW179976  12.034   1.001   1.280
59984SOL    HW279977  12.004   1.094   1.412
59985SOL     OW79978  12.088   0.910   0.291
59985SOL    HW179979  12.151   0.948   0.223
59985SOL    HW279980  12.128   0.827   0.330
59986SOL     OW79981  12.676   1.607   0.044
59986SOL    HW179982  12.584   1.644   0.051
59986SOL    HW279983  12.714   1.627  -0.046
59987SOL     OW79984  11.544   1.288   1.490
59987SOL    HW179985  11.531   1.381   1.456
59987SOL    HW279986  11.460   1.236   1.477
59988SOL     OW79987  12.211   1.098   0.696
59988SOL    HW179988  12.141   1.051   0.750
59988SOL    HW279989  12.270   1.030   0.653
59989SOL     OW79990  12.186   0.236   0.971
59989SOL    HW179991  12.178   0.200   0.878
59989SOL    HW279992  12.184   0.160   1.036
59990SOL     OW79993  11.762   1.487   0.491
59990SOL    HW179994  11.804   1.429   0.421
59990SOL    HW279995  11.718   1.566   0.447
59991SOL     OW79996  11.427   1.348   0.290
59991SOL    HW179997  11.331   1.349   0.263
59991SOL    HW279998  11.439   1.401   0.374
59992SOL     OW79999  11.277   1.013   1.726
59992SOL    HW180000  11.200   0.980   1.780
59992SOL    HW280001  11.362   0.983   1.768
59993SOL     OW80002  11.844   0.203   1.489
59993SOL    HW180003  11.934   0.187   1.449
59993SOL    HW280004  11.852   0.208   1.588
59994SOL     OW80005  12.612   0.856   1.398
59994SOL    HW180006  12.555   0.908   1.335
59994SOL    HW280007  12.708   0.868   1.374
59995SOL     OW80008  11.244   0.166   0.318
59995SOL    HW180009  11.227   0.249   0.264
59995SOL    HW280010  11.334   0.129   0.296
59996SOL     OW80011  12.355   1.335   0.119
59996SOL    HW180012  12.256   1.324   0.121
59996SOL    HW280013  12.389   1.350   0.212
59997SOL     OW80014  11.785   0.842   1.431
59997SOL    HW180015  11.841   0.923   1.414
59997SOL    HW280016  11.844   0.762   1.434
59998SOL     OW80017  12.665   1.767   0.959
59998SOL    HW180018  12.698   1.831   0.890
59998SOL    HW280019  12.731   1.761   1.034
59999SOL     OW80020  11.888   0.565   1.708
59999SOL    HW180021  11.907   0.630   1.782
59999SOL    HW280022  11.948   0.485   1.717
60000SOL     OW80023  12.622   1.220   1.633
60000SOL    HW180024  12.613   1.210   1.732
60000SOL    HW280025  12.718   1.213   1.607
60001SOL     OW80026  11.562   1.741   1.560
60001SOL    HW180027  11.471   1.782   1.558
60001SOL    HW280028  11.555   1.647   1.592
60002SOL     OW80029  12.397   0.325   0.449
60002SOL    HW180030  12.462   0.251   0.438
60002SOL    HW280031  12.417   0.375   0.533
60003SOL     OW80032  11.766   0.745   0.652
60003SOL    HW180033  11.816   0.830   0.633
60003SOL    HW280034  11.678   0.747   0.604
60004SOL     OW80035  12.031   1.374   0.016
60004SOL    HW180036  11.985   1.389   0.104
60004SOL    HW280037  12.075   1.459  -0.014
60005SOL     OW80038  11.833   1.790   0.953
60005SOL    HW180039  11.787   1.878   0.940
60005SOL    HW280040  11.932   1.802   0.946
60006SOL     OW80041  12.031   0.956   0.861
60006SOL    HW180042  12.085   0.887   0.909
60006SOL    HW280043  11.999   1.025   0.927
60007SOL     OW80044  12.255   0.984   0.087
60007SOL    HW180045  12.232   1.037   0.005
60007SOL    HW280046  12.336   0.928   0.068
60008SOL     OW80047  13.033   1.569   0.851
60008SOL    HW180048  12.962   1.557   0.781
60008SOL    HW280049  13.034   1.490   0.911
60009SOL     OW80050  11.393   1.314   1.844
60009SOL    HW180051  11.328   1.241   1.823
60009SOL    HW280052  11.397   1.328   1.942
60010SOL     OW80053  11.251   1.240   0.653
60010SOL    HW180054  11.250   1.193   0.741
60010SOL    HW280055  11.333   1.212   0.602
60011SOL     OW80056  11.844   1.391   1.624
60011SOL    HW180057  11.766   1.341   1.662
60011SOL    HW280058  11.841   1.486   1.655
60012SOL     OW80059  11.600   0.424   0.520
60012SOL    HW180060  11.630   0.352   0.458
60012SOL    HW280061  11.561   0.384   0.603
60013SOL     OW80062  11.489   0.547   1.280
60013SOL    HW180063  11.527   0.488   1.352
60013SOL    HW280064  11.529   0.521   1.192
60014SOL     OW80065  11.984   1.586   0.687
60014SOL    HW180066  12.016   1.596   0.593
60014SOL    HW280067  11.905   1.524   0.689
60015SOL     OW80068  12.596   0.214   1.112
60015SOL    HW180069  12.648   0.149   1.167
60015SOL    HW280070  12.547   0.277   1.173
60016SOL     OW80071  12.173   0.034   1.154
60016SOL    HW180072  12.110  -0.038   1.123
60016SOL    HW280073  12.266  -0.002   1.154
60017SOL     OW80074  11.942   1.330   0.301
60017SOL    HW180075  11.896   1.243   0.318
60017SOL    HW280076  12.033   1.327   0.342
60018SOL     OW80077  11.790   1.567   1.284
60018SOL    HW180078  11.785   1.649   1.341
60018SOL    HW280079  11.879   1.564   1.239
60019SOL     OW80080  12.524   0.052   0.168
60019SOL    HW180081  12.559   0.011   0.084
60019SOL    HW280082  12.434   0.014   0.188
60020SOL     OW80083  12.472   0.453   0.691
60020SOL    HW180084  12.413   0.533   0.695
60020SOL    HW280085  12.487   0.418   0.784
60021SOL     OW80086  12.765   0.221   0.882
60021SOL    HW180087  12.681   0.220   0.936
60021SOL    HW280088  12.767   0.304   0.826
60022SOL     OW80089  11.211   1.077   0.300
60022SOL    HW180090  11.310   1.066   0.291
60022SOL    HW280091  11.171   0.991   0.332
60023SOL     OW80092  12.047   1.646   0.337
60023SOL    HW180093  11.970   1.611   0.283
60023SOL    HW280094  12.015   1.717   0.399
60024SOL     OW80095  11.402   0.628   1.975
60024SOL    HW180096  11.309   0.626   2.012
60024SOL    HW280097  11.403   0.589   1.883
60025SOL     OW80098  11.397   0.275   2.858
60025SOL    HW180099  11.432   0.258   2.950
60025SOL    HW280100  11.309   0.230   2.846
60026SOL     OW80101  11.191   0.368   2.509
60026SOL    HW180102  11.109   0.411   2.548
60026SOL    HW280103  11.163   0.295   2.446
60027SOL     OW80104  11.741   1.275   3.027
60027SOL    HW180105  11.648   1.268   2.990
60027SOL    HW280106  11.752   1.364   3.071
60028SOL     OW80107  12.727   1.511   2.565
60028SOL    HW180108  12.670   1.495   2.646
60028SOL    HW280109  12.668   1.521   2.485
60029SOL     OW80110  12.307   0.703   2.579
60029SOL    HW180111  12.364   0.781   2.554
60029SOL    HW280112  12.247   0.729   2.655
60030SOL     OW80113  11.940   1.144   2.885
60030SOL    HW180114  11.862   1.161   2.945
60030SOL    HW280115  11.974   1.231   2.849
60031SOL     OW80116  12.022   0.798   3.685
60031SOL    HW180117  12.018   0.874   3.750
60031SOL    HW280118  12.044   0.834   3.594
60032SOL     OW80119  11.857   1.012   2.527
60032SOL    HW180120  11.926   0.996   2.597
60032SOL    HW280121  11.784   1.069   2.565
60033SOL     OW80122  11.858   1.161   3.665
60033SOL    HW180123  11.918   1.240   3.679
60033SOL    HW280124  11.772   1.192   3.624
60034SOL     OW80125  11.507   1.435   2.923
60034SOL    HW180126  11.429   1.404   2.870
60034SOL    HW280127  11.565   1.493   2.866
60035SOL     OW80128  12.632   1.505   3.201
60035SOL    HW180129  12.656   1.599   3.227
60035SOL    HW280130  12.616   1.451   3.283
60036SOL     OW80131  11.610   0.392   3.361
60036SOL    HW180132  11.692   0.336   3.370
60036SOL    HW280133  11.529   0.334   3.365
60037SOL     OW80134  11.403   1.713   2.345
60037SOL    HW180135  11.437   1.790   2.399
60037SOL    HW280136  11.447   1.713   2.255
60038SOL     OW80137  12.299   1.341   3.552
60038SOL    HW180138  12.346   1.341   3.640
60038SOL    HW280139  12.251   1.254   3.541
60039SOL     OW80140  11.402   1.434   2.400
60039SOL    HW180141  11.376   1.530   2.400
60039SOL    HW280142  11.331   1.380   2.445
60040SOL     OW80143  11.412   1.091   2.748
60040SOL    HW180144  11.426   1.007   2.800
60040SOL    HW280145  11.357   1.155   2.803
60041SOL     OW80146  11.792   1.786   3.301
60041SOL    HW180147  11.700   1.769   3.336
60041SOL    HW280148  11.820   1.878   3.327
60042SOL     OW80149  11.778   0.964   1.985
60042SOL    HW180150  11.785   1.048   1.931
60042SOL    HW280151  11.824   0.977   2.073
60043SOL     OW80152  12.766   0.114   3.342
60043SOL    HW180153  12.748   0.181   3.270
60043SOL    HW280154  12.763   0.160   3.431
60044SOL     OW80155  11.294   0.643   2.425
60044SOL    HW180156  11.249   0.555   2.442
60044SOL    HW280157  11.293   0.697   2.509
60045SOL     OW80158  11.199   1.596   1.979
60045SOL    HW180159  11.180   1.500   2.000
60045SOL    HW280160  11.166   1.654   2.054
60046SOL     OW80161  12.861   0.922   2.474
60046SOL    HW180162  12.956   0.893   2.482
60046SOL    HW280163  12.853   0.987   2.399
60047SOL     OW80164  11.285   0.737   3.459
60047SOL    HW180165  11.373   0.724   3.504
60047SOL    HW280166  11.272   0.834   3.437
60048SOL     OW80167  11.785   1.365   2.588
60048SOL    HW180168  11.736   1.278   2.597
60048SOL    HW280169  11.762   1.408   2.501
60049SOL     OW80170  12.465   1.228   3.285
60049SOL    HW180171  12.502   1.155   3.227
60049SOL    HW280172  12.517   1.233   3.370
60050SOL     OW80173  11.981   0.004   2.364
60050SOL    HW180174  12.021   0.095   2.355
60050SOL    HW280175  11.881   0.012   2.370
60051SOL     OW80176  11.369   0.976   3.126
60051SOL    HW180177  11.458   0.931   3.112
60051SOL    HW280178  11.296   0.911   3.107
60052SOL     OW80179  12.359   1.792   3.478
60052SOL    HW180180  12.383   1.852   3.402
60052SOL    HW280181  12.366   1.697   3.448
60053SOL     OW80182  11.489   0.251   3.663
60053SOL    HW180183  11.560   0.322   3.669
60053SOL    HW280184  11.401   0.290   3.691
60054SOL     OW80185  12.638   1.417   2.815
60054SOL    HW180186  12.579   1.423   2.895
60054SOL    HW280187  12.623   1.329   2.769
60055SOL     OW80188  12.839   1.714   2.434
60055SOL    HW180189  12.798   1.691   2.346
60055SOL    HW280190  12.821   1.640   2.499
60056SOL     OW80191  11.770   0.729   2.132
60056SOL    HW180192  11.794   0.798   2.064
60056SOL    HW280193  11.692   0.762   2.186
60057SOL     OW80194  12.453   0.345   2.806
60057SOL    HW180195  12.367   0.295   2.793
60057SOL    HW280196  12.515   0.291   2.862
60058SOL     OW80197  11.979   0.605   3.327
60058SOL    HW180198  11.932   0.602   3.416
60058SOL    HW280199  11.928   0.550   3.261
60059SOL     OW80200  12.566   0.469   3.536
60059SOL    HW180201  12.546   0.512   3.624
60059SOL    HW280202  12.644   0.407   3.545
60060SOL     OW80203  12.145   0.890   3.434
60060SOL    HW180204  12.191   0.806   3.405
60060SOL    HW280205  12.089   0.924   3.359
60061SOL     OW80206  12.163   0.410   3.104
60061SOL    HW180207  12.086   0.444   3.158
60061SOL    HW280208  12.129   0.359   3.025
60062SOL     OW80209  12.213   0.701   2.291
60062SOL    HW180210  12.239   0.697   2.387
60062SOL    HW280211  12.128   0.650   2.277
60063SOL     OW80212  11.248   0.811   2.651
60063SOL    HW180213  11.347   0.799   2.660
60063SOL    HW280214  11.224   0.906   2.672
60064SOL     OW80215  11.302   1.821   3.433
60064SOL    HW180216  11.292   1.806   3.532
60064SOL    HW280217  11.216   1.857   3.397
60065SOL     OW80218  12.037   0.348   2.057
60065SOL    HW180219  12.096   0.411   2.008
60065SOL    HW280220  12.056   0.254   2.028
60066SOL     OW80221  12.534   1.144   2.407
60066SOL    HW180222  12.617   1.115   2.359
60066SOL    HW280223  12.485   1.211   2.351
60067SOL     OW80224  11.722   0.196   2.747
60067SOL    HW180225  11.717   0.191   2.847
60067SOL    HW280226  11.724   0.292   2.718
60068SOL     OW80227  12.180   1.456   2.339
60068SOL    HW180228  12.134   1.528   2.287
60068SOL    HW280229  12.176   1.476   2.437
60069SOL     OW80230  11.523   1.801   2.715
60069SOL    HW180231  11.573   1.715   2.721
60069SOL    HW280232  11.588   1.878   2.712
60070SOL     OW80233  12.399   1.550   3.368
60070SOL    HW180234  12.405   1.473   3.432
60070SOL    HW280235  12.347   1.524   3.288
60071SOL     OW80236  11.493   0.943   2.104
60071SOL    HW180237  11.575   0.982   2.062
60071SOL    HW280238  11.466   0.861   2.055
60072SOL     OW80239  12.630   0.735   2.590
60072SOL    HW180240  12.625   0.670   2.665
60072SOL    HW280241  12.710   0.794   2.603
60073SOL     OW80242  11.633   1.266   3.589
60073SOL    HW180243  11.583   1.267   3.503
60073SOL    HW280244  11.570   1.248   3.665
60074SOL     OW80245  12.283   1.776   2.099
60074SOL    HW180246  12.223   1.714   2.149
60074SOL    HW280247  12.314   1.732   2.014
60075SOL     OW80248  11.374   0.285   3.360
60075SOL    HW180249  11.294   0.345   3.347
60075SOL    HW280250  11.364   0.236   3.446
60076SOL     OW80251  11.636   1.743   2.185
60076SOL    HW180252  11.669   1.782   2.271
60076SOL    HW280253  11.712   1.736   2.120
60077SOL     OW80254  12.572   0.107   2.288
60077SOL    HW180255  12.548   0.070   2.198
60077SOL    HW280256  12.671   0.123   2.292
60078SOL     OW80257  11.421   1.785   3.103
60078SOL    HW180258  11.478   1.720   3.153
60078SOL    HW280259  11.405   1.752   3.010
60079SOL     OW80260  12.112   1.698   2.766
60079SOL    HW180261  12.192   1.641   2.787
60079SOL    HW280262  12.063   1.658   2.689
60080SOL     OW80263  11.554   0.700   2.342
60080SOL    HW180264  11.599   0.610   2.339
60080SOL    HW280265  11.460   0.689   2.375
60081SOL     OW80266  11.786   0.122   1.979
60081SOL    HW180267  11.884   0.100   1.986
60081SOL    HW280268  11.755   0.105   1.886
60082SOL     OW80269  11.953   0.264   3.611
60082SOL    HW180270  12.020   0.203   3.654
60082SOL    HW280271  11.880   0.283   3.676
60083SOL     OW80272  12.060   1.514   3.057
60083SOL    HW180273  12.037   1.489   2.963
60083SOL    HW280274  12.121   1.445   3.096
60084SOL     OW80275  12.523   0.590   3.295
60084SOL    HW180276  12.551   0.547   3.380
60084SOL    HW280277  12.548   0.686   3.296
60085SOL     OW80278  11.975   1.402   2.786
60085SOL    HW180279  12.065   1.416   2.744
60085SOL    HW280280  11.904   1.404   2.715
60086SOL     OW80281  12.094   0.503   2.761
60086SOL    HW180282  12.069   0.494   2.665
60086SOL    HW280283  12.142   0.421   2.792
60087SOL     OW80284  11.711   0.064   2.374
60087SOL    HW180285  11.630   0.065   2.432
60087SOL    HW280286  11.714   0.147   2.319
60088SOL     OW80287  12.606   1.188   1.903
60088SOL    HW180288  12.638   1.112   1.960
60088SOL    HW280289  12.514   1.215   1.933
60089SOL     OW80290  11.469   0.035   2.033
60089SOL    HW180291  11.518   0.119   2.012
60089SOL    HW280292  11.531  -0.030   2.078
60090SOL     OW80293  12.107   0.236   2.342
60090SOL    HW180294  12.059   0.277   2.264
60090SOL    HW280295  12.206   0.234   2.323
60091SOL     OW80296  12.248   0.683   3.326
60091SOL    HW180297  12.168   0.622   3.329
60091SOL    HW280298  12.329   0.630   3.302
60092SOL     OW80299  12.399   1.570   2.655
60092SOL    HW180300  12.420   1.644   2.590
60092SOL    HW280301  12.467   1.570   2.728
60093SOL     OW80302  11.631   1.152   2.603
60093SOL    HW180303  11.560   1.125   2.668
60093SOL    HW280304  11.605   1.124   2.510
60094SOL     OW80305  12.443   1.797   2.453
60094SOL    HW180306  12.487   1.861   2.389
60094SOL    HW280307  12.393   1.849   2.523
60095SOL     OW80308  12.204   0.549   1.878
60095SOL    HW180309  12.163   0.631   1.839
60095SOL    HW280310  12.268   0.575   1.951
60096SOL     OW80311  11.250   0.556   3.248
60096SOL    HW180312  11.342   0.555   3.207
60096SOL    HW280313  11.244   0.630   3.315
60097SOL     OW80314  11.733   0.222   3.009
60097SOL    HW180315  11.771   0.138   3.046
60097SOL    HW280316  11.645   0.241   3.053
60098SOL     OW80317  12.038   0.454   2.504
60098SOL    HW180318  12.006   0.526   2.442
60098SOL    HW280319  12.062   0.373   2.451
60099SOL     OW80320  12.189   0.039   2.615
60099SOL    HW180321  12.117   0.044   2.546
60099SOL    HW280322  12.165  -0.030   2.684
60100SOL     OW80323  12.601   1.173   2.729
60100SOL    HW180324  12.546   1.089   2.722
60100SOL    HW280325  12.627   1.202   2.637
60101SOL     OW80326  12.638   0.590   2.854
60101SOL    HW180327  12.608   0.495   2.861
60101SOL    HW280328  12.711   0.606   2.920
60102SOL     OW80329  11.660   1.385   2.036
60102SOL    HW180330  11.573   1.370   2.083
60102SOL    HW280331  11.643   1.411   1.941
60103SOL     OW80332  12.562   0.575   1.940
60103SOL    HW180333  12.508   0.554   2.021
60103SOL    HW280334  12.653   0.534   1.949
60104SOL     OW80335  11.699   0.256   2.190
60104SOL    HW180336  11.726   0.197   2.115
60104SOL    HW280337  11.699   0.351   2.159
60105SOL     OW80338  12.236   1.347   3.202
60105SOL    HW180339  12.156   1.324   3.257
60105SOL    HW280340  12.319   1.321   3.251
60106SOL     OW80341  12.764   1.629   3.487
60106SOL    HW180342  12.791   1.663   3.397
60106SOL    HW280343  12.843   1.591   3.533
60107SOL     OW80344  12.283   1.195   2.962
60107SOL    HW180345  12.243   1.239   3.043
60107SOL    HW280346  12.242   1.232   2.879
60108SOL     OW80347  12.087   0.089   3.264
60108SOL    HW180348  12.112   0.069   3.169
60108SOL    HW280349  12.159   0.145   3.306
60109SOL     OW80350  12.152   1.116   3.581
60109SOL    HW180351  12.053   1.122   3.591
60109SOL    HW280352  12.175   1.036   3.525
60110SOL     OW80353  11.877   1.050   2.230
60110SOL    HW180354  11.863   1.057   2.329
60110SOL    HW280355  11.961   0.999   2.212
60111SOL     OW80356  11.582   0.813   3.113
60111SOL    HW180357  11.668   0.825   3.163
60111SOL    HW280358  11.540   0.726   3.140
60112SOL     OW80359  12.446   0.386   3.124
60112SOL    HW180360  12.467   0.460   3.188
60112SOL    HW280361  12.357   0.403   3.081
60113SOL     OW80362  11.236   1.564   3.193
60113SOL    HW180363  11.190   1.646   3.159
60113SOL    HW280364  11.334   1.583   3.202
60114SOL     OW80365  11.539   1.100   2.363
60114SOL    HW180366  11.532   1.183   2.307
60114SOL    HW280367  11.543   1.020   2.303
60115SOL     OW80368  11.738   0.537   2.727
60115SOL    HW180369  11.750   0.603   2.653
60115SOL    HW280370  11.784   0.571   2.810
60116SOL     OW80371  12.424   1.348   2.250
60116SOL    HW180372  12.474   1.425   2.290
60116SOL    HW280373  12.329   1.350   2.282
60117SOL     OW80374  12.444   1.445   3.004
60117SOL    HW180375  12.491   1.458   3.091
60117SOL    HW280376  12.378   1.371   3.013
60118SOL     OW80377  12.754   0.639   2.334
60118SOL    HW180378  12.723   0.700   2.407
60118SOL    HW280379  12.804   0.691   2.265
60119SOL     OW80380  11.526   1.510   3.191
60119SOL    HW180381  11.505   1.466   3.104
60119SOL    HW280382  11.623   1.536   3.194
60120SOL     OW80383  11.574   0.751   3.460
60120SOL    HW180384  11.642   0.806   3.413
60120SOL    HW280385  11.614   0.663   3.487
60121SOL     OW80386  12.185   0.105   3.632
60121SOL    HW180387  12.191   0.190   3.580
60121SOL    HW280388  12.217   0.029   3.575
60122SOL     OW80389  11.676   0.050   3.602
60122SOL    HW180390  11.634  -0.007   3.532
60122SOL    HW280391  11.610   0.119   3.634
60123SOL     OW80392  11.745   0.870   2.891
60123SOL    HW180393  11.789   0.959   2.882
60123SOL    HW280394  11.682   0.870   2.968
60124SOL     OW80395  12.532   0.862   2.907
60124SOL    HW180396  12.457   0.862   2.841
60124SOL    HW280397  12.569   0.770   2.916
60125SOL     OW80398  12.381   0.525   2.137
60125SOL    HW180399  12.394   0.441   2.191
60125SOL    HW280400  12.352   0.599   2.197
60126SOL     OW80401  11.479   0.213   3.093
60126SOL    HW180402  11.456   0.250   3.183
60126SOL    HW280403  11.449   0.118   3.087
60127SOL     OW80404  11.209   1.310   3.144
60127SOL    HW180405  11.262   1.261   3.212
60127SOL    HW280406  11.231   1.408   3.149
60128SOL     OW80407  11.904   0.634   2.926
60128SOL    HW180408  11.963   0.608   2.850
60128SOL    HW280409  11.876   0.730   2.915
60129SOL     OW80410  11.479   0.063   2.480
60129SOL    HW180411  11.468   0.157   2.513
60129SOL    HW280412  11.474   0.000   2.557
60130SOL     OW80413  12.794   0.367   2.236
60130SOL    HW180414  12.796   0.291   2.300
60130SOL    HW280415  12.746   0.444   2.276
60131SOL     OW80416  12.195   0.766   2.828
60131SOL    HW180417  12.210   0.787   2.924
60131SOL    HW280418  12.165   0.671   2.819
60132SOL     OW80419  12.152   1.573   3.562
60132SOL    HW180420  12.132   1.617   3.474
60132SOL    HW280421  12.191   1.482   3.546
60133SOL     OW80422  11.522   0.898   3.666
60133SOL    HW180423  11.598   0.942   3.714
60133SOL    HW280424  11.557   0.851   3.584
60134SOL     OW80425  12.712   0.274   1.987
60134SOL    HW180426  12.651   0.199   2.010
60134SOL    HW280427  12.734   0.326   2.070
60135SOL     OW80428  12.475   0.838   1.904
60135SOL    HW180429  12.509   0.745   1.919
60135SOL    HW280430  12.493   0.865   1.809
60136SOL     OW80431  12.240   1.333   2.711
60136SOL    HW180432  12.247   1.249   2.656
60136SOL    HW280433  12.302   1.402   2.675
60137SOL     OW80434  11.491   0.810   2.811
60137SOL    HW180435  11.584   0.846   2.816
60137SOL    HW280436  11.485   0.725   2.863
60138SOL     OW80437  11.511   0.509   2.868
60138SOL    HW180438  11.459   0.426   2.851
60138SOL    HW280439  11.588   0.514   2.804
60139SOL     OW80440  12.310   0.380   3.540
60139SOL    HW180441  12.265   0.443   3.604
60139SOL    HW280442  12.403   0.411   3.523
60140SOL     OW80443  12.332   0.207   3.339
60140SOL    HW180444  12.332   0.271   3.416
60140SOL    HW280445  12.360   0.255   3.256
60141SOL     OW80446  11.180   1.326   2.062
60141SOL    HW180447  11.087   1.347   2.031
60141SOL    HW280448  11.190   1.227   2.075
60142SOL     OW80449  11.260   1.801   2.789
60142SOL    HW180450  11.218   1.715   2.762
60142SOL    HW280451  11.354   1.804   2.755
60143SOL     OW80452  11.676   1.568   2.772
60143SOL    HW180453  11.742   1.642   2.781
60143SOL    HW280454  11.720   1.489   2.730
60144SOL     OW80455  12.174   0.796   3.100
60144SOL    HW180456  12.215   0.764   3.186
60144SOL    HW280457  12.078   0.769   3.097
60145SOL     OW80458  11.212   0.544   2.976
60145SOL    HW180459  11.297   0.511   2.935
60145SOL    HW280460  11.225   0.559   3.074
60146SOL     OW80461  11.361   0.520   3.584
60146SOL    HW180462  11.420   0.480   3.514
60146SOL    HW280463  11.303   0.591   3.543
60147SOL     OW80464  12.541   0.950   3.522
60147SOL    HW180465  12.580   1.039   3.542
60147SOL    HW280466  12.551   0.930   3.425
60148SOL     OW80467  11.987   0.572   2.187
60148SOL    HW180468  11.994   0.483   2.141
60148SOL    HW280469  11.893   0.606   2.179
60149SOL     OW80470  11.424   1.564   3.606
60149SOL    HW180471  11.394   1.621   3.682
60149SOL    HW280472  11.417   1.467   3.632
60150SOL     OW80473  11.843   0.464   3.131
60150SOL    HW180474  11.809   0.375   3.101
60150SOL    HW280475  11.869   0.518   3.051
60151SOL     OW80476  12.102   1.678   3.327
60151SOL    HW180477  12.078   1.660   3.232
60151SOL    HW280478  12.132   1.772   3.337
60152SOL     OW80479  11.645   0.500   2.053
60152SOL    HW180480  11.706   0.580   2.057
60152SOL    HW280481  11.550   0.531   2.060
60153SOL     OW80482  11.331   1.137   3.328
60153SOL    HW180483  11.353   1.076   3.404
60153SOL    HW280484  11.341   1.088   3.242
60154SOL     OW80485  12.519   1.059   3.096
60154SOL    HW180486  12.543   0.996   3.022
60154SOL    HW280487  12.429   1.099   3.078
60155SOL     OW80488  12.474   0.855   2.171
60155SOL    HW180489  12.388   0.824   2.213
60155SOL    HW280490  12.470   0.841   2.072
60156SOL     OW80491  12.424   1.731   2.990
60156SOL    HW180492  12.508   1.736   2.936
60156SOL    HW280493  12.401   1.635   3.008
60157SOL     OW80494  11.255   1.258   2.884
60157SOL    HW180495  11.250   1.257   2.984
60157SOL    HW280496  11.172   1.217   2.846
60158SOL     OW80497  11.860   1.662   3.578
60158SOL    HW180498  11.804   1.743   3.587
60158SOL    HW280499  11.912   1.666   3.492
60159SOL     OW80500  12.898   0.135   2.385
60159SOL    HW180501  12.971   0.118   2.318
60159SOL    HW280502  12.867   0.048   2.423
60160SOL     OW80503  12.560   1.573   2.339
60160SOL    HW180504  12.627   1.585   2.265
60160SOL    HW280505  12.520   1.662   2.362
60161SOL     OW80506  11.302   1.794   3.713
60161SOL    HW180507  11.261   1.720   3.766
60161SOL    HW280508  11.366   1.845   3.771
60162SOL     OW80509  12.452   0.927   2.534
60162SOL    HW180510  12.512   0.846   2.536
60162SOL    HW280511  12.492   0.996   2.474
60163SOL     OW80512  12.002   1.273   3.284
60163SOL    HW180513  11.997   1.306   3.379
60163SOL    HW280514  11.916   1.292   3.238
60164SOL     OW80515  11.844   1.616   2.016
60164SOL    HW180516  11.853   1.626   1.917
60164SOL    HW280517  11.804   1.527   2.037
60165SOL     OW80518  11.435   0.326   2.582
60165SOL    HW180519  11.356   0.377   2.548
60165SOL    HW280520  11.426   0.311   2.680
60166SOL     OW80521  12.366   1.612   1.893
60166SOL    HW180522  12.372   1.519   1.930
60166SOL    HW280523  12.307   1.612   1.813
60167SOL     OW80524  11.994   1.002   3.234
60167SOL    HW180525  12.034   1.001   3.142
60167SOL    HW280526  12.004   1.094   3.274
60168SOL     OW80527  12.088   0.910   2.153
60168SOL    HW180528  12.151   0.948   2.085
60168SOL    HW280529  12.128   0.827   2.192
60169SOL     OW80530  12.676   1.607   1.906
60169SOL    HW180531  12.584   1.644   1.913
60169SOL    HW280532  12.714   1.627   1.816
60170SOL     OW80533  11.544   1.288   3.352
60170SOL    HW180534  11.531   1.381   3.318
60170SOL    HW280535  11.460   1.236   3.339
60171SOL     OW80536  12.211   1.098   2.558
60171SOL    HW180537  12.141   1.051   2.612
60171SOL    HW280538  12.270   1.030   2.515
60172SOL     OW80539  12.186   0.236   2.833
60172SOL    HW180540  12.178   0.200   2.740
60172SOL    HW280541  12.184   0.160   2.898
60173SOL     OW80542  11.762   1.487   2.353
60173SOL    HW180543  11.804   1.429   2.283
60173SOL    HW280544  11.718   1.566   2.309
60174SOL     OW80545  11.427   1.348   2.152
60174SOL    HW180546  11.331   1.349   2.125
60174SOL    HW280547  11.439   1.401   2.236
60175SOL     OW80548  11.277   1.013   3.588
60175SOL    HW180549  11.200   0.980   3.642
60175SOL    HW280550  11.362   0.983   3.630
60176SOL     OW80551  11.844   0.203   3.351
60176SOL    HW180552  11.934   0.187   3.311
60176SOL    HW280553  11.852   0.208   3.450
60177SOL     OW80554  11.247   0.345   1.895
60177SOL    HW180555  11.155   0.317   1.866
60177SOL    HW280556  11.278   0.422   1.839
60178SOL     OW80557  12.612   0.856   3.260
60178SOL    HW180558  12.555   0.908   3.197
60178SOL    HW280559  12.708   0.868   3.236
60179SOL     OW80560  11.244   0.166   2.180
60179SOL    HW180561  11.227   0.249   2.126
60179SOL    HW280562  11.334   0.129   2.158
60180SOL     OW80563  12.355   1.335   1.981
60180SOL    HW180564  12.256   1.324   1.983
60180SOL    HW280565  12.389   1.350   2.074
60181SOL     OW80566  11.785   0.842   3.293
60181SOL    HW180567  11.841   0.923   3.276
60181SOL    HW280568  11.844   0.762   3.296
60182SOL     OW80569  12.665   1.767   2.821
60182SOL    HW180570  12.698   1.831   2.752
60182SOL    HW280571  12.731   1.761   2.896
60183SOL     OW80572  11.888   0.565   3.570
60183SOL    HW180573  11.907   0.630   3.644
60183SOL    HW280574  11.948   0.485   3.579
60184SOL     OW80575  12.622   1.220   3.495
60184SOL    HW180576  12.613   1.210   3.594
60184SOL    HW280577  12.718   1.213   3.469
60185SOL     OW80578  11.562   1.741   3.422
60185SOL    HW180579  11.471   1.782   3.420
60185SOL    HW280580  11.555   1.647   3.454
60186SOL     OW80581  12.397   0.325   2.311
60186SOL    HW180582  12.462   0.251   2.300
60186SOL    HW280583  12.417   0.375   2.395
60187SOL     OW80584  11.766   0.745   2.514
60187SOL    HW180585  11.816   0.830   2.495
60187SOL    HW280586  11.678   0.747   2.466
60188SOL     OW80587  12.031   1.374   1.878
60188SOL    HW180588  11.985   1.389   1.966
60188SOL    HW280589  12.075   1.459   1.848
60189SOL     OW80590  11.833   1.790   2.815
60189SOL    HW180591  11.787   1.878   2.802
60189SOL    HW280592  11.932   1.802   2.808
60190SOL     OW80593  12.031   0.956   2.723
60190SOL    HW180594  12.085   0.887   2.771
60190SOL    HW280595  11.999   1.025   2.789
60191SOL     OW80596  12.255   0.984   1.949
60191SOL    HW180597  12.232   1.037   1.867
60191SOL    HW280598  12.336   0.928   1.930
60192SOL     OW80599  13.033   1.569   2.713
60192SOL    HW180600  12.962   1.557   2.643
60192SOL    HW280601  13.034   1.490   2.773
60193SOL     OW80602  11.393   1.314   3.706
60193SOL    HW180603  11.328   1.241   3.685
60193SOL    HW280604  11.397   1.328   3.804
60194SOL     OW80605  11.251   1.240   2.515
60194SOL    HW180606  11.250   1.193   2.603
60194SOL    HW280607  11.333   1.212   2.464
60195SOL     OW80608  11.844   1.391   3.486
60195SOL    HW180609  11.766   1.341   3.524
60195SOL    HW280610  11.841   1.486   3.517
60196SOL     OW80611  11.600   0.424   2.382
60196SOL    HW180612  11.630   0.352   2.320
60196SOL    HW280613  11.561   0.384   2.465
60197SOL     OW80614  11.489   0.547   3.142
60197SOL    HW180615  11.527   0.488   3.214
60197SOL    HW280616  11.529   0.521   3.054
60198SOL     OW80617  11.984   1.586   2.549
60198SOL    HW180618  12.016   1.596   2.455
60198SOL    HW280619  11.905   1.524   2.551
60199SOL     OW80620  12.596   0.214   2.974
60199SOL    HW180621  12.648   0.149   3.029
60199SOL    HW280622  12.547   0.277   3.035
60200SOL     OW80623  12.173   0.034   3.016
60200SOL    HW180624  12.110  -0.038   2.985
60200SOL    HW280625  12.266  -0.002   3.016
60201SOL     OW80626  11.942   1.330   2.163
60201SOL    HW180627  11.896   1.243   2.180
60201SOL    HW280628  12.033   1.327   2.204
60202SOL     OW80629  11.790   1.567   3.146
60202SOL    HW180630  11.785   1.649   3.203
60202SOL    HW280631  11.879   1.564   3.101
60203SOL     OW80632  12.524   0.052   2.030
60203SOL    HW180633  12.559   0.011   1.946
60203SOL    HW280634  12.434   0.014   2.050
60204SOL     OW80635  12.472   0.453   2.553
60204SOL    HW180636  12.413   0.533   2.557
60204SOL    HW280637  12.487   0.418   2.646
60205SOL     OW80638  12.765   0.221   2.744
60205SOL    HW180639  12.681   0.220   2.798
60205SOL    HW280640  12.767   0.304   2.688
60206SOL     OW80641  11.211   1.077   2.162
60206SOL    HW180642  11.310   1.066   2.153
60206SOL    HW280643  11.171   0.991   2.194
60207SOL     OW80644  12.047   1.646   2.199
60207SOL    HW180645  11.970   1.611   2.145
60207SOL    HW280646  12.015   1.717   2.261
60208SOL     OW80647  11.402   0.628   3.837
60208SOL    HW180648  11.309   0.626   3.874
60208SOL    HW280649  11.403   0.589   3.745
60209SOL     OW80650  11.397   0.275   4.720
60209SOL    HW180651  11.432   0.258   4.812
60209SOL    HW280652  11.309   0.230   4.708
60210SOL     OW80653  11.191   0.368   4.371
60210SOL    HW180654  11.109   0.411   4.410
60210SOL    HW280655  11.163   0.295   4.308
60211SOL     OW80656  11.741   1.275   4.889
60211SOL    HW180657  11.648   1.268   4.852
60211SOL    HW280658  11.752   1.364   4.933
60212SOL     OW80659  12.727   1.511   4.427
60212SOL    HW180660  12.670   1.495   4.508
60212SOL    HW280661  12.668   1.521   4.347
60213SOL     OW80662  12.307   0.703   4.441
60213SOL    HW180663  12.364   0.781   4.416
60213SOL    HW280664  12.247   0.729   4.517
60214SOL     OW80665  11.940   1.144   4.747
60214SOL    HW180666  11.862   1.161   4.807
60214SOL    HW280667  11.974   1.231   4.711
60215SOL     OW80668  12.022   0.798   5.547
60215SOL    HW180669  12.018   0.874   5.612
60215SOL    HW280670  12.044   0.834   5.456
60216SOL     OW80671  11.857   1.012   4.389
60216SOL    HW180672  11.926   0.996   4.459
60216SOL    HW280673  11.784   1.069   4.427
60217SOL     OW80674  11.858   1.161   5.527
60217SOL    HW180675  11.918   1.240   5.541
60217SOL    HW280676  11.772   1.192   5.486
60218SOL     OW80677  11.507   1.435   4.785
60218SOL    HW180678  11.429   1.404   4.732
60218SOL    HW280679  11.565   1.493   4.728
60219SOL     OW80680  12.632   1.505   5.063
60219SOL    HW180681  12.656   1.599   5.089
60219SOL    HW280682  12.616   1.451   5.145
60220SOL     OW80683  11.610   0.392   5.223
60220SOL    HW180684  11.692   0.336   5.232
60220SOL    HW280685  11.529   0.334   5.227
60221SOL     OW80686  11.403   1.713   4.207
60221SOL    HW180687  11.437   1.790   4.261
60221SOL    HW280688  11.447   1.713   4.117
60222SOL     OW80689  12.299   1.341   5.414
60222SOL    HW180690  12.346   1.341   5.502
60222SOL    HW280691  12.251   1.254   5.403
60223SOL     OW80692  11.402   1.434   4.262
60223SOL    HW180693  11.376   1.530   4.262
60223SOL    HW280694  11.331   1.380   4.307
60224SOL     OW80695  11.412   1.091   4.610
60224SOL    HW180696  11.426   1.007   4.662
60224SOL    HW280697  11.357   1.155   4.665
60225SOL     OW80698  11.792   1.786   5.163
60225SOL    HW180699  11.700   1.769   5.198
60225SOL    HW280700  11.820   1.878   5.189
60226SOL     OW80701  11.778   0.964   3.847
60226SOL    HW180702  11.785   1.048   3.793
60226SOL    HW280703  11.824   0.977   3.935
60227SOL     OW80704  12.766   0.114   5.204
60227SOL    HW180705  12.748   0.181   5.132
60227SOL    HW280706  12.763   0.160   5.293
60228SOL     OW80707  11.294   0.643   4.287
60228SOL    HW180708  11.249   0.555   4.304
60228SOL    HW280709  11.293   0.697   4.371
60229SOL     OW80710  11.199   1.596   3.841
60229SOL    HW180711  11.180   1.500   3.862
60229SOL    HW280712  11.166   1.654   3.916
60230SOL     OW80713  12.861   0.922   4.336
60230SOL    HW180714  12.956   0.893   4.344
60230SOL    HW280715  12.853   0.987   4.261
60231SOL     OW80716  11.285   0.737   5.321
60231SOL    HW180717  11.373   0.724   5.366
60231SOL    HW280718  11.272   0.834   5.299
60232SOL     OW80719  11.785   1.365   4.450
60232SOL    HW180720  11.736   1.278   4.459
60232SOL    HW280721  11.762   1.408   4.363
60233SOL     OW80722  12.465   1.228   5.147
60233SOL    HW180723  12.502   1.155   5.089
60233SOL    HW280724  12.517   1.233   5.232
60234SOL     OW80725  11.981   0.004   4.226
60234SOL    HW180726  12.021   0.095   4.217
60234SOL    HW280727  11.881   0.012   4.232
60235SOL     OW80728  11.369   0.976   4.988
60235SOL    HW180729  11.458   0.931   4.974
60235SOL    HW280730  11.296   0.911   4.969
60236SOL     OW80731  12.359   1.792   5.340
60236SOL    HW180732  12.383   1.852   5.264
60236SOL    HW280733  12.366   1.697   5.310
60237SOL     OW80734  11.489   0.251   5.525
60237SOL    HW180735  11.560   0.322   5.531
60237SOL    HW280736  11.401   0.290   5.553
60238SOL     OW80737  12.638   1.417   4.677
60238SOL    HW180738  12.579   1.423   4.757
60238SOL    HW280739  12.623   1.329   4.631
60239SOL     OW80740  12.839   1.714   4.296
60239SOL    HW180741  12.798   1.691   4.208
60239SOL    HW280742  12.821   1.640   4.361
60240SOL     OW80743  11.770   0.729   3.994
60240SOL    HW180744  11.794   0.798   3.926
60240SOL    HW280745  11.692   0.762   4.048
60241SOL     OW80746  12.453   0.345   4.668
60241SOL    HW180747  12.367   0.295   4.655
60241SOL    HW280748  12.515   0.291   4.724
60242SOL     OW80749  11.979   0.605   5.189
60242SOL    HW180750  11.932   0.602   5.278
60242SOL    HW280751  11.928   0.550   5.123
60243SOL     OW80752  12.566   0.469   5.398
60243SOL    HW180753  12.546   0.512   5.486
60243SOL    HW280754  12.644   0.407   5.407
60244SOL     OW80755  12.145   0.890   5.296
60244SOL    HW180756  12.191   0.806   5.267
60244SOL    HW280757  12.089   0.924   5.221
60245SOL     OW80758  12.163   0.410   4.966
60245SOL    HW180759  12.086   0.444   5.020
60245SOL    HW280760  12.129   0.359   4.887
60246SOL     OW80761  12.213   0.701   4.153
60246SOL    HW180762  12.239   0.697   4.249
60246SOL    HW280763  12.128   0.650   4.139
60247SOL     OW80764  11.248   0.811   4.513
60247SOL    HW180765  11.347   0.799   4.522
60247SOL    HW280766  11.224   0.906   4.534
60248SOL     OW80767  11.302   1.821   5.295
60248SOL    HW180768  11.292   1.806   5.394
60248SOL    HW280769  11.216   1.857   5.259
60249SOL     OW80770  12.037   0.348   3.919
60249SOL    HW180771  12.096   0.411   3.870
60249SOL    HW280772  12.056   0.254   3.890
60250SOL     OW80773  12.534   1.144   4.269
60250SOL    HW180774  12.617   1.115   4.221
60250SOL    HW280775  12.485   1.211   4.213
60251SOL     OW80776  11.722   0.196   4.609
60251SOL    HW180777  11.717   0.191   4.709
60251SOL    HW280778  11.724   0.292   4.580
60252SOL     OW80779  12.180   1.456   4.201
60252SOL    HW180780  12.134   1.528   4.149
60252SOL    HW280781  12.176   1.476   4.299
60253SOL     OW80782  11.523   1.801   4.577
60253SOL    HW180783  11.573   1.715   4.583
60253SOL    HW280784  11.588   1.878   4.574
60254SOL     OW80785  12.399   1.550   5.230
60254SOL    HW180786  12.405   1.473   5.294
60254SOL    HW280787  12.347   1.524   5.150
60255SOL     OW80788  11.493   0.943   3.966
60255SOL    HW180789  11.575   0.982   3.924
60255SOL    HW280790  11.466   0.861   3.917
60256SOL     OW80791  12.630   0.735   4.452
60256SOL    HW180792  12.625   0.670   4.527
60256SOL    HW280793  12.710   0.794   4.465
60257SOL     OW80794  11.633   1.266   5.451
60257SOL    HW180795  11.583   1.267   5.365
60257SOL    HW280796  11.570   1.248   5.527
60258SOL     OW80797  12.283   1.776   3.961
60258SOL    HW180798  12.223   1.714   4.011
60258SOL    HW280799  12.314   1.732   3.876
60259SOL     OW80800  11.374   0.285   5.222
60259SOL    HW180801  11.294   0.345   5.209
60259SOL    HW280802  11.364   0.236   5.308
60260SOL     OW80803  11.636   1.743   4.047
60260SOL    HW180804  11.669   1.782   4.133
60260SOL    HW280805  11.712   1.736   3.982
60261SOL     OW80806  12.572   0.107   4.150
60261SOL    HW180807  12.548   0.070   4.060
60261SOL    HW280808  12.671   0.123   4.154
60262SOL     OW80809  11.421   1.785   4.965
60262SOL    HW180810  11.478   1.720   5.015
60262SOL    HW280811  11.405   1.752   4.872
60263SOL     OW80812  12.112   1.698   4.628
60263SOL    HW180813  12.192   1.641   4.649
60263SOL    HW280814  12.063   1.658   4.551
60264SOL     OW80815  11.554   0.700   4.204
60264SOL    HW180816  11.599   0.610   4.201
60264SOL    HW280817  11.460   0.689   4.237
60265SOL     OW80818  11.786   0.122   3.841
60265SOL    HW180819  11.884   0.100   3.848
60265SOL    HW280820  11.755   0.105   3.748
60266SOL     OW80821  11.953   0.264   5.473
60266SOL    HW180822  12.020   0.203   5.516
60266SOL    HW280823  11.880   0.283   5.538
60267SOL     OW80824  12.060   1.514   4.919
60267SOL    HW180825  12.037   1.489   4.825
60267SOL    HW280826  12.121   1.445   4.958
60268SOL     OW80827  12.523   0.590   5.157
60268SOL    HW180828  12.551   0.547   5.242
60268SOL    HW280829  12.548   0.686   5.158
60269SOL     OW80830  11.975   1.402   4.648
60269SOL    HW180831  12.065   1.416   4.606
60269SOL    HW280832  11.904   1.404   4.577
60270SOL     OW80833  12.094   0.503   4.623
60270SOL    HW180834  12.069   0.494   4.527
60270SOL    HW280835  12.142   0.421   4.654
60271SOL     OW80836  11.711   0.064   4.236
60271SOL    HW180837  11.630   0.065   4.294
60271SOL    HW280838  11.714   0.147   4.181
60272SOL     OW80839  12.606   1.188   3.765
60272SOL    HW180840  12.638   1.112   3.822
60272SOL    HW280841  12.514   1.215   3.795
60273SOL     OW80842  11.469   0.035   3.895
60273SOL    HW180843  11.518   0.119   3.874
60273SOL    HW280844  11.531  -0.030   3.940
60274SOL     OW80845  12.107   0.236   4.204
60274SOL    HW180846  12.059   0.277   4.126
60274SOL    HW280847  12.206   0.234   4.185
60275SOL     OW80848  12.248   0.683   5.188
60275SOL    HW180849  12.168   0.622   5.191
60275SOL    HW280850  12.329   0.630   5.164
60276SOL     OW80851  12.399   1.570   4.517
60276SOL    HW180852  12.420   1.644   4.452
60276SOL    HW280853  12.467   1.570   4.590
60277SOL     OW80854  11.631   1.152   4.465
60277SOL    HW180855  11.560   1.125   4.530
60277SOL    HW280856  11.605   1.124   4.372
60278SOL     OW80857  12.443   1.797   4.315
60278SOL    HW180858  12.487   1.861   4.251
60278SOL    HW280859  12.393   1.849   4.385
60279SOL     OW80860  12.204   0.549   3.740
60279SOL    HW180861  12.163   0.631   3.701
60279SOL    HW280862  12.268   0.575   3.813
60280SOL     OW80863  11.250   0.556   5.110
60280SOL    HW180864  11.342   0.555   5.069
60280SOL    HW280865  11.244   0.630   5.177
60281SOL     OW80866  11.733   0.222   4.871
60281SOL    HW180867  11.771   0.138   4.908
60281SOL    HW280868  11.645   0.241   4.915
60282SOL     OW80869  12.038   0.454   4.366
60282SOL    HW180870  12.006   0.526   4.304
60282SOL    HW280871  12.062   0.373   4.313
60283SOL     OW80872  12.189   0.039   4.477
60283SOL    HW180873  12.117   0.044   4.408
60283SOL    HW280874  12.165  -0.030   4.546
60284SOL     OW80875  12.601   1.173   4.591
60284SOL    HW180876  12.546   1.089   4.584
60284SOL    HW280877  12.627   1.202   4.499
60285SOL     OW80878  12.638   0.590   4.716
60285SOL    HW180879  12.608   0.495   4.723
60285SOL    HW280880  12.711   0.606   4.782
60286SOL     OW80881  11.660   1.385   3.898
60286SOL    HW180882  11.573   1.370   3.945
60286SOL    HW280883  11.643   1.411   3.803
60287SOL     OW80884  12.562   0.575   3.802
60287SOL    HW180885  12.508   0.554   3.883
60287SOL    HW280886  12.653   0.534   3.811
60288SOL     OW80887  11.699   0.256   4.052
60288SOL    HW180888  11.726   0.197   3.977
60288SOL    HW280889  11.699   0.351   4.021
60289SOL     OW80890  12.236   1.347   5.064
60289SOL    HW180891  12.156   1.324   5.119
60289SOL    HW280892  12.319   1.321   5.113
60290SOL     OW80893  12.764   1.629   5.349
60290SOL    HW180894  12.791   1.663   5.259
60290SOL    HW280895  12.843   1.591   5.395
60291SOL     OW80896  12.283   1.195   4.824
60291SOL    HW180897  12.243   1.239   4.905
60291SOL    HW280898  12.242   1.232   4.741
60292SOL     OW80899  12.087   0.089   5.126
60292SOL    HW180900  12.112   0.069   5.031
60292SOL    HW280901  12.159   0.145   5.168
60293SOL     OW80902  12.152   1.116   5.443
60293SOL    HW180903  12.053   1.122   5.453
60293SOL    HW280904  12.175   1.036   5.387
60294SOL     OW80905  11.877   1.050   4.092
60294SOL    HW180906  11.863   1.057   4.191
60294SOL    HW280907  11.961   0.999   4.074
60295SOL     OW80908  11.582   0.813   4.975
60295SOL    HW180909  11.668   0.825   5.025
60295SOL    HW280910  11.540   0.726   5.002
60296SOL     OW80911  12.446   0.386   4.986
60296SOL    HW180912  12.467   0.460   5.050
60296SOL    HW280913  12.357   0.403   4.943
60297SOL     OW80914  11.236   1.564   5.055
60297SOL    HW180915  11.190   1.646   5.021
60297SOL    HW280916  11.334   1.583   5.064
60298SOL     OW80917  11.539   1.100   4.225
60298SOL    HW180918  11.532   1.183   4.169
60298SOL    HW280919  11.543   1.020   4.165
60299SOL     OW80920  11.738   0.537   4.589
60299SOL    HW180921  11.750   0.603   4.515
60299SOL    HW280922  11.784   0.571   4.672
60300SOL     OW80923  12.424   1.348   4.112
60300SOL    HW180924  12.474   1.425   4.152
60300SOL    HW280925  12.329   1.350   4.144
60301SOL     OW80926  12.444   1.445   4.866
60301SOL    HW180927  12.491   1.458   4.953
60301SOL    HW280928  12.378   1.371   4.875
60302SOL     OW80929  12.754   0.639   4.196
60302SOL    HW180930  12.723   0.700   4.269
60302SOL    HW280931  12.804   0.691   4.127
60303SOL     OW80932  11.526   1.510   5.053
60303SOL    HW180933  11.505   1.466   4.966
60303SOL    HW280934  11.623   1.536   5.056
60304SOL     OW80935  11.574   0.751   5.322
60304SOL    HW180936  11.642   0.806   5.275
60304SOL    HW280937  11.614   0.663   5.349
60305SOL     OW80938  12.185   0.105   5.494
60305SOL    HW180939  12.191   0.190   5.442
60305SOL    HW280940  12.217   0.029   5.437
60306SOL     OW80941  11.676   0.050   5.464
60306SOL    HW180942  11.634  -0.007   5.394
60306SOL    HW280943  11.610   0.119   5.496
60307SOL     OW80944  11.745   0.870   4.753
60307SOL    HW180945  11.789   0.959   4.744
60307SOL    HW280946  11.682   0.870   4.830
60308SOL     OW80947  12.532   0.862   4.769
60308SOL    HW180948  12.457   0.862   4.703
60308SOL    HW280949  12.569   0.770   4.778
60309SOL     OW80950  12.381   0.525   3.999
60309SOL    HW180951  12.394   0.441   4.053
60309SOL    HW280952  12.352   0.599   4.059
60310SOL     OW80953  11.479   0.213   4.955
60310SOL    HW180954  11.456   0.250   5.045
60310SOL    HW280955  11.449   0.118   4.949
60311SOL     OW80956  11.209   1.310   5.006
60311SOL    HW180957  11.262   1.261   5.074
60311SOL    HW280958  11.231   1.408   5.011
60312SOL     OW80959  11.904   0.634   4.788
60312SOL    HW180960  11.963   0.608   4.712
60312SOL    HW280961  11.876   0.730   4.777
60313SOL     OW80962  11.479   0.063   4.342
60313SOL    HW180963  11.468   0.157   4.375
60313SOL    HW280964  11.474   0.000   4.419
60314SOL     OW80965  12.794   0.367   4.098
60314SOL    HW180966  12.796   0.291   4.162
60314SOL    HW280967  12.746   0.444   4.138
60315SOL     OW80968  12.195   0.766   4.690
60315SOL    HW180969  12.210   0.787   4.786
60315SOL    HW280970  12.165   0.671   4.681
60316SOL     OW80971  12.152   1.573   5.424
60316SOL    HW180972  12.132   1.617   5.336
60316SOL    HW280973  12.191   1.482   5.408
60317SOL     OW80974  11.522   0.898   5.528
60317SOL    HW180975  11.598   0.942   5.576
60317SOL    HW280976  11.557   0.851   5.446
60318SOL     OW80977  12.712   0.274   3.849
60318SOL    HW180978  12.651   0.199   3.872
60318SOL    HW280979  12.734   0.326   3.932
60319SOL     OW80980  12.475   0.838   3.766
60319SOL    HW180981  12.509   0.745   3.781
60319SOL    HW280982  12.493   0.865   3.671
60320SOL     OW80983  12.240   1.333   4.573
60320SOL    HW180984  12.247   1.249   4.518
60320SOL    HW280985  12.302   1.402   4.537
60321SOL     OW80986  11.491   0.810   4.673
60321SOL    HW180987  11.584   0.846   4.678
60321SOL    HW280988  11.485   0.725   4.725
60322SOL     OW80989  11.511   0.509   4.730
60322SOL    HW180990  11.459   0.426   4.713
60322SOL    HW280991  11.588   0.514   4.666
60323SOL     OW80992  12.310   0.380   5.402
60323SOL    HW180993  12.265   0.443   5.466
60323SOL    HW280994  12.403   0.411   5.385
60324SOL     OW80995  12.332   0.207   5.201
60324SOL    HW180996  12.332   0.271   5.278
60324SOL    HW280997  12.360   0.255   5.118
60325SOL     OW80998  11.180   1.326   3.924
60325SOL    HW180999  11.087   1.347   3.893
60325SOL    HW281000  11.190   1.227   3.937
60326SOL     OW81001  11.260   1.801   4.651
60326SOL    HW181002  11.218   1.715   4.624
60326SOL    HW281003  11.354   1.804   4.617
60327SOL     OW81004  11.676   1.568   4.634
60327SOL    HW181005  11.742   1.642   4.643
60327SOL    HW281006  11.720   1.489   4.592
60328SOL     OW81007  12.174   0.796   4.962
60328SOL    HW181008  12.215   0.764   5.048
60328SOL    HW281009  12.078   0.769   4.959
60329SOL     OW81010  11.212   0.544   4.838
60329SOL    HW181011  11.297   0.511   4.797
60329SOL    HW281012  11.225   0.559   4.936
60330SOL     OW81013  11.361   0.520   5.446
60330SOL    HW181014  11.420   0.480   5.376
60330SOL    HW281015  11.303   0.591   5.405
60331SOL     OW81016  12.541   0.950   5.384
60331SOL    HW181017  12.580   1.039   5.404
60331SOL    HW281018  12.551   0.930   5.287
60332SOL     OW81019  11.987   0.572   4.049
60332SOL    HW181020  11.994   0.483   4.003
60332SOL    HW281021  11.893   0.606   4.041
60333SOL     OW81022  11.424   1.564   5.468
60333SOL    HW181023  11.394   1.621   5.544
60333SOL    HW281024  11.417   1.467   5.494
60334SOL     OW81025  11.843   0.464   4.993
60334SOL    HW181026  11.809   0.375   4.963
60334SOL    HW281027  11.869   0.518   4.913
60335SOL     OW81028  12.102   1.678   5.189
60335SOL    HW181029  12.078   1.660   5.094
60335SOL    HW281030  12.132   1.772   5.199
60336SOL     OW81031  11.645   0.500   3.915
60336SOL    HW181032  11.706   0.580   3.919
60336SOL    HW281033  11.550   0.531   3.922
60337SOL     OW81034  11.331   1.137   5.190
60337SOL    HW181035  11.353   1.076   5.266
60337SOL    HW281036  11.341   1.088   5.104
60338SOL     OW81037  12.519   1.059   4.958
60338SOL    HW181038  12.543   0.996   4.884
60338SOL    HW281039  12.429   1.099   4.940
60339SOL     OW81040  12.474   0.855   4.033
60339SOL    HW181041  12.388   0.824   4.075
60339SOL    HW281042  12.470   0.841   3.934
60340SOL     OW81043  12.424   1.731   4.852
60340SOL    HW181044  12.508   1.736   4.798
60340SOL    HW281045  12.401   1.635   4.870
60341SOL     OW81046  11.255   1.258   4.746
60341SOL    HW181047  11.250   1.257   4.846
60341SOL    HW281048  11.172   1.217   4.708
60342SOL     OW81049  11.860   1.662   5.440
60342SOL    HW181050  11.804   1.743   5.449
60342SOL    HW281051  11.912   1.666   5.354
60343SOL     OW81052  12.898   0.135   4.247
60343SOL    HW181053  12.971   0.118   4.180
60343SOL    HW281054  12.867   0.048   4.285
60344SOL     OW81055  12.560   1.573   4.201
60344SOL    HW181056  12.627   1.585   4.127
60344SOL    HW281057  12.520   1.662   4.224
60345SOL     OW81058  11.302   1.794   5.575
60345SOL    HW181059  11.261   1.720   5.628
60345SOL    HW281060  11.366   1.845   5.633
60346SOL     OW81061  12.452   0.927   4.396
60346SOL    HW181062  12.512   0.846   4.398
60346SOL    HW281063  12.492   0.996   4.336
60347SOL     OW81064  12.002   1.273   5.146
60347SOL    HW181065  11.997   1.306   5.241
60347SOL    HW281066  11.916   1.292   5.100
60348SOL     OW81067  11.844   1.616   3.878
60348SOL    HW181068  11.853   1.626   3.779
60348SOL    HW281069  11.804   1.527   3.899
60349SOL     OW81070  11.435   0.326   4.444
60349SOL    HW181071  11.356   0.377   4.410
60349SOL    HW281072  11.426   0.311   4.542
60350SOL     OW81073  12.366   1.612   3.755
60350SOL    HW181074  12.372   1.519   3.792
60350SOL    HW281075  12.307   1.612   3.675
60351SOL     OW81076  11.994   1.002   5.096
60351SOL    HW181077  12.034   1.001   5.004
60351SOL    HW281078  12.004   1.094   5.136
60352SOL     OW81079  12.088   0.910   4.015
60352SOL    HW181080  12.151   0.948   3.947
60352SOL    HW281081  12.128   0.827   4.054
60353SOL     OW81082  12.676   1.607   3.768
60353SOL    HW181083  12.584   1.644   3.775
60353SOL    HW281084  12.714   1.627   3.678
60354SOL     OW81085  11.544   1.288   5.214
60354SOL    HW181086  11.531   1.381   5.180
60354SOL    HW281087  11.460   1.236   5.201
60355SOL     OW81088  12.211   1.098   4.420
60355SOL    HW181089  12.141   1.051   4.474
60355SOL    HW281090  12.270   1.030   4.377
60356SOL     OW81091  12.186   0.236   4.695
60356SOL    HW181092  12.178   0.200   4.602
60356SOL    HW281093  12.184   0.160   4.760
60357SOL     OW81094  11.762   1.487   4.215
60357SOL    HW181095  11.804   1.429   4.145
60357SOL    HW281096  11.718   1.566   4.171
60358SOL     OW81097  11.427   1.348   4.014
60358SOL    HW181098  11.331   1.349   3.987
60358SOL    HW281099  11.439   1.401   4.098
60359SOL     OW81100  11.277   1.013   5.450
60359SOL    HW181101  11.200   0.980   5.504
60359SOL    HW281102  11.362   0.983   5.492
60360SOL     OW81103  11.844   0.203   5.213
60360SOL    HW181104  11.934   0.187   5.173
60360SOL    HW281105  11.852   0.208   5.312
60361SOL     OW81106  11.247   0.345   3.757
60361SOL    HW181107  11.155   0.317   3.728
60361SOL    HW281108  11.278   0.422   3.701
60362SOL     OW81109  12.612   0.856   5.122
60362SOL    HW181110  12.555   0.908   5.059
60362SOL    HW281111  12.708   0.868   5.098
60363SOL     OW81112  11.244   0.166   4.042
60363SOL    HW181113  11.227   0.249   3.988
60363SOL    HW281114  11.334   0.129   4.020
60364SOL     OW81115  12.355   1.335   3.843
60364SOL    HW181116  12.256   1.324   3.845
60364SOL    HW281117  12.389   1.350   3.936
60365SOL     OW81118  11.785   0.842   5.155
60365SOL    HW181119  11.841   0.923   5.138
60365SOL    HW281120  11.844   0.762   5.158
60366SOL     OW81121  12.665   1.767   4.683
60366SOL    HW181122  12.698   1.831   4.614
60366SOL    HW281123  12.731   1.761   4.758
60367SOL     OW81124  11.888   0.565   5.432
60367SOL    HW181125  11.907   0.630   5.506
60367SOL    HW281126  11.948   0.485   5.441
60368SOL     OW81127  12.622   1.220   5.357
60368SOL    HW181128  12.613   1.210   5.456
60368SOL    HW281129  12.718   1.213   5.331
60369SOL     OW81130  11.562   1.741   5.284
60369SOL    HW181131  11.471   1.782   5.282
60369SOL    HW281132  11.555   1.647   5.316
60370SOL     OW81133  12.397   0.325   4.173
60370SOL    HW181134  12.462   0.251   4.162
60370SOL    HW281135  12.417   0.375   4.257
60371SOL     OW81136  11.766   0.745   4.376
60371SOL    HW181137  11.816   0.830   4.357
60371SOL    HW281138  11.678   0.747   4.328
60372SOL     OW81139  12.031   1.374   3.740
60372SOL    HW181140  11.985   1.389   3.828
60372SOL    HW281141  12.075   1.459   3.710
60373SOL     OW81142  11.833   1.790   4.677
60373SOL    HW181143  11.787   1.878   4.664
60373SOL    HW281144  11.932   1.802   4.670
60374SOL     OW81145  12.031   0.956   4.585
60374SOL    HW181146  12.085   0.887   4.633
60374SOL    HW281147  11.999   1.025   4.651
60375SOL     OW81148  12.255   0.984   3.811
60375SOL    HW181149  12.232   1.037   3.729
60375SOL    HW281150  12.336   0.928   3.792
60376SOL     OW81151  13.033   1.569   4.575
60376SOL    HW181152  12.962   1.557   4.505
60376SOL    HW281153  13.034   1.490   4.635
60377SOL     OW81154  11.393   1.314   5.568
60377SOL    HW181155  11.328   1.241   5.547
60377SOL    HW281156  11.397   1.328   5.666
60378SOL     OW81157  11.251   1.240   4.377
60378SOL    HW181158  11.250   1.193   4.465
60378SOL    HW281159  11.333   1.212   4.326
60379SOL     OW81160  11.844   1.391   5.348
60379SOL    HW181161  11.766   1.341   5.386
60379SOL    HW281162  11.841   1.486   5.379
60380SOL     OW81163  11.600   0.424   4.244
60380SOL    HW181164  11.630   0.352   4.182
60380SOL    HW281165  11.561   0.384   4.327
60381SOL     OW81166  11.489   0.547   5.004
60381SOL    HW181167  11.527   0.488   5.076
60381SOL    HW281168  11.529   0.521   4.916
60382SOL     OW81169  11.984   1.586   4.411
60382SOL    HW181170  12.016   1.596   4.317
60382SOL    HW281171  11.905   1.524   4.413
60383SOL     OW81172  12.596   0.214   4.836
60383SOL    HW181173  12.648   0.149   4.891
60383SOL    HW281174  12.547   0.277   4.897
60384SOL     OW81175  12.173   0.034   4.878
60384SOL    HW181176  12.110  -0.038   4.847
60384SOL    HW281177  12.266  -0.002   4.878
60385SOL     OW81178  11.942   1.330   4.025
60385SOL    HW181179  11.896   1.243   4.042
60385SOL    HW281180  12.033   1.327   4.066
60386SOL     OW81181  11.790   1.567   5.008
60386SOL    HW181182  11.785   1.649   5.065
60386SOL    HW281183  11.879   1.564   4.963
60387SOL     OW81184  12.524   0.052   3.892
60387SOL    HW181185  12.559   0.011   3.808
60387SOL    HW281186  12.434   0.014   3.912
60388SOL     OW81187  12.472   0.453   4.415
60388SOL    HW181188  12.413   0.533   4.419
60388SOL    HW281189  12.487   0.418   4.508
60389SOL     OW81190  12.765   0.221   4.606
60389SOL    HW181191  12.681   0.220   4.660
60389SOL    HW281192  12.767   0.304   4.550
60390SOL     OW81193  11.211   1.077   4.024
60390SOL    HW181194  11.310   1.066   4.015
60390SOL    HW281195  11.171   0.991   4.056
60391SOL     OW81196  12.047   1.646   4.061
60391SOL    HW181197  11.970   1.611   4.007
60391SOL    HW281198  12.015   1.717   4.123
60392SOL     OW81199  11.402   0.628   5.699
60392SOL    HW181200  11.309   0.626   5.736
60392SOL    HW281201  11.403   0.589   5.607
60393SOL     OW81202  11.397   0.275   6.582
60393SOL    HW181203  11.432   0.258   6.674
60393SOL    HW281204  11.309   0.230   6.570
60394SOL     OW81205  11.191   0.368   6.233
60394SOL    HW181206  11.109   0.411   6.272
60394SOL    HW281207  11.163   0.295   6.170
60395SOL     OW81208  11.741   1.275   6.751
60395SOL    HW181209  11.648   1.268   6.714
60395SOL    HW281210  11.752   1.364   6.795
60396SOL     OW81211  12.727   1.511   6.289
60396SOL    HW181212  12.670   1.495   6.370
60396SOL    HW281213  12.668   1.521   6.209
60397SOL     OW81214  12.307   0.703   6.303
60397SOL    HW181215  12.364   0.781   6.278
60397SOL    HW281216  12.247   0.729   6.379
60398SOL     OW81217  11.940   1.144   6.609
60398SOL    HW181218  11.862   1.161   6.669
60398SOL    HW281219  11.974   1.231   6.573
60399SOL     OW81220  12.022   0.798   7.409
60399SOL    HW181221  12.018   0.874   7.474
60399SOL    HW281222  12.044   0.834   7.318
60400SOL     OW81223  11.857   1.012   6.251
60400SOL    HW181224  11.926   0.996   6.321
60400SOL    HW281225  11.784   1.069   6.289
60401SOL     OW81226  11.858   1.161   7.389
60401SOL    HW181227  11.918   1.240   7.403
60401SOL    HW281228  11.772   1.192   7.348
60402SOL     OW81229  11.507   1.435   6.647
60402SOL    HW181230  11.429   1.404   6.594
60402SOL    HW281231  11.565   1.493   6.590
60403SOL     OW81232  12.632   1.505   6.925
60403SOL    HW181233  12.656   1.599   6.951
60403SOL    HW281234  12.616   1.451   7.007
60404SOL     OW81235  11.610   0.392   7.085
60404SOL    HW181236  11.692   0.336   7.094
60404SOL    HW281237  11.529   0.334   7.089
60405SOL     OW81238  11.403   1.713   6.069
60405SOL    HW181239  11.437   1.790   6.123
60405SOL    HW281240  11.447   1.713   5.979
60406SOL     OW81241  12.299   1.341   7.276
60406SOL    HW181242  12.346   1.341   7.364
60406SOL    HW281243  12.251   1.254   7.265
60407SOL     OW81244  11.402   1.434   6.124
60407SOL    HW181245  11.376   1.530   6.124
60407SOL    HW281246  11.331   1.380   6.169
60408SOL     OW81247  11.412   1.091   6.472
60408SOL    HW181248  11.426   1.007   6.524
60408SOL    HW281249  11.357   1.155   6.527
60409SOL     OW81250  11.792   1.786   7.025
60409SOL    HW181251  11.700   1.769   7.060
60409SOL    HW281252  11.820   1.878   7.051
60410SOL     OW81253  11.778   0.964   5.709
60410SOL    HW181254  11.785   1.048   5.655
60410SOL    HW281255  11.824   0.977   5.797
60411SOL     OW81256  12.766   0.114   7.066
60411SOL    HW181257  12.748   0.181   6.994
60411SOL    HW281258  12.763   0.160   7.155
60412SOL     OW81259  11.294   0.643   6.149
60412SOL    HW181260  11.249   0.555   6.166
60412SOL    HW281261  11.293   0.697   6.233
60413SOL     OW81262  11.199   1.596   5.703
60413SOL    HW181263  11.180   1.500   5.724
60413SOL    HW281264  11.166   1.654   5.778
60414SOL     OW81265  12.861   0.922   6.198
60414SOL    HW181266  12.956   0.893   6.206
60414SOL    HW281267  12.853   0.987   6.123
60415SOL     OW81268  11.285   0.737   7.183
60415SOL    HW181269  11.373   0.724   7.228
60415SOL    HW281270  11.272   0.834   7.161
60416SOL     OW81271  11.785   1.365   6.312
60416SOL    HW181272  11.736   1.278   6.321
60416SOL    HW281273  11.762   1.408   6.225
60417SOL     OW81274  12.465   1.228   7.009
60417SOL    HW181275  12.502   1.155   6.951
60417SOL    HW281276  12.517   1.233   7.094
60418SOL     OW81277  11.981   0.004   6.088
60418SOL    HW181278  12.021   0.095   6.079
60418SOL    HW281279  11.881   0.012   6.094
60419SOL     OW81280  11.369   0.976   6.850
60419SOL    HW181281  11.458   0.931   6.836
60419SOL    HW281282  11.296   0.911   6.831
60420SOL     OW81283  12.359   1.792   7.202
60420SOL    HW181284  12.383   1.852   7.126
60420SOL    HW281285  12.366   1.697   7.172
60421SOL     OW81286  11.489   0.251   7.387
60421SOL    HW181287  11.560   0.322   7.393
60421SOL    HW281288  11.401   0.290   7.415
60422SOL     OW81289  12.638   1.417   6.539
60422SOL    HW181290  12.579   1.423   6.619
60422SOL    HW281291  12.623   1.329   6.493
60423SOL     OW81292  12.839   1.714   6.158
60423SOL    HW181293  12.798   1.691   6.070
60423SOL    HW281294  12.821   1.640   6.223
60424SOL     OW81295  11.770   0.729   5.856
60424SOL    HW181296  11.794   0.798   5.788
60424SOL    HW281297  11.692   0.762   5.910
60425SOL     OW81298  12.453   0.345   6.530
60425SOL    HW181299  12.367   0.295   6.517
60425SOL    HW281300  12.515   0.291   6.586
60426SOL     OW81301  11.979   0.605   7.051
60426SOL    HW181302  11.932   0.602   7.140
60426SOL    HW281303  11.928   0.550   6.985
60427SOL     OW81304  12.566   0.469   7.260
60427SOL    HW181305  12.546   0.512   7.348
60427SOL    HW281306  12.644   0.407   7.269
60428SOL     OW81307  12.145   0.890   7.158
60428SOL    HW181308  12.191   0.806   7.129
60428SOL    HW281309  12.089   0.924   7.083
60429SOL     OW81310  12.163   0.410   6.828
60429SOL    HW181311  12.086   0.444   6.882
60429SOL    HW281312  12.129   0.359   6.749
60430SOL     OW81313  12.213   0.701   6.015
60430SOL    HW181314  12.239   0.697   6.111
60430SOL    HW281315  12.128   0.650   6.001
60431SOL     OW81316  11.248   0.811   6.375
60431SOL    HW181317  11.347   0.799   6.384
60431SOL    HW281318  11.224   0.906   6.396
60432SOL     OW81319  11.302   1.821   7.157
60432SOL    HW181320  11.292   1.806   7.256
60432SOL    HW281321  11.216   1.857   7.121
60433SOL     OW81322  12.534   1.144   6.131
60433SOL    HW181323  12.617   1.115   6.083
60433SOL    HW281324  12.485   1.211   6.075
60434SOL     OW81325  11.722   0.196   6.471
60434SOL    HW181326  11.717   0.191   6.571
60434SOL    HW281327  11.724   0.292   6.442
60435SOL     OW81328  12.180   1.456   6.063
60435SOL    HW181329  12.134   1.528   6.011
60435SOL    HW281330  12.176   1.476   6.161
60436SOL     OW81331  11.523   1.801   6.439
60436SOL    HW181332  11.573   1.715   6.445
60436SOL    HW281333  11.588   1.878   6.436
60437SOL     OW81334  12.399   1.550   7.092
60437SOL    HW181335  12.405   1.473   7.156
60437SOL    HW281336  12.347   1.524   7.012
60438SOL     OW81337  11.493   0.943   5.828
60438SOL    HW181338  11.575   0.982   5.786
60438SOL    HW281339  11.466   0.861   5.779
60439SOL     OW81340  12.630   0.735   6.314
60439SOL    HW181341  12.625   0.670   6.389
60439SOL    HW281342  12.710   0.794   6.327
60440SOL     OW81343  11.633   1.266   7.313
60440SOL    HW181344  11.583   1.267   7.227
60440SOL    HW281345  11.570   1.248   7.389
60441SOL     OW81346  12.283   1.776   5.823
60441SOL    HW181347  12.223   1.714   5.873
60441SOL    HW281348  12.314   1.732   5.738
60442SOL     OW81349  11.374   0.285   7.084
60442SOL    HW181350  11.294   0.345   7.071
60442SOL    HW281351  11.364   0.236   7.170
60443SOL     OW81352  11.636   1.743   5.909
60443SOL    HW181353  11.669   1.782   5.995
60443SOL    HW281354  11.712   1.736   5.844
60444SOL     OW81355  12.572   0.107   6.012
60444SOL    HW181356  12.548   0.070   5.922
60444SOL    HW281357  12.671   0.123   6.016
60445SOL     OW81358  11.421   1.785   6.827
60445SOL    HW181359  11.478   1.720   6.877
60445SOL    HW281360  11.405   1.752   6.734
60446SOL     OW81361  12.112   1.698   6.490
60446SOL    HW181362  12.192   1.641   6.511
60446SOL    HW281363  12.063   1.658   6.413
60447SOL     OW81364  11.554   0.700   6.066
60447SOL    HW181365  11.599   0.610   6.063
60447SOL    HW281366  11.460   0.689   6.099
60448SOL     OW81367  11.786   0.122   5.703
60448SOL    HW181368  11.884   0.100   5.710
60448SOL    HW281369  11.755   0.105   5.610
60449SOL     OW81370  11.953   0.264   7.335
60449SOL    HW181371  12.020   0.203   7.378
60449SOL    HW281372  11.880   0.283   7.400
60450SOL     OW81373  12.060   1.514   6.781
60450SOL    HW181374  12.037   1.489   6.687
60450SOL    HW281375  12.121   1.445   6.820
60451SOL     OW81376  12.523   0.590   7.019
60451SOL    HW181377  12.551   0.547   7.104
60451SOL    HW281378  12.548   0.686   7.020
60452SOL     OW81379  11.975   1.402   6.510
60452SOL    HW181380  12.065   1.416   6.468
60452SOL    HW281381  11.904   1.404   6.439
60453SOL     OW81382  12.094   0.503   6.485
60453SOL    HW181383  12.069   0.494   6.389
60453SOL    HW281384  12.142   0.421   6.516
60454SOL     OW81385  11.711   0.064   6.098
60454SOL    HW181386  11.630   0.065   6.156
60454SOL    HW281387  11.714   0.147   6.043
60455SOL     OW81388  12.606   1.188   5.627
60455SOL    HW181389  12.638   1.112   5.684
60455SOL    HW281390  12.514   1.215   5.657
60456SOL     OW81391  11.469   0.035   5.757
60456SOL    HW181392  11.518   0.119   5.736
60456SOL    HW281393  11.531  -0.030   5.802
60457SOL     OW81394  12.107   0.236   6.066
60457SOL    HW181395  12.059   0.277   5.988
60457SOL    HW281396  12.206   0.234   6.047
60458SOL     OW81397  12.248   0.683   7.050
60458SOL    HW181398  12.168   0.622   7.053
60458SOL    HW281399  12.329   0.630   7.026
60459SOL     OW81400  12.399   1.570   6.379
60459SOL    HW181401  12.420   1.644   6.314
60459SOL    HW281402  12.467   1.570   6.452
60460SOL     OW81403  11.631   1.152   6.327
60460SOL    HW181404  11.560   1.125   6.392
60460SOL    HW281405  11.605   1.124   6.234
60461SOL     OW81406  12.443   1.797   6.177
60461SOL    HW181407  12.487   1.861   6.113
60461SOL    HW281408  12.393   1.849   6.247
60462SOL     OW81409  12.204   0.549   5.602
60462SOL    HW181410  12.163   0.631   5.563
60462SOL    HW281411  12.268   0.575   5.675
60463SOL     OW81412  11.250   0.556   6.972
60463SOL    HW181413  11.342   0.555   6.931
60463SOL    HW281414  11.244   0.630   7.039
60464SOL     OW81415  11.733   0.222   6.733
60464SOL    HW181416  11.771   0.138   6.770
60464SOL    HW281417  11.645   0.241   6.777
60465SOL     OW81418  12.038   0.454   6.228
60465SOL    HW181419  12.006   0.526   6.166
60465SOL    HW281420  12.062   0.373   6.175
60466SOL     OW81421  12.189   0.039   6.339
60466SOL    HW181422  12.117   0.044   6.270
60466SOL    HW281423  12.165  -0.030   6.408
60467SOL     OW81424  12.601   1.173   6.453
60467SOL    HW181425  12.546   1.089   6.446
60467SOL    HW281426  12.627   1.202   6.361
60468SOL     OW81427  12.638   0.590   6.578
60468SOL    HW181428  12.608   0.495   6.585
60468SOL    HW281429  12.711   0.606   6.644
60469SOL     OW81430  11.660   1.385   5.760
60469SOL    HW181431  11.573   1.370   5.807
60469SOL    HW281432  11.643   1.411   5.665
60470SOL     OW81433  12.562   0.575   5.664
60470SOL    HW181434  12.508   0.554   5.745
60470SOL    HW281435  12.653   0.534   5.673
60471SOL     OW81436  11.699   0.256   5.914
60471SOL    HW181437  11.726   0.197   5.839
60471SOL    HW281438  11.699   0.351   5.883
60472SOL     OW81439  12.236   1.347   6.926
60472SOL    HW181440  12.156   1.324   6.981
60472SOL    HW281441  12.319   1.321   6.975
60473SOL     OW81442  12.764   1.629   7.211
60473SOL    HW181443  12.791   1.663   7.121
60473SOL    HW281444  12.843   1.591   7.257
60474SOL     OW81445  12.283   1.195   6.686
60474SOL    HW181446  12.243   1.239   6.767
60474SOL    HW281447  12.242   1.232   6.603
60475SOL     OW81448  12.087   0.089   6.988
60475SOL    HW181449  12.112   0.069   6.893
60475SOL    HW281450  12.159   0.145   7.030
60476SOL     OW81451  12.152   1.116   7.305
60476SOL    HW181452  12.053   1.122   7.315
60476SOL    HW281453  12.175   1.036   7.249
60477SOL     OW81454  11.877   1.050   5.954
60477SOL    HW181455  11.863   1.057   6.053
60477SOL    HW281456  11.961   0.999   5.936
60478SOL     OW81457  11.582   0.813   6.837
60478SOL    HW181458  11.668   0.825   6.887
60478SOL    HW281459  11.540   0.726   6.864
60479SOL     OW81460  12.446   0.386   6.848
60479SOL    HW181461  12.467   0.460   6.912
60479SOL    HW281462  12.357   0.403   6.805
60480SOL     OW81463  11.236   1.564   6.917
60480SOL    HW181464  11.190   1.646   6.883
60480SOL    HW281465  11.334   1.583   6.926
60481SOL     OW81466  11.539   1.100   6.087
60481SOL    HW181467  11.532   1.183   6.031
60481SOL    HW281468  11.543   1.020   6.027
60482SOL     OW81469  11.738   0.537   6.451
60482SOL    HW181470  11.750   0.603   6.377
60482SOL    HW281471  11.784   0.571   6.534
60483SOL     OW81472  12.424   1.348   5.974
60483SOL    HW181473  12.474   1.425   6.014
60483SOL    HW281474  12.329   1.350   6.006
60484SOL     OW81475  12.444   1.445   6.728
60484SOL    HW181476  12.491   1.458   6.815
60484SOL    HW281477  12.378   1.371   6.737
60485SOL     OW81478  12.754   0.639   6.058
60485SOL    HW181479  12.723   0.700   6.131
60485SOL    HW281480  12.804   0.691   5.989
60486SOL     OW81481  11.526   1.510   6.915
60486SOL    HW181482  11.505   1.466   6.828
60486SOL    HW281483  11.623   1.536   6.918
60487SOL     OW81484  11.574   0.751   7.184
60487SOL    HW181485  11.642   0.806   7.137
60487SOL    HW281486  11.614   0.663   7.211
60488SOL     OW81487  12.185   0.105   7.356
60488SOL    HW181488  12.191   0.190   7.304
60488SOL    HW281489  12.217   0.029   7.299
60489SOL     OW81490  11.676   0.050   7.326
60489SOL    HW181491  11.634  -0.007   7.256
60489SOL    HW281492  11.610   0.119   7.358
60490SOL     OW81493  11.745   0.870   6.615
60490SOL    HW181494  11.789   0.959   6.606
60490SOL    HW281495  11.682   0.870   6.692
60491SOL     OW81496  12.532   0.862   6.631
60491SOL    HW181497  12.457   0.862   6.565
60491SOL    HW281498  12.569   0.770   6.640
60492SOL     OW81499  12.381   0.525   5.861
60492SOL    HW181500  12.394   0.441   5.915
60492SOL    HW281501  12.352   0.599   5.921
60493SOL     OW81502  11.479   0.213   6.817
60493SOL    HW181503  11.456   0.250   6.907
60493SOL    HW281504  11.449   0.118   6.811
60494SOL     OW81505  11.209   1.310   6.868
60494SOL    HW181506  11.262   1.261   6.936
60494SOL    HW281507  11.231   1.408   6.873
60495SOL     OW81508  11.904   0.634   6.650
60495SOL    HW181509  11.963   0.608   6.574
60495SOL    HW281510  11.876   0.730   6.639
60496SOL     OW81511  11.479   0.063   6.204
60496SOL    HW181512  11.468   0.157   6.237
60496SOL    HW281513  11.474   0.000   6.281
60497SOL     OW81514  12.794   0.367   5.960
60497SOL    HW181515  12.796   0.291   6.024
60497SOL    HW281516  12.746   0.444   6.000
60498SOL     OW81517  12.195   0.766   6.552
60498SOL    HW181518  12.210   0.787   6.648
60498SOL    HW281519  12.165   0.671   6.543
60499SOL     OW81520  12.152   1.573   7.286
60499SOL    HW181521  12.132   1.617   7.198
60499SOL    HW281522  12.191   1.482   7.270
60500SOL     OW81523  11.522   0.898   7.390
60500SOL    HW181524  11.598   0.942   7.438
60500SOL    HW281525  11.557   0.851   7.308
60501SOL     OW81526  12.712   0.274   5.711
60501SOL    HW181527  12.651   0.199   5.734
60501SOL    HW281528  12.734   0.326   5.794
60502SOL     OW81529  12.475   0.838   5.628
60502SOL    HW181530  12.509   0.745   5.643
60502SOL    HW281531  12.493   0.865   5.533
60503SOL     OW81532  12.240   1.333   6.435
60503SOL    HW181533  12.247   1.249   6.380
60503SOL    HW281534  12.302   1.402   6.399
60504SOL     OW81535  11.491   0.810   6.535
60504SOL    HW181536  11.584   0.846   6.540
60504SOL    HW281537  11.485   0.725   6.587
60505SOL     OW81538  11.511   0.509   6.592
60505SOL    HW181539  11.459   0.426   6.575
60505SOL    HW281540  11.588   0.514   6.528
60506SOL     OW81541  12.310   0.380   7.264
60506SOL    HW181542  12.265   0.443   7.328
60506SOL    HW281543  12.403   0.411   7.247
60507SOL     OW81544  12.332   0.207   7.063
60507SOL    HW181545  12.332   0.271   7.140
60507SOL    HW281546  12.360   0.255   6.980
60508SOL     OW81547  11.180   1.326   5.786
60508SOL    HW181548  11.087   1.347   5.755
60508SOL    HW281549  11.190   1.227   5.799
60509SOL     OW81550  11.260   1.801   6.513
60509SOL    HW181551  11.218   1.715   6.486
60509SOL    HW281552  11.354   1.804   6.479
60510SOL     OW81553  11.676   1.568   6.496
60510SOL    HW181554  11.742   1.642   6.505
60510SOL    HW281555  11.720   1.489   6.454
60511SOL     OW81556  12.174   0.796   6.824
60511SOL    HW181557  12.215   0.764   6.910
60511SOL    HW281558  12.078   0.769   6.821
60512SOL     OW81559  11.212   0.544   6.700
60512SOL    HW181560  11.297   0.511   6.659
60512SOL    HW281561  11.225   0.559   6.798
60513SOL     OW81562  11.361   0.520   7.308
60513SOL    HW181563  11.420   0.480   7.238
60513SOL    HW281564  11.303   0.591   7.267
60514SOL     OW81565  12.541   0.950   7.246
60514SOL    HW181566  12.580   1.039   7.266
60514SOL    HW281567  12.551   0.930   7.149
60515SOL     OW81568  11.987   0.572   5.911
60515SOL    HW181569  11.994   0.483   5.865
60515SOL    HW281570  11.893   0.606   5.903
60516SOL     OW81571  11.424   1.564   7.330
60516SOL    HW181572  11.394   1.621   7.406
60516SOL    HW281573  11.417   1.467   7.356
60517SOL     OW81574  11.843   0.464   6.855
60517SOL    HW181575  11.809   0.375   6.825
60517SOL    HW281576  11.869   0.518   6.775
60518SOL     OW81577  12.102   1.678   7.051
60518SOL    HW181578  12.078   1.660   6.956
60518SOL    HW281579  12.132   1.772   7.061
60519SOL     OW81580  11.645   0.500   5.777
60519SOL    HW181581  11.706   0.580   5.781
60519SOL    HW281582  11.550   0.531   5.784
60520SOL     OW81583  11.331   1.137   7.052
60520SOL    HW181584  11.353   1.076   7.128
60520SOL    HW281585  11.341   1.088   6.966
60521SOL     OW81586  12.519   1.059   6.820
60521SOL    HW181587  12.543   0.996   6.746
60521SOL    HW281588  12.429   1.099   6.802
60522SOL     OW81589  12.474   0.855   5.895
60522SOL    HW181590  12.388   0.824   5.937
60522SOL    HW281591  12.470   0.841   5.796
60523SOL     OW81592  12.424   1.731   6.714
60523SOL    HW181593  12.508   1.736   6.660
60523SOL    HW281594  12.401   1.635   6.732
60524SOL     OW81595  11.255   1.258   6.608
60524SOL    HW181596  11.250   1.257   6.708
60524SOL    HW281597  11.172   1.217   6.570
60525SOL     OW81598  11.860   1.662   7.302
60525SOL    HW181599  11.804   1.743   7.311
60525SOL    HW281600  11.912   1.666   7.216
60526SOL     OW81601  12.560   1.573   6.063
60526SOL    HW181602  12.627   1.585   5.989
60526SOL    HW281603  12.520   1.662   6.086
60527SOL     OW81604  11.302   1.794   7.437
60527SOL    HW181605  11.261   1.720   7.490
60527SOL    HW281606  11.366   1.845   7.495
60528SOL     OW81607  12.452   0.927   6.258
60528SOL    HW181608  12.512   0.846   6.260
60528SOL    HW281609  12.492   0.996   6.198
60529SOL     OW81610  12.002   1.273   7.008
60529SOL    HW181611  11.997   1.306   7.103
60529SOL    HW281612  11.916   1.292   6.962
60530SOL     OW81613  11.844   1.616   5.740
60530SOL    HW181614  11.853   1.626   5.641
60530SOL    HW281615  11.804   1.527   5.761
60531SOL     OW81616  11.435   0.326   6.306
60531SOL    HW181617  11.356   0.377   6.272
60531SOL    HW281618  11.426   0.311   6.404
60532SOL     OW81619  12.366   1.612   5.617
60532SOL    HW181620  12.372   1.519   5.654
60532SOL    HW281621  12.307   1.612   5.537
60533SOL     OW81622  11.994   1.002   6.958
60533SOL    HW181623  12.034   1.001   6.866
60533SOL    HW281624  12.004   1.094   6.998
60534SOL     OW81625  12.088   0.910   5.877
60534SOL    HW181626  12.151   0.948   5.809
60534SOL    HW281627  12.128   0.827   5.916
60535SOL     OW81628  12.676   1.607   5.630
60535SOL    HW181629  12.584   1.644   5.637
60535SOL    HW281630  12.714   1.627   5.540
60536SOL     OW81631  11.544   1.288   7.076
60536SOL    HW181632  11.531   1.381   7.042
60536SOL    HW281633  11.460   1.236   7.063
60537SOL     OW81634  12.211   1.098   6.282
60537SOL    HW181635  12.141   1.051   6.336
60537SOL    HW281636  12.270   1.030   6.239
60538SOL     OW81637  12.186   0.236   6.557
60538SOL    HW181638  12.178   0.200   6.464
60538SOL    HW281639  12.184   0.160   6.622
60539SOL     OW81640  11.762   1.487   6.077
60539SOL    HW181641  11.804   1.429   6.007
60539SOL    HW281642  11.718   1.566   6.033
60540SOL     OW81643  11.427   1.348   5.876
60540SOL    HW181644  11.331   1.349   5.849
60540SOL    HW281645  11.439   1.401   5.960
60541SOL     OW81646  11.277   1.013   7.312
60541SOL    HW181647  11.200   0.980   7.366
60541SOL    HW281648  11.362   0.983   7.354
60542SOL     OW81649  11.844   0.203   7.075
60542SOL    HW181650  11.934   0.187   7.035
60542SOL    HW281651  11.852   0.208   7.174
60543SOL     OW81652  11.247   0.345   5.619
60543SOL    HW181653  11.155   0.317   5.590
60543SOL    HW281654  11.278   0.422   5.563
60544SOL     OW81655  12.612   0.856   6.984
60544SOL    HW181656  12.555   0.908   6.921
60544SOL    HW281657  12.708   0.868   6.960
60545SOL     OW81658  11.244   0.166   5.904
60545SOL    HW181659  11.227   0.249   5.850
60545SOL    HW281660  11.334   0.129   5.882
60546SOL     OW81661  12.355   1.335   5.705
60546SOL    HW181662  12.256   1.324   5.707
60546SOL    HW281663  12.389   1.350   5.798
60547SOL     OW81664  11.785   0.842   7.017
60547SOL    HW181665  11.841   0.923   7.000
60547SOL    HW281666  11.844   0.762   7.020
60548SOL     OW81667  12.665   1.767   6.545
60548SOL    HW181668  12.698   1.831   6.476
60548SOL    HW281669  12.731   1.761   6.620
60549SOL     OW81670  11.888   0.565   7.294
60549SOL    HW181671  11.907   0.630   7.368
60549SOL    HW281672  11.948   0.485   7.303
60550SOL     OW81673  11.562   1.741   7.146
60550SOL    HW181674  11.471   1.782   7.144
60550SOL    HW281675  11.555   1.647   7.178
60551SOL     OW81676  12.397   0.325   6.035
60551SOL    HW181677  12.462   0.251   6.024
60551SOL    HW281678  12.417   0.375   6.119
60552SOL     OW81679  11.766   0.745   6.238
60552SOL    HW181680  11.816   0.830   6.219
60552SOL    HW281681  11.678   0.747   6.190
60553SOL     OW81682  12.031   1.374   5.602
60553SOL    HW181683  11.985   1.389   5.690
60553SOL    HW281684  12.075   1.459   5.572
60554SOL     OW81685  11.833   1.790   6.539
60554SOL    HW181686  11.787   1.878   6.526
60554SOL    HW281687  11.932   1.802   6.532
60555SOL     OW81688  12.031   0.956   6.447
60555SOL    HW181689  12.085   0.887   6.495
60555SOL    HW281690  11.999   1.025   6.513
60556SOL     OW81691  12.255   0.984   5.673
60556SOL    HW181692  12.232   1.037   5.591
60556SOL    HW281693  12.336   0.928   5.654
60557SOL     OW81694  13.033   1.569   6.437
60557SOL    HW181695  12.962   1.557   6.367
60557SOL    HW281696  13.034   1.490   6.497
60558SOL     OW81697  11.393   1.314   7.430
60558SOL    HW181698  11.328   1.241   7.409
60558SOL    HW281699  11.397   1.328   7.528
60559SOL     OW81700  11.251   1.240   6.239
60559SOL    HW181701  11.250   1.193   6.327
60559SOL    HW281702  11.333   1.212   6.188
60560SOL     OW81703  11.844   1.391   7.210
60560SOL    HW181704  11.766   1.341   7.248
60560SOL    HW281705  11.841   1.486   7.241
60561SOL     OW81706  11.600   0.424   6.106
60561SOL    HW181707  11.630   0.352   6.044
60561SOL    HW281708  11.561   0.384   6.189
60562SOL     OW81709  11.489   0.547   6.866
60562SOL    HW181710  11.527   0.488   6.938
60562SOL    HW281711  11.529   0.521   6.778
60563SOL     OW81712  11.984   1.586   6.273
60563SOL    HW181713  12.016   1.596   6.179
60563SOL    HW281714  11.905   1.524   6.275
60564SOL     OW81715  12.596   0.214   6.698
60564SOL    HW181716  12.648   0.149   6.753
60564SOL    HW281717  12.547   0.277   6.759
60565SOL     OW81718  12.173   0.034   6.740
60565SOL    HW181719  12.110  -0.038   6.709
60565SOL    HW281720  12.266  -0.002   6.740
60566SOL     OW81721  11.942   1.330   5.887
60566SOL    HW181722  11.896   1.243   5.904
60566SOL    HW281723  12.033   1.327   5.928
60567SOL     OW81724  11.790   1.567   6.870
60567SOL    HW181725  11.785   1.649   6.927
60567SOL    HW281726  11.879   1.564   6.825
60568SOL     OW81727  12.524   0.052   5.754
60568SOL    HW181728  12.559   0.011   5.670
60568SOL    HW281729  12.434   0.014   5.774
60569SOL     OW81730  12.472   0.453   6.277
60569SOL    HW181731  12.413   0.533   6.281
60569SOL    HW281732  12.487   0.418   6.370
60570SOL     OW81733  12.765   0.221   6.468
60570SOL    HW181734  12.681   0.220   6.522
60570SOL    HW281735  12.767   0.304   6.412
60571SOL     OW81736  11.211   1.077   5.886
60571SOL    HW181737  11.310   1.066   5.877
60571SOL    HW281738  11.171   0.991   5.918
60572SOL     OW81739  12.047   1.646   5.923
60572SOL    HW181740  11.970   1.611   5.869
60572SOL    HW281741  12.015   1.717   5.985
60573SOL     OW81742  11.402   0.628   7.561
60573SOL    HW181743  11.309   0.626   7.598
60573SOL    HW281744  11.403   0.589   7.469
60574SOL     OW81745  11.397   0.275   8.444
60574SOL    HW181746  11.432   0.258   8.536
60574SOL    HW281747  11.309   0.230   8.432
60575SOL     OW81748  11.191   0.368   8.095
60575SOL    HW181749  11.109   0.411   8.134
60575SOL    HW281750  11.163   0.295   8.032
60576SOL     OW81751  11.741   1.275   8.613
60576SOL    HW181752  11.648   1.268   8.576
60576SOL    HW281753  11.752   1.364   8.657
60577SOL     OW81754  12.727   1.511   8.151
60577SOL    HW181755  12.670   1.495   8.232
60577SOL    HW281756  12.668   1.521   8.071
60578SOL     OW81757  12.307   0.703   8.165
60578SOL    HW181758  12.364   0.781   8.140
60578SOL    HW281759  12.247   0.729   8.241
60579SOL     OW81760  11.940   1.144   8.471
60579SOL    HW181761  11.862   1.161   8.531
60579SOL    HW281762  11.974   1.231   8.435
60580SOL     OW81763  12.022   0.798   9.271
60580SOL    HW181764  12.018   0.874   9.336
60580SOL    HW281765  12.044   0.834   9.180
60581SOL     OW81766  11.857   1.012   8.113
60581SOL    HW181767  11.926   0.996   8.183
60581SOL    HW281768  11.784   1.069   8.151
60582SOL     OW81769  11.858   1.161   9.251
60582SOL    HW181770  11.918   1.240   9.265
60582SOL    HW281771  11.772   1.192   9.210
60583SOL     OW81772  11.507   1.435   8.509
60583SOL    HW181773  11.429   1.404   8.456
60583SOL    HW281774  11.565   1.493   8.452
60584SOL     OW81775  12.632   1.505   8.787
60584SOL    HW181776  12.656   1.599   8.813
60584SOL    HW281777  12.616   1.451   8.869
60585SOL     OW81778  11.610   0.392   8.947
60585SOL    HW181779  11.692   0.336   8.956
60585SOL    HW281780  11.529   0.334   8.951
60586SOL     OW81781  11.403   1.713   7.931
60586SOL    HW181782  11.437   1.790   7.985
60586SOL    HW281783  11.447   1.713   7.841
60587SOL     OW81784  12.299   1.341   9.138
60587SOL    HW181785  12.346   1.341   9.226
60587SOL    HW281786  12.251   1.254   9.127
60588SOL     OW81787  11.402   1.434   7.986
60588SOL    HW181788  11.376   1.530   7.986
60588SOL    HW281789  11.331   1.380   8.031
60589SOL     OW81790  11.412   1.091   8.334
60589SOL    HW181791  11.426   1.007   8.386
60589SOL    HW281792  11.357   1.155   8.389
60590SOL     OW81793  11.792   1.786   8.887
60590SOL    HW181794  11.700   1.769   8.922
60590SOL    HW281795  11.820   1.878   8.913
60591SOL     OW81796  11.778   0.964   7.571
60591SOL    HW181797  11.785   1.048   7.517
60591SOL    HW281798  11.824   0.977   7.659
60592SOL     OW81799  12.766   0.114   8.928
60592SOL    HW181800  12.748   0.181   8.856
60592SOL    HW281801  12.763   0.160   9.017
60593SOL     OW81802  11.294   0.643   8.011
60593SOL    HW181803  11.249   0.555   8.028
60593SOL    HW281804  11.293   0.697   8.095
60594SOL     OW81805  11.199   1.596   7.565
60594SOL    HW181806  11.180   1.500   7.586
60594SOL    HW281807  11.166   1.654   7.640
60595SOL     OW81808  12.861   0.922   8.060
60595SOL    HW181809  12.956   0.893   8.068
60595SOL    HW281810  12.853   0.987   7.985
60596SOL     OW81811  11.285   0.737   9.045
60596SOL    HW181812  11.373   0.724   9.090
60596SOL    HW281813  11.272   0.834   9.023
60597SOL     OW81814  11.785   1.365   8.174
60597SOL    HW181815  11.736   1.278   8.183
60597SOL    HW281816  11.762   1.408   8.087
60598SOL     OW81817  12.465   1.228   8.871
60598SOL    HW181818  12.502   1.155   8.813
60598SOL    HW281819  12.517   1.233   8.956
60599SOL     OW81820  11.981   0.004   7.950
60599SOL    HW181821  12.021   0.095   7.941
60599SOL    HW281822  11.881   0.012   7.956
60600SOL     OW81823  11.369   0.976   8.712
60600SOL    HW181824  11.458   0.931   8.698
60600SOL    HW281825  11.296   0.911   8.693
60601SOL     OW81826  12.359   1.792   9.064
60601SOL    HW181827  12.383   1.852   8.988
60601SOL    HW281828  12.366   1.697   9.034
60602SOL     OW81829  11.489   0.251   9.249
60602SOL    HW181830  11.560   0.322   9.255
60602SOL    HW281831  11.401   0.290   9.277
60603SOL     OW81832  12.638   1.417   8.401
60603SOL    HW181833  12.579   1.423   8.481
60603SOL    HW281834  12.623   1.329   8.355
60604SOL     OW81835  12.839   1.714   8.020
60604SOL    HW181836  12.798   1.691   7.932
60604SOL    HW281837  12.821   1.640   8.085
60605SOL     OW81838  11.770   0.729   7.718
60605SOL    HW181839  11.794   0.798   7.650
60605SOL    HW281840  11.692   0.762   7.772
60606SOL     OW81841  12.453   0.345   8.392
60606SOL    HW181842  12.367   0.295   8.379
60606SOL    HW281843  12.515   0.291   8.448
60607SOL     OW81844  11.979   0.605   8.913
60607SOL    HW181845  11.932   0.602   9.002
60607SOL    HW281846  11.928   0.550   8.847
60608SOL     OW81847  12.566   0.469   9.122
60608SOL    HW181848  12.546   0.512   9.210
60608SOL    HW281849  12.644   0.407   9.131
60609SOL     OW81850  12.145   0.890   9.020
60609SOL    HW181851  12.191   0.806   8.991
60609SOL    HW281852  12.089   0.924   8.945
60610SOL     OW81853  12.163   0.410   8.690
60610SOL    HW181854  12.086   0.444   8.744
60610SOL    HW281855  12.129   0.359   8.611
60611SOL     OW81856  12.213   0.701   7.877
60611SOL    HW181857  12.239   0.697   7.973
60611SOL    HW281858  12.128   0.650   7.863
60612SOL     OW81859  11.248   0.811   8.237
60612SOL    HW181860  11.347   0.799   8.246
60612SOL    HW281861  11.224   0.906   8.258
60613SOL     OW81862  11.302   1.821   9.019
60613SOL    HW181863  11.292   1.806   9.118
60613SOL    HW281864  11.216   1.857   8.983
60614SOL     OW81865  12.037   0.348   7.643
60614SOL    HW181866  12.096   0.411   7.594
60614SOL    HW281867  12.056   0.254   7.614
60615SOL     OW81868  12.534   1.144   7.993
60615SOL    HW181869  12.617   1.115   7.945
60615SOL    HW281870  12.485   1.211   7.937
60616SOL     OW81871  11.722   0.196   8.333
60616SOL    HW181872  11.717   0.191   8.433
60616SOL    HW281873  11.724   0.292   8.304
60617SOL     OW81874  12.180   1.456   7.925
60617SOL    HW181875  12.134   1.528   7.873
60617SOL    HW281876  12.176   1.476   8.023
60618SOL     OW81877  11.523   1.801   8.301
60618SOL    HW181878  11.573   1.715   8.307
60618SOL    HW281879  11.588   1.878   8.298
60619SOL     OW81880  12.399   1.550   8.954
60619SOL    HW181881  12.405   1.473   9.018
60619SOL    HW281882  12.347   1.524   8.874
60620SOL     OW81883  11.493   0.943   7.690
60620SOL    HW181884  11.575   0.982   7.648
60620SOL    HW281885  11.466   0.861   7.641
60621SOL     OW81886  12.630   0.735   8.176
60621SOL    HW181887  12.625   0.670   8.251
60621SOL    HW281888  12.710   0.794   8.189
60622SOL     OW81889  11.633   1.266   9.175
60622SOL    HW181890  11.583   1.267   9.089
60622SOL    HW281891  11.570   1.248   9.251
60623SOL     OW81892  12.283   1.776   7.685
60623SOL    HW181893  12.223   1.714   7.735
60623SOL    HW281894  12.314   1.732   7.600
60624SOL     OW81895  11.374   0.285   8.946
60624SOL    HW181896  11.294   0.345   8.933
60624SOL    HW281897  11.364   0.236   9.032
60625SOL     OW81898  11.636   1.743   7.771
60625SOL    HW181899  11.669   1.782   7.857
60625SOL    HW281900  11.712   1.736   7.706
60626SOL     OW81901  12.572   0.107   7.874
60626SOL    HW181902  12.548   0.070   7.784
60626SOL    HW281903  12.671   0.123   7.878
60627SOL     OW81904  11.421   1.785   8.689
60627SOL    HW181905  11.478   1.720   8.739
60627SOL    HW281906  11.405   1.752   8.596
60628SOL     OW81907  12.112   1.698   8.352
60628SOL    HW181908  12.192   1.641   8.373
60628SOL    HW281909  12.063   1.658   8.275
60629SOL     OW81910  11.554   0.700   7.928
60629SOL    HW181911  11.599   0.610   7.925
60629SOL    HW281912  11.460   0.689   7.961
60630SOL     OW81913  11.786   0.122   7.565
60630SOL    HW181914  11.884   0.100   7.572
60630SOL    HW281915  11.755   0.105   7.472
60631SOL     OW81916  11.953   0.264   9.197
60631SOL    HW181917  12.020   0.203   9.240
60631SOL    HW281918  11.880   0.283   9.262
60632SOL     OW81919  12.060   1.514   8.643
60632SOL    HW181920  12.037   1.489   8.549
60632SOL    HW281921  12.121   1.445   8.682
60633SOL     OW81922  12.523   0.590   8.881
60633SOL    HW181923  12.551   0.547   8.966
60633SOL    HW281924  12.548   0.686   8.882
60634SOL     OW81925  11.975   1.402   8.372
60634SOL    HW181926  12.065   1.416   8.330
60634SOL    HW281927  11.904   1.404   8.301
60635SOL     OW81928  12.094   0.503   8.347
60635SOL    HW181929  12.069   0.494   8.251
60635SOL    HW281930  12.142   0.421   8.378
60636SOL     OW81931  11.711   0.064   7.960
60636SOL    HW181932  11.630   0.065   8.018
60636SOL    HW281933  11.714   0.147   7.905
60637SOL     OW81934  12.606   1.188   7.489
60637SOL    HW181935  12.638   1.112   7.546
60637SOL    HW281936  12.514   1.215   7.519
60638SOL     OW81937  11.469   0.035   7.619
60638SOL    HW181938  11.518   0.119   7.598
60638SOL    HW281939  11.531  -0.030   7.664
60639SOL     OW81940  12.107   0.236   7.928
60639SOL    HW181941  12.059   0.277   7.850
60639SOL    HW281942  12.206   0.234   7.909
60640SOL     OW81943  12.248   0.683   8.912
60640SOL    HW181944  12.168   0.622   8.915
60640SOL    HW281945  12.329   0.630   8.888
60641SOL     OW81946  12.399   1.570   8.241
60641SOL    HW181947  12.420   1.644   8.176
60641SOL    HW281948  12.467   1.570   8.314
60642SOL     OW81949  11.631   1.152   8.189
60642SOL    HW181950  11.560   1.125   8.254
60642SOL    HW281951  11.605   1.124   8.096
60643SOL     OW81952  12.443   1.797   8.039
60643SOL    HW181953  12.487   1.861   7.975
60643SOL    HW281954  12.393   1.849   8.109
60644SOL     OW81955  12.204   0.549   7.464
60644SOL    HW181956  12.163   0.631   7.425
60644SOL    HW281957  12.268   0.575   7.537
60645SOL     OW81958  11.250   0.556   8.834
60645SOL    HW181959  11.342   0.555   8.793
60645SOL    HW281960  11.244   0.630   8.901
60646SOL     OW81961  11.733   0.222   8.595
60646SOL    HW181962  11.771   0.138   8.632
60646SOL    HW281963  11.645   0.241   8.639
60647SOL     OW81964  12.038   0.454   8.090
60647SOL    HW181965  12.006   0.526   8.028
60647SOL    HW281966  12.062   0.373   8.037
60648SOL     OW81967  12.189   0.039   8.201
60648SOL    HW181968  12.117   0.044   8.132
60648SOL    HW281969  12.165  -0.030   8.270
60649SOL     OW81970  12.601   1.173   8.315
60649SOL    HW181971  12.546   1.089   8.308
60649SOL    HW281972  12.627   1.202   8.223
60650SOL     OW81973  12.638   0.590   8.440
60650SOL    HW181974  12.608   0.495   8.447
60650SOL    HW281975  12.711   0.606   8.506
60651SOL     OW81976  11.660   1.385   7.622
60651SOL    HW181977  11.573   1.370   7.669
60651SOL    HW281978  11.643   1.411   7.527
60652SOL     OW81979  12.562   0.575   7.526
60652SOL    HW181980  12.508   0.554   7.607
60652SOL    HW281981  12.653   0.534   7.535
60653SOL     OW81982  11.699   0.256   7.776
60653SOL    HW181983  11.726   0.197   7.701
60653SOL    HW281984  11.699   0.351   7.745
60654SOL     OW81985  12.236   1.347   8.788
60654SOL    HW181986  12.156   1.324   8.843
60654SOL    HW281987  12.319   1.321   8.837
60655SOL     OW81988  12.764   1.629   9.073
60655SOL    HW181989  12.791   1.663   8.983
60655SOL    HW281990  12.843   1.591   9.119
60656SOL     OW81991  12.283   1.195   8.548
60656SOL    HW181992  12.243   1.239   8.629
60656SOL    HW281993  12.242   1.232   8.465
60657SOL     OW81994  12.087   0.089   8.850
60657SOL    HW181995  12.112   0.069   8.755
60657SOL    HW281996  12.159   0.145   8.892
60658SOL     OW81997  12.152   1.116   9.167
60658SOL    HW181998  12.053   1.122   9.177
60658SOL    HW281999  12.175   1.036   9.111
60659SOL     OW82000  11.877   1.050   7.816
60659SOL    HW182001  11.863   1.057   7.915
60659SOL    HW282002  11.961   0.999   7.798
60660SOL     OW82003  11.582   0.813   8.699
60660SOL    HW182004  11.668   0.825   8.749
60660SOL    HW282005  11.540   0.726   8.726
60661SOL     OW82006  12.446   0.386   8.710
60661SOL    HW182007  12.467   0.460   8.774
60661SOL    HW282008  12.357   0.403   8.667
60662SOL     OW82009  11.236   1.564   8.779
60662SOL    HW182010  11.190   1.646   8.745
60662SOL    HW282011  11.334   1.583   8.788
60663SOL     OW82012  11.539   1.100   7.949
60663SOL    HW182013  11.532   1.183   7.893
60663SOL    HW282014  11.543   1.020   7.889
60664SOL     OW82015  11.738   0.537   8.313
60664SOL    HW182016  11.750   0.603   8.239
60664SOL    HW282017  11.784   0.571   8.396
60665SOL     OW82018  12.424   1.348   7.836
60665SOL    HW182019  12.474   1.425   7.876
60665SOL    HW282020  12.329   1.350   7.868
60666SOL     OW82021  12.444   1.445   8.590
60666SOL    HW182022  12.491   1.458   8.677
60666SOL    HW282023  12.378   1.371   8.599
60667SOL     OW82024  12.754   0.639   7.920
60667SOL    HW182025  12.723   0.700   7.993
60667SOL    HW282026  12.804   0.691   7.851
60668SOL     OW82027  11.526   1.510   8.777
60668SOL    HW182028  11.505   1.466   8.690
60668SOL    HW282029  11.623   1.536   8.780
60669SOL     OW82030  11.574   0.751   9.046
60669SOL    HW182031  11.642   0.806   8.999
60669SOL    HW282032  11.614   0.663   9.073
60670SOL     OW82033  12.185   0.105   9.218
60670SOL    HW182034  12.191   0.190   9.166
60670SOL    HW282035  12.217   0.029   9.161
60671SOL     OW82036  11.676   0.050   9.188
60671SOL    HW182037  11.634  -0.007   9.118
60671SOL    HW282038  11.610   0.119   9.220
60672SOL     OW82039  11.745   0.870   8.477
60672SOL    HW182040  11.789   0.959   8.468
60672SOL    HW282041  11.682   0.870   8.554
60673SOL     OW82042  12.532   0.862   8.493
60673SOL    HW182043  12.457   0.862   8.427
60673SOL    HW282044  12.569   0.770   8.502
60674SOL     OW82045  12.381   0.525   7.723
60674SOL    HW182046  12.394   0.441   7.777
60674SOL    HW282047  12.352   0.599   7.783
60675SOL     OW82048  11.479   0.213   8.679
60675SOL    HW182049  11.456   0.250   8.769
60675SOL    HW282050  11.449   0.118   8.673
60676SOL     OW82051  11.209   1.310   8.730
60676SOL    HW182052  11.262   1.261   8.798
60676SOL    HW282053  11.231   1.408   8.735
60677SOL     OW82054  11.904   0.634   8.512
60677SOL    HW182055  11.963   0.608   8.436
60677SOL    HW282056  11.876   0.730   8.501
60678SOL     OW82057  11.479   0.063   8.066
60678SOL    HW182058  11.468   0.157   8.099
60678SOL    HW282059  11.474   0.000   8.143
60679SOL     OW82060  12.794   0.367   7.822
60679SOL    HW182061  12.796   0.291   7.886
60679SOL    HW282062  12.746   0.444   7.862
60680SOL     OW82063  12.195   0.766   8.414
60680SOL    HW182064  12.210   0.787   8.510
60680SOL    HW282065  12.165   0.671   8.405
60681SOL     OW82066  12.152   1.573   9.148
60681SOL    HW182067  12.132   1.617   9.060
60681SOL    HW282068  12.191   1.482   9.132
60682SOL     OW82069  11.522   0.898   9.252
60682SOL    HW182070  11.598   0.942   9.300
60682SOL    HW282071  11.557   0.851   9.170
60683SOL     OW82072  12.712   0.274   7.573
60683SOL    HW182073  12.651   0.199   7.596
60683SOL    HW282074  12.734   0.326   7.656
60684SOL     OW82075  12.475   0.838   7.490
60684SOL    HW182076  12.509   0.745   7.505
60684SOL    HW282077  12.493   0.865   7.395
60685SOL     OW82078  12.240   1.333   8.297
60685SOL    HW182079  12.247   1.249   8.242
60685SOL    HW282080  12.302   1.402   8.261
60686SOL     OW82081  11.491   0.810   8.397
60686SOL    HW182082  11.584   0.846   8.402
60686SOL    HW282083  11.485   0.725   8.449
60687SOL     OW82084  11.511   0.509   8.454
60687SOL    HW182085  11.459   0.426   8.437
60687SOL    HW282086  11.588   0.514   8.390
60688SOL     OW82087  12.310   0.380   9.126
60688SOL    HW182088  12.265   0.443   9.190
60688SOL    HW282089  12.403   0.411   9.109
60689SOL     OW82090  12.332   0.207   8.925
60689SOL    HW182091  12.332   0.271   9.002
60689SOL    HW282092  12.360   0.255   8.842
60690SOL     OW82093  11.180   1.326   7.648
60690SOL    HW182094  11.087   1.347   7.617
60690SOL    HW282095  11.190   1.227   7.661
60691SOL     OW82096  11.260   1.801   8.375
60691SOL    HW182097  11.218   1.715   8.348
60691SOL    HW282098  11.354   1.804   8.341
60692SOL     OW82099  11.676   1.568   8.358
60692SOL    HW182100  11.742   1.642   8.367
60692SOL    HW282101  11.720   1.489   8.316
60693SOL     OW82102  12.174   0.796   8.686
60693SOL    HW182103  12.215   0.764   8.772
60693SOL    HW282104  12.078   0.769   8.683
60694SOL     OW82105  11.212   0.544   8.562
60694SOL    HW182106  11.297   0.511   8.521
60694SOL    HW282107  11.225   0.559   8.660
60695SOL     OW82108  11.361   0.520   9.170
60695SOL    HW182109  11.420   0.480   9.100
60695SOL    HW282110  11.303   0.591   9.129
60696SOL     OW82111  12.541   0.950   9.108
60696SOL    HW182112  12.580   1.039   9.128
60696SOL    HW282113  12.551   0.930   9.011
60697SOL     OW82114  11.987   0.572   7.773
60697SOL    HW182115  11.994   0.483   7.727
60697SOL    HW282116  11.893   0.606   7.765
60698SOL     OW82117  11.424   1.564   9.192
60698SOL    HW182118  11.394   1.621   9.268
60698SOL    HW282119  11.417   1.467   9.218
60699SOL     OW82120  11.843   0.464   8.717
60699SOL    HW182121  11.809   0.375   8.687
60699SOL    HW282122  11.869   0.518   8.637
60700SOL     OW82123  12.102   1.678   8.913
60700SOL    HW182124  12.078   1.660   8.818
60700SOL    HW282125  12.132   1.772   8.923
60701SOL     OW82126  11.645   0.500   7.639
60701SOL    HW182127  11.706   0.580   7.643
60701SOL    HW282128  11.550   0.531   7.646
60702SOL     OW82129  11.331   1.137   8.914
60702SOL    HW182130  11.353   1.076   8.990
60702SOL    HW282131  11.341   1.088   8.828
60703SOL     OW82132  12.519   1.059   8.682
60703SOL    HW182133  12.543   0.996   8.608
60703SOL    HW282134  12.429   1.099   8.664
60704SOL     OW82135  12.474   0.855   7.757
60704SOL    HW182136  12.388   0.824   7.799
60704SOL    HW282137  12.470   0.841   7.658
60705SOL     OW82138  12.424   1.731   8.576
60705SOL    HW182139  12.508   1.736   8.522
60705SOL    HW282140  12.401   1.635   8.594
60706SOL     OW82141  11.255   1.258   8.470
60706SOL    HW182142  11.250   1.257   8.570
60706SOL    HW282143  11.172   1.217   8.432
60707SOL     OW82144  11.860   1.662   9.164
60707SOL    HW182145  11.804   1.743   9.173
60707SOL    HW282146  11.912   1.666   9.078
60708SOL     OW82147  12.898   0.135   7.971
60708SOL    HW182148  12.971   0.118   7.904
60708SOL    HW282149  12.867   0.048   8.009
60709SOL     OW82150  12.560   1.573   7.925
60709SOL    HW182151  12.627   1.585   7.851
60709SOL    HW282152  12.520   1.662   7.948
60710SOL     OW82153  11.302   1.794   9.299
60710SOL    HW182154  11.261   1.720   9.352
60710SOL    HW282155  11.366   1.845   9.357
60711SOL     OW82156  12.452   0.927   8.120
60711SOL    HW182157  12.512   0.846   8.122
60711SOL    HW282158  12.492   0.996   8.060
60712SOL     OW82159  12.002   1.273   8.870
60712SOL    HW182160  11.997   1.306   8.965
60712SOL    HW282161  11.916   1.292   8.824
60713SOL     OW82162  11.844   1.616   7.602
60713SOL    HW182163  11.853   1.626   7.503
60713SOL    HW282164  11.804   1.527   7.623
60714SOL     OW82165  11.435   0.326   8.168
60714SOL    HW182166  11.356   0.377   8.134
60714SOL    HW282167  11.426   0.311   8.266
60715SOL     OW82168  12.366   1.612   7.479
60715SOL    HW182169  12.372   1.519   7.516
60715SOL    HW282170  12.307   1.612   7.399
60716SOL     OW82171  11.994   1.002   8.820
60716SOL    HW182172  12.034   1.001   8.728
60716SOL    HW282173  12.004   1.094   8.860
60717SOL     OW82174  12.088   0.910   7.739
60717SOL    HW182175  12.151   0.948   7.671
60717SOL    HW282176  12.128   0.827   7.778
60718SOL     OW82177  12.676   1.607   7.492
60718SOL    HW182178  12.584   1.644   7.499
60718SOL    HW282179  12.714   1.627   7.402
60719SOL     OW82180  11.544   1.288   8.938
60719SOL    HW182181  11.531   1.381   8.904
60719SOL    HW282182  11.460   1.236   8.925
60720SOL     OW82183  12.211   1.098   8.144
60720SOL    HW182184  12.141   1.051   8.198
60720SOL    HW282185  12.270   1.030   8.101
60721SOL     OW82186  12.186   0.236   8.419
60721SOL    HW182187  12.178   0.200   8.326
60721SOL    HW282188  12.184   0.160   8.484
60722SOL     OW82189  11.762   1.487   7.939
60722SOL    HW182190  11.804   1.429   7.869
60722SOL    HW282191  11.718   1.566   7.895
60723SOL     OW82192  11.427   1.348   7.738
60723SOL    HW182193  11.331   1.349   7.711
60723SOL    HW282194  11.439   1.401   7.822
60724SOL     OW82195  11.277   1.013   9.174
60724SOL    HW182196  11.200   0.980   9.228
60724SOL    HW282197  11.362   0.983   9.216
60725SOL     OW82198  11.844   0.203   8.937
60725SOL    HW182199  11.934   0.187   8.897
60725SOL    HW282200  11.852   0.208   9.036
60726SOL     OW82201  11.247   0.345   7.481
60726SOL    HW182202  11.155   0.317   7.452
60726SOL    HW282203  11.278   0.422   7.425
60727SOL     OW82204  12.612   0.856   8.846
60727SOL    HW182205  12.555   0.908   8.783
60727SOL    HW282206  12.708   0.868   8.822
60728SOL     OW82207  11.244   0.166   7.766
60728SOL    HW182208  11.227   0.249   7.712
60728SOL    HW282209  11.334   0.129   7.744
60729SOL     OW82210  12.355   1.335   7.567
60729SOL    HW182211  12.256   1.324   7.569
60729SOL    HW282212  12.389   1.350   7.660
60730SOL     OW82213  11.785   0.842   8.879
60730SOL    HW182214  11.841   0.923   8.862
60730SOL    HW282215  11.844   0.762   8.882
60731SOL     OW82216  12.665   1.767   8.407
60731SOL    HW182217  12.698   1.831   8.338
60731SOL    HW282218  12.731   1.761   8.482
60732SOL     OW82219  11.888   0.565   9.156
60732SOL    HW182220  11.907   0.630   9.230
60732SOL    HW282221  11.948   0.485   9.165
60733SOL     OW82222  12.622   1.220   9.081
60733SOL    HW182223  12.613   1.210   9.180
60733SOL    HW282224  12.718   1.213   9.055
60734SOL     OW82225  11.562   1.741   9.008
60734SOL    HW182226  11.471   1.782   9.006
60734SOL    HW282227  11.555   1.647   9.040
60735SOL     OW82228  12.397   0.325   7.897
60735SOL    HW182229  12.462   0.251   7.886
60735SOL    HW282230  12.417   0.375   7.981
60736SOL     OW82231  11.766   0.745   8.100
60736SOL    HW182232  11.816   0.830   8.081
60736SOL    HW282233  11.678   0.747   8.052
60737SOL     OW82234  12.031   1.374   7.464
60737SOL    HW182235  11.985   1.389   7.552
60737SOL    HW282236  12.075   1.459   7.434
60738SOL     OW82237  11.833   1.790   8.401
60738SOL    HW182238  11.787   1.878   8.388
60738SOL    HW282239  11.932   1.802   8.394
60739SOL     OW82240  12.031   0.956   8.309
60739SOL    HW182241  12.085   0.887   8.357
60739SOL    HW282242  11.999   1.025   8.375
60740SOL     OW82243  12.255   0.984   7.535
60740SOL    HW182244  12.232   1.037   7.453
60740SOL    HW282245  12.336   0.928   7.516
60741SOL     OW82246  13.033   1.569   8.299
60741SOL    HW182247  12.962   1.557   8.229
60741SOL    HW282248  13.034   1.490   8.359
60742SOL     OW82249  11.393   1.314   9.292
60742SOL    HW182250  11.328   1.241   9.271
60742SOL    HW282251  11.397   1.328   9.390
60743SOL     OW82252  11.251   1.240   8.101
60743SOL    HW182253  11.250   1.193   8.189
60743SOL    HW282254  11.333   1.212   8.050
60744SOL     OW82255  11.844   1.391   9.072
60744SOL    HW182256  11.766   1.341   9.110
60744SOL    HW282257  11.841   1.486   9.103
60745SOL     OW82258  11.600   0.424   7.968
60745SOL    HW182259  11.630   0.352   7.906
60745SOL    HW282260  11.561   0.384   8.051
60746SOL     OW82261  11.489   0.547   8.728
60746SOL    HW182262  11.527   0.488   8.800
60746SOL    HW282263  11.529   0.521   8.640
60747SOL     OW82264  11.984   1.586   8.135
60747SOL    HW182265  12.016   1.596   8.041
60747SOL    HW282266  11.905   1.524   8.137
60748SOL     OW82267  12.596   0.214   8.560
60748SOL    HW182268  12.648   0.149   8.615
60748SOL    HW282269  12.547   0.277   8.621
60749SOL     OW82270  12.173   0.034   8.602
60749SOL    HW182271  12.110  -0.038   8.571
60749SOL    HW282272  12.266  -0.002   8.602
60750SOL     OW82273  11.942   1.330   7.749
60750SOL    HW182274  11.896   1.243   7.766
60750SOL    HW282275  12.033   1.327   7.790
60751SOL     OW82276  11.790   1.567   8.732
60751SOL    HW182277  11.785   1.649   8.789
60751SOL    HW282278  11.879   1.564   8.687
60752SOL     OW82279  12.524   0.052   7.616
60752SOL    HW182280  12.559   0.011   7.532
60752SOL    HW282281  12.434   0.014   7.636
60753SOL     OW82282  12.472   0.453   8.139
60753SOL    HW182283  12.413   0.533   8.143
60753SOL    HW282284  12.487   0.418   8.232
60754SOL     OW82285  12.765   0.221   8.330
60754SOL    HW182286  12.681   0.220   8.384
60754SOL    HW282287  12.767   0.304   8.274
60755SOL     OW82288  11.211   1.077   7.748
60755SOL    HW182289  11.310   1.066   7.739
60755SOL    HW282290  11.171   0.991   7.780
60756SOL     OW82291  12.047   1.646   7.785
60756SOL    HW182292  11.970   1.611   7.731
60756SOL    HW282293  12.015   1.717   7.847
60757SOL     OW82294  11.402   0.628   9.423
60757SOL    HW182295  11.309   0.626   9.460
60757SOL    HW282296  11.403   0.589   9.331
60758SOL     OW82297  11.397   0.275  10.306
60758SOL    HW182298  11.432   0.258  10.398
60758SOL    HW282299  11.309   0.230  10.294
60759SOL     OW82300  11.191   0.368   9.957
60759SOL    HW182301  11.109   0.411   9.996
60759SOL    HW282302  11.163   0.295   9.894
60760SOL     OW82303  11.741   1.275  10.475
60760SOL    HW182304  11.648   1.268  10.438
60760SOL    HW282305  11.752   1.364  10.519
60761SOL     OW82306  12.727   1.511  10.013
60761SOL    HW182307  12.670   1.495  10.094
60761SOL    HW282308  12.668   1.521   9.933
60762SOL     OW82309  12.307   0.703  10.027
60762SOL    HW182310  12.364   0.781  10.002
60762SOL    HW282311  12.247   0.729  10.103
60763SOL     OW82312  11.940   1.144  10.333
60763SOL    HW182313  11.862   1.161  10.393
60763SOL    HW282314  11.974   1.231  10.297
60764SOL     OW82315  12.022   0.798  11.133
60764SOL    HW182316  12.018   0.874  11.198
60764SOL    HW282317  12.044   0.834  11.042
60765SOL     OW82318  11.857   1.012   9.975
60765SOL    HW182319  11.926   0.996  10.045
60765SOL    HW282320  11.784   1.069  10.013
60766SOL     OW82321  11.858   1.161  11.113
60766SOL    HW182322  11.918   1.240  11.127
60766SOL    HW282323  11.772   1.192  11.072
60767SOL     OW82324  11.507   1.435  10.371
60767SOL    HW182325  11.429   1.404  10.318
60767SOL    HW282326  11.565   1.493  10.314
60768SOL     OW82327  12.632   1.505  10.649
60768SOL    HW182328  12.656   1.599  10.675
60768SOL    HW282329  12.616   1.451  10.731
60769SOL     OW82330  11.610   0.392  10.809
60769SOL    HW182331  11.692   0.336  10.818
60769SOL    HW282332  11.529   0.334  10.813
60770SOL     OW82333  11.403   1.713   9.793
60770SOL    HW182334  11.437   1.790   9.847
60770SOL    HW282335  11.447   1.713   9.703
60771SOL     OW82336  12.299   1.341  11.000
60771SOL    HW182337  12.346   1.341  11.088
60771SOL    HW282338  12.251   1.254  10.989
60772SOL     OW82339  11.402   1.434   9.848
60772SOL    HW182340  11.376   1.530   9.848
60772SOL    HW282341  11.331   1.380   9.893
60773SOL     OW82342  11.412   1.091  10.196
60773SOL    HW182343  11.426   1.007  10.248
60773SOL    HW282344  11.357   1.155  10.251
60774SOL     OW82345  11.792   1.786  10.749
60774SOL    HW182346  11.700   1.769  10.784
60774SOL    HW282347  11.820   1.878  10.775
60775SOL     OW82348  11.778   0.964   9.433
60775SOL    HW182349  11.785   1.048   9.379
60775SOL    HW282350  11.824   0.977   9.521
60776SOL     OW82351  12.766   0.114  10.790
60776SOL    HW182352  12.748   0.181  10.718
60776SOL    HW282353  12.763   0.160  10.879
60777SOL     OW82354  11.294   0.643   9.873
60777SOL    HW182355  11.249   0.555   9.890
60777SOL    HW282356  11.293   0.697   9.957
60778SOL     OW82357  11.199   1.596   9.427
60778SOL    HW182358  11.180   1.500   9.448
60778SOL    HW282359  11.166   1.654   9.502
60779SOL     OW82360  12.861   0.922   9.922
60779SOL    HW182361  12.956   0.893   9.930
60779SOL    HW282362  12.853   0.987   9.847
60780SOL     OW82363  11.285   0.737  10.907
60780SOL    HW182364  11.373   0.724  10.952
60780SOL    HW282365  11.272   0.834  10.885
60781SOL     OW82366  11.785   1.365  10.036
60781SOL    HW182367  11.736   1.278  10.045
60781SOL    HW282368  11.762   1.408   9.949
60782SOL     OW82369  12.465   1.228  10.733
60782SOL    HW182370  12.502   1.155  10.675
60782SOL    HW282371  12.517   1.233  10.818
60783SOL     OW82372  11.981   0.004   9.812
60783SOL    HW182373  12.021   0.095   9.803
60783SOL    HW282374  11.881   0.012   9.818
60784SOL     OW82375  11.369   0.976  10.574
60784SOL    HW182376  11.458   0.931  10.560
60784SOL    HW282377  11.296   0.911  10.555
60785SOL     OW82378  12.359   1.792  10.926
60785SOL    HW182379  12.383   1.852  10.850
60785SOL    HW282380  12.366   1.697  10.896
60786SOL     OW82381  11.489   0.251  11.111
60786SOL    HW182382  11.560   0.322  11.117
60786SOL    HW282383  11.401   0.290  11.139
60787SOL     OW82384  12.638   1.417  10.263
60787SOL    HW182385  12.579   1.423  10.343
60787SOL    HW282386  12.623   1.329  10.217
60788SOL     OW82387  12.839   1.714   9.882
60788SOL    HW182388  12.798   1.691   9.794
60788SOL    HW282389  12.821   1.640   9.947
60789SOL     OW82390  11.770   0.729   9.580
60789SOL    HW182391  11.794   0.798   9.512
60789SOL    HW282392  11.692   0.762   9.634
60790SOL     OW82393  12.453   0.345  10.254
60790SOL    HW182394  12.367   0.295  10.241
60790SOL    HW282395  12.515   0.291  10.310
60791SOL     OW82396  11.979   0.605  10.775
60791SOL    HW182397  11.932   0.602  10.864
60791SOL    HW282398  11.928   0.550  10.709
60792SOL     OW82399  12.566   0.469  10.984
60792SOL    HW182400  12.546   0.512  11.072
60792SOL    HW282401  12.644   0.407  10.993
60793SOL     OW82402  12.145   0.890  10.882
60793SOL    HW182403  12.191   0.806  10.853
60793SOL    HW282404  12.089   0.924  10.807
60794SOL     OW82405  12.163   0.410  10.552
60794SOL    HW182406  12.086   0.444  10.606
60794SOL    HW282407  12.129   0.359  10.473
60795SOL     OW82408  12.213   0.701   9.739
60795SOL    HW182409  12.239   0.697   9.835
60795SOL    HW282410  12.128   0.650   9.725
60796SOL     OW82411  11.248   0.811  10.099
60796SOL    HW182412  11.347   0.799  10.108
60796SOL    HW282413  11.224   0.906  10.120
60797SOL     OW82414  11.302   1.821  10.881
60797SOL    HW182415  11.292   1.806  10.980
60797SOL    HW282416  11.216   1.857  10.845
60798SOL     OW82417  12.037   0.348   9.505
60798SOL    HW182418  12.096   0.411   9.456
60798SOL    HW282419  12.056   0.254   9.476
60799SOL     OW82420  12.534   1.144   9.855
60799SOL    HW182421  12.617   1.115   9.807
60799SOL    HW282422  12.485   1.211   9.799
60800SOL     OW82423  11.722   0.196  10.195
60800SOL    HW182424  11.717   0.191  10.295
60800SOL    HW282425  11.724   0.292  10.166
60801SOL     OW82426  12.180   1.456   9.787
60801SOL    HW182427  12.134   1.528   9.735
60801SOL    HW282428  12.176   1.476   9.885
60802SOL     OW82429  11.523   1.801  10.163
60802SOL    HW182430  11.573   1.715  10.169
60802SOL    HW282431  11.588   1.878  10.160
60803SOL     OW82432  12.399   1.550  10.816
60803SOL    HW182433  12.405   1.473  10.880
60803SOL    HW282434  12.347   1.524  10.736
60804SOL     OW82435  11.493   0.943   9.552
60804SOL    HW182436  11.575   0.982   9.510
60804SOL    HW282437  11.466   0.861   9.503
60805SOL     OW82438  12.630   0.735  10.038
60805SOL    HW182439  12.625   0.670  10.113
60805SOL    HW282440  12.710   0.794  10.051
60806SOL     OW82441  11.633   1.266  11.037
60806SOL    HW182442  11.583   1.267  10.951
60806SOL    HW282443  11.570   1.248  11.113
60807SOL     OW82444  12.283   1.776   9.547
60807SOL    HW182445  12.223   1.714   9.597
60807SOL    HW282446  12.314   1.732   9.462
60808SOL     OW82447  11.374   0.285  10.808
60808SOL    HW182448  11.294   0.345  10.795
60808SOL    HW282449  11.364   0.236  10.894
60809SOL     OW82450  11.636   1.743   9.633
60809SOL    HW182451  11.669   1.782   9.719
60809SOL    HW282452  11.712   1.736   9.568
60810SOL     OW82453  12.572   0.107   9.736
60810SOL    HW182454  12.548   0.070   9.646
60810SOL    HW282455  12.671   0.123   9.740
60811SOL     OW82456  11.421   1.785  10.551
60811SOL    HW182457  11.478   1.720  10.601
60811SOL    HW282458  11.405   1.752  10.458
60812SOL     OW82459  12.112   1.698  10.214
60812SOL    HW182460  12.192   1.641  10.235
60812SOL    HW282461  12.063   1.658  10.137
60813SOL     OW82462  11.554   0.700   9.790
60813SOL    HW182463  11.599   0.610   9.787
60813SOL    HW282464  11.460   0.689   9.823
60814SOL     OW82465  11.786   0.122   9.427
60814SOL    HW182466  11.884   0.100   9.434
60814SOL    HW282467  11.755   0.105   9.334
60815SOL     OW82468  11.953   0.264  11.059
60815SOL    HW182469  12.020   0.203  11.102
60815SOL    HW282470  11.880   0.283  11.124
60816SOL     OW82471  12.060   1.514  10.505
60816SOL    HW182472  12.037   1.489  10.411
60816SOL    HW282473  12.121   1.445  10.544
60817SOL     OW82474  12.523   0.590  10.743
60817SOL    HW182475  12.551   0.547  10.828
60817SOL    HW282476  12.548   0.686  10.744
60818SOL     OW82477  11.975   1.402  10.234
60818SOL    HW182478  12.065   1.416  10.192
60818SOL    HW282479  11.904   1.404  10.163
60819SOL     OW82480  12.094   0.503  10.209
60819SOL    HW182481  12.069   0.494  10.113
60819SOL    HW282482  12.142   0.421  10.240
60820SOL     OW82483  11.711   0.064   9.822
60820SOL    HW182484  11.630   0.065   9.880
60820SOL    HW282485  11.714   0.147   9.767
60821SOL     OW82486  12.606   1.188   9.351
60821SOL    HW182487  12.638   1.112   9.408
60821SOL    HW282488  12.514   1.215   9.381
60822SOL     OW82489  11.469   0.035   9.481
60822SOL    HW182490  11.518   0.119   9.460
60822SOL    HW282491  11.531  -0.030   9.526
60823SOL     OW82492  12.107   0.236   9.790
60823SOL    HW182493  12.059   0.277   9.712
60823SOL    HW282494  12.206   0.234   9.771
60824SOL     OW82495  12.248   0.683  10.774
60824SOL    HW182496  12.168   0.622  10.777
60824SOL    HW282497  12.329   0.630  10.750
60825SOL     OW82498  12.399   1.570  10.103
60825SOL    HW182499  12.420   1.644  10.038
60825SOL    HW282500  12.467   1.570  10.176
60826SOL     OW82501  11.631   1.152  10.051
60826SOL    HW182502  11.560   1.125  10.116
60826SOL    HW282503  11.605   1.124   9.958
60827SOL     OW82504  12.443   1.797   9.901
60827SOL    HW182505  12.487   1.861   9.837
60827SOL    HW282506  12.393   1.849   9.971
60828SOL     OW82507  12.204   0.549   9.326
60828SOL    HW182508  12.163   0.631   9.287
60828SOL    HW282509  12.268   0.575   9.399
60829SOL     OW82510  11.250   0.556  10.696
60829SOL    HW182511  11.342   0.555  10.655
60829SOL    HW282512  11.244   0.630  10.763
60830SOL     OW82513  11.733   0.222  10.457
60830SOL    HW182514  11.771   0.138  10.494
60830SOL    HW282515  11.645   0.241  10.501
60831SOL     OW82516  12.038   0.454   9.952
60831SOL    HW182517  12.006   0.526   9.890
60831SOL    HW282518  12.062   0.373   9.899
60832SOL     OW82519  12.189   0.039  10.063
60832SOL    HW182520  12.117   0.044   9.994
60832SOL    HW282521  12.165  -0.030  10.132
60833SOL     OW82522  12.601   1.173  10.177
60833SOL    HW182523  12.546   1.089  10.170
60833SOL    HW282524  12.627   1.202  10.085
60834SOL     OW82525  12.638   0.590  10.302
60834SOL    HW182526  12.608   0.495  10.309
60834SOL    HW282527  12.711   0.606  10.368
60835SOL     OW82528  11.660   1.385   9.484
60835SOL    HW182529  11.573   1.370   9.531
60835SOL    HW282530  11.643   1.411   9.389
60836SOL     OW82531  12.562   0.575   9.388
60836SOL    HW182532  12.508   0.554   9.469
60836SOL    HW282533  12.653   0.534   9.397
60837SOL     OW82534  11.699   0.256   9.638
60837SOL    HW182535  11.726   0.197   9.563
60837SOL    HW282536  11.699   0.351   9.607
60838SOL     OW82537  12.236   1.347  10.650
60838SOL    HW182538  12.156   1.324  10.705
60838SOL    HW282539  12.319   1.321  10.699
60839SOL     OW82540  12.764   1.629  10.935
60839SOL    HW182541  12.791   1.663  10.845
60839SOL    HW282542  12.843   1.591  10.981
60840SOL     OW82543  12.283   1.195  10.410
60840SOL    HW182544  12.243   1.239  10.491
60840SOL    HW282545  12.242   1.232  10.327
60841SOL     OW82546  12.087   0.089  10.712
60841SOL    HW182547  12.112   0.069  10.617
60841SOL    HW282548  12.159   0.145  10.754
60842SOL     OW82549  12.152   1.116  11.029
60842SOL    HW182550  12.053   1.122  11.039
60842SOL    HW282551  12.175   1.036  10.973
60843SOL     OW82552  11.877   1.050   9.678
60843SOL    HW182553  11.863   1.057   9.777
60843SOL    HW282554  11.961   0.999   9.660
60844SOL     OW82555  11.582   0.813  10.561
60844SOL    HW182556  11.668   0.825  10.611
60844SOL    HW282557  11.540   0.726  10.588
60845SOL     OW82558  11.236   1.564  10.641
60845SOL    HW182559  11.190   1.646  10.607
60845SOL    HW282560  11.334   1.583  10.650
60846SOL     OW82561  11.539   1.100   9.811
60846SOL    HW182562  11.532   1.183   9.755
60846SOL    HW282563  11.543   1.020   9.751
60847SOL     OW82564  11.738   0.537  10.175
60847SOL    HW182565  11.750   0.603  10.101
60847SOL    HW282566  11.784   0.571  10.258
60848SOL     OW82567  12.424   1.348   9.698
60848SOL    HW182568  12.474   1.425   9.738
60848SOL    HW282569  12.329   1.350   9.730
60849SOL     OW82570  12.444   1.445  10.452
60849SOL    HW182571  12.491   1.458  10.539
60849SOL    HW282572  12.378   1.371  10.461
60850SOL     OW82573  12.754   0.639   9.782
60850SOL    HW182574  12.723   0.700   9.855
60850SOL    HW282575  12.804   0.691   9.713
60851SOL     OW82576  11.526   1.510  10.639
60851SOL    HW182577  11.505   1.466  10.552
60851SOL    HW282578  11.623   1.536  10.642
60852SOL     OW82579  11.574   0.751  10.908
60852SOL    HW182580  11.642   0.806  10.861
60852SOL    HW282581  11.614   0.663  10.935
60853SOL     OW82582  12.185   0.105  11.080
60853SOL    HW182583  12.191   0.190  11.028
60853SOL    HW282584  12.217   0.029  11.023
60854SOL     OW82585  11.676   0.050  11.050
60854SOL    HW182586  11.634  -0.007  10.980
60854SOL    HW282587  11.610   0.119  11.082
60855SOL     OW82588  11.745   0.870  10.339
60855SOL    HW182589  11.789   0.959  10.330
60855SOL    HW282590  11.682   0.870  10.416
60856SOL     OW82591  12.532   0.862  10.355
60856SOL    HW182592  12.457   0.862  10.289
60856SOL    HW282593  12.569   0.770  10.364
60857SOL     OW82594  12.381   0.525   9.585
60857SOL    HW182595  12.394   0.441   9.639
60857SOL    HW282596  12.352   0.599   9.645
60858SOL     OW82597  11.479   0.213  10.541
60858SOL    HW182598  11.456   0.250  10.631
60858SOL    HW282599  11.449   0.118  10.535
60859SOL     OW82600  11.209   1.310  10.592
60859SOL    HW182601  11.262   1.261  10.660
60859SOL    HW282602  11.231   1.408  10.597
60860SOL     OW82603  11.904   0.634  10.374
60860SOL    HW182604  11.963   0.608  10.298
60860SOL    HW282605  11.876   0.730  10.363
60861SOL     OW82606  11.479   0.063   9.928
60861SOL    HW182607  11.468   0.157   9.961
60861SOL    HW282608  11.474   0.000  10.005
60862SOL     OW82609  12.794   0.367   9.684
60862SOL    HW182610  12.796   0.291   9.748
60862SOL    HW282611  12.746   0.444   9.724
60863SOL     OW82612  12.195   0.766  10.276
60863SOL    HW182613  12.210   0.787  10.372
60863SOL    HW282614  12.165   0.671  10.267
60864SOL     OW82615  12.152   1.573  11.010
60864SOL    HW182616  12.132   1.617  10.922
60864SOL    HW282617  12.191   1.482  10.994
60865SOL     OW82618  11.522   0.898  11.114
60865SOL    HW182619  11.598   0.942  11.162
60865SOL    HW282620  11.557   0.851  11.032
60866SOL     OW82621  12.712   0.274   9.435
60866SOL    HW182622  12.651   0.199   9.458
60866SOL    HW282623  12.734   0.326   9.518
60867SOL     OW82624  12.475   0.838   9.352
60867SOL    HW182625  12.509   0.745   9.367
60867SOL    HW282626  12.493   0.865   9.257
60868SOL     OW82627  12.240   1.333  10.159
60868SOL    HW182628  12.247   1.249  10.104
60868SOL    HW282629  12.302   1.402  10.123
60869SOL     OW82630  11.491   0.810  10.259
60869SOL    HW182631  11.584   0.846  10.264
60869SOL    HW282632  11.485   0.725  10.311
60870SOL     OW82633  11.511   0.509  10.316
60870SOL    HW182634  11.459   0.426  10.299
60870SOL    HW282635  11.588   0.514  10.252
60871SOL     OW82636  12.310   0.380  10.988
60871SOL    HW182637  12.265   0.443  11.052
60871SOL    HW282638  12.403   0.411  10.971
60872SOL     OW82639  12.332   0.207  10.787
60872SOL    HW182640  12.332   0.271  10.864
60872SOL    HW282641  12.360   0.255  10.704
60873SOL     OW82642  11.180   1.326   9.510
60873SOL    HW182643  11.087   1.347   9.479
60873SOL    HW282644  11.190   1.227   9.523
60874SOL     OW82645  11.260   1.801  10.237
60874SOL    HW182646  11.218   1.715  10.210
60874SOL    HW282647  11.354   1.804  10.203
60875SOL     OW82648  11.676   1.568  10.220
60875SOL    HW182649  11.742   1.642  10.229
60875SOL    HW282650  11.720   1.489  10.178
60876SOL     OW82651  12.174   0.796  10.548
60876SOL    HW182652  12.215   0.764  10.634
60876SOL    HW282653  12.078   0.769  10.545
60877SOL     OW82654  11.212   0.544  10.424
60877SOL    HW182655  11.297   0.511  10.383
60877SOL    HW282656  11.225   0.559  10.522
60878SOL     OW82657  11.361   0.520  11.032
60878SOL    HW182658  11.420   0.480  10.962
60878SOL    HW282659  11.303   0.591  10.991
60879SOL     OW82660  12.541   0.950  10.970
60879SOL    HW182661  12.580   1.039  10.990
60879SOL    HW282662  12.551   0.930  10.873
60880SOL     OW82663  11.987   0.572   9.635
60880SOL    HW182664  11.994   0.483   9.589
60880SOL    HW282665  11.893   0.606   9.627
60881SOL     OW82666  11.424   1.564  11.054
60881SOL    HW182667  11.394   1.621  11.130
60881SOL    HW282668  11.417   1.467  11.080
60882SOL     OW82669  11.843   0.464  10.579
60882SOL    HW182670  11.809   0.375  10.549
60882SOL    HW282671  11.869   0.518  10.499
60883SOL     OW82672  12.102   1.678  10.775
60883SOL    HW182673  12.078   1.660  10.680
60883SOL    HW282674  12.132   1.772  10.785
60884SOL     OW82675  11.645   0.500   9.501
60884SOL    HW182676  11.706   0.580   9.505
60884SOL    HW282677  11.550   0.531   9.508
60885SOL     OW82678  11.331   1.137  10.776
60885SOL    HW182679  11.353   1.076  10.852
60885SOL    HW282680  11.341   1.088  10.690
60886SOL     OW82681  12.519   1.059  10.544
60886SOL    HW182682  12.543   0.996  10.470
60886SOL    HW282683  12.429   1.099  10.526
60887SOL     OW82684  12.474   0.855   9.619
60887SOL    HW182685  12.388   0.824   9.661
60887SOL    HW282686  12.470   0.841   9.520
60888SOL     OW82687  12.424   1.731  10.438
60888SOL    HW182688  12.508   1.736  10.384
60888SOL    HW282689  12.401   1.635  10.456
60889SOL     OW82690  11.255   1.258  10.332
60889SOL    HW182691  11.250   1.257  10.432
60889SOL    HW282692  11.172   1.217  10.294
60890SOL     OW82693  11.860   1.662  11.026
60890SOL    HW182694  11.804   1.743  11.035
60890SOL    HW282695  11.912   1.666  10.940
60891SOL     OW82696  12.898   0.135   9.833
60891SOL    HW182697  12.971   0.118   9.766
60891SOL    HW282698  12.867   0.048   9.871
60892SOL     OW82699  12.560   1.573   9.787
60892SOL    HW182700  12.627   1.585   9.713
60892SOL    HW282701  12.520   1.662   9.810
60893SOL     OW82702  11.302   1.794  11.161
60893SOL    HW182703  11.261   1.720  11.214
60893SOL    HW282704  11.366   1.845  11.219
60894SOL     OW82705  12.452   0.927   9.982
60894SOL    HW182706  12.512   0.846   9.984
60894SOL    HW282707  12.492   0.996   9.922
60895SOL     OW82708  12.002   1.273  10.732
60895SOL    HW182709  11.997   1.306  10.827
60895SOL    HW282710  11.916   1.292  10.686
60896SOL     OW82711  11.844   1.616   9.464
60896SOL    HW182712  11.853   1.626   9.365
60896SOL    HW282713  11.804   1.527   9.485
60897SOL     OW82714  12.366   1.612   9.341
60897SOL    HW182715  12.372   1.519   9.378
60897SOL    HW282716  12.307   1.612   9.261
60898SOL     OW82717  11.994   1.002  10.682
60898SOL    HW182718  12.034   1.001  10.590
60898SOL    HW282719  12.004   1.094  10.722
60899SOL     OW82720  12.088   0.910   9.601
60899SOL    HW182721  12.151   0.948   9.533
60899SOL    HW282722  12.128   0.827   9.640
60900SOL     OW82723  12.676   1.607   9.354
60900SOL    HW182724  12.584   1.644   9.361
60900SOL    HW282725  12.714   1.627   9.264
60901SOL     OW82726  11.544   1.288  10.800
60901SOL    HW182727  11.531   1.381  10.766
60901SOL    HW282728  11.460   1.236  10.787
60902SOL     OW82729  12.211   1.098  10.006
60902SOL    HW182730  12.141   1.051  10.060
60902SOL    HW282731  12.270   1.030   9.963
60903SOL     OW82732  12.186   0.236  10.281
60903SOL    HW182733  12.178   0.200  10.188
60903SOL    HW282734  12.184   0.160  10.346
60904SOL     OW82735  11.762   1.487   9.801
60904SOL    HW182736  11.804   1.429   9.731
60904SOL    HW282737  11.718   1.566   9.757
60905SOL     OW82738  11.427   1.348   9.600
60905SOL    HW182739  11.331   1.349   9.573
60905SOL    HW282740  11.439   1.401   9.684
60906SOL     OW82741  11.277   1.013  11.036
60906SOL    HW182742  11.200   0.980  11.090
60906SOL    HW282743  11.362   0.983  11.078
60907SOL     OW82744  11.844   0.203  10.799
60907SOL    HW182745  11.934   0.187  10.759
60907SOL    HW282746  11.852   0.208  10.898
60908SOL     OW82747  11.247   0.345   9.343
60908SOL    HW182748  11.155   0.317   9.314
60908SOL    HW282749  11.278   0.422   9.287
60909SOL     OW82750  12.612   0.856  10.708
60909SOL    HW182751  12.555   0.908  10.645
60909SOL    HW282752  12.708   0.868  10.684
60910SOL     OW82753  11.244   0.166   9.628
60910SOL    HW182754  11.227   0.249   9.574
60910SOL    HW282755  11.334   0.129   9.606
60911SOL     OW82756  12.355   1.335   9.429
60911SOL    HW182757  12.256   1.324   9.431
60911SOL    HW282758  12.389   1.350   9.522
60912SOL     OW82759  11.785   0.842  10.741
60912SOL    HW182760  11.841   0.923  10.724
60912SOL    HW282761  11.844   0.762  10.744
60913SOL     OW82762  12.665   1.767  10.269
60913SOL    HW182763  12.698   1.831  10.200
60913SOL    HW282764  12.731   1.761  10.344
60914SOL     OW82765  11.888   0.565  11.018
60914SOL    HW182766  11.907   0.630  11.092
60914SOL    HW282767  11.948   0.485  11.027
60915SOL     OW82768  12.622   1.220  10.943
60915SOL    HW182769  12.613   1.210  11.042
60915SOL    HW282770  12.718   1.213  10.917
60916SOL     OW82771  11.562   1.741  10.870
60916SOL    HW182772  11.471   1.782  10.868
60916SOL    HW282773  11.555   1.647  10.902
60917SOL     OW82774  12.397   0.325   9.759
60917SOL    HW182775  12.462   0.251   9.748
60917SOL    HW282776  12.417   0.375   9.843
60918SOL     OW82777  11.766   0.745   9.962
60918SOL    HW182778  11.816   0.830   9.943
60918SOL    HW282779  11.678   0.747   9.914
60919SOL     OW82780  12.031   1.374   9.326
60919SOL    HW182781  11.985   1.389   9.414
60919SOL    HW282782  12.075   1.459   9.296
60920SOL     OW82783  11.833   1.790  10.263
60920SOL    HW182784  11.787   1.878  10.250
60920SOL    HW282785  11.932   1.802  10.256
60921SOL     OW82786  12.031   0.956  10.171
60921SOL    HW182787  12.085   0.887  10.219
60921SOL    HW282788  11.999   1.025  10.237
60922SOL     OW82789  12.255   0.984   9.397
60922SOL    HW182790  12.232   1.037   9.315
60922SOL    HW282791  12.336   0.928   9.378
60923SOL     OW82792  13.033   1.569  10.161
60923SOL    HW182793  12.962   1.557  10.091
60923SOL    HW282794  13.034   1.490  10.221
60924SOL     OW82795  11.393   1.314  11.154
60924SOL    HW182796  11.328   1.241  11.133
60924SOL    HW282797  11.397   1.328  11.252
60925SOL     OW82798  11.251   1.240   9.963
60925SOL    HW182799  11.250   1.193  10.051
60925SOL    HW282800  11.333   1.212   9.912
60926SOL     OW82801  11.844   1.391  10.934
60926SOL    HW182802  11.766   1.341  10.972
60926SOL    HW282803  11.841   1.486  10.965
60927SOL     OW82804  11.600   0.424   9.830
60927SOL    HW182805  11.630   0.352   9.768
60927SOL    HW282806  11.561   0.384   9.913
60928SOL     OW82807  11.489   0.547  10.590
60928SOL    HW182808  11.527   0.488  10.662
60928SOL    HW282809  11.529   0.521  10.502
60929SOL     OW82810  11.984   1.586   9.997
60929SOL    HW182811  12.016   1.596   9.903
60929SOL    HW282812  11.905   1.524   9.999
60930SOL     OW82813  12.596   0.214  10.422
60930SOL    HW182814  12.648   0.149  10.477
60930SOL    HW282815  12.547   0.277  10.483
60931SOL     OW82816  12.173   0.034  10.464
60931SOL    HW182817  12.110  -0.038  10.433
60931SOL    HW282818  12.266  -0.002  10.464
60932SOL     OW82819  11.942   1.330   9.611
60932SOL    HW182820  11.896   1.243   9.628
60932SOL    HW282821  12.033   1.327   9.652
60933SOL     OW82822  11.790   1.567  10.594
60933SOL    HW182823  11.785   1.649  10.651
60933SOL    HW282824  11.879   1.564  10.549
60934SOL     OW82825  12.524   0.052   9.478
60934SOL    HW182826  12.559   0.011   9.394
60934SOL    HW282827  12.434   0.014   9.498
60935SOL     OW82828  12.472   0.453  10.001
60935SOL    HW182829  12.413   0.533  10.005
60935SOL    HW282830  12.487   0.418  10.094
60936SOL     OW82831  12.765   0.221  10.192
60936SOL    HW182832  12.681   0.220  10.246
60936SOL    HW282833  12.767   0.304  10.136
60937SOL     OW82834  11.211   1.077   9.610
60937SOL    HW182835  11.310   1.066   9.601
60937SOL    HW282836  11.171   0.991   9.642
60938SOL     OW82837  12.047   1.646   9.647
60938SOL    HW182838  11.970   1.611   9.593
60938SOL    HW282839  12.015   1.717   9.709
60939SOL     OW82840  11.402   0.628  11.285
60939SOL    HW182841  11.309   0.626  11.322
60939SOL    HW282842  11.403   0.589  11.193
60940SOL     OW82843  11.397   0.275  12.168
60940SOL    HW182844  11.432   0.258  12.260
60940SOL    HW282845  11.309   0.230  12.156
60941SOL     OW82846  11.191   0.368  11.819
60941SOL    HW182847  11.109   0.411  11.858
60941SOL    HW282848  11.163   0.295  11.756
60942SOL     OW82849  11.741   1.275  12.337
60942SOL    HW182850  11.648   1.268  12.300
60942SOL    HW282851  11.752   1.364  12.381
60943SOL     OW82852  12.727   1.511  11.875
60943SOL    HW182853  12.670   1.495  11.956
60943SOL    HW282854  12.668   1.521  11.795
60944SOL     OW82855  12.307   0.703  11.889
60944SOL    HW182856  12.364   0.781  11.864
60944SOL    HW282857  12.247   0.729  11.965
60945SOL     OW82858  11.940   1.144  12.195
60945SOL    HW182859  11.862   1.161  12.255
60945SOL    HW282860  11.974   1.231  12.159
60946SOL     OW82861  11.857   1.012  11.837
60946SOL    HW182862  11.926   0.996  11.907
60946SOL    HW282863  11.784   1.069  11.875
60947SOL     OW82864  11.507   1.435  12.233
60947SOL    HW182865  11.429   1.404  12.180
60947SOL    HW282866  11.565   1.493  12.176
60948SOL     OW82867  12.632   1.505  12.511
60948SOL    HW182868  12.656   1.599  12.537
60948SOL    HW282869  12.616   1.451  12.593
60949SOL     OW82870  11.610   0.392  12.671
60949SOL    HW182871  11.692   0.336  12.680
60949SOL    HW282872  11.529   0.334  12.675
60950SOL     OW82873  11.403   1.713  11.655
60950SOL    HW182874  11.437   1.790  11.709
60950SOL    HW282875  11.447   1.713  11.565
60951SOL     OW82876  11.402   1.434  11.710
60951SOL    HW182877  11.376   1.530  11.710
60951SOL    HW282878  11.331   1.380  11.755
60952SOL     OW82879  11.412   1.091  12.058
60952SOL    HW182880  11.426   1.007  12.110
60952SOL    HW282881  11.357   1.155  12.113
60953SOL     OW82882  11.792   1.786  12.611
60953SOL    HW182883  11.700   1.769  12.646
60953SOL    HW282884  11.820   1.878  12.637
60954SOL     OW82885  11.778   0.964  11.295
60954SOL    HW182886  11.785   1.048  11.241
60954SOL    HW282887  11.824   0.977  11.383
60955SOL     OW82888  12.766   0.114  12.652
60955SOL    HW182889  12.748   0.181  12.580
60955SOL    HW282890  12.763   0.160  12.741
60956SOL     OW82891  11.294   0.643  11.735
60956SOL    HW182892  11.249   0.555  11.752
60956SOL    HW282893  11.293   0.697  11.819
60957SOL     OW82894  11.199   1.596  11.289
60957SOL    HW182895  11.180   1.500  11.310
60957SOL    HW282896  11.166   1.654  11.364
60958SOL     OW82897  12.861   0.922  11.784
60958SOL    HW182898  12.956   0.893  11.792
60958SOL    HW282899  12.853   0.987  11.709
60959SOL     OW82900  11.285   0.737  12.769
60959SOL    HW182901  11.373   0.724  12.814
60959SOL    HW282902  11.272   0.834  12.747
60960SOL     OW82903  11.785   1.365  11.898
60960SOL    HW182904  11.736   1.278  11.907
60960SOL    HW282905  11.762   1.408  11.811
60961SOL     OW82906  12.465   1.228  12.595
60961SOL    HW182907  12.502   1.155  12.537
60961SOL    HW282908  12.517   1.233  12.680
60962SOL     OW82909  11.981   0.004  11.674
60962SOL    HW182910  12.021   0.095  11.665
60962SOL    HW282911  11.881   0.012  11.680
60963SOL     OW82912  11.369   0.976  12.436
60963SOL    HW182913  11.458   0.931  12.422
60963SOL    HW282914  11.296   0.911  12.417
60964SOL     OW82915  12.638   1.417  12.125
60964SOL    HW182916  12.579   1.423  12.205
60964SOL    HW282917  12.623   1.329  12.079
60965SOL     OW82918  12.839   1.714  11.744
60965SOL    HW182919  12.798   1.691  11.656
60965SOL    HW282920  12.821   1.640  11.809
60966SOL     OW82921  11.770   0.729  11.442
60966SOL    HW182922  11.794   0.798  11.374
60966SOL    HW282923  11.692   0.762  11.496
60967SOL     OW82924  12.453   0.345  12.116
60967SOL    HW182925  12.367   0.295  12.103
60967SOL    HW282926  12.515   0.291  12.172
60968SOL     OW82927  11.979   0.605  12.637
60968SOL    HW182928  11.932   0.602  12.726
60968SOL    HW282929  11.928   0.550  12.571
60969SOL     OW82930  12.145   0.890  12.744
60969SOL    HW182931  12.191   0.806  12.715
60969SOL    HW282932  12.089   0.924  12.669
60970SOL     OW82933  12.163   0.410  12.414
60970SOL    HW182934  12.086   0.444  12.468
60970SOL    HW282935  12.129   0.359  12.335
60971SOL     OW82936  12.213   0.701  11.601
60971SOL    HW182937  12.239   0.697  11.697
60971SOL    HW282938  12.128   0.650  11.587
60972SOL     OW82939  11.248   0.811  11.961
60972SOL    HW182940  11.347   0.799  11.970
60972SOL    HW282941  11.224   0.906  11.982
60973SOL     OW82942  11.302   1.821  12.743
60973SOL    HW182943  11.292   1.806  12.842
60973SOL    HW282944  11.216   1.857  12.707
60974SOL     OW82945  12.037   0.348  11.367
60974SOL    HW182946  12.096   0.411  11.318
60974SOL    HW282947  12.056   0.254  11.338
60975SOL     OW82948  12.534   1.144  11.717
60975SOL    HW182949  12.617   1.115  11.669
60975SOL    HW282950  12.485   1.211  11.661
60976SOL     OW82951  11.722   0.196  12.057
60976SOL    HW182952  11.717   0.191  12.157
60976SOL    HW282953  11.724   0.292  12.028
60977SOL     OW82954  12.180   1.456  11.649
60977SOL    HW182955  12.134   1.528  11.597
60977SOL    HW282956  12.176   1.476  11.747
60978SOL     OW82957  11.523   1.801  12.025
60978SOL    HW182958  11.573   1.715  12.031
60978SOL    HW282959  11.588   1.878  12.022
60979SOL     OW82960  12.399   1.550  12.678
60979SOL    HW182961  12.405   1.473  12.742
60979SOL    HW282962  12.347   1.524  12.598
60980SOL     OW82963  11.493   0.943  11.414
60980SOL    HW182964  11.575   0.982  11.372
60980SOL    HW282965  11.466   0.861  11.365
60981SOL     OW82966  12.630   0.735  11.900
60981SOL    HW182967  12.625   0.670  11.975
60981SOL    HW282968  12.710   0.794  11.913
60982SOL     OW82969  12.283   1.776  11.409
60982SOL    HW182970  12.223   1.714  11.459
60982SOL    HW282971  12.314   1.732  11.324
60983SOL     OW82972  11.374   0.285  12.670
60983SOL    HW182973  11.294   0.345  12.657
60983SOL    HW282974  11.364   0.236  12.756
60984SOL     OW82975  11.636   1.743  11.495
60984SOL    HW182976  11.669   1.782  11.581
60984SOL    HW282977  11.712   1.736  11.430
60985SOL     OW82978  12.572   0.107  11.598
60985SOL    HW182979  12.548   0.070  11.508
60985SOL    HW282980  12.671   0.123  11.602
60986SOL     OW82981  11.421   1.785  12.413
60986SOL    HW182982  11.478   1.720  12.463
60986SOL    HW282983  11.405   1.752  12.320
60987SOL     OW82984  12.112   1.698  12.076
60987SOL    HW182985  12.192   1.641  12.097
60987SOL    HW282986  12.063   1.658  11.999
60988SOL     OW82987  11.554   0.700  11.652
60988SOL    HW182988  11.599   0.610  11.649
60988SOL    HW282989  11.460   0.689  11.685
60989SOL     OW82990  11.786   0.122  11.289
60989SOL    HW182991  11.884   0.100  11.296
60989SOL    HW282992  11.755   0.105  11.196
60990SOL     OW82993  12.060   1.514  12.367
60990SOL    HW182994  12.037   1.489  12.273
60990SOL    HW282995  12.121   1.445  12.406
60991SOL     OW82996  12.523   0.590  12.605
60991SOL    HW182997  12.551   0.547  12.690
60991SOL    HW282998  12.548   0.686  12.606
60992SOL     OW82999  11.975   1.402  12.096
60992SOL    HW183000  12.065   1.416  12.054
60992SOL    HW283001  11.904   1.404  12.025
60993SOL     OW83002  12.094   0.503  12.071
60993SOL    HW183003  12.069   0.494  11.975
60993SOL    HW283004  12.142   0.421  12.102
60994SOL     OW83005  11.711   0.064  11.684
60994SOL    HW183006  11.630   0.065  11.742
60994SOL    HW283007  11.714   0.147  11.629
60995SOL     OW83008  12.606   1.188  11.213
60995SOL    HW183009  12.638   1.112  11.270
60995SOL    HW283010  12.514   1.215  11.243
60996SOL     OW83011  11.469   0.035  11.343
60996SOL    HW183012  11.518   0.119  11.322
60996SOL    HW283013  11.531  -0.030  11.388
60997SOL     OW83014  12.107   0.236  11.652
60997SOL    HW183015  12.059   0.277  11.574
60997SOL    HW283016  12.206   0.234  11.633
60998SOL     OW83017  12.248   0.683  12.636
60998SOL    HW183018  12.168   0.622  12.639
60998SOL    HW283019  12.329   0.630  12.612
60999SOL     OW83020  12.399   1.570  11.965
60999SOL    HW183021  12.420   1.644  11.900
60999SOL    HW283022  12.467   1.570  12.038
61000SOL     OW83023  11.631   1.152  11.913
61000SOL    HW183024  11.560   1.125  11.978
61000SOL    HW283025  11.605   1.124  11.820
61001SOL     OW83026  12.443   1.797  11.763
61001SOL    HW183027  12.487   1.861  11.699
61001SOL    HW283028  12.393   1.849  11.833
61002SOL     OW83029  12.204   0.549  11.188
61002SOL    HW183030  12.163   0.631  11.149
61002SOL    HW283031  12.268   0.575  11.261
61003SOL     OW83032  11.250   0.556  12.558
61003SOL    HW183033  11.342   0.555  12.517
61003SOL    HW283034  11.244   0.630  12.625
61004SOL     OW83035  11.733   0.222  12.319
61004SOL    HW183036  11.771   0.138  12.356
61004SOL    HW283037  11.645   0.241  12.363
61005SOL     OW83038  12.038   0.454  11.814
61005SOL    HW183039  12.006   0.526  11.752
61005SOL    HW283040  12.062   0.373  11.761
61006SOL     OW83041  12.189   0.039  11.925
61006SOL    HW183042  12.117   0.044  11.856
61006SOL    HW283043  12.165  -0.030  11.994
61007SOL     OW83044  12.601   1.173  12.039
61007SOL    HW183045  12.546   1.089  12.032
61007SOL    HW283046  12.627   1.202  11.947
61008SOL     OW83047  12.638   0.590  12.164
61008SOL    HW183048  12.608   0.495  12.171
61008SOL    HW283049  12.711   0.606  12.230
61009SOL     OW83050  11.660   1.385  11.346
61009SOL    HW183051  11.573   1.370  11.393
61009SOL    HW283052  11.643   1.411  11.251
61010SOL     OW83053  12.562   0.575  11.250
61010SOL    HW183054  12.508   0.554  11.331
61010SOL    HW283055  12.653   0.534  11.259
61011SOL     OW83056  11.699   0.256  11.500
61011SOL    HW183057  11.726   0.197  11.425
61011SOL    HW283058  11.699   0.351  11.469
61012SOL     OW83059  12.236   1.347  12.512
61012SOL    HW183060  12.156   1.324  12.567
61012SOL    HW283061  12.319   1.321  12.561
61013SOL     OW83062  12.283   1.195  12.272
61013SOL    HW183063  12.243   1.239  12.353
61013SOL    HW283064  12.242   1.232  12.189
61014SOL     OW83065  12.087   0.089  12.574
61014SOL    HW183066  12.112   0.069  12.479
61014SOL    HW283067  12.159   0.145  12.616
61015SOL     OW83068  11.877   1.050  11.540
61015SOL    HW183069  11.863   1.057  11.639
61015SOL    HW283070  11.961   0.999  11.522
61016SOL     OW83071  11.582   0.813  12.423
61016SOL    HW183072  11.668   0.825  12.473
61016SOL    HW283073  11.540   0.726  12.450
61017SOL     OW83074  12.446   0.386  12.434
61017SOL    HW183075  12.467   0.460  12.498
61017SOL    HW283076  12.357   0.403  12.391
61018SOL     OW83077  11.236   1.564  12.503
61018SOL    HW183078  11.190   1.646  12.469
61018SOL    HW283079  11.334   1.583  12.512
61019SOL     OW83080  11.539   1.100  11.673
61019SOL    HW183081  11.532   1.183  11.617
61019SOL    HW283082  11.543   1.020  11.613
61020SOL     OW83083  11.738   0.537  12.037
61020SOL    HW183084  11.750   0.603  11.963
61020SOL    HW283085  11.784   0.571  12.120
61021SOL     OW83086  12.424   1.348  11.560
61021SOL    HW183087  12.474   1.425  11.600
61021SOL    HW283088  12.329   1.350  11.592
61022SOL     OW83089  12.444   1.445  12.314
61022SOL    HW183090  12.491   1.458  12.401
61022SOL    HW283091  12.378   1.371  12.323
61023SOL     OW83092  12.754   0.639  11.644
61023SOL    HW183093  12.723   0.700  11.717
61023SOL    HW283094  12.804   0.691  11.575
61024SOL     OW83095  11.526   1.510  12.501
61024SOL    HW183096  11.505   1.466  12.414
61024SOL    HW283097  11.623   1.536  12.504
61025SOL     OW83098  11.574   0.751  12.770
61025SOL    HW183099  11.642   0.806  12.723
61025SOL    HW283100  11.614   0.663  12.797
61026SOL     OW83101  11.745   0.870  12.201
61026SOL    HW183102  11.789   0.959  12.192
61026SOL    HW283103  11.682   0.870  12.278
61027SOL     OW83104  12.532   0.862  12.217
61027SOL    HW183105  12.457   0.862  12.151
61027SOL    HW283106  12.569   0.770  12.226
61028SOL     OW83107  12.381   0.525  11.447
61028SOL    HW183108  12.394   0.441  11.501
61028SOL    HW283109  12.352   0.599  11.507
61029SOL     OW83110  11.479   0.213  12.403
61029SOL    HW183111  11.456   0.250  12.493
61029SOL    HW283112  11.449   0.118  12.397
61030SOL     OW83113  11.209   1.310  12.454
61030SOL    HW183114  11.262   1.261  12.522
61030SOL    HW283115  11.231   1.408  12.459
61031SOL     OW83116  11.904   0.634  12.236
61031SOL    HW183117  11.963   0.608  12.160
61031SOL    HW283118  11.876   0.730  12.225
61032SOL     OW83119  11.479   0.063  11.790
61032SOL    HW183120  11.468   0.157  11.823
61032SOL    HW283121  11.474   0.000  11.867
61033SOL     OW83122  12.794   0.367  11.546
61033SOL    HW183123  12.796   0.291  11.610
61033SOL    HW283124  12.746   0.444  11.586
61034SOL     OW83125  12.195   0.766  12.138
61034SOL    HW183126  12.210   0.787  12.234
61034SOL    HW283127  12.165   0.671  12.129
61035SOL     OW83128  12.712   0.274  11.297
61035SOL    HW183129  12.651   0.199  11.320
61035SOL    HW283130  12.734   0.326  11.380
61036SOL     OW83131  12.475   0.838  11.214
61036SOL    HW183132  12.509   0.745  11.229
61036SOL    HW283133  12.493   0.865  11.119
61037SOL     OW83134  12.240   1.333  12.021
61037SOL    HW183135  12.247   1.249  11.966
61037SOL    HW283136  12.302   1.402  11.985
61038SOL     OW83137  11.491   0.810  12.121
61038SOL    HW183138  11.584   0.846  12.126
61038SOL    HW283139  11.485   0.725  12.173
61039SOL     OW83140  11.511   0.509  12.178
61039SOL    HW183141  11.459   0.426  12.161
61039SOL    HW283142  11.588   0.514  12.114
61040SOL     OW83143  12.332   0.207  12.649
61040SOL    HW183144  12.332   0.271  12.726
61040SOL    HW283145  12.360   0.255  12.566
61041SOL     OW83146  11.180   1.326  11.372
61041SOL    HW183147  11.087   1.347  11.341
61041SOL    HW283148  11.190   1.227  11.385
61042SOL     OW83149  11.260   1.801  12.099
61042SOL    HW183150  11.218   1.715  12.072
61042SOL    HW283151  11.354   1.804  12.065
61043SOL     OW83152  11.676   1.568  12.082
61043SOL    HW183153  11.742   1.642  12.091
61043SOL    HW283154  11.720   1.489  12.040
61044SOL     OW83155  12.174   0.796  12.410
61044SOL    HW183156  12.215   0.764  12.496
61044SOL    HW283157  12.078   0.769  12.407
61045SOL     OW83158  11.212   0.544  12.286
61045SOL    HW183159  11.297   0.511  12.245
61045SOL    HW283160  11.225   0.559  12.384
61046SOL     OW83161  11.987   0.572  11.497
61046SOL    HW183162  11.994   0.483  11.451
61046SOL    HW283163  11.893   0.606  11.489
61047SOL     OW83164  11.424   1.564  12.916
61047SOL    HW183165  11.394   1.621  12.992
61047SOL    HW283166  11.417   1.467  12.942
61048SOL     OW83167  11.843   0.464  12.441
61048SOL    HW183168  11.809   0.375  12.411
61048SOL    HW283169  11.869   0.518  12.361
61049SOL     OW83170  12.102   1.678  12.637
61049SOL    HW183171  12.078   1.660  12.542
61049SOL    HW283172  12.132   1.772  12.647
61050SOL     OW83173  11.645   0.500  11.363
61050SOL    HW183174  11.706   0.580  11.367
61050SOL    HW283175  11.550   0.531  11.370
61051SOL     OW83176  11.331   1.137  12.638
61051SOL    HW183177  11.353   1.076  12.714
61051SOL    HW283178  11.341   1.088  12.552
61052SOL     OW83179  12.519   1.059  12.406
61052SOL    HW183180  12.543   0.996  12.332
61052SOL    HW283181  12.429   1.099  12.388
61053SOL     OW83182  12.474   0.855  11.481
61053SOL    HW183183  12.388   0.824  11.523
61053SOL    HW283184  12.470   0.841  11.382
61054SOL     OW83185  12.424   1.731  12.300
61054SOL    HW183186  12.508   1.736  12.246
61054SOL    HW283187  12.401   1.635  12.318
61055SOL     OW83188  11.255   1.258  12.194
61055SOL    HW183189  11.250   1.257  12.294
61055SOL    HW283190  11.172   1.217  12.156
61056SOL     OW83191  12.898   0.135  11.695
61056SOL    HW183192  12.971   0.118  11.628
61056SOL    HW283193  12.867   0.048  11.733
61057SOL     OW83194  12.560   1.573  11.649
61057SOL    HW183195  12.627   1.585  11.575
61057SOL    HW283196  12.520   1.662  11.672
61058SOL     OW83197  12.452   0.927  11.844
61058SOL    HW183198  12.512   0.846  11.846
61058SOL    HW283199  12.492   0.996  11.784
61059SOL     OW83200  12.002   1.273  12.594
61059SOL    HW183201  11.997   1.306  12.689
61059SOL    HW283202  11.916   1.292  12.548
61060SOL     OW83203  11.844   1.616  11.326
61060SOL    HW183204  11.853   1.626  11.227
61060SOL    HW283205  11.804   1.527  11.347
61061SOL     OW83206  11.435   0.326  11.892
61061SOL    HW183207  11.356   0.377  11.858
61061SOL    HW283208  11.426   0.311  11.990
61062SOL     OW83209  12.366   1.612  11.203
61062SOL    HW183210  12.372   1.519  11.240
61062SOL    HW283211  12.307   1.612  11.123
61063SOL     OW83212  11.994   1.002  12.544
61063SOL    HW183213  12.034   1.001  12.452
61063SOL    HW283214  12.004   1.094  12.584
61064SOL     OW83215  12.088   0.910  11.463
61064SOL    HW183216  12.151   0.948  11.395
61064SOL    HW283217  12.128   0.827  11.502
61065SOL     OW83218  12.676   1.607  11.216
61065SOL    HW183219  12.584   1.644  11.223
61065SOL    HW283220  12.714   1.627  11.126
61066SOL     OW83221  11.544   1.288  12.662
61066SOL    HW183222  11.531   1.381  12.628
61066SOL    HW283223  11.460   1.236  12.649
61067SOL     OW83224  12.211   1.098  11.868
61067SOL    HW183225  12.141   1.051  11.922
61067SOL    HW283226  12.270   1.030  11.825
61068SOL     OW83227  12.186   0.236  12.143
61068SOL    HW183228  12.178   0.200  12.050
61068SOL    HW283229  12.184   0.160  12.208
61069SOL     OW83230  11.762   1.487  11.663
61069SOL    HW183231  11.804   1.429  11.593
61069SOL    HW283232  11.718   1.566  11.619
61070SOL     OW83233  11.427   1.348  11.462
61070SOL    HW183234  11.331   1.349  11.435
61070SOL    HW283235  11.439   1.401  11.546
61071SOL     OW83236  11.277   1.013  12.898
61071SOL    HW183237  11.200   0.980  12.952
61071SOL    HW283238  11.362   0.983  12.940
61072SOL     OW83239  11.844   0.203  12.661
61072SOL    HW183240  11.934   0.187  12.621
61072SOL    HW283241  11.852   0.208  12.760
61073SOL     OW83242  11.247   0.345  11.205
61073SOL    HW183243  11.155   0.317  11.176
61073SOL    HW283244  11.278   0.422  11.149
61074SOL     OW83245  12.612   0.856  12.570
61074SOL    HW183246  12.555   0.908  12.507
61074SOL    HW283247  12.708   0.868  12.546
61075SOL     OW83248  11.244   0.166  11.490
61075SOL    HW183249  11.227   0.249  11.436
61075SOL    HW283250  11.334   0.129  11.468
61076SOL     OW83251  12.355   1.335  11.291
61076SOL    HW183252  12.256   1.324  11.293
61076SOL    HW283253  12.389   1.350  11.384
61077SOL     OW83254  11.785   0.842  12.603
61077SOL    HW183255  11.841   0.923  12.586
61077SOL    HW283256  11.844   0.762  12.606
61078SOL     OW83257  12.665   1.767  12.131
61078SOL    HW183258  12.698   1.831  12.062
61078SOL    HW283259  12.731   1.761  12.206
61079SOL     OW83260  11.888   0.565  12.880
61079SOL    HW183261  11.907   0.630  12.954
61079SOL    HW283262  11.948   0.485  12.889
61080SOL     OW83263  11.562   1.741  12.732
61080SOL    HW183264  11.471   1.782  12.730
61080SOL    HW283265  11.555   1.647  12.764
61081SOL     OW83266  12.397   0.325  11.621
61081SOL    HW183267  12.462   0.251  11.610
61081SOL    HW283268  12.417   0.375  11.705
61082SOL     OW83269  11.766   0.745  11.824
61082SOL    HW183270  11.816   0.830  11.805
61082SOL    HW283271  11.678   0.747  11.776
61083SOL     OW83272  12.031   1.374  11.188
61083SOL    HW183273  11.985   1.389  11.276
61083SOL    HW283274  12.075   1.459  11.158
61084SOL     OW83275  11.833   1.790  12.125
61084SOL    HW183276  11.787   1.878  12.112
61084SOL    HW283277  11.932   1.802  12.118
61085SOL     OW83278  12.031   0.956  12.033
61085SOL    HW183279  12.085   0.887  12.081
61085SOL    HW283280  11.999   1.025  12.099
61086SOL     OW83281  12.255   0.984  11.259
61086SOL    HW183282  12.232   1.037  11.177
61086SOL    HW283283  12.336   0.928  11.240
61087SOL     OW83284  13.033   1.569  12.023
61087SOL    HW183285  12.962   1.557  11.953
61087SOL    HW283286  13.034   1.490  12.083
61088SOL     OW83287  11.251   1.240  11.825
61088SOL    HW183288  11.250   1.193  11.913
61088SOL    HW283289  11.333   1.212  11.774
61089SOL     OW83290  11.844   1.391  12.796
61089SOL    HW183291  11.766   1.341  12.834
61089SOL    HW283292  11.841   1.486  12.827
61090SOL     OW83293  11.600   0.424  11.692
61090SOL    HW183294  11.630   0.352  11.630
61090SOL    HW283295  11.561   0.384  11.775
61091SOL     OW83296  11.489   0.547  12.452
61091SOL    HW183297  11.527   0.488  12.524
61091SOL    HW283298  11.529   0.521  12.364
61092SOL     OW83299  11.984   1.586  11.859
61092SOL    HW183300  12.016   1.596  11.765
61092SOL    HW283301  11.905   1.524  11.861
61093SOL     OW83302  12.596   0.214  12.284
61093SOL    HW183303  12.648   0.149  12.339
61093SOL    HW283304  12.547   0.277  12.345
61094SOL     OW83305  12.173   0.034  12.326
61094SOL    HW183306  12.110  -0.038  12.295
61094SOL    HW283307  12.266  -0.002  12.326
61095SOL     OW83308  11.942   1.330  11.473
61095SOL    HW183309  11.896   1.243  11.490
61095SOL    HW283310  12.033   1.327  11.514
61096SOL     OW83311  11.790   1.567  12.456
61096SOL    HW183312  11.785   1.649  12.513
61096SOL    HW283313  11.879   1.564  12.411
61097SOL     OW83314  12.524   0.052  11.340
61097SOL    HW183315  12.559   0.011  11.256
61097SOL    HW283316  12.434   0.014  11.360
61098SOL     OW83317  12.472   0.453  11.863
61098SOL    HW183318  12.413   0.533  11.867
61098SOL    HW283319  12.487   0.418  11.956
61099SOL     OW83320  12.765   0.221  12.054
61099SOL    HW183321  12.681   0.220  12.108
61099SOL    HW283322  12.767   0.304  11.998
61100SOL     OW83323  11.211   1.077  11.472
61100SOL    HW183324  11.310   1.066  11.463
61100SOL    HW283325  11.171   0.991  11.504
61101SOL     OW83326  12.047   1.646  11.509
61101SOL    HW183327  11.970   1.611  11.455
61101SOL    HW283328  12.015   1.717  11.571
61102SOL     OW83329  11.402   2.490   0.113
61102SOL    HW183330  11.309   2.488   0.150
61102SOL    HW283331  11.403   2.451   0.021
61103SOL     OW83332  11.397   2.137   0.996
61103SOL    HW183333  11.432   2.120   1.088
61103SOL    HW283334  11.309   2.092   0.984
61104SOL     OW83335  11.191   2.230   0.647
61104SOL    HW183336  11.109   2.273   0.686
61104SOL    HW283337  11.163   2.157   0.584
61105SOL     OW83338  11.741   3.137   1.165
61105SOL    HW183339  11.648   3.130   1.128
61105SOL    HW283340  11.752   3.226   1.209
61106SOL     OW83341  12.727   3.373   0.703
61106SOL    HW183342  12.670   3.357   0.784
61106SOL    HW283343  12.668   3.383   0.623
61107SOL     OW83344  12.307   2.565   0.717
61107SOL    HW183345  12.364   2.643   0.692
61107SOL    HW283346  12.247   2.591   0.793
61108SOL     OW83347  11.940   3.006   1.023
61108SOL    HW183348  11.862   3.023   1.083
61108SOL    HW283349  11.974   3.093   0.987
61109SOL     OW83350  12.022   2.660   1.823
61109SOL    HW183351  12.018   2.736   1.888
61109SOL    HW283352  12.044   2.696   1.732
61110SOL     OW83353  11.857   2.874   0.665
61110SOL    HW183354  11.926   2.858   0.735
61110SOL    HW283355  11.784   2.931   0.703
61111SOL     OW83356  11.858   3.023   1.803
61111SOL    HW183357  11.918   3.102   1.817
61111SOL    HW283358  11.772   3.054   1.762
61112SOL     OW83359  11.507   3.297   1.061
61112SOL    HW183360  11.429   3.266   1.008
61112SOL    HW283361  11.565   3.355   1.004
61113SOL     OW83362  12.632   3.367   1.339
61113SOL    HW183363  12.656   3.461   1.365
61113SOL    HW283364  12.616   3.313   1.421
61114SOL     OW83365  11.610   2.254   1.499
61114SOL    HW183366  11.692   2.198   1.508
61114SOL    HW283367  11.529   2.196   1.503
61115SOL     OW83368  11.403   3.575   0.483
61115SOL    HW183369  11.437   3.652   0.537
61115SOL    HW283370  11.447   3.575   0.393
61116SOL     OW83371  12.299   3.203   1.690
61116SOL    HW183372  12.346   3.203   1.778
61116SOL    HW283373  12.251   3.116   1.679
61117SOL     OW83374  11.402   3.296   0.538
61117SOL    HW183375  11.376   3.392   0.538
61117SOL    HW283376  11.331   3.242   0.583
61118SOL     OW83377  11.412   2.953   0.886
61118SOL    HW183378  11.426   2.869   0.938
61118SOL    HW283379  11.357   3.017   0.941
61119SOL     OW83380  11.792   3.648   1.439
61119SOL    HW183381  11.700   3.631   1.474
61119SOL    HW283382  11.820   3.740   1.465
61120SOL     OW83383  11.778   2.826   0.123
61120SOL    HW183384  11.785   2.910   0.069
61120SOL    HW283385  11.824   2.839   0.211
61121SOL     OW83386  12.766   1.976   1.480
61121SOL    HW183387  12.748   2.043   1.408
61121SOL    HW283388  12.763   2.022   1.569
61122SOL     OW83389  11.294   2.505   0.563
61122SOL    HW183390  11.249   2.417   0.580
61122SOL    HW283391  11.293   2.559   0.647
61123SOL     OW83392  11.199   3.458   0.117
61123SOL    HW183393  11.180   3.362   0.138
61123SOL    HW283394  11.166   3.516   0.192
61124SOL     OW83395  12.861   2.784   0.612
61124SOL    HW183396  12.956   2.755   0.620
61124SOL    HW283397  12.853   2.849   0.537
61125SOL     OW83398  11.285   2.599   1.597
61125SOL    HW183399  11.373   2.586   1.642
61125SOL    HW283400  11.272   2.696   1.575
61126SOL     OW83401  11.785   3.227   0.726
61126SOL    HW183402  11.736   3.140   0.735
61126SOL    HW283403  11.762   3.270   0.639
61127SOL     OW83404  12.465   3.090   1.423
61127SOL    HW183405  12.502   3.017   1.365
61127SOL    HW283406  12.517   3.095   1.508
61128SOL     OW83407  11.981   1.866   0.502
61128SOL    HW183408  12.021   1.957   0.493
61128SOL    HW283409  11.881   1.874   0.508
61129SOL     OW83410  11.369   2.838   1.264
61129SOL    HW183411  11.458   2.793   1.250
61129SOL    HW283412  11.296   2.773   1.245
61130SOL     OW83413  12.359   3.654   1.616
61130SOL    HW183414  12.383   3.714   1.540
61130SOL    HW283415  12.366   3.559   1.586
61131SOL     OW83416  11.489   2.113   1.801
61131SOL    HW183417  11.560   2.184   1.807
61131SOL    HW283418  11.401   2.152   1.829
61132SOL     OW83419  12.638   3.279   0.953
61132SOL    HW183420  12.579   3.285   1.033
61132SOL    HW283421  12.623   3.191   0.907
61133SOL     OW83422  12.839   3.576   0.572
61133SOL    HW183423  12.798   3.553   0.484
61133SOL    HW283424  12.821   3.502   0.637
61134SOL     OW83425  11.770   2.591   0.270
61134SOL    HW183426  11.794   2.660   0.202
61134SOL    HW283427  11.692   2.624   0.324
61135SOL     OW83428  12.453   2.207   0.944
61135SOL    HW183429  12.367   2.157   0.931
61135SOL    HW283430  12.515   2.153   1.000
61136SOL     OW83431  11.979   2.467   1.465
61136SOL    HW183432  11.932   2.464   1.554
61136SOL    HW283433  11.928   2.412   1.399
61137SOL     OW83434  12.566   2.331   1.674
61137SOL    HW183435  12.546   2.374   1.762
61137SOL    HW283436  12.644   2.269   1.683
61138SOL     OW83437  12.145   2.752   1.572
61138SOL    HW183438  12.191   2.668   1.543
61138SOL    HW283439  12.089   2.786   1.497
61139SOL     OW83440  12.163   2.272   1.242
61139SOL    HW183441  12.086   2.306   1.296
61139SOL    HW283442  12.129   2.221   1.163
61140SOL     OW83443  12.213   2.563   0.429
61140SOL    HW183444  12.239   2.559   0.525
61140SOL    HW283445  12.128   2.512   0.415
61141SOL     OW83446  11.248   2.673   0.789
61141SOL    HW183447  11.347   2.661   0.798
61141SOL    HW283448  11.224   2.768   0.810
61142SOL     OW83449  11.302   3.683   1.571
61142SOL    HW183450  11.292   3.668   1.670
61142SOL    HW283451  11.216   3.719   1.535
61143SOL     OW83452  12.037   2.210   0.195
61143SOL    HW183453  12.096   2.273   0.146
61143SOL    HW283454  12.056   2.116   0.166
61144SOL     OW83455  12.534   3.006   0.545
61144SOL    HW183456  12.617   2.977   0.497
61144SOL    HW283457  12.485   3.073   0.489
61145SOL     OW83458  11.722   2.058   0.885
61145SOL    HW183459  11.717   2.053   0.985
61145SOL    HW283460  11.724   2.154   0.856
61146SOL     OW83461  12.180   3.318   0.477
61146SOL    HW183462  12.134   3.390   0.425
61146SOL    HW283463  12.176   3.338   0.575
61147SOL     OW83464  11.523   3.663   0.853
61147SOL    HW183465  11.573   3.577   0.859
61147SOL    HW283466  11.588   3.740   0.850
61148SOL     OW83467  12.399   3.412   1.506
61148SOL    HW183468  12.405   3.335   1.570
61148SOL    HW283469  12.347   3.386   1.426
61149SOL     OW83470  11.493   2.805   0.242
61149SOL    HW183471  11.575   2.844   0.200
61149SOL    HW283472  11.466   2.723   0.193
61150SOL     OW83473  12.630   2.597   0.728
61150SOL    HW183474  12.625   2.532   0.803
61150SOL    HW283475  12.710   2.656   0.741
61151SOL     OW83476  11.633   3.128   1.727
61151SOL    HW183477  11.583   3.129   1.641
61151SOL    HW283478  11.570   3.110   1.803
61152SOL     OW83479  12.283   3.638   0.237
61152SOL    HW183480  12.223   3.576   0.287
61152SOL    HW283481  12.314   3.594   0.152
61153SOL     OW83482  11.374   2.147   1.498
61153SOL    HW183483  11.294   2.207   1.485
61153SOL    HW283484  11.364   2.098   1.584
61154SOL     OW83485  11.636   3.605   0.323
61154SOL    HW183486  11.669   3.644   0.409
61154SOL    HW283487  11.712   3.598   0.258
61155SOL     OW83488  12.572   1.969   0.426
61155SOL    HW183489  12.548   1.932   0.336
61155SOL    HW283490  12.671   1.985   0.430
61156SOL     OW83491  11.421   3.647   1.241
61156SOL    HW183492  11.478   3.582   1.291
61156SOL    HW283493  11.405   3.614   1.148
61157SOL     OW83494  11.554   2.562   0.480
61157SOL    HW183495  11.599   2.472   0.477
61157SOL    HW283496  11.460   2.551   0.513
61158SOL     OW83497  11.786   1.984   0.117
61158SOL    HW183498  11.884   1.962   0.124
61158SOL    HW283499  11.755   1.967   0.024
61159SOL     OW83500  11.953   2.126   1.749
61159SOL    HW183501  12.020   2.065   1.792
61159SOL    HW283502  11.880   2.145   1.814
61160SOL     OW83503  12.060   3.376   1.195
61160SOL    HW183504  12.037   3.351   1.101
61160SOL    HW283505  12.121   3.307   1.234
61161SOL     OW83506  12.523   2.452   1.433
61161SOL    HW183507  12.551   2.409   1.518
61161SOL    HW283508  12.548   2.548   1.434
61162SOL     OW83509  11.975   3.264   0.924
61162SOL    HW183510  12.065   3.278   0.882
61162SOL    HW283511  11.904   3.266   0.853
61163SOL     OW83512  12.094   2.365   0.899
61163SOL    HW183513  12.069   2.356   0.803
61163SOL    HW283514  12.142   2.283   0.930
61164SOL     OW83515  11.711   1.926   0.512
61164SOL    HW183516  11.630   1.927   0.570
61164SOL    HW283517  11.714   2.009   0.457
61165SOL     OW83518  12.606   3.050   0.041
61165SOL    HW183519  12.638   2.974   0.098
61165SOL    HW283520  12.514   3.077   0.071
61166SOL     OW83521  11.469   1.897   0.171
61166SOL    HW183522  11.518   1.981   0.150
61166SOL    HW283523  11.531   1.832   0.216
61167SOL     OW83524  12.107   2.098   0.480
61167SOL    HW183525  12.059   2.139   0.402
61167SOL    HW283526  12.206   2.096   0.461
61168SOL     OW83527  12.248   2.545   1.464
61168SOL    HW183528  12.168   2.484   1.467
61168SOL    HW283529  12.329   2.492   1.440
61169SOL     OW83530  12.399   3.432   0.793
61169SOL    HW183531  12.420   3.506   0.728
61169SOL    HW283532  12.467   3.432   0.866
61170SOL     OW83533  11.631   3.014   0.741
61170SOL    HW183534  11.560   2.987   0.806
61170SOL    HW283535  11.605   2.986   0.648
61171SOL     OW83536  12.443   3.659   0.591
61171SOL    HW183537  12.487   3.723   0.527
61171SOL    HW283538  12.393   3.711   0.661
61172SOL     OW83539  12.204   2.411   0.016
61172SOL    HW183540  12.163   2.493  -0.023
61172SOL    HW283541  12.268   2.437   0.089
61173SOL     OW83542  11.250   2.418   1.386
61173SOL    HW183543  11.342   2.417   1.345
61173SOL    HW283544  11.244   2.492   1.453
61174SOL     OW83545  11.733   2.084   1.147
61174SOL    HW183546  11.771   2.000   1.184
61174SOL    HW283547  11.645   2.103   1.191
61175SOL     OW83548  12.038   2.316   0.642
61175SOL    HW183549  12.006   2.388   0.580
61175SOL    HW283550  12.062   2.235   0.589
61176SOL     OW83551  12.189   1.901   0.753
61176SOL    HW183552  12.117   1.906   0.684
61176SOL    HW283553  12.165   1.832   0.822
61177SOL     OW83554  12.601   3.035   0.867
61177SOL    HW183555  12.546   2.951   0.860
61177SOL    HW283556  12.627   3.064   0.775
61178SOL     OW83557  12.638   2.452   0.992
61178SOL    HW183558  12.608   2.357   0.999
61178SOL    HW283559  12.711   2.468   1.058
61179SOL     OW83560  11.660   3.247   0.174
61179SOL    HW183561  11.573   3.232   0.221
61179SOL    HW283562  11.643   3.273   0.079
61180SOL     OW83563  12.562   2.437   0.078
61180SOL    HW183564  12.508   2.416   0.159
61180SOL    HW283565  12.653   2.396   0.087
61181SOL     OW83566  11.699   2.118   0.328
61181SOL    HW183567  11.726   2.059   0.253
61181SOL    HW283568  11.699   2.213   0.297
61182SOL     OW83569  12.236   3.209   1.340
61182SOL    HW183570  12.156   3.186   1.395
61182SOL    HW283571  12.319   3.183   1.389
61183SOL     OW83572  12.764   3.491   1.625
61183SOL    HW183573  12.791   3.525   1.535
61183SOL    HW283574  12.843   3.453   1.671
61184SOL     OW83575  12.283   3.057   1.100
61184SOL    HW183576  12.243   3.101   1.181
61184SOL    HW283577  12.242   3.094   1.017
61185SOL     OW83578  12.087   1.951   1.402
61185SOL    HW183579  12.112   1.931   1.307
61185SOL    HW283580  12.159   2.007   1.444
61186SOL     OW83581  12.152   2.978   1.719
61186SOL    HW183582  12.053   2.984   1.729
61186SOL    HW283583  12.175   2.898   1.663
61187SOL     OW83584  11.877   2.912   0.368
61187SOL    HW183585  11.863   2.919   0.467
61187SOL    HW283586  11.961   2.861   0.350
61188SOL     OW83587  11.582   2.675   1.251
61188SOL    HW183588  11.668   2.687   1.301
61188SOL    HW283589  11.540   2.588   1.278
61189SOL     OW83590  12.446   2.248   1.262
61189SOL    HW183591  12.467   2.322   1.326
61189SOL    HW283592  12.357   2.265   1.219
61190SOL     OW83593  11.236   3.426   1.331
61190SOL    HW183594  11.190   3.508   1.297
61190SOL    HW283595  11.334   3.445   1.340
61191SOL     OW83596  11.539   2.962   0.501
61191SOL    HW183597  11.532   3.045   0.445
61191SOL    HW283598  11.543   2.882   0.441
61192SOL     OW83599  11.738   2.399   0.865
61192SOL    HW183600  11.750   2.465   0.791
61192SOL    HW283601  11.784   2.433   0.948
61193SOL     OW83602  12.424   3.210   0.388
61193SOL    HW183603  12.474   3.287   0.428
61193SOL    HW283604  12.329   3.212   0.420
61194SOL     OW83605  12.444   3.307   1.142
61194SOL    HW183606  12.491   3.320   1.229
61194SOL    HW283607  12.378   3.233   1.151
61195SOL     OW83608  12.754   2.501   0.472
61195SOL    HW183609  12.723   2.562   0.545
61195SOL    HW283610  12.804   2.553   0.403
61196SOL     OW83611  11.526   3.372   1.329
61196SOL    HW183612  11.505   3.328   1.242
61196SOL    HW283613  11.623   3.398   1.332
61197SOL     OW83614  11.574   2.613   1.598
61197SOL    HW183615  11.642   2.668   1.551
61197SOL    HW283616  11.614   2.525   1.625
61198SOL     OW83617  12.185   1.967   1.770
61198SOL    HW183618  12.191   2.052   1.718
61198SOL    HW283619  12.217   1.891   1.713
61199SOL     OW83620  11.676   1.912   1.740
61199SOL    HW183621  11.634   1.855   1.670
61199SOL    HW283622  11.610   1.981   1.772
61200SOL     OW83623  11.745   2.732   1.029
61200SOL    HW183624  11.789   2.821   1.020
61200SOL    HW283625  11.682   2.732   1.106
61201SOL     OW83626  12.532   2.724   1.045
61201SOL    HW183627  12.457   2.724   0.979
61201SOL    HW283628  12.569   2.632   1.054
61202SOL     OW83629  12.381   2.387   0.275
61202SOL    HW183630  12.394   2.303   0.329
61202SOL    HW283631  12.352   2.461   0.335
61203SOL     OW83632  11.479   2.075   1.231
61203SOL    HW183633  11.456   2.112   1.321
61203SOL    HW283634  11.449   1.980   1.225
61204SOL     OW83635  11.209   3.172   1.282
61204SOL    HW183636  11.262   3.123   1.350
61204SOL    HW283637  11.231   3.270   1.287
61205SOL     OW83638  11.904   2.496   1.064
61205SOL    HW183639  11.963   2.470   0.988
61205SOL    HW283640  11.876   2.592   1.053
61206SOL     OW83641  11.479   1.925   0.618
61206SOL    HW183642  11.468   2.019   0.651
61206SOL    HW283643  11.474   1.862   0.695
61207SOL     OW83644  12.794   2.229   0.374
61207SOL    HW183645  12.796   2.153   0.438
61207SOL    HW283646  12.746   2.306   0.414
61208SOL     OW83647  12.195   2.628   0.966
61208SOL    HW183648  12.210   2.649   1.062
61208SOL    HW283649  12.165   2.533   0.957
61209SOL     OW83650  12.152   3.435   1.700
61209SOL    HW183651  12.132   3.479   1.612
61209SOL    HW283652  12.191   3.344   1.684
61210SOL     OW83653  11.522   2.760   1.804
61210SOL    HW183654  11.598   2.804   1.852
61210SOL    HW283655  11.557   2.713   1.722
61211SOL     OW83656  12.712   2.136   0.125
61211SOL    HW183657  12.651   2.061   0.148
61211SOL    HW283658  12.734   2.188   0.208
61212SOL     OW83659  12.475   2.700   0.042
61212SOL    HW183660  12.509   2.607   0.057
61212SOL    HW283661  12.493   2.727  -0.053
61213SOL     OW83662  12.240   3.195   0.849
61213SOL    HW183663  12.247   3.111   0.794
61213SOL    HW283664  12.302   3.264   0.813
61214SOL     OW83665  11.491   2.672   0.949
61214SOL    HW183666  11.584   2.708   0.954
61214SOL    HW283667  11.485   2.587   1.001
61215SOL     OW83668  11.511   2.371   1.006
61215SOL    HW183669  11.459   2.288   0.989
61215SOL    HW283670  11.588   2.376   0.942
61216SOL     OW83671  12.310   2.242   1.678
61216SOL    HW183672  12.265   2.305   1.742
61216SOL    HW283673  12.403   2.273   1.661
61217SOL     OW83674  12.332   2.069   1.477
61217SOL    HW183675  12.332   2.133   1.554
61217SOL    HW283676  12.360   2.117   1.394
61218SOL     OW83677  11.180   3.188   0.200
61218SOL    HW183678  11.087   3.209   0.169
61218SOL    HW283679  11.190   3.089   0.213
61219SOL     OW83680  11.260   3.663   0.927
61219SOL    HW183681  11.218   3.577   0.900
61219SOL    HW283682  11.354   3.666   0.893
61220SOL     OW83683  11.676   3.430   0.910
61220SOL    HW183684  11.742   3.504   0.919
61220SOL    HW283685  11.720   3.351   0.868
61221SOL     OW83686  12.174   2.658   1.238
61221SOL    HW183687  12.215   2.626   1.324
61221SOL    HW283688  12.078   2.631   1.235
61222SOL     OW83689  11.212   2.406   1.114
61222SOL    HW183690  11.297   2.373   1.073
61222SOL    HW283691  11.225   2.421   1.212
61223SOL     OW83692  11.361   2.382   1.722
61223SOL    HW183693  11.420   2.342   1.652
61223SOL    HW283694  11.303   2.453   1.681
61224SOL     OW83695  12.541   2.812   1.660
61224SOL    HW183696  12.580   2.901   1.680
61224SOL    HW283697  12.551   2.792   1.563
61225SOL     OW83698  11.987   2.434   0.325
61225SOL    HW183699  11.994   2.345   0.279
61225SOL    HW283700  11.893   2.468   0.317
61226SOL     OW83701  11.424   3.426   1.744
61226SOL    HW183702  11.394   3.483   1.820
61226SOL    HW283703  11.417   3.329   1.770
61227SOL     OW83704  11.843   2.326   1.269
61227SOL    HW183705  11.809   2.237   1.239
61227SOL    HW283706  11.869   2.380   1.189
61228SOL     OW83707  12.102   3.540   1.465
61228SOL    HW183708  12.078   3.522   1.370
61228SOL    HW283709  12.132   3.634   1.475
61229SOL     OW83710  11.645   2.362   0.191
61229SOL    HW183711  11.706   2.442   0.195
61229SOL    HW283712  11.550   2.393   0.198
61230SOL     OW83713  11.331   2.999   1.466
61230SOL    HW183714  11.353   2.938   1.542
61230SOL    HW283715  11.341   2.950   1.380
61231SOL     OW83716  12.519   2.921   1.234
61231SOL    HW183717  12.543   2.858   1.160
61231SOL    HW283718  12.429   2.961   1.216
61232SOL     OW83719  12.474   2.717   0.309
61232SOL    HW183720  12.388   2.686   0.351
61232SOL    HW283721  12.470   2.703   0.210
61233SOL     OW83722  12.424   3.593   1.128
61233SOL    HW183723  12.508   3.598   1.074
61233SOL    HW283724  12.401   3.497   1.146
61234SOL     OW83725  11.255   3.120   1.022
61234SOL    HW183726  11.250   3.119   1.122
61234SOL    HW283727  11.172   3.079   0.984
61235SOL     OW83728  11.860   3.524   1.716
61235SOL    HW183729  11.804   3.605   1.725
61235SOL    HW283730  11.912   3.528   1.630
61236SOL     OW83731  12.075   1.948   0.133
61236SOL    HW183732  12.126   1.949   0.047
61236SOL    HW283733  12.131   1.906   0.204
61237SOL     OW83734  12.898   1.997   0.523
61237SOL    HW183735  12.971   1.980   0.456
61237SOL    HW283736  12.867   1.910   0.561
61238SOL     OW83737  12.560   3.435   0.477
61238SOL    HW183738  12.627   3.447   0.403
61238SOL    HW283739  12.520   3.524   0.500
61239SOL     OW83740  11.302   3.656   1.851
61239SOL    HW183741  11.261   3.582   1.904
61239SOL    HW283742  11.366   3.707   1.909
61240SOL     OW83743  12.452   2.789   0.672
61240SOL    HW183744  12.512   2.708   0.674
61240SOL    HW283745  12.492   2.858   0.612
61241SOL     OW83746  12.002   3.135   1.422
61241SOL    HW183747  11.997   3.168   1.517
61241SOL    HW283748  11.916   3.154   1.376
61242SOL     OW83749  11.844   3.478   0.154
61242SOL    HW183750  11.853   3.488   0.055
61242SOL    HW283751  11.804   3.389   0.175
61243SOL     OW83752  11.435   2.188   0.720
61243SOL    HW183753  11.356   2.239   0.686
61243SOL    HW283754  11.426   2.173   0.818
61244SOL     OW83755  12.366   3.474   0.031
61244SOL    HW183756  12.372   3.381   0.068
61244SOL    HW283757  12.307   3.474  -0.049
61245SOL     OW83758  11.994   2.864   1.372
61245SOL    HW183759  12.034   2.863   1.280
61245SOL    HW283760  12.004   2.956   1.412
61246SOL     OW83761  12.088   2.772   0.291
61246SOL    HW183762  12.151   2.810   0.223
61246SOL    HW283763  12.128   2.689   0.330
61247SOL     OW83764  12.676   3.469   0.044
61247SOL    HW183765  12.584   3.506   0.051
61247SOL    HW283766  12.714   3.489  -0.046
61248SOL     OW83767  11.544   3.150   1.490
61248SOL    HW183768  11.531   3.243   1.456
61248SOL    HW283769  11.460   3.098   1.477
61249SOL     OW83770  12.211   2.960   0.696
61249SOL    HW183771  12.141   2.913   0.750
61249SOL    HW283772  12.270   2.892   0.653
61250SOL     OW83773  12.186   2.098   0.971
61250SOL    HW183774  12.178   2.062   0.878
61250SOL    HW283775  12.184   2.022   1.036
61251SOL     OW83776  11.762   3.349   0.491
61251SOL    HW183777  11.804   3.291   0.421
61251SOL    HW283778  11.718   3.428   0.447
61252SOL     OW83779  11.427   3.210   0.290
61252SOL    HW183780  11.331   3.211   0.263
61252SOL    HW283781  11.439   3.263   0.374
61253SOL     OW83782  11.277   2.875   1.726
61253SOL    HW183783  11.200   2.842   1.780
61253SOL    HW283784  11.362   2.845   1.768
61254SOL     OW83785  11.844   2.065   1.489
61254SOL    HW183786  11.934   2.049   1.449
61254SOL    HW283787  11.852   2.070   1.588
61255SOL     OW83788  12.612   2.718   1.398
61255SOL    HW183789  12.555   2.770   1.335
61255SOL    HW283790  12.708   2.730   1.374
61256SOL     OW83791  11.244   2.028   0.318
61256SOL    HW183792  11.227   2.111   0.264
61256SOL    HW283793  11.334   1.991   0.296
61257SOL     OW83794  12.355   3.197   0.119
61257SOL    HW183795  12.256   3.186   0.121
61257SOL    HW283796  12.389   3.212   0.212
61258SOL     OW83797  11.785   2.704   1.431
61258SOL    HW183798  11.841   2.785   1.414
61258SOL    HW283799  11.844   2.624   1.434
61259SOL     OW83800  12.665   3.629   0.959
61259SOL    HW183801  12.698   3.693   0.890
61259SOL    HW283802  12.731   3.623   1.034
61260SOL     OW83803  11.888   2.427   1.708
61260SOL    HW183804  11.907   2.492   1.782
61260SOL    HW283805  11.948   2.347   1.717
61261SOL     OW83806  12.622   3.082   1.633
61261SOL    HW183807  12.613   3.072   1.732
61261SOL    HW283808  12.718   3.075   1.607
61262SOL     OW83809  11.562   3.603   1.560
61262SOL    HW183810  11.471   3.644   1.558
61262SOL    HW283811  11.555   3.509   1.592
61263SOL     OW83812  12.397   2.187   0.449
61263SOL    HW183813  12.462   2.113   0.438
61263SOL    HW283814  12.417   2.237   0.533
61264SOL     OW83815  11.766   2.607   0.652
61264SOL    HW183816  11.816   2.692   0.633
61264SOL    HW283817  11.678   2.609   0.604
61265SOL     OW83818  12.031   3.236   0.016
61265SOL    HW183819  11.985   3.251   0.104
61265SOL    HW283820  12.075   3.321  -0.014
61266SOL     OW83821  11.833   3.652   0.953
61266SOL    HW183822  11.787   3.740   0.940
61266SOL    HW283823  11.932   3.664   0.946
61267SOL     OW83824  12.031   2.818   0.861
61267SOL    HW183825  12.085   2.749   0.909
61267SOL    HW283826  11.999   2.887   0.927
61268SOL     OW83827  12.255   2.846   0.087
61268SOL    HW183828  12.232   2.899   0.005
61268SOL    HW283829  12.336   2.790   0.068
61269SOL     OW83830  13.033   3.431   0.851
61269SOL    HW183831  12.962   3.419   0.781
61269SOL    HW283832  13.034   3.352   0.911
61270SOL     OW83833  11.251   3.102   0.653
61270SOL    HW183834  11.250   3.055   0.741
61270SOL    HW283835  11.333   3.074   0.602
61271SOL     OW83836  11.844   3.253   1.624
61271SOL    HW183837  11.766   3.203   1.662
61271SOL    HW283838  11.841   3.348   1.655
61272SOL     OW83839  11.600   2.286   0.520
61272SOL    HW183840  11.630   2.214   0.458
61272SOL    HW283841  11.561   2.246   0.603
61273SOL     OW83842  11.489   2.409   1.280
61273SOL    HW183843  11.527   2.350   1.352
61273SOL    HW283844  11.529   2.383   1.192
61274SOL     OW83845  11.984   3.448   0.687
61274SOL    HW183846  12.016   3.458   0.593
61274SOL    HW283847  11.905   3.386   0.689
61275SOL     OW83848  12.596   2.076   1.112
61275SOL    HW183849  12.648   2.011   1.167
61275SOL    HW283850  12.547   2.139   1.173
61276SOL     OW83851  12.173   1.896   1.154
61276SOL    HW183852  12.110   1.824   1.123
61276SOL    HW283853  12.266   1.860   1.154
61277SOL     OW83854  11.942   3.192   0.301
61277SOL    HW183855  11.896   3.105   0.318
61277SOL    HW283856  12.033   3.189   0.342
61278SOL     OW83857  11.790   3.429   1.284
61278SOL    HW183858  11.785   3.511   1.341
61278SOL    HW283859  11.879   3.426   1.239
61279SOL     OW83860  12.524   1.914   0.168
61279SOL    HW183861  12.559   1.873   0.084
61279SOL    HW283862  12.434   1.876   0.188
61280SOL     OW83863  12.472   2.315   0.691
61280SOL    HW183864  12.413   2.395   0.695
61280SOL    HW283865  12.487   2.280   0.784
61281SOL     OW83866  12.765   2.083   0.882
61281SOL    HW183867  12.681   2.082   0.936
61281SOL    HW283868  12.767   2.166   0.826
61282SOL     OW83869  11.211   2.939   0.300
61282SOL    HW183870  11.310   2.928   0.291
61282SOL    HW283871  11.171   2.853   0.332
61283SOL     OW83872  12.047   3.508   0.337
61283SOL    HW183873  11.970   3.473   0.283
61283SOL    HW283874  12.015   3.579   0.399
61284SOL     OW83875  11.402   2.490   1.975
61284SOL    HW183876  11.309   2.488   2.012
61284SOL    HW283877  11.403   2.451   1.883
61285SOL     OW83878  11.397   2.137   2.858
61285SOL    HW183879  11.432   2.120   2.950
61285SOL    HW283880  11.309   2.092   2.846
61286SOL     OW83881  11.191   2.230   2.509
61286SOL    HW183882  11.109   2.273   2.548
61286SOL    HW283883  11.163   2.157   2.446
61287SOL     OW83884  11.741   3.137   3.027
61287SOL    HW183885  11.648   3.130   2.990
61287SOL    HW283886  11.752   3.226   3.071
61288SOL     OW83887  12.727   3.373   2.565
61288SOL    HW183888  12.670   3.357   2.646
61288SOL    HW283889  12.668   3.383   2.485
61289SOL     OW83890  12.307   2.565   2.579
61289SOL    HW183891  12.364   2.643   2.554
61289SOL    HW283892  12.247   2.591   2.655
61290SOL     OW83893  11.940   3.006   2.885
61290SOL    HW183894  11.862   3.023   2.945
61290SOL    HW283895  11.974   3.093   2.849
61291SOL     OW83896  12.022   2.660   3.685
61291SOL    HW183897  12.018   2.736   3.750
61291SOL    HW283898  12.044   2.696   3.594
61292SOL     OW83899  11.857   2.874   2.527
61292SOL    HW183900  11.926   2.858   2.597
61292SOL    HW283901  11.784   2.931   2.565
61293SOL     OW83902  11.858   3.023   3.665
61293SOL    HW183903  11.918   3.102   3.679
61293SOL    HW283904  11.772   3.054   3.624
61294SOL     OW83905  11.507   3.297   2.923
61294SOL    HW183906  11.429   3.266   2.870
61294SOL    HW283907  11.565   3.355   2.866
61295SOL     OW83908  12.632   3.367   3.201
61295SOL    HW183909  12.656   3.461   3.227
61295SOL    HW283910  12.616   3.313   3.283
61296SOL     OW83911  11.610   2.254   3.361
61296SOL    HW183912  11.692   2.198   3.370
61296SOL    HW283913  11.529   2.196   3.365
61297SOL     OW83914  11.403   3.575   2.345
61297SOL    HW183915  11.437   3.652   2.399
61297SOL    HW283916  11.447   3.575   2.255
61298SOL     OW83917  12.299   3.203   3.552
61298SOL    HW183918  12.346   3.203   3.640
61298SOL    HW283919  12.251   3.116   3.541
61299SOL     OW83920  11.402   3.296   2.400
61299SOL    HW183921  11.376   3.392   2.400
61299SOL    HW283922  11.331   3.242   2.445
61300SOL     OW83923  11.412   2.953   2.748
61300SOL    HW183924  11.426   2.869   2.800
61300SOL    HW283925  11.357   3.017   2.803
61301SOL     OW83926  11.792   3.648   3.301
61301SOL    HW183927  11.700   3.631   3.336
61301SOL    HW283928  11.820   3.740   3.327
61302SOL     OW83929  11.778   2.826   1.985
61302SOL    HW183930  11.785   2.910   1.931
61302SOL    HW283931  11.824   2.839   2.073
61303SOL     OW83932  12.766   1.976   3.342
61303SOL    HW183933  12.748   2.043   3.270
61303SOL    HW283934  12.763   2.022   3.431
61304SOL     OW83935  11.294   2.505   2.425
61304SOL    HW183936  11.249   2.417   2.442
61304SOL    HW283937  11.293   2.559   2.509
61305SOL     OW83938  11.199   3.458   1.979
61305SOL    HW183939  11.180   3.362   2.000
61305SOL    HW283940  11.166   3.516   2.054
61306SOL     OW83941  12.861   2.784   2.474
61306SOL    HW183942  12.956   2.755   2.482
61306SOL    HW283943  12.853   2.849   2.399
61307SOL     OW83944  11.285   2.599   3.459
61307SOL    HW183945  11.373   2.586   3.504
61307SOL    HW283946  11.272   2.696   3.437
61308SOL     OW83947  11.785   3.227   2.588
61308SOL    HW183948  11.736   3.140   2.597
61308SOL    HW283949  11.762   3.270   2.501
61309SOL     OW83950  12.465   3.090   3.285
61309SOL    HW183951  12.502   3.017   3.227
61309SOL    HW283952  12.517   3.095   3.370
61310SOL     OW83953  11.981   1.866   2.364
61310SOL    HW183954  12.021   1.957   2.355
61310SOL    HW283955  11.881   1.874   2.370
61311SOL     OW83956  11.369   2.838   3.126
61311SOL    HW183957  11.458   2.793   3.112
61311SOL    HW283958  11.296   2.773   3.107
61312SOL     OW83959  12.359   3.654   3.478
61312SOL    HW183960  12.383   3.714   3.402
61312SOL    HW283961  12.366   3.559   3.448
61313SOL     OW83962  11.489   2.113   3.663
61313SOL    HW183963  11.560   2.184   3.669
61313SOL    HW283964  11.401   2.152   3.691
61314SOL     OW83965  12.638   3.279   2.815
61314SOL    HW183966  12.579   3.285   2.895
61314SOL    HW283967  12.623   3.191   2.769
61315SOL     OW83968  12.839   3.576   2.434
61315SOL    HW183969  12.798   3.553   2.346
61315SOL    HW283970  12.821   3.502   2.499
61316SOL     OW83971  11.770   2.591   2.132
61316SOL    HW183972  11.794   2.660   2.064
61316SOL    HW283973  11.692   2.624   2.186
61317SOL     OW83974  12.453   2.207   2.806
61317SOL    HW183975  12.367   2.157   2.793
61317SOL    HW283976  12.515   2.153   2.862
61318SOL     OW83977  11.979   2.467   3.327
61318SOL    HW183978  11.932   2.464   3.416
61318SOL    HW283979  11.928   2.412   3.261
61319SOL     OW83980  12.566   2.331   3.536
61319SOL    HW183981  12.546   2.374   3.624
61319SOL    HW283982  12.644   2.269   3.545
61320SOL     OW83983  12.145   2.752   3.434
61320SOL    HW183984  12.191   2.668   3.405
61320SOL    HW283985  12.089   2.786   3.359
61321SOL     OW83986  12.163   2.272   3.104
61321SOL    HW183987  12.086   2.306   3.158
61321SOL    HW283988  12.129   2.221   3.025
61322SOL     OW83989  12.213   2.563   2.291
61322SOL    HW183990  12.239   2.559   2.387
61322SOL    HW283991  12.128   2.512   2.277
61323SOL     OW83992  11.248   2.673   2.651
61323SOL    HW183993  11.347   2.661   2.660
61323SOL    HW283994  11.224   2.768   2.672
61324SOL     OW83995  11.302   3.683   3.433
61324SOL    HW183996  11.292   3.668   3.532
61324SOL    HW283997  11.216   3.719   3.397
61325SOL     OW83998  12.037   2.210   2.057
61325SOL    HW183999  12.096   2.273   2.008
61325SOL    HW284000  12.056   2.116   2.028
61326SOL     OW84001  12.534   3.006   2.407
61326SOL    HW184002  12.617   2.977   2.359
61326SOL    HW284003  12.485   3.073   2.351
61327SOL     OW84004  11.722   2.058   2.747
61327SOL    HW184005  11.717   2.053   2.847
61327SOL    HW284006  11.724   2.154   2.718
61328SOL     OW84007  12.180   3.318   2.339
61328SOL    HW184008  12.134   3.390   2.287
61328SOL    HW284009  12.176   3.338   2.437
61329SOL     OW84010  11.523   3.663   2.715
61329SOL    HW184011  11.573   3.577   2.721
61329SOL    HW284012  11.588   3.740   2.712
61330SOL     OW84013  12.399   3.412   3.368
61330SOL    HW184014  12.405   3.335   3.432
61330SOL    HW284015  12.347   3.386   3.288
61331SOL     OW84016  11.493   2.805   2.104
61331SOL    HW184017  11.575   2.844   2.062
61331SOL    HW284018  11.466   2.723   2.055
61332SOL     OW84019  12.630   2.597   2.590
61332SOL    HW184020  12.625   2.532   2.665
61332SOL    HW284021  12.710   2.656   2.603
61333SOL     OW84022  11.633   3.128   3.589
61333SOL    HW184023  11.583   3.129   3.503
61333SOL    HW284024  11.570   3.110   3.665
61334SOL     OW84025  12.283   3.638   2.099
61334SOL    HW184026  12.223   3.576   2.149
61334SOL    HW284027  12.314   3.594   2.014
61335SOL     OW84028  11.374   2.147   3.360
61335SOL    HW184029  11.294   2.207   3.347
61335SOL    HW284030  11.364   2.098   3.446
61336SOL     OW84031  11.636   3.605   2.185
61336SOL    HW184032  11.669   3.644   2.271
61336SOL    HW284033  11.712   3.598   2.120
61337SOL     OW84034  12.572   1.969   2.288
61337SOL    HW184035  12.548   1.932   2.198
61337SOL    HW284036  12.671   1.985   2.292
61338SOL     OW84037  11.421   3.647   3.103
61338SOL    HW184038  11.478   3.582   3.153
61338SOL    HW284039  11.405   3.614   3.010
61339SOL     OW84040  12.112   3.560   2.766
61339SOL    HW184041  12.192   3.503   2.787
61339SOL    HW284042  12.063   3.520   2.689
61340SOL     OW84043  11.554   2.562   2.342
61340SOL    HW184044  11.599   2.472   2.339
61340SOL    HW284045  11.460   2.551   2.375
61341SOL     OW84046  11.786   1.984   1.979
61341SOL    HW184047  11.884   1.962   1.986
61341SOL    HW284048  11.755   1.967   1.886
61342SOL     OW84049  11.953   2.126   3.611
61342SOL    HW184050  12.020   2.065   3.654
61342SOL    HW284051  11.880   2.145   3.676
61343SOL     OW84052  12.060   3.376   3.057
61343SOL    HW184053  12.037   3.351   2.963
61343SOL    HW284054  12.121   3.307   3.096
61344SOL     OW84055  12.523   2.452   3.295
61344SOL    HW184056  12.551   2.409   3.380
61344SOL    HW284057  12.548   2.548   3.296
61345SOL     OW84058  11.975   3.264   2.786
61345SOL    HW184059  12.065   3.278   2.744
61345SOL    HW284060  11.904   3.266   2.715
61346SOL     OW84061  12.094   2.365   2.761
61346SOL    HW184062  12.069   2.356   2.665
61346SOL    HW284063  12.142   2.283   2.792
61347SOL     OW84064  11.711   1.926   2.374
61347SOL    HW184065  11.630   1.927   2.432
61347SOL    HW284066  11.714   2.009   2.319
61348SOL     OW84067  12.606   3.050   1.903
61348SOL    HW184068  12.638   2.974   1.960
61348SOL    HW284069  12.514   3.077   1.933
61349SOL     OW84070  11.469   1.897   2.033
61349SOL    HW184071  11.518   1.981   2.012
61349SOL    HW284072  11.531   1.832   2.078
61350SOL     OW84073  12.107   2.098   2.342
61350SOL    HW184074  12.059   2.139   2.264
61350SOL    HW284075  12.206   2.096   2.323
61351SOL     OW84076  12.248   2.545   3.326
61351SOL    HW184077  12.168   2.484   3.329
61351SOL    HW284078  12.329   2.492   3.302
61352SOL     OW84079  12.399   3.432   2.655
61352SOL    HW184080  12.420   3.506   2.590
61352SOL    HW284081  12.467   3.432   2.728
61353SOL     OW84082  11.631   3.014   2.603
61353SOL    HW184083  11.560   2.987   2.668
61353SOL    HW284084  11.605   2.986   2.510
61354SOL     OW84085  12.443   3.659   2.453
61354SOL    HW184086  12.487   3.723   2.389
61354SOL    HW284087  12.393   3.711   2.523
61355SOL     OW84088  12.204   2.411   1.878
61355SOL    HW184089  12.163   2.493   1.839
61355SOL    HW284090  12.268   2.437   1.951
61356SOL     OW84091  11.250   2.418   3.248
61356SOL    HW184092  11.342   2.417   3.207
61356SOL    HW284093  11.244   2.492   3.315
61357SOL     OW84094  11.733   2.084   3.009
61357SOL    HW184095  11.771   2.000   3.046
61357SOL    HW284096  11.645   2.103   3.053
61358SOL     OW84097  12.038   2.316   2.504
61358SOL    HW184098  12.006   2.388   2.442
61358SOL    HW284099  12.062   2.235   2.451
61359SOL     OW84100  12.189   1.901   2.615
61359SOL    HW184101  12.117   1.906   2.546
61359SOL    HW284102  12.165   1.832   2.684
61360SOL     OW84103  12.601   3.035   2.729
61360SOL    HW184104  12.546   2.951   2.722
61360SOL    HW284105  12.627   3.064   2.637
61361SOL     OW84106  11.660   3.247   2.036
61361SOL    HW184107  11.573   3.232   2.083
61361SOL    HW284108  11.643   3.273   1.941
61362SOL     OW84109  12.562   2.437   1.940
61362SOL    HW184110  12.508   2.416   2.021
61362SOL    HW284111  12.653   2.396   1.949
61363SOL     OW84112  11.699   2.118   2.190
61363SOL    HW184113  11.726   2.059   2.115
61363SOL    HW284114  11.699   2.213   2.159
61364SOL     OW84115  12.236   3.209   3.202
61364SOL    HW184116  12.156   3.186   3.257
61364SOL    HW284117  12.319   3.183   3.251
61365SOL     OW84118  12.764   3.491   3.487
61365SOL    HW184119  12.791   3.525   3.397
61365SOL    HW284120  12.843   3.453   3.533
61366SOL     OW84121  12.283   3.057   2.962
61366SOL    HW184122  12.243   3.101   3.043
61366SOL    HW284123  12.242   3.094   2.879
61367SOL     OW84124  12.087   1.951   3.264
61367SOL    HW184125  12.112   1.931   3.169
61367SOL    HW284126  12.159   2.007   3.306
61368SOL     OW84127  12.152   2.978   3.581
61368SOL    HW184128  12.053   2.984   3.591
61368SOL    HW284129  12.175   2.898   3.525
61369SOL     OW84130  11.877   2.912   2.230
61369SOL    HW184131  11.863   2.919   2.329
61369SOL    HW284132  11.961   2.861   2.212
61370SOL     OW84133  11.582   2.675   3.113
61370SOL    HW184134  11.668   2.687   3.163
61370SOL    HW284135  11.540   2.588   3.140
61371SOL     OW84136  12.446   2.248   3.124
61371SOL    HW184137  12.467   2.322   3.188
61371SOL    HW284138  12.357   2.265   3.081
61372SOL     OW84139  11.236   3.426   3.193
61372SOL    HW184140  11.190   3.508   3.159
61372SOL    HW284141  11.334   3.445   3.202
61373SOL     OW84142  11.539   2.962   2.363
61373SOL    HW184143  11.532   3.045   2.307
61373SOL    HW284144  11.543   2.882   2.303
61374SOL     OW84145  11.738   2.399   2.727
61374SOL    HW184146  11.750   2.465   2.653
61374SOL    HW284147  11.784   2.433   2.810
61375SOL     OW84148  12.424   3.210   2.250
61375SOL    HW184149  12.474   3.287   2.290
61375SOL    HW284150  12.329   3.212   2.282
61376SOL     OW84151  12.444   3.307   3.004
61376SOL    HW184152  12.491   3.320   3.091
61376SOL    HW284153  12.378   3.233   3.013
61377SOL     OW84154  12.754   2.501   2.334
61377SOL    HW184155  12.723   2.562   2.407
61377SOL    HW284156  12.804   2.553   2.265
61378SOL     OW84157  11.526   3.372   3.191
61378SOL    HW184158  11.505   3.328   3.104
61378SOL    HW284159  11.623   3.398   3.194
61379SOL     OW84160  11.574   2.613   3.460
61379SOL    HW184161  11.642   2.668   3.413
61379SOL    HW284162  11.614   2.525   3.487
61380SOL     OW84163  12.185   1.967   3.632
61380SOL    HW184164  12.191   2.052   3.580
61380SOL    HW284165  12.217   1.891   3.575
61381SOL     OW84166  11.676   1.912   3.602
61381SOL    HW184167  11.634   1.855   3.532
61381SOL    HW284168  11.610   1.981   3.634
61382SOL     OW84169  11.745   2.732   2.891
61382SOL    HW184170  11.789   2.821   2.882
61382SOL    HW284171  11.682   2.732   2.968
61383SOL     OW84172  12.532   2.724   2.907
61383SOL    HW184173  12.457   2.724   2.841
61383SOL    HW284174  12.569   2.632   2.916
61384SOL     OW84175  12.381   2.387   2.137
61384SOL    HW184176  12.394   2.303   2.191
61384SOL    HW284177  12.352   2.461   2.197
61385SOL     OW84178  11.479   2.075   3.093
61385SOL    HW184179  11.456   2.112   3.183
61385SOL    HW284180  11.449   1.980   3.087
61386SOL     OW84181  11.209   3.172   3.144
61386SOL    HW184182  11.262   3.123   3.212
61386SOL    HW284183  11.231   3.270   3.149
61387SOL     OW84184  11.904   2.496   2.926
61387SOL    HW184185  11.963   2.470   2.850
61387SOL    HW284186  11.876   2.592   2.915
61388SOL     OW84187  11.479   1.925   2.480
61388SOL    HW184188  11.468   2.019   2.513
61388SOL    HW284189  11.474   1.862   2.557
61389SOL     OW84190  12.794   2.229   2.236
61389SOL    HW184191  12.796   2.153   2.300
61389SOL    HW284192  12.746   2.306   2.276
61390SOL     OW84193  12.195   2.628   2.828
61390SOL    HW184194  12.210   2.649   2.924
61390SOL    HW284195  12.165   2.533   2.819
61391SOL     OW84196  12.152   3.435   3.562
61391SOL    HW184197  12.132   3.479   3.474
61391SOL    HW284198  12.191   3.344   3.546
61392SOL     OW84199  11.522   2.760   3.666
61392SOL    HW184200  11.598   2.804   3.714
61392SOL    HW284201  11.557   2.713   3.584
61393SOL     OW84202  12.712   2.136   1.987
61393SOL    HW184203  12.651   2.061   2.010
61393SOL    HW284204  12.734   2.188   2.070
61394SOL     OW84205  12.475   2.700   1.904
61394SOL    HW184206  12.509   2.607   1.919
61394SOL    HW284207  12.493   2.727   1.809
61395SOL     OW84208  12.240   3.195   2.711
61395SOL    HW184209  12.247   3.111   2.656
61395SOL    HW284210  12.302   3.264   2.675
61396SOL     OW84211  11.491   2.672   2.811
61396SOL    HW184212  11.584   2.708   2.816
61396SOL    HW284213  11.485   2.587   2.863
61397SOL     OW84214  11.511   2.371   2.868
61397SOL    HW184215  11.459   2.288   2.851
61397SOL    HW284216  11.588   2.376   2.804
61398SOL     OW84217  12.310   2.242   3.540
61398SOL    HW184218  12.265   2.305   3.604
61398SOL    HW284219  12.403   2.273   3.523
61399SOL     OW84220  12.332   2.069   3.339
61399SOL    HW184221  12.332   2.133   3.416
61399SOL    HW284222  12.360   2.117   3.256
61400SOL     OW84223  11.180   3.188   2.062
61400SOL    HW184224  11.087   3.209   2.031
61400SOL    HW284225  11.190   3.089   2.075
61401SOL     OW84226  11.260   3.663   2.789
61401SOL    HW184227  11.218   3.577   2.762
61401SOL    HW284228  11.354   3.666   2.755
61402SOL     OW84229  11.676   3.430   2.772
61402SOL    HW184230  11.742   3.504   2.781
61402SOL    HW284231  11.720   3.351   2.730
61403SOL     OW84232  12.174   2.658   3.100
61403SOL    HW184233  12.215   2.626   3.186
61403SOL    HW284234  12.078   2.631   3.097
61404SOL     OW84235  11.212   2.406   2.976
61404SOL    HW184236  11.297   2.373   2.935
61404SOL    HW284237  11.225   2.421   3.074
61405SOL     OW84238  11.361   2.382   3.584
61405SOL    HW184239  11.420   2.342   3.514
61405SOL    HW284240  11.303   2.453   3.543
61406SOL     OW84241  12.541   2.812   3.522
61406SOL    HW184242  12.580   2.901   3.542
61406SOL    HW284243  12.551   2.792   3.425
61407SOL     OW84244  11.987   2.434   2.187
61407SOL    HW184245  11.994   2.345   2.141
61407SOL    HW284246  11.893   2.468   2.179
61408SOL     OW84247  11.424   3.426   3.606
61408SOL    HW184248  11.394   3.483   3.682
61408SOL    HW284249  11.417   3.329   3.632
61409SOL     OW84250  11.843   2.326   3.131
61409SOL    HW184251  11.809   2.237   3.101
61409SOL    HW284252  11.869   2.380   3.051
61410SOL     OW84253  12.102   3.540   3.327
61410SOL    HW184254  12.078   3.522   3.232
61410SOL    HW284255  12.132   3.634   3.337
61411SOL     OW84256  11.645   2.362   2.053
61411SOL    HW184257  11.706   2.442   2.057
61411SOL    HW284258  11.550   2.393   2.060
61412SOL     OW84259  11.331   2.999   3.328
61412SOL    HW184260  11.353   2.938   3.404
61412SOL    HW284261  11.341   2.950   3.242
61413SOL     OW84262  12.519   2.921   3.096
61413SOL    HW184263  12.543   2.858   3.022
61413SOL    HW284264  12.429   2.961   3.078
61414SOL     OW84265  12.474   2.717   2.171
61414SOL    HW184266  12.388   2.686   2.213
61414SOL    HW284267  12.470   2.703   2.072
61415SOL     OW84268  12.424   3.593   2.990
61415SOL    HW184269  12.508   3.598   2.936
61415SOL    HW284270  12.401   3.497   3.008
61416SOL     OW84271  11.860   3.524   3.578
61416SOL    HW184272  11.804   3.605   3.587
61416SOL    HW284273  11.912   3.528   3.492
61417SOL     OW84274  12.898   1.997   2.385
61417SOL    HW184275  12.971   1.980   2.318
61417SOL    HW284276  12.867   1.910   2.423
61418SOL     OW84277  12.560   3.435   2.339
61418SOL    HW184278  12.627   3.447   2.265
61418SOL    HW284279  12.520   3.524   2.362
61419SOL     OW84280  11.302   3.656   3.713
61419SOL    HW184281  11.261   3.582   3.766
61419SOL    HW284282  11.366   3.707   3.771
61420SOL     OW84283  12.452   2.789   2.534
61420SOL    HW184284  12.512   2.708   2.536
61420SOL    HW284285  12.492   2.858   2.474
61421SOL     OW84286  12.002   3.135   3.284
61421SOL    HW184287  11.997   3.168   3.379
61421SOL    HW284288  11.916   3.154   3.238
61422SOL     OW84289  11.844   3.478   2.016
61422SOL    HW184290  11.853   3.488   1.917
61422SOL    HW284291  11.804   3.389   2.037
61423SOL     OW84292  11.435   2.188   2.582
61423SOL    HW184293  11.356   2.239   2.548
61423SOL    HW284294  11.426   2.173   2.680
61424SOL     OW84295  12.366   3.474   1.893
61424SOL    HW184296  12.372   3.381   1.930
61424SOL    HW284297  12.307   3.474   1.813
61425SOL     OW84298  11.994   2.864   3.234
61425SOL    HW184299  12.034   2.863   3.142
61425SOL    HW284300  12.004   2.956   3.274
61426SOL     OW84301  12.088   2.772   2.153
61426SOL    HW184302  12.151   2.810   2.085
61426SOL    HW284303  12.128   2.689   2.192
61427SOL     OW84304  12.676   3.469   1.906
61427SOL    HW184305  12.584   3.506   1.913
61427SOL    HW284306  12.714   3.489   1.816
61428SOL     OW84307  11.544   3.150   3.352
61428SOL    HW184308  11.531   3.243   3.318
61428SOL    HW284309  11.460   3.098   3.339
61429SOL     OW84310  12.211   2.960   2.558
61429SOL    HW184311  12.141   2.913   2.612
61429SOL    HW284312  12.270   2.892   2.515
61430SOL     OW84313  12.186   2.098   2.833
61430SOL    HW184314  12.178   2.062   2.740
61430SOL    HW284315  12.184   2.022   2.898
61431SOL     OW84316  11.762   3.349   2.353
61431SOL    HW184317  11.804   3.291   2.283
61431SOL    HW284318  11.718   3.428   2.309
61432SOL     OW84319  11.427   3.210   2.152
61432SOL    HW184320  11.331   3.211   2.125
61432SOL    HW284321  11.439   3.263   2.236
61433SOL     OW84322  11.277   2.875   3.588
61433SOL    HW184323  11.200   2.842   3.642
61433SOL    HW284324  11.362   2.845   3.630
61434SOL     OW84325  11.844   2.065   3.351
61434SOL    HW184326  11.934   2.049   3.311
61434SOL    HW284327  11.852   2.070   3.450
61435SOL     OW84328  11.247   2.207   1.895
61435SOL    HW184329  11.155   2.179   1.866
61435SOL    HW284330  11.278   2.284   1.839
61436SOL     OW84331  12.612   2.718   3.260
61436SOL    HW184332  12.555   2.770   3.197
61436SOL    HW284333  12.708   2.730   3.236
61437SOL     OW84334  11.244   2.028   2.180
61437SOL    HW184335  11.227   2.111   2.126
61437SOL    HW284336  11.334   1.991   2.158
61438SOL     OW84337  12.355   3.197   1.981
61438SOL    HW184338  12.256   3.186   1.983
61438SOL    HW284339  12.389   3.212   2.074
61439SOL     OW84340  11.785   2.704   3.293
61439SOL    HW184341  11.841   2.785   3.276
61439SOL    HW284342  11.844   2.624   3.296
61440SOL     OW84343  11.888   2.427   3.570
61440SOL    HW184344  11.907   2.492   3.644
61440SOL    HW284345  11.948   2.347   3.579
61441SOL     OW84346  12.622   3.082   3.495
61441SOL    HW184347  12.613   3.072   3.594
61441SOL    HW284348  12.718   3.075   3.469
61442SOL     OW84349  11.562   3.603   3.422
61442SOL    HW184350  11.471   3.644   3.420
61442SOL    HW284351  11.555   3.509   3.454
61443SOL     OW84352  12.397   2.187   2.311
61443SOL    HW184353  12.462   2.113   2.300
61443SOL    HW284354  12.417   2.237   2.395
61444SOL     OW84355  11.766   2.607   2.514
61444SOL    HW184356  11.816   2.692   2.495
61444SOL    HW284357  11.678   2.609   2.466
61445SOL     OW84358  12.031   3.236   1.878
61445SOL    HW184359  11.985   3.251   1.966
61445SOL    HW284360  12.075   3.321   1.848
61446SOL     OW84361  11.833   3.652   2.815
61446SOL    HW184362  11.787   3.740   2.802
61446SOL    HW284363  11.932   3.664   2.808
61447SOL     OW84364  12.031   2.818   2.723
61447SOL    HW184365  12.085   2.749   2.771
61447SOL    HW284366  11.999   2.887   2.789
61448SOL     OW84367  12.255   2.846   1.949
61448SOL    HW184368  12.232   2.899   1.867
61448SOL    HW284369  12.336   2.790   1.930
61449SOL     OW84370  13.033   3.431   2.713
61449SOL    HW184371  12.962   3.419   2.643
61449SOL    HW284372  13.034   3.352   2.773
61450SOL     OW84373  11.393   3.176   3.706
61450SOL    HW184374  11.328   3.103   3.685
61450SOL    HW284375  11.397   3.190   3.804
61451SOL     OW84376  11.251   3.102   2.515
61451SOL    HW184377  11.250   3.055   2.603
61451SOL    HW284378  11.333   3.074   2.464
61452SOL     OW84379  11.844   3.253   3.486
61452SOL    HW184380  11.766   3.203   3.524
61452SOL    HW284381  11.841   3.348   3.517
61453SOL     OW84382  11.600   2.286   2.382
61453SOL    HW184383  11.630   2.214   2.320
61453SOL    HW284384  11.561   2.246   2.465
61454SOL     OW84385  11.489   2.409   3.142
61454SOL    HW184386  11.527   2.350   3.214
61454SOL    HW284387  11.529   2.383   3.054
61455SOL     OW84388  11.984   3.448   2.549
61455SOL    HW184389  12.016   3.458   2.455
61455SOL    HW284390  11.905   3.386   2.551
61456SOL     OW84391  12.596   2.076   2.974
61456SOL    HW184392  12.648   2.011   3.029
61456SOL    HW284393  12.547   2.139   3.035
61457SOL     OW84394  12.173   1.896   3.016
61457SOL    HW184395  12.110   1.824   2.985
61457SOL    HW284396  12.266   1.860   3.016
61458SOL     OW84397  11.942   3.192   2.163
61458SOL    HW184398  11.896   3.105   2.180
61458SOL    HW284399  12.033   3.189   2.204
61459SOL     OW84400  11.790   3.429   3.146
61459SOL    HW184401  11.785   3.511   3.203
61459SOL    HW284402  11.879   3.426   3.101
61460SOL     OW84403  12.524   1.914   2.030
61460SOL    HW184404  12.559   1.873   1.946
61460SOL    HW284405  12.434   1.876   2.050
61461SOL     OW84406  12.472   2.315   2.553
61461SOL    HW184407  12.413   2.395   2.557
61461SOL    HW284408  12.487   2.280   2.646
61462SOL     OW84409  12.765   2.083   2.744
61462SOL    HW184410  12.681   2.082   2.798
61462SOL    HW284411  12.767   2.166   2.688
61463SOL     OW84412  11.211   2.939   2.162
61463SOL    HW184413  11.310   2.928   2.153
61463SOL    HW284414  11.171   2.853   2.194
61464SOL     OW84415  12.047   3.508   2.199
61464SOL    HW184416  11.970   3.473   2.145
61464SOL    HW284417  12.015   3.579   2.261
61465SOL     OW84418  11.402   2.490   3.837
61465SOL    HW184419  11.309   2.488   3.874
61465SOL    HW284420  11.403   2.451   3.745
61466SOL     OW84421  11.397   2.137   4.720
61466SOL    HW184422  11.432   2.120   4.812
61466SOL    HW284423  11.309   2.092   4.708
61467SOL     OW84424  11.191   2.230   4.371
61467SOL    HW184425  11.109   2.273   4.410
61467SOL    HW284426  11.163   2.157   4.308
61468SOL     OW84427  11.741   3.137   4.889
61468SOL    HW184428  11.648   3.130   4.852
61468SOL    HW284429  11.752   3.226   4.933
61469SOL     OW84430  12.727   3.373   4.427
61469SOL    HW184431  12.670   3.357   4.508
61469SOL    HW284432  12.668   3.383   4.347
61470SOL     OW84433  12.307   2.565   4.441
61470SOL    HW184434  12.364   2.643   4.416
61470SOL    HW284435  12.247   2.591   4.517
61471SOL     OW84436  11.940   3.006   4.747
61471SOL    HW184437  11.862   3.023   4.807
61471SOL    HW284438  11.974   3.093   4.711
61472SOL     OW84439  12.022   2.660   5.547
61472SOL    HW184440  12.018   2.736   5.612
61472SOL    HW284441  12.044   2.696   5.456
61473SOL     OW84442  11.857   2.874   4.389
61473SOL    HW184443  11.926   2.858   4.459
61473SOL    HW284444  11.784   2.931   4.427
61474SOL     OW84445  11.858   3.023   5.527
61474SOL    HW184446  11.918   3.102   5.541
61474SOL    HW284447  11.772   3.054   5.486
61475SOL     OW84448  11.507   3.297   4.785
61475SOL    HW184449  11.429   3.266   4.732
61475SOL    HW284450  11.565   3.355   4.728
61476SOL     OW84451  12.632   3.367   5.063
61476SOL    HW184452  12.656   3.461   5.089
61476SOL    HW284453  12.616   3.313   5.145
61477SOL     OW84454  11.610   2.254   5.223
61477SOL    HW184455  11.692   2.198   5.232
61477SOL    HW284456  11.529   2.196   5.227
61478SOL     OW84457  11.403   3.575   4.207
61478SOL    HW184458  11.437   3.652   4.261
61478SOL    HW284459  11.447   3.575   4.117
61479SOL     OW84460  12.299   3.203   5.414
61479SOL    HW184461  12.346   3.203   5.502
61479SOL    HW284462  12.251   3.116   5.403
61480SOL     OW84463  11.402   3.296   4.262
61480SOL    HW184464  11.376   3.392   4.262
61480SOL    HW284465  11.331   3.242   4.307
61481SOL     OW84466  11.412   2.953   4.610
61481SOL    HW184467  11.426   2.869   4.662
61481SOL    HW284468  11.357   3.017   4.665
61482SOL     OW84469  11.792   3.648   5.163
61482SOL    HW184470  11.700   3.631   5.198
61482SOL    HW284471  11.820   3.740   5.189
61483SOL     OW84472  11.778   2.826   3.847
61483SOL    HW184473  11.785   2.910   3.793
61483SOL    HW284474  11.824   2.839   3.935
61484SOL     OW84475  12.766   1.976   5.204
61484SOL    HW184476  12.748   2.043   5.132
61484SOL    HW284477  12.763   2.022   5.293
61485SOL     OW84478  11.294   2.505   4.287
61485SOL    HW184479  11.249   2.417   4.304
61485SOL    HW284480  11.293   2.559   4.371
61486SOL     OW84481  11.199   3.458   3.841
61486SOL    HW184482  11.180   3.362   3.862
61486SOL    HW284483  11.166   3.516   3.916
61487SOL     OW84484  12.861   2.784   4.336
61487SOL    HW184485  12.956   2.755   4.344
61487SOL    HW284486  12.853   2.849   4.261
61488SOL     OW84487  11.285   2.599   5.321
61488SOL    HW184488  11.373   2.586   5.366
61488SOL    HW284489  11.272   2.696   5.299
61489SOL     OW84490  11.785   3.227   4.450
61489SOL    HW184491  11.736   3.140   4.459
61489SOL    HW284492  11.762   3.270   4.363
61490SOL     OW84493  12.465   3.090   5.147
61490SOL    HW184494  12.502   3.017   5.089
61490SOL    HW284495  12.517   3.095   5.232
61491SOL     OW84496  11.981   1.866   4.226
61491SOL    HW184497  12.021   1.957   4.217
61491SOL    HW284498  11.881   1.874   4.232
61492SOL     OW84499  11.369   2.838   4.988
61492SOL    HW184500  11.458   2.793   4.974
61492SOL    HW284501  11.296   2.773   4.969
61493SOL     OW84502  12.359   3.654   5.340
61493SOL    HW184503  12.383   3.714   5.264
61493SOL    HW284504  12.366   3.559   5.310
61494SOL     OW84505  11.489   2.113   5.525
61494SOL    HW184506  11.560   2.184   5.531
61494SOL    HW284507  11.401   2.152   5.553
61495SOL     OW84508  12.638   3.279   4.677
61495SOL    HW184509  12.579   3.285   4.757
61495SOL    HW284510  12.623   3.191   4.631
61496SOL     OW84511  12.839   3.576   4.296
61496SOL    HW184512  12.798   3.553   4.208
61496SOL    HW284513  12.821   3.502   4.361
61497SOL     OW84514  11.770   2.591   3.994
61497SOL    HW184515  11.794   2.660   3.926
61497SOL    HW284516  11.692   2.624   4.048
61498SOL     OW84517  12.453   2.207   4.668
61498SOL    HW184518  12.367   2.157   4.655
61498SOL    HW284519  12.515   2.153   4.724
61499SOL     OW84520  11.979   2.467   5.189
61499SOL    HW184521  11.932   2.464   5.278
61499SOL    HW284522  11.928   2.412   5.123
61500SOL     OW84523  12.566   2.331   5.398
61500SOL    HW184524  12.546   2.374   5.486
61500SOL    HW284525  12.644   2.269   5.407
61501SOL     OW84526  12.145   2.752   5.296
61501SOL    HW184527  12.191   2.668   5.267
61501SOL    HW284528  12.089   2.786   5.221
61502SOL     OW84529  12.163   2.272   4.966
61502SOL    HW184530  12.086   2.306   5.020
61502SOL    HW284531  12.129   2.221   4.887
61503SOL     OW84532  12.213   2.563   4.153
61503SOL    HW184533  12.239   2.559   4.249
61503SOL    HW284534  12.128   2.512   4.139
61504SOL     OW84535  11.248   2.673   4.513
61504SOL    HW184536  11.347   2.661   4.522
61504SOL    HW284537  11.224   2.768   4.534
61505SOL     OW84538  11.302   3.683   5.295
61505SOL    HW184539  11.292   3.668   5.394
61505SOL    HW284540  11.216   3.719   5.259
61506SOL     OW84541  12.037   2.210   3.919
61506SOL    HW184542  12.096   2.273   3.870
61506SOL    HW284543  12.056   2.116   3.890
61507SOL     OW84544  12.534   3.006   4.269
61507SOL    HW184545  12.617   2.977   4.221
61507SOL    HW284546  12.485   3.073   4.213
61508SOL     OW84547  11.722   2.058   4.609
61508SOL    HW184548  11.717   2.053   4.709
61508SOL    HW284549  11.724   2.154   4.580
61509SOL     OW84550  12.180   3.318   4.201
61509SOL    HW184551  12.134   3.390   4.149
61509SOL    HW284552  12.176   3.338   4.299
61510SOL     OW84553  11.523   3.663   4.577
61510SOL    HW184554  11.573   3.577   4.583
61510SOL    HW284555  11.588   3.740   4.574
61511SOL     OW84556  12.399   3.412   5.230
61511SOL    HW184557  12.405   3.335   5.294
61511SOL    HW284558  12.347   3.386   5.150
61512SOL     OW84559  11.493   2.805   3.966
61512SOL    HW184560  11.575   2.844   3.924
61512SOL    HW284561  11.466   2.723   3.917
61513SOL     OW84562  12.630   2.597   4.452
61513SOL    HW184563  12.625   2.532   4.527
61513SOL    HW284564  12.710   2.656   4.465
61514SOL     OW84565  11.633   3.128   5.451
61514SOL    HW184566  11.583   3.129   5.365
61514SOL    HW284567  11.570   3.110   5.527
61515SOL     OW84568  12.283   3.638   3.961
61515SOL    HW184569  12.223   3.576   4.011
61515SOL    HW284570  12.314   3.594   3.876
61516SOL     OW84571  11.374   2.147   5.222
61516SOL    HW184572  11.294   2.207   5.209
61516SOL    HW284573  11.364   2.098   5.308
61517SOL     OW84574  11.636   3.605   4.047
61517SOL    HW184575  11.669   3.644   4.133
61517SOL    HW284576  11.712   3.598   3.982
61518SOL     OW84577  12.572   1.969   4.150
61518SOL    HW184578  12.548   1.932   4.060
61518SOL    HW284579  12.671   1.985   4.154
61519SOL     OW84580  11.421   3.647   4.965
61519SOL    HW184581  11.478   3.582   5.015
61519SOL    HW284582  11.405   3.614   4.872
61520SOL     OW84583  12.112   3.560   4.628
61520SOL    HW184584  12.192   3.503   4.649
61520SOL    HW284585  12.063   3.520   4.551
61521SOL     OW84586  11.554   2.562   4.204
61521SOL    HW184587  11.599   2.472   4.201
61521SOL    HW284588  11.460   2.551   4.237
61522SOL     OW84589  11.786   1.984   3.841
61522SOL    HW184590  11.884   1.962   3.848
61522SOL    HW284591  11.755   1.967   3.748
61523SOL     OW84592  11.953   2.126   5.473
61523SOL    HW184593  12.020   2.065   5.516
61523SOL    HW284594  11.880   2.145   5.538
61524SOL     OW84595  12.060   3.376   4.919
61524SOL    HW184596  12.037   3.351   4.825
61524SOL    HW284597  12.121   3.307   4.958
61525SOL     OW84598  12.523   2.452   5.157
61525SOL    HW184599  12.551   2.409   5.242
61525SOL    HW284600  12.548   2.548   5.158
61526SOL     OW84601  11.975   3.264   4.648
61526SOL    HW184602  12.065   3.278   4.606
61526SOL    HW284603  11.904   3.266   4.577
61527SOL     OW84604  12.094   2.365   4.623
61527SOL    HW184605  12.069   2.356   4.527
61527SOL    HW284606  12.142   2.283   4.654
61528SOL     OW84607  11.711   1.926   4.236
61528SOL    HW184608  11.630   1.927   4.294
61528SOL    HW284609  11.714   2.009   4.181
61529SOL     OW84610  12.606   3.050   3.765
61529SOL    HW184611  12.638   2.974   3.822
61529SOL    HW284612  12.514   3.077   3.795
61530SOL     OW84613  11.469   1.897   3.895
61530SOL    HW184614  11.518   1.981   3.874
61530SOL    HW284615  11.531   1.832   3.940
61531SOL     OW84616  12.107   2.098   4.204
61531SOL    HW184617  12.059   2.139   4.126
61531SOL    HW284618  12.206   2.096   4.185
61532SOL     OW84619  12.248   2.545   5.188
61532SOL    HW184620  12.168   2.484   5.191
61532SOL    HW284621  12.329   2.492   5.164
61533SOL     OW84622  12.399   3.432   4.517
61533SOL    HW184623  12.420   3.506   4.452
61533SOL    HW284624  12.467   3.432   4.590
61534SOL     OW84625  11.631   3.014   4.465
61534SOL    HW184626  11.560   2.987   4.530
61534SOL    HW284627  11.605   2.986   4.372
61535SOL     OW84628  12.443   3.659   4.315
61535SOL    HW184629  12.487   3.723   4.251
61535SOL    HW284630  12.393   3.711   4.385
61536SOL     OW84631  12.204   2.411   3.740
61536SOL    HW184632  12.163   2.493   3.701
61536SOL    HW284633  12.268   2.437   3.813
61537SOL     OW84634  11.250   2.418   5.110
61537SOL    HW184635  11.342   2.417   5.069
61537SOL    HW284636  11.244   2.492   5.177
61538SOL     OW84637  11.733   2.084   4.871
61538SOL    HW184638  11.771   2.000   4.908
61538SOL    HW284639  11.645   2.103   4.915
61539SOL     OW84640  12.038   2.316   4.366
61539SOL    HW184641  12.006   2.388   4.304
61539SOL    HW284642  12.062   2.235   4.313
61540SOL     OW84643  12.189   1.901   4.477
61540SOL    HW184644  12.117   1.906   4.408
61540SOL    HW284645  12.165   1.832   4.546
61541SOL     OW84646  12.601   3.035   4.591
61541SOL    HW184647  12.546   2.951   4.584
61541SOL    HW284648  12.627   3.064   4.499
61542SOL     OW84649  12.638   2.452   4.716
61542SOL    HW184650  12.608   2.357   4.723
61542SOL    HW284651  12.711   2.468   4.782
61543SOL     OW84652  11.660   3.247   3.898
61543SOL    HW184653  11.573   3.232   3.945
61543SOL    HW284654  11.643   3.273   3.803
61544SOL     OW84655  12.562   2.437   3.802
61544SOL    HW184656  12.508   2.416   3.883
61544SOL    HW284657  12.653   2.396   3.811
61545SOL     OW84658  11.699   2.118   4.052
61545SOL    HW184659  11.726   2.059   3.977
61545SOL    HW284660  11.699   2.213   4.021
61546SOL     OW84661  12.236   3.209   5.064
61546SOL    HW184662  12.156   3.186   5.119
61546SOL    HW284663  12.319   3.183   5.113
61547SOL     OW84664  12.764   3.491   5.349
61547SOL    HW184665  12.791   3.525   5.259
61547SOL    HW284666  12.843   3.453   5.395
61548SOL     OW84667  12.283   3.057   4.824
61548SOL    HW184668  12.243   3.101   4.905
61548SOL    HW284669  12.242   3.094   4.741
61549SOL     OW84670  12.087   1.951   5.126
61549SOL    HW184671  12.112   1.931   5.031
61549SOL    HW284672  12.159   2.007   5.168
61550SOL     OW84673  12.152   2.978   5.443
61550SOL    HW184674  12.053   2.984   5.453
61550SOL    HW284675  12.175   2.898   5.387
61551SOL     OW84676  11.877   2.912   4.092
61551SOL    HW184677  11.863   2.919   4.191
61551SOL    HW284678  11.961   2.861   4.074
61552SOL     OW84679  11.582   2.675   4.975
61552SOL    HW184680  11.668   2.687   5.025
61552SOL    HW284681  11.540   2.588   5.002
61553SOL     OW84682  12.446   2.248   4.986
61553SOL    HW184683  12.467   2.322   5.050
61553SOL    HW284684  12.357   2.265   4.943
61554SOL     OW84685  11.236   3.426   5.055
61554SOL    HW184686  11.190   3.508   5.021
61554SOL    HW284687  11.334   3.445   5.064
61555SOL     OW84688  11.539   2.962   4.225
61555SOL    HW184689  11.532   3.045   4.169
61555SOL    HW284690  11.543   2.882   4.165
61556SOL     OW84691  11.738   2.399   4.589
61556SOL    HW184692  11.750   2.465   4.515
61556SOL    HW284693  11.784   2.433   4.672
61557SOL     OW84694  12.424   3.210   4.112
61557SOL    HW184695  12.474   3.287   4.152
61557SOL    HW284696  12.329   3.212   4.144
61558SOL     OW84697  12.444   3.307   4.866
61558SOL    HW184698  12.491   3.320   4.953
61558SOL    HW284699  12.378   3.233   4.875
61559SOL     OW84700  12.754   2.501   4.196
61559SOL    HW184701  12.723   2.562   4.269
61559SOL    HW284702  12.804   2.553   4.127
61560SOL     OW84703  11.526   3.372   5.053
61560SOL    HW184704  11.505   3.328   4.966
61560SOL    HW284705  11.623   3.398   5.056
61561SOL     OW84706  11.574   2.613   5.322
61561SOL    HW184707  11.642   2.668   5.275
61561SOL    HW284708  11.614   2.525   5.349
61562SOL     OW84709  12.185   1.967   5.494
61562SOL    HW184710  12.191   2.052   5.442
61562SOL    HW284711  12.217   1.891   5.437
61563SOL     OW84712  11.676   1.912   5.464
61563SOL    HW184713  11.634   1.855   5.394
61563SOL    HW284714  11.610   1.981   5.496
61564SOL     OW84715  11.745   2.732   4.753
61564SOL    HW184716  11.789   2.821   4.744
61564SOL    HW284717  11.682   2.732   4.830
61565SOL     OW84718  12.532   2.724   4.769
61565SOL    HW184719  12.457   2.724   4.703
61565SOL    HW284720  12.569   2.632   4.778
61566SOL     OW84721  12.381   2.387   3.999
61566SOL    HW184722  12.394   2.303   4.053
61566SOL    HW284723  12.352   2.461   4.059
61567SOL     OW84724  11.479   2.075   4.955
61567SOL    HW184725  11.456   2.112   5.045
61567SOL    HW284726  11.449   1.980   4.949
61568SOL     OW84727  11.209   3.172   5.006
61568SOL    HW184728  11.262   3.123   5.074
61568SOL    HW284729  11.231   3.270   5.011
61569SOL     OW84730  11.904   2.496   4.788
61569SOL    HW184731  11.963   2.470   4.712
61569SOL    HW284732  11.876   2.592   4.777
61570SOL     OW84733  11.479   1.925   4.342
61570SOL    HW184734  11.468   2.019   4.375
61570SOL    HW284735  11.474   1.862   4.419
61571SOL     OW84736  12.794   2.229   4.098
61571SOL    HW184737  12.796   2.153   4.162
61571SOL    HW284738  12.746   2.306   4.138
61572SOL     OW84739  12.195   2.628   4.690
61572SOL    HW184740  12.210   2.649   4.786
61572SOL    HW284741  12.165   2.533   4.681
61573SOL     OW84742  12.152   3.435   5.424
61573SOL    HW184743  12.132   3.479   5.336
61573SOL    HW284744  12.191   3.344   5.408
61574SOL     OW84745  11.522   2.760   5.528
61574SOL    HW184746  11.598   2.804   5.576
61574SOL    HW284747  11.557   2.713   5.446
61575SOL     OW84748  12.712   2.136   3.849
61575SOL    HW184749  12.651   2.061   3.872
61575SOL    HW284750  12.734   2.188   3.932
61576SOL     OW84751  12.475   2.700   3.766
61576SOL    HW184752  12.509   2.607   3.781
61576SOL    HW284753  12.493   2.727   3.671
61577SOL     OW84754  12.240   3.195   4.573
61577SOL    HW184755  12.247   3.111   4.518
61577SOL    HW284756  12.302   3.264   4.537
61578SOL     OW84757  11.491   2.672   4.673
61578SOL    HW184758  11.584   2.708   4.678
61578SOL    HW284759  11.485   2.587   4.725
61579SOL     OW84760  11.511   2.371   4.730
61579SOL    HW184761  11.459   2.288   4.713
61579SOL    HW284762  11.588   2.376   4.666
61580SOL     OW84763  12.310   2.242   5.402
61580SOL    HW184764  12.265   2.305   5.466
61580SOL    HW284765  12.403   2.273   5.385
61581SOL     OW84766  12.332   2.069   5.201
61581SOL    HW184767  12.332   2.133   5.278
61581SOL    HW284768  12.360   2.117   5.118
61582SOL     OW84769  11.180   3.188   3.924
61582SOL    HW184770  11.087   3.209   3.893
61582SOL    HW284771  11.190   3.089   3.937
61583SOL     OW84772  11.260   3.663   4.651
61583SOL    HW184773  11.218   3.577   4.624
61583SOL    HW284774  11.354   3.666   4.617
61584SOL     OW84775  11.676   3.430   4.634
61584SOL    HW184776  11.742   3.504   4.643
61584SOL    HW284777  11.720   3.351   4.592
61585SOL     OW84778  12.174   2.658   4.962
61585SOL    HW184779  12.215   2.626   5.048
61585SOL    HW284780  12.078   2.631   4.959
61586SOL     OW84781  11.212   2.406   4.838
61586SOL    HW184782  11.297   2.373   4.797
61586SOL    HW284783  11.225   2.421   4.936
61587SOL     OW84784  11.361   2.382   5.446
61587SOL    HW184785  11.420   2.342   5.376
61587SOL    HW284786  11.303   2.453   5.405
61588SOL     OW84787  12.541   2.812   5.384
61588SOL    HW184788  12.580   2.901   5.404
61588SOL    HW284789  12.551   2.792   5.287
61589SOL     OW84790  11.987   2.434   4.049
61589SOL    HW184791  11.994   2.345   4.003
61589SOL    HW284792  11.893   2.468   4.041
61590SOL     OW84793  11.424   3.426   5.468
61590SOL    HW184794  11.394   3.483   5.544
61590SOL    HW284795  11.417   3.329   5.494
61591SOL     OW84796  11.843   2.326   4.993
61591SOL    HW184797  11.809   2.237   4.963
61591SOL    HW284798  11.869   2.380   4.913
61592SOL     OW84799  12.102   3.540   5.189
61592SOL    HW184800  12.078   3.522   5.094
61592SOL    HW284801  12.132   3.634   5.199
61593SOL     OW84802  11.645   2.362   3.915
61593SOL    HW184803  11.706   2.442   3.919
61593SOL    HW284804  11.550   2.393   3.922
61594SOL     OW84805  11.331   2.999   5.190
61594SOL    HW184806  11.353   2.938   5.266
61594SOL    HW284807  11.341   2.950   5.104
61595SOL     OW84808  12.519   2.921   4.958
61595SOL    HW184809  12.543   2.858   4.884
61595SOL    HW284810  12.429   2.961   4.940
61596SOL     OW84811  12.474   2.717   4.033
61596SOL    HW184812  12.388   2.686   4.075
61596SOL    HW284813  12.470   2.703   3.934
61597SOL     OW84814  12.424   3.593   4.852
61597SOL    HW184815  12.508   3.598   4.798
61597SOL    HW284816  12.401   3.497   4.870
61598SOL     OW84817  11.255   3.120   4.746
61598SOL    HW184818  11.250   3.119   4.846
61598SOL    HW284819  11.172   3.079   4.708
61599SOL     OW84820  11.860   3.524   5.440
61599SOL    HW184821  11.804   3.605   5.449
61599SOL    HW284822  11.912   3.528   5.354
61600SOL     OW84823  12.898   1.997   4.247
61600SOL    HW184824  12.971   1.980   4.180
61600SOL    HW284825  12.867   1.910   4.285
61601SOL     OW84826  12.560   3.435   4.201
61601SOL    HW184827  12.627   3.447   4.127
61601SOL    HW284828  12.520   3.524   4.224
61602SOL     OW84829  11.302   3.656   5.575
61602SOL    HW184830  11.261   3.582   5.628
61602SOL    HW284831  11.366   3.707   5.633
61603SOL     OW84832  12.452   2.789   4.396
61603SOL    HW184833  12.512   2.708   4.398
61603SOL    HW284834  12.492   2.858   4.336
61604SOL     OW84835  12.002   3.135   5.146
61604SOL    HW184836  11.997   3.168   5.241
61604SOL    HW284837  11.916   3.154   5.100
61605SOL     OW84838  11.844   3.478   3.878
61605SOL    HW184839  11.853   3.488   3.779
61605SOL    HW284840  11.804   3.389   3.899
61606SOL     OW84841  11.435   2.188   4.444
61606SOL    HW184842  11.356   2.239   4.410
61606SOL    HW284843  11.426   2.173   4.542
61607SOL     OW84844  12.366   3.474   3.755
61607SOL    HW184845  12.372   3.381   3.792
61607SOL    HW284846  12.307   3.474   3.675
61608SOL     OW84847  11.994   2.864   5.096
61608SOL    HW184848  12.034   2.863   5.004
61608SOL    HW284849  12.004   2.956   5.136
61609SOL     OW84850  12.088   2.772   4.015
61609SOL    HW184851  12.151   2.810   3.947
61609SOL    HW284852  12.128   2.689   4.054
61610SOL     OW84853  12.676   3.469   3.768
61610SOL    HW184854  12.584   3.506   3.775
61610SOL    HW284855  12.714   3.489   3.678
61611SOL     OW84856  12.211   2.960   4.420
61611SOL    HW184857  12.141   2.913   4.474
61611SOL    HW284858  12.270   2.892   4.377
61612SOL     OW84859  12.186   2.098   4.695
61612SOL    HW184860  12.178   2.062   4.602
61612SOL    HW284861  12.184   2.022   4.760
61613SOL     OW84862  11.762   3.349   4.215
61613SOL    HW184863  11.804   3.291   4.145
61613SOL    HW284864  11.718   3.428   4.171
61614SOL     OW84865  11.427   3.210   4.014
61614SOL    HW184866  11.331   3.211   3.987
61614SOL    HW284867  11.439   3.263   4.098
61615SOL     OW84868  11.277   2.875   5.450
61615SOL    HW184869  11.200   2.842   5.504
61615SOL    HW284870  11.362   2.845   5.492
61616SOL     OW84871  11.844   2.065   5.213
61616SOL    HW184872  11.934   2.049   5.173
61616SOL    HW284873  11.852   2.070   5.312
61617SOL     OW84874  11.247   2.207   3.757
61617SOL    HW184875  11.155   2.179   3.728
61617SOL    HW284876  11.278   2.284   3.701
61618SOL     OW84877  12.612   2.718   5.122
61618SOL    HW184878  12.555   2.770   5.059
61618SOL    HW284879  12.708   2.730   5.098
61619SOL     OW84880  11.244   2.028   4.042
61619SOL    HW184881  11.227   2.111   3.988
61619SOL    HW284882  11.334   1.991   4.020
61620SOL     OW84883  12.355   3.197   3.843
61620SOL    HW184884  12.256   3.186   3.845
61620SOL    HW284885  12.389   3.212   3.936
61621SOL     OW84886  11.785   2.704   5.155
61621SOL    HW184887  11.841   2.785   5.138
61621SOL    HW284888  11.844   2.624   5.158
61622SOL     OW84889  12.665   3.629   4.683
61622SOL    HW184890  12.698   3.693   4.614
61622SOL    HW284891  12.731   3.623   4.758
61623SOL     OW84892  11.888   2.427   5.432
61623SOL    HW184893  11.907   2.492   5.506
61623SOL    HW284894  11.948   2.347   5.441
61624SOL     OW84895  12.622   3.082   5.357
61624SOL    HW184896  12.613   3.072   5.456
61624SOL    HW284897  12.718   3.075   5.331
61625SOL     OW84898  11.562   3.603   5.284
61625SOL    HW184899  11.471   3.644   5.282
61625SOL    HW284900  11.555   3.509   5.316
61626SOL     OW84901  12.397   2.187   4.173
61626SOL    HW184902  12.462   2.113   4.162
61626SOL    HW284903  12.417   2.237   4.257
61627SOL     OW84904  11.766   2.607   4.376
61627SOL    HW184905  11.816   2.692   4.357
61627SOL    HW284906  11.678   2.609   4.328
61628SOL     OW84907  12.031   3.236   3.740
61628SOL    HW184908  11.985   3.251   3.828
61628SOL    HW284909  12.075   3.321   3.710
61629SOL     OW84910  11.833   3.652   4.677
61629SOL    HW184911  11.787   3.740   4.664
61629SOL    HW284912  11.932   3.664   4.670
61630SOL     OW84913  12.031   2.818   4.585
61630SOL    HW184914  12.085   2.749   4.633
61630SOL    HW284915  11.999   2.887   4.651
61631SOL     OW84916  12.255   2.846   3.811
61631SOL    HW184917  12.232   2.899   3.729
61631SOL    HW284918  12.336   2.790   3.792
61632SOL     OW84919  13.033   3.431   4.575
61632SOL    HW184920  12.962   3.419   4.505
61632SOL    HW284921  13.034   3.352   4.635
61633SOL     OW84922  11.393   3.176   5.568
61633SOL    HW184923  11.328   3.103   5.547
61633SOL    HW284924  11.397   3.190   5.666
61634SOL     OW84925  11.251   3.102   4.377
61634SOL    HW184926  11.250   3.055   4.465
61634SOL    HW284927  11.333   3.074   4.326
61635SOL     OW84928  11.844   3.253   5.348
61635SOL    HW184929  11.766   3.203   5.386
61635SOL    HW284930  11.841   3.348   5.379
61636SOL     OW84931  11.600   2.286   4.244
61636SOL    HW184932  11.630   2.214   4.182
61636SOL    HW284933  11.561   2.246   4.327
61637SOL     OW84934  11.489   2.409   5.004
61637SOL    HW184935  11.527   2.350   5.076
61637SOL    HW284936  11.529   2.383   4.916
61638SOL     OW84937  11.984   3.448   4.411
61638SOL    HW184938  12.016   3.458   4.317
61638SOL    HW284939  11.905   3.386   4.413
61639SOL     OW84940  12.596   2.076   4.836
61639SOL    HW184941  12.648   2.011   4.891
61639SOL    HW284942  12.547   2.139   4.897
61640SOL     OW84943  12.173   1.896   4.878
61640SOL    HW184944  12.110   1.824   4.847
61640SOL    HW284945  12.266   1.860   4.878
61641SOL     OW84946  11.942   3.192   4.025
61641SOL    HW184947  11.896   3.105   4.042
61641SOL    HW284948  12.033   3.189   4.066
61642SOL     OW84949  11.790   3.429   5.008
61642SOL    HW184950  11.785   3.511   5.065
61642SOL    HW284951  11.879   3.426   4.963
61643SOL     OW84952  12.524   1.914   3.892
61643SOL    HW184953  12.559   1.873   3.808
61643SOL    HW284954  12.434   1.876   3.912
61644SOL     OW84955  12.472   2.315   4.415
61644SOL    HW184956  12.413   2.395   4.419
61644SOL    HW284957  12.487   2.280   4.508
61645SOL     OW84958  12.765   2.083   4.606
61645SOL    HW184959  12.681   2.082   4.660
61645SOL    HW284960  12.767   2.166   4.550
61646SOL     OW84961  11.211   2.939   4.024
61646SOL    HW184962  11.310   2.928   4.015
61646SOL    HW284963  11.171   2.853   4.056
61647SOL     OW84964  12.047   3.508   4.061
61647SOL    HW184965  11.970   3.473   4.007
61647SOL    HW284966  12.015   3.579   4.123
61648SOL     OW84967  11.402   2.490   5.699
61648SOL    HW184968  11.309   2.488   5.736
61648SOL    HW284969  11.403   2.451   5.607
61649SOL     OW84970  11.397   2.137   6.582
61649SOL    HW184971  11.432   2.120   6.674
61649SOL    HW284972  11.309   2.092   6.570
61650SOL     OW84973  11.191   2.230   6.233
61650SOL    HW184974  11.109   2.273   6.272
61650SOL    HW284975  11.163   2.157   6.170
61651SOL     OW84976  11.741   3.137   6.751
61651SOL    HW184977  11.648   3.130   6.714
61651SOL    HW284978  11.752   3.226   6.795
61652SOL     OW84979  12.727   3.373   6.289
61652SOL    HW184980  12.670   3.357   6.370
61652SOL    HW284981  12.668   3.383   6.209
61653SOL     OW84982  12.307   2.565   6.303
61653SOL    HW184983  12.364   2.643   6.278
61653SOL    HW284984  12.247   2.591   6.379
61654SOL     OW84985  11.940   3.006   6.609
61654SOL    HW184986  11.862   3.023   6.669
61654SOL    HW284987  11.974   3.093   6.573
61655SOL     OW84988  12.022   2.660   7.409
61655SOL    HW184989  12.018   2.736   7.474
61655SOL    HW284990  12.044   2.696   7.318
61656SOL     OW84991  11.857   2.874   6.251
61656SOL    HW184992  11.926   2.858   6.321
61656SOL    HW284993  11.784   2.931   6.289
61657SOL     OW84994  11.858   3.023   7.389
61657SOL    HW184995  11.918   3.102   7.403
61657SOL    HW284996  11.772   3.054   7.348
61658SOL     OW84997  11.507   3.297   6.647
61658SOL    HW184998  11.429   3.266   6.594
61658SOL    HW284999  11.565   3.355   6.590
61659SOL     OW85000  12.632   3.367   6.925
61659SOL    HW185001  12.656   3.461   6.951
61659SOL    HW285002  12.616   3.313   7.007
61660SOL     OW85003  11.610   2.254   7.085
61660SOL    HW185004  11.692   2.198   7.094
61660SOL    HW285005  11.529   2.196   7.089
61661SOL     OW85006  11.403   3.575   6.069
61661SOL    HW185007  11.437   3.652   6.123
61661SOL    HW285008  11.447   3.575   5.979
61662SOL     OW85009  12.299   3.203   7.276
61662SOL    HW185010  12.346   3.203   7.364
61662SOL    HW285011  12.251   3.116   7.265
61663SOL     OW85012  11.402   3.296   6.124
61663SOL    HW185013  11.376   3.392   6.124
61663SOL    HW285014  11.331   3.242   6.169
61664SOL     OW85015  11.412   2.953   6.472
61664SOL    HW185016  11.426   2.869   6.524
61664SOL    HW285017  11.357   3.017   6.527
61665SOL     OW85018  11.792   3.648   7.025
61665SOL    HW185019  11.700   3.631   7.060
61665SOL    HW285020  11.820   3.740   7.051
61666SOL     OW85021  11.778   2.826   5.709
61666SOL    HW185022  11.785   2.910   5.655
61666SOL    HW285023  11.824   2.839   5.797
61667SOL     OW85024  12.766   1.976   7.066
61667SOL    HW185025  12.748   2.043   6.994
61667SOL    HW285026  12.763   2.022   7.155
61668SOL     OW85027  11.294   2.505   6.149
61668SOL    HW185028  11.249   2.417   6.166
61668SOL    HW285029  11.293   2.559   6.233
61669SOL     OW85030  11.199   3.458   5.703
61669SOL    HW185031  11.180   3.362   5.724
61669SOL    HW285032  11.166   3.516   5.778
61670SOL     OW85033  12.861   2.784   6.198
61670SOL    HW185034  12.956   2.755   6.206
61670SOL    HW285035  12.853   2.849   6.123
61671SOL     OW85036  11.285   2.599   7.183
61671SOL    HW185037  11.373   2.586   7.228
61671SOL    HW285038  11.272   2.696   7.161
61672SOL     OW85039  11.785   3.227   6.312
61672SOL    HW185040  11.736   3.140   6.321
61672SOL    HW285041  11.762   3.270   6.225
61673SOL     OW85042  12.465   3.090   7.009
61673SOL    HW185043  12.502   3.017   6.951
61673SOL    HW285044  12.517   3.095   7.094
61674SOL     OW85045  11.981   1.866   6.088
61674SOL    HW185046  12.021   1.957   6.079
61674SOL    HW285047  11.881   1.874   6.094
61675SOL     OW85048  11.369   2.838   6.850
61675SOL    HW185049  11.458   2.793   6.836
61675SOL    HW285050  11.296   2.773   6.831
61676SOL     OW85051  12.359   3.654   7.202
61676SOL    HW185052  12.383   3.714   7.126
61676SOL    HW285053  12.366   3.559   7.172
61677SOL     OW85054  11.489   2.113   7.387
61677SOL    HW185055  11.560   2.184   7.393
61677SOL    HW285056  11.401   2.152   7.415
61678SOL     OW85057  12.638   3.279   6.539
61678SOL    HW185058  12.579   3.285   6.619
61678SOL    HW285059  12.623   3.191   6.493
61679SOL     OW85060  12.839   3.576   6.158
61679SOL    HW185061  12.798   3.553   6.070
61679SOL    HW285062  12.821   3.502   6.223
61680SOL     OW85063  11.770   2.591   5.856
61680SOL    HW185064  11.794   2.660   5.788
61680SOL    HW285065  11.692   2.624   5.910
61681SOL     OW85066  12.453   2.207   6.530
61681SOL    HW185067  12.367   2.157   6.517
61681SOL    HW285068  12.515   2.153   6.586
61682SOL     OW85069  11.979   2.467   7.051
61682SOL    HW185070  11.932   2.464   7.140
61682SOL    HW285071  11.928   2.412   6.985
61683SOL     OW85072  12.566   2.331   7.260
61683SOL    HW185073  12.546   2.374   7.348
61683SOL    HW285074  12.644   2.269   7.269
61684SOL     OW85075  12.145   2.752   7.158
61684SOL    HW185076  12.191   2.668   7.129
61684SOL    HW285077  12.089   2.786   7.083
61685SOL     OW85078  12.163   2.272   6.828
61685SOL    HW185079  12.086   2.306   6.882
61685SOL    HW285080  12.129   2.221   6.749
61686SOL     OW85081  12.213   2.563   6.015
61686SOL    HW185082  12.239   2.559   6.111
61686SOL    HW285083  12.128   2.512   6.001
61687SOL     OW85084  11.248   2.673   6.375
61687SOL    HW185085  11.347   2.661   6.384
61687SOL    HW285086  11.224   2.768   6.396
61688SOL     OW85087  11.302   3.683   7.157
61688SOL    HW185088  11.292   3.668   7.256
61688SOL    HW285089  11.216   3.719   7.121
61689SOL     OW85090  12.037   2.210   5.781
61689SOL    HW185091  12.096   2.273   5.732
61689SOL    HW285092  12.056   2.116   5.752
61690SOL     OW85093  12.534   3.006   6.131
61690SOL    HW185094  12.617   2.977   6.083
61690SOL    HW285095  12.485   3.073   6.075
61691SOL     OW85096  11.722   2.058   6.471
61691SOL    HW185097  11.717   2.053   6.571
61691SOL    HW285098  11.724   2.154   6.442
61692SOL     OW85099  12.180   3.318   6.063
61692SOL    HW185100  12.134   3.390   6.011
61692SOL    HW285101  12.176   3.338   6.161
61693SOL     OW85102  11.523   3.663   6.439
61693SOL    HW185103  11.573   3.577   6.445
61693SOL    HW285104  11.588   3.740   6.436
61694SOL     OW85105  12.399   3.412   7.092
61694SOL    HW185106  12.405   3.335   7.156
61694SOL    HW285107  12.347   3.386   7.012
61695SOL     OW85108  11.493   2.805   5.828
61695SOL    HW185109  11.575   2.844   5.786
61695SOL    HW285110  11.466   2.723   5.779
61696SOL     OW85111  12.630   2.597   6.314
61696SOL    HW185112  12.625   2.532   6.389
61696SOL    HW285113  12.710   2.656   6.327
61697SOL     OW85114  11.633   3.128   7.313
61697SOL    HW185115  11.583   3.129   7.227
61697SOL    HW285116  11.570   3.110   7.389
61698SOL     OW85117  12.283   3.638   5.823
61698SOL    HW185118  12.223   3.576   5.873
61698SOL    HW285119  12.314   3.594   5.738
61699SOL     OW85120  11.374   2.147   7.084
61699SOL    HW185121  11.294   2.207   7.071
61699SOL    HW285122  11.364   2.098   7.170
61700SOL     OW85123  11.636   3.605   5.909
61700SOL    HW185124  11.669   3.644   5.995
61700SOL    HW285125  11.712   3.598   5.844
61701SOL     OW85126  12.572   1.969   6.012
61701SOL    HW185127  12.548   1.932   5.922
61701SOL    HW285128  12.671   1.985   6.016
61702SOL     OW85129  11.421   3.647   6.827
61702SOL    HW185130  11.478   3.582   6.877
61702SOL    HW285131  11.405   3.614   6.734
61703SOL     OW85132  12.112   3.560   6.490
61703SOL    HW185133  12.192   3.503   6.511
61703SOL    HW285134  12.063   3.520   6.413
61704SOL     OW85135  11.554   2.562   6.066
61704SOL    HW185136  11.599   2.472   6.063
61704SOL    HW285137  11.460   2.551   6.099
61705SOL     OW85138  11.786   1.984   5.703
61705SOL    HW185139  11.884   1.962   5.710
61705SOL    HW285140  11.755   1.967   5.610
61706SOL     OW85141  11.953   2.126   7.335
61706SOL    HW185142  12.020   2.065   7.378
61706SOL    HW285143  11.880   2.145   7.400
61707SOL     OW85144  12.060   3.376   6.781
61707SOL    HW185145  12.037   3.351   6.687
61707SOL    HW285146  12.121   3.307   6.820
61708SOL     OW85147  12.523   2.452   7.019
61708SOL    HW185148  12.551   2.409   7.104
61708SOL    HW285149  12.548   2.548   7.020
61709SOL     OW85150  11.975   3.264   6.510
61709SOL    HW185151  12.065   3.278   6.468
61709SOL    HW285152  11.904   3.266   6.439
61710SOL     OW85153  12.094   2.365   6.485
61710SOL    HW185154  12.069   2.356   6.389
61710SOL    HW285155  12.142   2.283   6.516
61711SOL     OW85156  11.711   1.926   6.098
61711SOL    HW185157  11.630   1.927   6.156
61711SOL    HW285158  11.714   2.009   6.043
61712SOL     OW85159  12.606   3.050   5.627
61712SOL    HW185160  12.638   2.974   5.684
61712SOL    HW285161  12.514   3.077   5.657
61713SOL     OW85162  11.469   1.897   5.757
61713SOL    HW185163  11.518   1.981   5.736
61713SOL    HW285164  11.531   1.832   5.802
61714SOL     OW85165  12.107   2.098   6.066
61714SOL    HW185166  12.059   2.139   5.988
61714SOL    HW285167  12.206   2.096   6.047
61715SOL     OW85168  12.248   2.545   7.050
61715SOL    HW185169  12.168   2.484   7.053
61715SOL    HW285170  12.329   2.492   7.026
61716SOL     OW85171  12.399   3.432   6.379
61716SOL    HW185172  12.420   3.506   6.314
61716SOL    HW285173  12.467   3.432   6.452
61717SOL     OW85174  11.631   3.014   6.327
61717SOL    HW185175  11.560   2.987   6.392
61717SOL    HW285176  11.605   2.986   6.234
61718SOL     OW85177  12.443   3.659   6.177
61718SOL    HW185178  12.487   3.723   6.113
61718SOL    HW285179  12.393   3.711   6.247
61719SOL     OW85180  12.204   2.411   5.602
61719SOL    HW185181  12.163   2.493   5.563
61719SOL    HW285182  12.268   2.437   5.675
61720SOL     OW85183  11.250   2.418   6.972
61720SOL    HW185184  11.342   2.417   6.931
61720SOL    HW285185  11.244   2.492   7.039
61721SOL     OW85186  11.733   2.084   6.733
61721SOL    HW185187  11.771   2.000   6.770
61721SOL    HW285188  11.645   2.103   6.777
61722SOL     OW85189  12.038   2.316   6.228
61722SOL    HW185190  12.006   2.388   6.166
61722SOL    HW285191  12.062   2.235   6.175
61723SOL     OW85192  12.189   1.901   6.339
61723SOL    HW185193  12.117   1.906   6.270
61723SOL    HW285194  12.165   1.832   6.408
61724SOL     OW85195  12.601   3.035   6.453
61724SOL    HW185196  12.546   2.951   6.446
61724SOL    HW285197  12.627   3.064   6.361
61725SOL     OW85198  12.638   2.452   6.578
61725SOL    HW185199  12.608   2.357   6.585
61725SOL    HW285200  12.711   2.468   6.644
61726SOL     OW85201  11.660   3.247   5.760
61726SOL    HW185202  11.573   3.232   5.807
61726SOL    HW285203  11.643   3.273   5.665
61727SOL     OW85204  12.562   2.437   5.664
61727SOL    HW185205  12.508   2.416   5.745
61727SOL    HW285206  12.653   2.396   5.673
61728SOL     OW85207  11.699   2.118   5.914
61728SOL    HW185208  11.726   2.059   5.839
61728SOL    HW285209  11.699   2.213   5.883
61729SOL     OW85210  12.236   3.209   6.926
61729SOL    HW185211  12.156   3.186   6.981
61729SOL    HW285212  12.319   3.183   6.975
61730SOL     OW85213  12.764   3.491   7.211
61730SOL    HW185214  12.791   3.525   7.121
61730SOL    HW285215  12.843   3.453   7.257
61731SOL     OW85216  12.283   3.057   6.686
61731SOL    HW185217  12.243   3.101   6.767
61731SOL    HW285218  12.242   3.094   6.603
61732SOL     OW85219  12.087   1.951   6.988
61732SOL    HW185220  12.112   1.931   6.893
61732SOL    HW285221  12.159   2.007   7.030
61733SOL     OW85222  12.152   2.978   7.305
61733SOL    HW185223  12.053   2.984   7.315
61733SOL    HW285224  12.175   2.898   7.249
61734SOL     OW85225  11.877   2.912   5.954
61734SOL    HW185226  11.863   2.919   6.053
61734SOL    HW285227  11.961   2.861   5.936
61735SOL     OW85228  11.582   2.675   6.837
61735SOL    HW185229  11.668   2.687   6.887
61735SOL    HW285230  11.540   2.588   6.864
61736SOL     OW85231  12.446   2.248   6.848
61736SOL    HW185232  12.467   2.322   6.912
61736SOL    HW285233  12.357   2.265   6.805
61737SOL     OW85234  11.236   3.426   6.917
61737SOL    HW185235  11.190   3.508   6.883
61737SOL    HW285236  11.334   3.445   6.926
61738SOL     OW85237  11.539   2.962   6.087
61738SOL    HW185238  11.532   3.045   6.031
61738SOL    HW285239  11.543   2.882   6.027
61739SOL     OW85240  11.738   2.399   6.451
61739SOL    HW185241  11.750   2.465   6.377
61739SOL    HW285242  11.784   2.433   6.534
61740SOL     OW85243  12.424   3.210   5.974
61740SOL    HW185244  12.474   3.287   6.014
61740SOL    HW285245  12.329   3.212   6.006
61741SOL     OW85246  12.444   3.307   6.728
61741SOL    HW185247  12.491   3.320   6.815
61741SOL    HW285248  12.378   3.233   6.737
61742SOL     OW85249  12.754   2.501   6.058
61742SOL    HW185250  12.723   2.562   6.131
61742SOL    HW285251  12.804   2.553   5.989
61743SOL     OW85252  11.526   3.372   6.915
61743SOL    HW185253  11.505   3.328   6.828
61743SOL    HW285254  11.623   3.398   6.918
61744SOL     OW85255  11.574   2.613   7.184
61744SOL    HW185256  11.642   2.668   7.137
61744SOL    HW285257  11.614   2.525   7.211
61745SOL     OW85258  12.185   1.967   7.356
61745SOL    HW185259  12.191   2.052   7.304
61745SOL    HW285260  12.217   1.891   7.299
61746SOL     OW85261  11.676   1.912   7.326
61746SOL    HW185262  11.634   1.855   7.256
61746SOL    HW285263  11.610   1.981   7.358
61747SOL     OW85264  11.745   2.732   6.615
61747SOL    HW185265  11.789   2.821   6.606
61747SOL    HW285266  11.682   2.732   6.692
61748SOL     OW85267  12.532   2.724   6.631
61748SOL    HW185268  12.457   2.724   6.565
61748SOL    HW285269  12.569   2.632   6.640
61749SOL     OW85270  12.381   2.387   5.861
61749SOL    HW185271  12.394   2.303   5.915
61749SOL    HW285272  12.352   2.461   5.921
61750SOL     OW85273  11.479   2.075   6.817
61750SOL    HW185274  11.456   2.112   6.907
61750SOL    HW285275  11.449   1.980   6.811
61751SOL     OW85276  11.209   3.172   6.868
61751SOL    HW185277  11.262   3.123   6.936
61751SOL    HW285278  11.231   3.270   6.873
61752SOL     OW85279  11.904   2.496   6.650
61752SOL    HW185280  11.963   2.470   6.574
61752SOL    HW285281  11.876   2.592   6.639
61753SOL     OW85282  11.479   1.925   6.204
61753SOL    HW185283  11.468   2.019   6.237
61753SOL    HW285284  11.474   1.862   6.281
61754SOL     OW85285  12.794   2.229   5.960
61754SOL    HW185286  12.796   2.153   6.024
61754SOL    HW285287  12.746   2.306   6.000
61755SOL     OW85288  12.195   2.628   6.552
61755SOL    HW185289  12.210   2.649   6.648
61755SOL    HW285290  12.165   2.533   6.543
61756SOL     OW85291  12.152   3.435   7.286
61756SOL    HW185292  12.132   3.479   7.198
61756SOL    HW285293  12.191   3.344   7.270
61757SOL     OW85294  11.522   2.760   7.390
61757SOL    HW185295  11.598   2.804   7.438
61757SOL    HW285296  11.557   2.713   7.308
61758SOL     OW85297  12.712   2.136   5.711
61758SOL    HW185298  12.651   2.061   5.734
61758SOL    HW285299  12.734   2.188   5.794
61759SOL     OW85300  12.475   2.700   5.628
61759SOL    HW185301  12.509   2.607   5.643
61759SOL    HW285302  12.493   2.727   5.533
61760SOL     OW85303  12.240   3.195   6.435
61760SOL    HW185304  12.247   3.111   6.380
61760SOL    HW285305  12.302   3.264   6.399
61761SOL     OW85306  11.491   2.672   6.535
61761SOL    HW185307  11.584   2.708   6.540
61761SOL    HW285308  11.485   2.587   6.587
61762SOL     OW85309  11.511   2.371   6.592
61762SOL    HW185310  11.459   2.288   6.575
61762SOL    HW285311  11.588   2.376   6.528
61763SOL     OW85312  12.310   2.242   7.264
61763SOL    HW185313  12.265   2.305   7.328
61763SOL    HW285314  12.403   2.273   7.247
61764SOL     OW85315  12.332   2.069   7.063
61764SOL    HW185316  12.332   2.133   7.140
61764SOL    HW285317  12.360   2.117   6.980
61765SOL     OW85318  11.180   3.188   5.786
61765SOL    HW185319  11.087   3.209   5.755
61765SOL    HW285320  11.190   3.089   5.799
61766SOL     OW85321  11.260   3.663   6.513
61766SOL    HW185322  11.218   3.577   6.486
61766SOL    HW285323  11.354   3.666   6.479
61767SOL     OW85324  11.676   3.430   6.496
61767SOL    HW185325  11.742   3.504   6.505
61767SOL    HW285326  11.720   3.351   6.454
61768SOL     OW85327  12.174   2.658   6.824
61768SOL    HW185328  12.215   2.626   6.910
61768SOL    HW285329  12.078   2.631   6.821
61769SOL     OW85330  11.212   2.406   6.700
61769SOL    HW185331  11.297   2.373   6.659
61769SOL    HW285332  11.225   2.421   6.798
61770SOL     OW85333  11.361   2.382   7.308
61770SOL    HW185334  11.420   2.342   7.238
61770SOL    HW285335  11.303   2.453   7.267
61771SOL     OW85336  12.541   2.812   7.246
61771SOL    HW185337  12.580   2.901   7.266
61771SOL    HW285338  12.551   2.792   7.149
61772SOL     OW85339  11.987   2.434   5.911
61772SOL    HW185340  11.994   2.345   5.865
61772SOL    HW285341  11.893   2.468   5.903
61773SOL     OW85342  11.424   3.426   7.330
61773SOL    HW185343  11.394   3.483   7.406
61773SOL    HW285344  11.417   3.329   7.356
61774SOL     OW85345  11.843   2.326   6.855
61774SOL    HW185346  11.809   2.237   6.825
61774SOL    HW285347  11.869   2.380   6.775
61775SOL     OW85348  12.102   3.540   7.051
61775SOL    HW185349  12.078   3.522   6.956
61775SOL    HW285350  12.132   3.634   7.061
61776SOL     OW85351  11.645   2.362   5.777
61776SOL    HW185352  11.706   2.442   5.781
61776SOL    HW285353  11.550   2.393   5.784
61777SOL     OW85354  11.331   2.999   7.052
61777SOL    HW185355  11.353   2.938   7.128
61777SOL    HW285356  11.341   2.950   6.966
61778SOL     OW85357  12.519   2.921   6.820
61778SOL    HW185358  12.543   2.858   6.746
61778SOL    HW285359  12.429   2.961   6.802
61779SOL     OW85360  12.474   2.717   5.895
61779SOL    HW185361  12.388   2.686   5.937
61779SOL    HW285362  12.470   2.703   5.796
61780SOL     OW85363  12.424   3.593   6.714
61780SOL    HW185364  12.508   3.598   6.660
61780SOL    HW285365  12.401   3.497   6.732
61781SOL     OW85366  11.255   3.120   6.608
61781SOL    HW185367  11.250   3.119   6.708
61781SOL    HW285368  11.172   3.079   6.570
61782SOL     OW85369  11.860   3.524   7.302
61782SOL    HW185370  11.804   3.605   7.311
61782SOL    HW285371  11.912   3.528   7.216
61783SOL     OW85372  12.898   1.997   6.109
61783SOL    HW185373  12.971   1.980   6.042
61783SOL    HW285374  12.867   1.910   6.147
61784SOL     OW85375  12.560   3.435   6.063
61784SOL    HW185376  12.627   3.447   5.989
61784SOL    HW285377  12.520   3.524   6.086
61785SOL     OW85378  11.302   3.656   7.437
61785SOL    HW185379  11.261   3.582   7.490
61785SOL    HW285380  11.366   3.707   7.495
61786SOL     OW85381  12.452   2.789   6.258
61786SOL    HW185382  12.512   2.708   6.260
61786SOL    HW285383  12.492   2.858   6.198
61787SOL     OW85384  12.002   3.135   7.008
61787SOL    HW185385  11.997   3.168   7.103
61787SOL    HW285386  11.916   3.154   6.962
61788SOL     OW85387  11.844   3.478   5.740
61788SOL    HW185388  11.853   3.488   5.641
61788SOL    HW285389  11.804   3.389   5.761
61789SOL     OW85390  11.435   2.188   6.306
61789SOL    HW185391  11.356   2.239   6.272
61789SOL    HW285392  11.426   2.173   6.404
61790SOL     OW85393  12.366   3.474   5.617
61790SOL    HW185394  12.372   3.381   5.654
61790SOL    HW285395  12.307   3.474   5.537
61791SOL     OW85396  11.994   2.864   6.958
61791SOL    HW185397  12.034   2.863   6.866
61791SOL    HW285398  12.004   2.956   6.998
61792SOL     OW85399  12.088   2.772   5.877
61792SOL    HW185400  12.151   2.810   5.809
61792SOL    HW285401  12.128   2.689   5.916
61793SOL     OW85402  12.676   3.469   5.630
61793SOL    HW185403  12.584   3.506   5.637
61793SOL    HW285404  12.714   3.489   5.540
61794SOL     OW85405  11.544   3.150   7.076
61794SOL    HW185406  11.531   3.243   7.042
61794SOL    HW285407  11.460   3.098   7.063
61795SOL     OW85408  12.211   2.960   6.282
61795SOL    HW185409  12.141   2.913   6.336
61795SOL    HW285410  12.270   2.892   6.239
61796SOL     OW85411  12.186   2.098   6.557
61796SOL    HW185412  12.178   2.062   6.464
61796SOL    HW285413  12.184   2.022   6.622
61797SOL     OW85414  11.762   3.349   6.077
61797SOL    HW185415  11.804   3.291   6.007
61797SOL    HW285416  11.718   3.428   6.033
61798SOL     OW85417  11.427   3.210   5.876
61798SOL    HW185418  11.331   3.211   5.849
61798SOL    HW285419  11.439   3.263   5.960
61799SOL     OW85420  11.277   2.875   7.312
61799SOL    HW185421  11.200   2.842   7.366
61799SOL    HW285422  11.362   2.845   7.354
61800SOL     OW85423  11.844   2.065   7.075
61800SOL    HW185424  11.934   2.049   7.035
61800SOL    HW285425  11.852   2.070   7.174
61801SOL     OW85426  11.247   2.207   5.619
61801SOL    HW185427  11.155   2.179   5.590
61801SOL    HW285428  11.278   2.284   5.563
61802SOL     OW85429  12.612   2.718   6.984
61802SOL    HW185430  12.555   2.770   6.921
61802SOL    HW285431  12.708   2.730   6.960
61803SOL     OW85432  11.244   2.028   5.904
61803SOL    HW185433  11.227   2.111   5.850
61803SOL    HW285434  11.334   1.991   5.882
61804SOL     OW85435  12.355   3.197   5.705
61804SOL    HW185436  12.256   3.186   5.707
61804SOL    HW285437  12.389   3.212   5.798
61805SOL     OW85438  11.785   2.704   7.017
61805SOL    HW185439  11.841   2.785   7.000
61805SOL    HW285440  11.844   2.624   7.020
61806SOL     OW85441  12.665   3.629   6.545
61806SOL    HW185442  12.698   3.693   6.476
61806SOL    HW285443  12.731   3.623   6.620
61807SOL     OW85444  11.888   2.427   7.294
61807SOL    HW185445  11.907   2.492   7.368
61807SOL    HW285446  11.948   2.347   7.303
61808SOL     OW85447  12.622   3.082   7.219
61808SOL    HW185448  12.613   3.072   7.318
61808SOL    HW285449  12.718   3.075   7.193
61809SOL     OW85450  11.562   3.603   7.146
61809SOL    HW185451  11.471   3.644   7.144
61809SOL    HW285452  11.555   3.509   7.178
61810SOL     OW85453  12.397   2.187   6.035
61810SOL    HW185454  12.462   2.113   6.024
61810SOL    HW285455  12.417   2.237   6.119
61811SOL     OW85456  11.766   2.607   6.238
61811SOL    HW185457  11.816   2.692   6.219
61811SOL    HW285458  11.678   2.609   6.190
61812SOL     OW85459  12.031   3.236   5.602
61812SOL    HW185460  11.985   3.251   5.690
61812SOL    HW285461  12.075   3.321   5.572
61813SOL     OW85462  11.833   3.652   6.539
61813SOL    HW185463  11.787   3.740   6.526
61813SOL    HW285464  11.932   3.664   6.532
61814SOL     OW85465  12.031   2.818   6.447
61814SOL    HW185466  12.085   2.749   6.495
61814SOL    HW285467  11.999   2.887   6.513
61815SOL     OW85468  12.255   2.846   5.673
61815SOL    HW185469  12.232   2.899   5.591
61815SOL    HW285470  12.336   2.790   5.654
61816SOL     OW85471  13.033   3.431   6.437
61816SOL    HW185472  12.962   3.419   6.367
61816SOL    HW285473  13.034   3.352   6.497
61817SOL     OW85474  11.393   3.176   7.430
61817SOL    HW185475  11.328   3.103   7.409
61817SOL    HW285476  11.397   3.190   7.528
61818SOL     OW85477  11.251   3.102   6.239
61818SOL    HW185478  11.250   3.055   6.327
61818SOL    HW285479  11.333   3.074   6.188
61819SOL     OW85480  11.844   3.253   7.210
61819SOL    HW185481  11.766   3.203   7.248
61819SOL    HW285482  11.841   3.348   7.241
61820SOL     OW85483  11.600   2.286   6.106
61820SOL    HW185484  11.630   2.214   6.044
61820SOL    HW285485  11.561   2.246   6.189
61821SOL     OW85486  11.489   2.409   6.866
61821SOL    HW185487  11.527   2.350   6.938
61821SOL    HW285488  11.529   2.383   6.778
61822SOL     OW85489  11.984   3.448   6.273
61822SOL    HW185490  12.016   3.458   6.179
61822SOL    HW285491  11.905   3.386   6.275
61823SOL     OW85492  12.596   2.076   6.698
61823SOL    HW185493  12.648   2.011   6.753
61823SOL    HW285494  12.547   2.139   6.759
61824SOL     OW85495  12.173   1.896   6.740
61824SOL    HW185496  12.110   1.824   6.709
61824SOL    HW285497  12.266   1.860   6.740
61825SOL     OW85498  11.942   3.192   5.887
61825SOL    HW185499  11.896   3.105   5.904
61825SOL    HW285500  12.033   3.189   5.928
61826SOL     OW85501  11.790   3.429   6.870
61826SOL    HW185502  11.785   3.511   6.927
61826SOL    HW285503  11.879   3.426   6.825
61827SOL     OW85504  12.524   1.914   5.754
61827SOL    HW185505  12.559   1.873   5.670
61827SOL    HW285506  12.434   1.876   5.774
61828SOL     OW85507  12.472   2.315   6.277
61828SOL    HW185508  12.413   2.395   6.281
61828SOL    HW285509  12.487   2.280   6.370
61829SOL     OW85510  12.765   2.083   6.468
61829SOL    HW185511  12.681   2.082   6.522
61829SOL    HW285512  12.767   2.166   6.412
61830SOL     OW85513  11.211   2.939   5.886
61830SOL    HW185514  11.310   2.928   5.877
61830SOL    HW285515  11.171   2.853   5.918
61831SOL     OW85516  12.047   3.508   5.923
61831SOL    HW185517  11.970   3.473   5.869
61831SOL    HW285518  12.015   3.579   5.985
61832SOL     OW85519  11.402   2.490   7.561
61832SOL    HW185520  11.309   2.488   7.598
61832SOL    HW285521  11.403   2.451   7.469
61833SOL     OW85522  11.397   2.137   8.444
61833SOL    HW185523  11.432   2.120   8.536
61833SOL    HW285524  11.309   2.092   8.432
61834SOL     OW85525  11.191   2.230   8.095
61834SOL    HW185526  11.109   2.273   8.134
61834SOL    HW285527  11.163   2.157   8.032
61835SOL     OW85528  11.741   3.137   8.613
61835SOL    HW185529  11.648   3.130   8.576
61835SOL    HW285530  11.752   3.226   8.657
61836SOL     OW85531  12.727   3.373   8.151
61836SOL    HW185532  12.670   3.357   8.232
61836SOL    HW285533  12.668   3.383   8.071
61837SOL     OW85534  12.307   2.565   8.165
61837SOL    HW185535  12.364   2.643   8.140
61837SOL    HW285536  12.247   2.591   8.241
61838SOL     OW85537  11.940   3.006   8.471
61838SOL    HW185538  11.862   3.023   8.531
61838SOL    HW285539  11.974   3.093   8.435
61839SOL     OW85540  12.022   2.660   9.271
61839SOL    HW185541  12.018   2.736   9.336
61839SOL    HW285542  12.044   2.696   9.180
61840SOL     OW85543  11.857   2.874   8.113
61840SOL    HW185544  11.926   2.858   8.183
61840SOL    HW285545  11.784   2.931   8.151
61841SOL     OW85546  11.858   3.023   9.251
61841SOL    HW185547  11.918   3.102   9.265
61841SOL    HW285548  11.772   3.054   9.210
61842SOL     OW85549  11.507   3.297   8.509
61842SOL    HW185550  11.429   3.266   8.456
61842SOL    HW285551  11.565   3.355   8.452
61843SOL     OW85552  12.632   3.367   8.787
61843SOL    HW185553  12.656   3.461   8.813
61843SOL    HW285554  12.616   3.313   8.869
61844SOL     OW85555  11.610   2.254   8.947
61844SOL    HW185556  11.692   2.198   8.956
61844SOL    HW285557  11.529   2.196   8.951
61845SOL     OW85558  11.403   3.575   7.931
61845SOL    HW185559  11.437   3.652   7.985
61845SOL    HW285560  11.447   3.575   7.841
61846SOL     OW85561  12.299   3.203   9.138
61846SOL    HW185562  12.346   3.203   9.226
61846SOL    HW285563  12.251   3.116   9.127
61847SOL     OW85564  11.402   3.296   7.986
61847SOL    HW185565  11.376   3.392   7.986
61847SOL    HW285566  11.331   3.242   8.031
61848SOL     OW85567  11.412   2.953   8.334
61848SOL    HW185568  11.426   2.869   8.386
61848SOL    HW285569  11.357   3.017   8.389
61849SOL     OW85570  11.792   3.648   8.887
61849SOL    HW185571  11.700   3.631   8.922
61849SOL    HW285572  11.820   3.740   8.913
61850SOL     OW85573  11.778   2.826   7.571
61850SOL    HW185574  11.785   2.910   7.517
61850SOL    HW285575  11.824   2.839   7.659
61851SOL     OW85576  12.766   1.976   8.928
61851SOL    HW185577  12.748   2.043   8.856
61851SOL    HW285578  12.763   2.022   9.017
61852SOL     OW85579  11.294   2.505   8.011
61852SOL    HW185580  11.249   2.417   8.028
61852SOL    HW285581  11.293   2.559   8.095
61853SOL     OW85582  11.199   3.458   7.565
61853SOL    HW185583  11.180   3.362   7.586
61853SOL    HW285584  11.166   3.516   7.640
61854SOL     OW85585  12.861   2.784   8.060
61854SOL    HW185586  12.956   2.755   8.068
61854SOL    HW285587  12.853   2.849   7.985
61855SOL     OW85588  11.285   2.599   9.045
61855SOL    HW185589  11.373   2.586   9.090
61855SOL    HW285590  11.272   2.696   9.023
61856SOL     OW85591  11.785   3.227   8.174
61856SOL    HW185592  11.736   3.140   8.183
61856SOL    HW285593  11.762   3.270   8.087
61857SOL     OW85594  12.465   3.090   8.871
61857SOL    HW185595  12.502   3.017   8.813
61857SOL    HW285596  12.517   3.095   8.956
61858SOL     OW85597  11.981   1.866   7.950
61858SOL    HW185598  12.021   1.957   7.941
61858SOL    HW285599  11.881   1.874   7.956
61859SOL     OW85600  11.369   2.838   8.712
61859SOL    HW185601  11.458   2.793   8.698
61859SOL    HW285602  11.296   2.773   8.693
61860SOL     OW85603  12.359   3.654   9.064
61860SOL    HW185604  12.383   3.714   8.988
61860SOL    HW285605  12.366   3.559   9.034
61861SOL     OW85606  11.489   2.113   9.249
61861SOL    HW185607  11.560   2.184   9.255
61861SOL    HW285608  11.401   2.152   9.277
61862SOL     OW85609  12.638   3.279   8.401
61862SOL    HW185610  12.579   3.285   8.481
61862SOL    HW285611  12.623   3.191   8.355
61863SOL     OW85612  12.839   3.576   8.020
61863SOL    HW185613  12.798   3.553   7.932
61863SOL    HW285614  12.821   3.502   8.085
61864SOL     OW85615  11.770   2.591   7.718
61864SOL    HW185616  11.794   2.660   7.650
61864SOL    HW285617  11.692   2.624   7.772
61865SOL     OW85618  12.453   2.207   8.392
61865SOL    HW185619  12.367   2.157   8.379
61865SOL    HW285620  12.515   2.153   8.448
61866SOL     OW85621  11.979   2.467   8.913
61866SOL    HW185622  11.932   2.464   9.002
61866SOL    HW285623  11.928   2.412   8.847
61867SOL     OW85624  12.566   2.331   9.122
61867SOL    HW185625  12.546   2.374   9.210
61867SOL    HW285626  12.644   2.269   9.131
61868SOL     OW85627  12.145   2.752   9.020
61868SOL    HW185628  12.191   2.668   8.991
61868SOL    HW285629  12.089   2.786   8.945
61869SOL     OW85630  12.163   2.272   8.690
61869SOL    HW185631  12.086   2.306   8.744
61869SOL    HW285632  12.129   2.221   8.611
61870SOL     OW85633  12.213   2.563   7.877
61870SOL    HW185634  12.239   2.559   7.973
61870SOL    HW285635  12.128   2.512   7.863
61871SOL     OW85636  11.248   2.673   8.237
61871SOL    HW185637  11.347   2.661   8.246
61871SOL    HW285638  11.224   2.768   8.258
61872SOL     OW85639  11.302   3.683   9.019
61872SOL    HW185640  11.292   3.668   9.118
61872SOL    HW285641  11.216   3.719   8.983
61873SOL     OW85642  12.037   2.210   7.643
61873SOL    HW185643  12.096   2.273   7.594
61873SOL    HW285644  12.056   2.116   7.614
61874SOL     OW85645  12.534   3.006   7.993
61874SOL    HW185646  12.617   2.977   7.945
61874SOL    HW285647  12.485   3.073   7.937
61875SOL     OW85648  11.722   2.058   8.333
61875SOL    HW185649  11.717   2.053   8.433
61875SOL    HW285650  11.724   2.154   8.304
61876SOL     OW85651  12.180   3.318   7.925
61876SOL    HW185652  12.134   3.390   7.873
61876SOL    HW285653  12.176   3.338   8.023
61877SOL     OW85654  11.523   3.663   8.301
61877SOL    HW185655  11.573   3.577   8.307
61877SOL    HW285656  11.588   3.740   8.298
61878SOL     OW85657  12.399   3.412   8.954
61878SOL    HW185658  12.405   3.335   9.018
61878SOL    HW285659  12.347   3.386   8.874
61879SOL     OW85660  11.493   2.805   7.690
61879SOL    HW185661  11.575   2.844   7.648
61879SOL    HW285662  11.466   2.723   7.641
61880SOL     OW85663  11.633   3.128   9.175
61880SOL    HW185664  11.583   3.129   9.089
61880SOL    HW285665  11.570   3.110   9.251
61881SOL     OW85666  12.283   3.638   7.685
61881SOL    HW185667  12.223   3.576   7.735
61881SOL    HW285668  12.314   3.594   7.600
61882SOL     OW85669  11.374   2.147   8.946
61882SOL    HW185670  11.294   2.207   8.933
61882SOL    HW285671  11.364   2.098   9.032
61883SOL     OW85672  11.636   3.605   7.771
61883SOL    HW185673  11.669   3.644   7.857
61883SOL    HW285674  11.712   3.598   7.706
61884SOL     OW85675  12.572   1.969   7.874
61884SOL    HW185676  12.548   1.932   7.784
61884SOL    HW285677  12.671   1.985   7.878
61885SOL     OW85678  11.421   3.647   8.689
61885SOL    HW185679  11.478   3.582   8.739
61885SOL    HW285680  11.405   3.614   8.596
61886SOL     OW85681  12.112   3.560   8.352
61886SOL    HW185682  12.192   3.503   8.373
61886SOL    HW285683  12.063   3.520   8.275
61887SOL     OW85684  11.554   2.562   7.928
61887SOL    HW185685  11.599   2.472   7.925
61887SOL    HW285686  11.460   2.551   7.961
61888SOL     OW85687  11.786   1.984   7.565
61888SOL    HW185688  11.884   1.962   7.572
61888SOL    HW285689  11.755   1.967   7.472
61889SOL     OW85690  11.953   2.126   9.197
61889SOL    HW185691  12.020   2.065   9.240
61889SOL    HW285692  11.880   2.145   9.262
61890SOL     OW85693  12.060   3.376   8.643
61890SOL    HW185694  12.037   3.351   8.549
61890SOL    HW285695  12.121   3.307   8.682
61891SOL     OW85696  12.523   2.452   8.881
61891SOL    HW185697  12.551   2.409   8.966
61891SOL    HW285698  12.548   2.548   8.882
61892SOL     OW85699  11.975   3.264   8.372
61892SOL    HW185700  12.065   3.278   8.330
61892SOL    HW285701  11.904   3.266   8.301
61893SOL     OW85702  12.094   2.365   8.347
61893SOL    HW185703  12.069   2.356   8.251
61893SOL    HW285704  12.142   2.283   8.378
61894SOL     OW85705  11.711   1.926   7.960
61894SOL    HW185706  11.630   1.927   8.018
61894SOL    HW285707  11.714   2.009   7.905
61895SOL     OW85708  12.606   3.050   7.489
61895SOL    HW185709  12.638   2.974   7.546
61895SOL    HW285710  12.514   3.077   7.519
61896SOL     OW85711  11.469   1.897   7.619
61896SOL    HW185712  11.518   1.981   7.598
61896SOL    HW285713  11.531   1.832   7.664
61897SOL     OW85714  12.107   2.098   7.928
61897SOL    HW185715  12.059   2.139   7.850
61897SOL    HW285716  12.206   2.096   7.909
61898SOL     OW85717  12.248   2.545   8.912
61898SOL    HW185718  12.168   2.484   8.915
61898SOL    HW285719  12.329   2.492   8.888
61899SOL     OW85720  12.399   3.432   8.241
61899SOL    HW185721  12.420   3.506   8.176
61899SOL    HW285722  12.467   3.432   8.314
61900SOL     OW85723  11.631   3.014   8.189
61900SOL    HW185724  11.560   2.987   8.254
61900SOL    HW285725  11.605   2.986   8.096
61901SOL     OW85726  12.443   3.659   8.039
61901SOL    HW185727  12.487   3.723   7.975
61901SOL    HW285728  12.393   3.711   8.109
61902SOL     OW85729  12.204   2.411   7.464
61902SOL    HW185730  12.163   2.493   7.425
61902SOL    HW285731  12.268   2.437   7.537
61903SOL     OW85732  11.250   2.418   8.834
61903SOL    HW185733  11.342   2.417   8.793
61903SOL    HW285734  11.244   2.492   8.901
61904SOL     OW85735  11.733   2.084   8.595
61904SOL    HW185736  11.771   2.000   8.632
61904SOL    HW285737  11.645   2.103   8.639
61905SOL     OW85738  12.038   2.316   8.090
61905SOL    HW185739  12.006   2.388   8.028
61905SOL    HW285740  12.062   2.235   8.037
61906SOL     OW85741  12.189   1.901   8.201
61906SOL    HW185742  12.117   1.906   8.132
61906SOL    HW285743  12.165   1.832   8.270
61907SOL     OW85744  12.601   3.035   8.315
61907SOL    HW185745  12.546   2.951   8.308
61907SOL    HW285746  12.627   3.064   8.223
61908SOL     OW85747  12.638   2.452   8.440
61908SOL    HW185748  12.608   2.357   8.447
61908SOL    HW285749  12.711   2.468   8.506
61909SOL     OW85750  11.660   3.247   7.622
61909SOL    HW185751  11.573   3.232   7.669
61909SOL    HW285752  11.643   3.273   7.527
61910SOL     OW85753  12.562   2.437   7.526
61910SOL    HW185754  12.508   2.416   7.607
61910SOL    HW285755  12.653   2.396   7.535
61911SOL     OW85756  11.699   2.118   7.776
61911SOL    HW185757  11.726   2.059   7.701
61911SOL    HW285758  11.699   2.213   7.745
61912SOL     OW85759  12.236   3.209   8.788
61912SOL    HW185760  12.156   3.186   8.843
61912SOL    HW285761  12.319   3.183   8.837
61913SOL     OW85762  12.764   3.491   9.073
61913SOL    HW185763  12.791   3.525   8.983
61913SOL    HW285764  12.843   3.453   9.119
61914SOL     OW85765  12.283   3.057   8.548
61914SOL    HW185766  12.243   3.101   8.629
61914SOL    HW285767  12.242   3.094   8.465
61915SOL     OW85768  12.087   1.951   8.850
61915SOL    HW185769  12.112   1.931   8.755
61915SOL    HW285770  12.159   2.007   8.892
61916SOL     OW85771  12.152   2.978   9.167
61916SOL    HW185772  12.053   2.984   9.177
61916SOL    HW285773  12.175   2.898   9.111
61917SOL     OW85774  11.877   2.912   7.816
61917SOL    HW185775  11.863   2.919   7.915
61917SOL    HW285776  11.961   2.861   7.798
61918SOL     OW85777  11.582   2.675   8.699
61918SOL    HW185778  11.668   2.687   8.749
61918SOL    HW285779  11.540   2.588   8.726
61919SOL     OW85780  12.446   2.248   8.710
61919SOL    HW185781  12.467   2.322   8.774
61919SOL    HW285782  12.357   2.265   8.667
61920SOL     OW85783  11.236   3.426   8.779
61920SOL    HW185784  11.190   3.508   8.745
61920SOL    HW285785  11.334   3.445   8.788
61921SOL     OW85786  11.539   2.962   7.949
61921SOL    HW185787  11.532   3.045   7.893
61921SOL    HW285788  11.543   2.882   7.889
61922SOL     OW85789  11.738   2.399   8.313
61922SOL    HW185790  11.750   2.465   8.239
61922SOL    HW285791  11.784   2.433   8.396
61923SOL     OW85792  12.424   3.210   7.836
61923SOL    HW185793  12.474   3.287   7.876
61923SOL    HW285794  12.329   3.212   7.868
61924SOL     OW85795  12.754   2.501   7.920
61924SOL    HW185796  12.723   2.562   7.993
61924SOL    HW285797  12.804   2.553   7.851
61925SOL     OW85798  11.526   3.372   8.777
61925SOL    HW185799  11.505   3.328   8.690
61925SOL    HW285800  11.623   3.398   8.780
61926SOL     OW85801  11.574   2.613   9.046
61926SOL    HW185802  11.642   2.668   8.999
61926SOL    HW285803  11.614   2.525   9.073
61927SOL     OW85804  12.185   1.967   9.218
61927SOL    HW185805  12.191   2.052   9.166
61927SOL    HW285806  12.217   1.891   9.161
61928SOL     OW85807  11.676   1.912   9.188
61928SOL    HW185808  11.634   1.855   9.118
61928SOL    HW285809  11.610   1.981   9.220
61929SOL     OW85810  11.745   2.732   8.477
61929SOL    HW185811  11.789   2.821   8.468
61929SOL    HW285812  11.682   2.732   8.554
61930SOL     OW85813  12.532   2.724   8.493
61930SOL    HW185814  12.457   2.724   8.427
61930SOL    HW285815  12.569   2.632   8.502
61931SOL     OW85816  12.381   2.387   7.723
61931SOL    HW185817  12.394   2.303   7.777
61931SOL    HW285818  12.352   2.461   7.783
61932SOL     OW85819  11.479   2.075   8.679
61932SOL    HW185820  11.456   2.112   8.769
61932SOL    HW285821  11.449   1.980   8.673
61933SOL     OW85822  11.209   3.172   8.730
61933SOL    HW185823  11.262   3.123   8.798
61933SOL    HW285824  11.231   3.270   8.735
61934SOL     OW85825  11.904   2.496   8.512
61934SOL    HW185826  11.963   2.470   8.436
61934SOL    HW285827  11.876   2.592   8.501
61935SOL     OW85828  11.479   1.925   8.066
61935SOL    HW185829  11.468   2.019   8.099
61935SOL    HW285830  11.474   1.862   8.143
61936SOL     OW85831  12.794   2.229   7.822
61936SOL    HW185832  12.796   2.153   7.886
61936SOL    HW285833  12.746   2.306   7.862
61937SOL     OW85834  12.195   2.628   8.414
61937SOL    HW185835  12.210   2.649   8.510
61937SOL    HW285836  12.165   2.533   8.405
61938SOL     OW85837  12.152   3.435   9.148
61938SOL    HW185838  12.132   3.479   9.060
61938SOL    HW285839  12.191   3.344   9.132
61939SOL     OW85840  11.522   2.760   9.252
61939SOL    HW185841  11.598   2.804   9.300
61939SOL    HW285842  11.557   2.713   9.170
61940SOL     OW85843  12.712   2.136   7.573
61940SOL    HW185844  12.651   2.061   7.596
61940SOL    HW285845  12.734   2.188   7.656
61941SOL     OW85846  12.475   2.700   7.490
61941SOL    HW185847  12.509   2.607   7.505
61941SOL    HW285848  12.493   2.727   7.395
61942SOL     OW85849  12.240   3.195   8.297
61942SOL    HW185850  12.247   3.111   8.242
61942SOL    HW285851  12.302   3.264   8.261
61943SOL     OW85852  11.491   2.672   8.397
61943SOL    HW185853  11.584   2.708   8.402
61943SOL    HW285854  11.485   2.587   8.449
61944SOL     OW85855  11.511   2.371   8.454
61944SOL    HW185856  11.459   2.288   8.437
61944SOL    HW285857  11.588   2.376   8.390
61945SOL     OW85858  12.310   2.242   9.126
61945SOL    HW185859  12.265   2.305   9.190
61945SOL    HW285860  12.403   2.273   9.109
61946SOL     OW85861  12.332   2.069   8.925
61946SOL    HW185862  12.332   2.133   9.002
61946SOL    HW285863  12.360   2.117   8.842
61947SOL     OW85864  11.180   3.188   7.648
61947SOL    HW185865  11.087   3.209   7.617
61947SOL    HW285866  11.190   3.089   7.661
61948SOL     OW85867  11.260   3.663   8.375
61948SOL    HW185868  11.218   3.577   8.348
61948SOL    HW285869  11.354   3.666   8.341
61949SOL     OW85870  11.676   3.430   8.358
61949SOL    HW185871  11.742   3.504   8.367
61949SOL    HW285872  11.720   3.351   8.316
61950SOL     OW85873  12.174   2.658   8.686
61950SOL    HW185874  12.215   2.626   8.772
61950SOL    HW285875  12.078   2.631   8.683
61951SOL     OW85876  11.212   2.406   8.562
61951SOL    HW185877  11.297   2.373   8.521
61951SOL    HW285878  11.225   2.421   8.660
61952SOL     OW85879  11.361   2.382   9.170
61952SOL    HW185880  11.420   2.342   9.100
61952SOL    HW285881  11.303   2.453   9.129
61953SOL     OW85882  12.541   2.812   9.108
61953SOL    HW185883  12.580   2.901   9.128
61953SOL    HW285884  12.551   2.792   9.011
61954SOL     OW85885  11.987   2.434   7.773
61954SOL    HW185886  11.994   2.345   7.727
61954SOL    HW285887  11.893   2.468   7.765
61955SOL     OW85888  11.424   3.426   9.192
61955SOL    HW185889  11.394   3.483   9.268
61955SOL    HW285890  11.417   3.329   9.218
61956SOL     OW85891  11.843   2.326   8.717
61956SOL    HW185892  11.809   2.237   8.687
61956SOL    HW285893  11.869   2.380   8.637
61957SOL     OW85894  12.102   3.540   8.913
61957SOL    HW185895  12.078   3.522   8.818
61957SOL    HW285896  12.132   3.634   8.923
61958SOL     OW85897  11.645   2.362   7.639
61958SOL    HW185898  11.706   2.442   7.643
61958SOL    HW285899  11.550   2.393   7.646
61959SOL     OW85900  11.331   2.999   8.914
61959SOL    HW185901  11.353   2.938   8.990
61959SOL    HW285902  11.341   2.950   8.828
61960SOL     OW85903  12.519   2.921   8.682
61960SOL    HW185904  12.543   2.858   8.608
61960SOL    HW285905  12.429   2.961   8.664
61961SOL     OW85906  12.474   2.717   7.757
61961SOL    HW185907  12.388   2.686   7.799
61961SOL    HW285908  12.470   2.703   7.658
61962SOL     OW85909  12.424   3.593   8.576
61962SOL    HW185910  12.508   3.598   8.522
61962SOL    HW285911  12.401   3.497   8.594
61963SOL     OW85912  11.255   3.120   8.470
61963SOL    HW185913  11.250   3.119   8.570
61963SOL    HW285914  11.172   3.079   8.432
61964SOL     OW85915  11.860   3.524   9.164
61964SOL    HW185916  11.804   3.605   9.173
61964SOL    HW285917  11.912   3.528   9.078
61965SOL     OW85918  12.898   1.997   7.971
61965SOL    HW185919  12.971   1.980   7.904
61965SOL    HW285920  12.867   1.910   8.009
61966SOL     OW85921  12.560   3.435   7.925
61966SOL    HW185922  12.627   3.447   7.851
61966SOL    HW285923  12.520   3.524   7.948
61967SOL     OW85924  11.302   3.656   9.299
61967SOL    HW185925  11.261   3.582   9.352
61967SOL    HW285926  11.366   3.707   9.357
61968SOL     OW85927  12.452   2.789   8.120
61968SOL    HW185928  12.512   2.708   8.122
61968SOL    HW285929  12.492   2.858   8.060
61969SOL     OW85930  12.002   3.135   8.870
61969SOL    HW185931  11.997   3.168   8.965
61969SOL    HW285932  11.916   3.154   8.824
61970SOL     OW85933  11.844   3.478   7.602
61970SOL    HW185934  11.853   3.488   7.503
61970SOL    HW285935  11.804   3.389   7.623
61971SOL     OW85936  11.435   2.188   8.168
61971SOL    HW185937  11.356   2.239   8.134
61971SOL    HW285938  11.426   2.173   8.266
61972SOL     OW85939  12.366   3.474   7.479
61972SOL    HW185940  12.372   3.381   7.516
61972SOL    HW285941  12.307   3.474   7.399
61973SOL     OW85942  11.994   2.864   8.820
61973SOL    HW185943  12.034   2.863   8.728
61973SOL    HW285944  12.004   2.956   8.860
61974SOL     OW85945  12.088   2.772   7.739
61974SOL    HW185946  12.151   2.810   7.671
61974SOL    HW285947  12.128   2.689   7.778
61975SOL     OW85948  12.676   3.469   7.492
61975SOL    HW185949  12.584   3.506   7.499
61975SOL    HW285950  12.714   3.489   7.402
61976SOL     OW85951  11.544   3.150   8.938
61976SOL    HW185952  11.531   3.243   8.904
61976SOL    HW285953  11.460   3.098   8.925
61977SOL     OW85954  12.211   2.960   8.144
61977SOL    HW185955  12.141   2.913   8.198
61977SOL    HW285956  12.270   2.892   8.101
61978SOL     OW85957  12.186   2.098   8.419
61978SOL    HW185958  12.178   2.062   8.326
61978SOL    HW285959  12.184   2.022   8.484
61979SOL     OW85960  11.762   3.349   7.939
61979SOL    HW185961  11.804   3.291   7.869
61979SOL    HW285962  11.718   3.428   7.895
61980SOL     OW85963  11.427   3.210   7.738
61980SOL    HW185964  11.331   3.211   7.711
61980SOL    HW285965  11.439   3.263   7.822
61981SOL     OW85966  11.277   2.875   9.174
61981SOL    HW185967  11.200   2.842   9.228
61981SOL    HW285968  11.362   2.845   9.216
61982SOL     OW85969  11.844   2.065   8.937
61982SOL    HW185970  11.934   2.049   8.897
61982SOL    HW285971  11.852   2.070   9.036
61983SOL     OW85972  11.247   2.207   7.481
61983SOL    HW185973  11.155   2.179   7.452
61983SOL    HW285974  11.278   2.284   7.425
61984SOL     OW85975  12.612   2.718   8.846
61984SOL    HW185976  12.555   2.770   8.783
61984SOL    HW285977  12.708   2.730   8.822
61985SOL     OW85978  11.244   2.028   7.766
61985SOL    HW185979  11.227   2.111   7.712
61985SOL    HW285980  11.334   1.991   7.744
61986SOL     OW85981  12.355   3.197   7.567
61986SOL    HW185982  12.256   3.186   7.569
61986SOL    HW285983  12.389   3.212   7.660
61987SOL     OW85984  11.785   2.704   8.879
61987SOL    HW185985  11.841   2.785   8.862
61987SOL    HW285986  11.844   2.624   8.882
61988SOL     OW85987  12.665   3.629   8.407
61988SOL    HW185988  12.698   3.693   8.338
61988SOL    HW285989  12.731   3.623   8.482
61989SOL     OW85990  11.888   2.427   9.156
61989SOL    HW185991  11.907   2.492   9.230
61989SOL    HW285992  11.948   2.347   9.165
61990SOL     OW85993  12.622   3.082   9.081
61990SOL    HW185994  12.613   3.072   9.180
61990SOL    HW285995  12.718   3.075   9.055
61991SOL     OW85996  11.562   3.603   9.008
61991SOL    HW185997  11.471   3.644   9.006
61991SOL    HW285998  11.555   3.509   9.040
61992SOL     OW85999  12.397   2.187   7.897
61992SOL    HW186000  12.462   2.113   7.886
61992SOL    HW286001  12.417   2.237   7.981
61993SOL     OW86002  11.766   2.607   8.100
61993SOL    HW186003  11.816   2.692   8.081
61993SOL    HW286004  11.678   2.609   8.052
61994SOL     OW86005  12.031   3.236   7.464
61994SOL    HW186006  11.985   3.251   7.552
61994SOL    HW286007  12.075   3.321   7.434
61995SOL     OW86008  11.833   3.652   8.401
61995SOL    HW186009  11.787   3.740   8.388
61995SOL    HW286010  11.932   3.664   8.394
61996SOL     OW86011  12.031   2.818   8.309
61996SOL    HW186012  12.085   2.749   8.357
61996SOL    HW286013  11.999   2.887   8.375
61997SOL     OW86014  12.255   2.846   7.535
61997SOL    HW186015  12.232   2.899   7.453
61997SOL    HW286016  12.336   2.790   7.516
61998SOL     OW86017  13.033   3.431   8.299
61998SOL    HW186018  12.962   3.419   8.229
61998SOL    HW286019  13.034   3.352   8.359
61999SOL     OW86020  11.393   3.176   9.292
61999SOL    HW186021  11.328   3.103   9.271
61999SOL    HW286022  11.397   3.190   9.390
62000SOL     OW86023  11.251   3.102   8.101
62000SOL    HW186024  11.250   3.055   8.189
62000SOL    HW286025  11.333   3.074   8.050
62001SOL     OW86026  11.844   3.253   9.072
62001SOL    HW186027  11.766   3.203   9.110
62001SOL    HW286028  11.841   3.348   9.103
62002SOL     OW86029  11.600   2.286   7.968
62002SOL    HW186030  11.630   2.214   7.906
62002SOL    HW286031  11.561   2.246   8.051
62003SOL     OW86032  11.489   2.409   8.728
62003SOL    HW186033  11.527   2.350   8.800
62003SOL    HW286034  11.529   2.383   8.640
62004SOL     OW86035  11.984   3.448   8.135
62004SOL    HW186036  12.016   3.458   8.041
62004SOL    HW286037  11.905   3.386   8.137
62005SOL     OW86038  12.596   2.076   8.560
62005SOL    HW186039  12.648   2.011   8.615
62005SOL    HW286040  12.547   2.139   8.621
62006SOL     OW86041  12.173   1.896   8.602
62006SOL    HW186042  12.110   1.824   8.571
62006SOL    HW286043  12.266   1.860   8.602
62007SOL     OW86044  11.942   3.192   7.749
62007SOL    HW186045  11.896   3.105   7.766
62007SOL    HW286046  12.033   3.189   7.790
62008SOL     OW86047  11.790   3.429   8.732
62008SOL    HW186048  11.785   3.511   8.789
62008SOL    HW286049  11.879   3.426   8.687
62009SOL     OW86050  12.524   1.914   7.616
62009SOL    HW186051  12.559   1.873   7.532
62009SOL    HW286052  12.434   1.876   7.636
62010SOL     OW86053  12.472   2.315   8.139
62010SOL    HW186054  12.413   2.395   8.143
62010SOL    HW286055  12.487   2.280   8.232
62011SOL     OW86056  12.765   2.083   8.330
62011SOL    HW186057  12.681   2.082   8.384
62011SOL    HW286058  12.767   2.166   8.274
62012SOL     OW86059  11.211   2.939   7.748
62012SOL    HW186060  11.310   2.928   7.739
62012SOL    HW286061  11.171   2.853   7.780
62013SOL     OW86062  12.047   3.508   7.785
62013SOL    HW186063  11.970   3.473   7.731
62013SOL    HW286064  12.015   3.579   7.847
62014SOL     OW86065  11.402   2.490   9.423
62014SOL    HW186066  11.309   2.488   9.460
62014SOL    HW286067  11.403   2.451   9.331
62015SOL     OW86068  11.397   2.137  10.306
62015SOL    HW186069  11.432   2.120  10.398
62015SOL    HW286070  11.309   2.092  10.294
62016SOL     OW86071  11.191   2.230   9.957
62016SOL    HW186072  11.109   2.273   9.996
62016SOL    HW286073  11.163   2.157   9.894
62017SOL     OW86074  11.741   3.137  10.475
62017SOL    HW186075  11.648   3.130  10.438
62017SOL    HW286076  11.752   3.226  10.519
62018SOL     OW86077  12.727   3.373  10.013
62018SOL    HW186078  12.670   3.357  10.094
62018SOL    HW286079  12.668   3.383   9.933
62019SOL     OW86080  12.307   2.565  10.027
62019SOL    HW186081  12.364   2.643  10.002
62019SOL    HW286082  12.247   2.591  10.103
62020SOL     OW86083  11.940   3.006  10.333
62020SOL    HW186084  11.862   3.023  10.393
62020SOL    HW286085  11.974   3.093  10.297
62021SOL     OW86086  12.022   2.660  11.133
62021SOL    HW186087  12.018   2.736  11.198
62021SOL    HW286088  12.044   2.696  11.042
62022SOL     OW86089  11.857   2.874   9.975
62022SOL    HW186090  11.926   2.858  10.045
62022SOL    HW286091  11.784   2.931  10.013
62023SOL     OW86092  11.858   3.023  11.113
62023SOL    HW186093  11.918   3.102  11.127
62023SOL    HW286094  11.772   3.054  11.072
62024SOL     OW86095  11.507   3.297  10.371
62024SOL    HW186096  11.429   3.266  10.318
62024SOL    HW286097  11.565   3.355  10.314
62025SOL     OW86098  12.632   3.367  10.649
62025SOL    HW186099  12.656   3.461  10.675
62025SOL    HW286100  12.616   3.313  10.731
62026SOL     OW86101  11.610   2.254  10.809
62026SOL    HW186102  11.692   2.198  10.818
62026SOL    HW286103  11.529   2.196  10.813
62027SOL     OW86104  11.403   3.575   9.793
62027SOL    HW186105  11.437   3.652   9.847
62027SOL    HW286106  11.447   3.575   9.703
62028SOL     OW86107  12.299   3.203  11.000
62028SOL    HW186108  12.346   3.203  11.088
62028SOL    HW286109  12.251   3.116  10.989
62029SOL     OW86110  11.402   3.296   9.848
62029SOL    HW186111  11.376   3.392   9.848
62029SOL    HW286112  11.331   3.242   9.893
62030SOL     OW86113  11.412   2.953  10.196
62030SOL    HW186114  11.426   2.869  10.248
62030SOL    HW286115  11.357   3.017  10.251
62031SOL     OW86116  11.792   3.648  10.749
62031SOL    HW186117  11.700   3.631  10.784
62031SOL    HW286118  11.820   3.740  10.775
62032SOL     OW86119  11.778   2.826   9.433
62032SOL    HW186120  11.785   2.910   9.379
62032SOL    HW286121  11.824   2.839   9.521
62033SOL     OW86122  12.766   1.976  10.790
62033SOL    HW186123  12.748   2.043  10.718
62033SOL    HW286124  12.763   2.022  10.879
62034SOL     OW86125  11.294   2.505   9.873
62034SOL    HW186126  11.249   2.417   9.890
62034SOL    HW286127  11.293   2.559   9.957
62035SOL     OW86128  11.199   3.458   9.427
62035SOL    HW186129  11.180   3.362   9.448
62035SOL    HW286130  11.166   3.516   9.502
62036SOL     OW86131  12.861   2.784   9.922
62036SOL    HW186132  12.956   2.755   9.930
62036SOL    HW286133  12.853   2.849   9.847
62037SOL     OW86134  11.285   2.599  10.907
62037SOL    HW186135  11.373   2.586  10.952
62037SOL    HW286136  11.272   2.696  10.885
62038SOL     OW86137  11.785   3.227  10.036
62038SOL    HW186138  11.736   3.140  10.045
62038SOL    HW286139  11.762   3.270   9.949
62039SOL     OW86140  12.465   3.090  10.733
62039SOL    HW186141  12.502   3.017  10.675
62039SOL    HW286142  12.517   3.095  10.818
62040SOL     OW86143  11.981   1.866   9.812
62040SOL    HW186144  12.021   1.957   9.803
62040SOL    HW286145  11.881   1.874   9.818
62041SOL     OW86146  11.369   2.838  10.574
62041SOL    HW186147  11.458   2.793  10.560
62041SOL    HW286148  11.296   2.773  10.555
62042SOL     OW86149  12.359   3.654  10.926
62042SOL    HW186150  12.383   3.714  10.850
62042SOL    HW286151  12.366   3.559  10.896
62043SOL     OW86152  11.489   2.113  11.111
62043SOL    HW186153  11.560   2.184  11.117
62043SOL    HW286154  11.401   2.152  11.139
62044SOL     OW86155  12.638   3.279  10.263
62044SOL    HW186156  12.579   3.285  10.343
62044SOL    HW286157  12.623   3.191  10.217
62045SOL     OW86158  12.839   3.576   9.882
62045SOL    HW186159  12.798   3.553   9.794
62045SOL    HW286160  12.821   3.502   9.947
62046SOL     OW86161  11.770   2.591   9.580
62046SOL    HW186162  11.794   2.660   9.512
62046SOL    HW286163  11.692   2.624   9.634
62047SOL     OW86164  12.453   2.207  10.254
62047SOL    HW186165  12.367   2.157  10.241
62047SOL    HW286166  12.515   2.153  10.310
62048SOL     OW86167  11.979   2.467  10.775
62048SOL    HW186168  11.932   2.464  10.864
62048SOL    HW286169  11.928   2.412  10.709
62049SOL     OW86170  12.566   2.331  10.984
62049SOL    HW186171  12.546   2.374  11.072
62049SOL    HW286172  12.644   2.269  10.993
62050SOL     OW86173  12.145   2.752  10.882
62050SOL    HW186174  12.191   2.668  10.853
62050SOL    HW286175  12.089   2.786  10.807
62051SOL     OW86176  12.163   2.272  10.552
62051SOL    HW186177  12.086   2.306  10.606
62051SOL    HW286178  12.129   2.221  10.473
62052SOL     OW86179  12.213   2.563   9.739
62052SOL    HW186180  12.239   2.559   9.835
62052SOL    HW286181  12.128   2.512   9.725
62053SOL     OW86182  11.248   2.673  10.099
62053SOL    HW186183  11.347   2.661  10.108
62053SOL    HW286184  11.224   2.768  10.120
62054SOL     OW86185  11.302   3.683  10.881
62054SOL    HW186186  11.292   3.668  10.980
62054SOL    HW286187  11.216   3.719  10.845
62055SOL     OW86188  12.037   2.210   9.505
62055SOL    HW186189  12.096   2.273   9.456
62055SOL    HW286190  12.056   2.116   9.476
62056SOL     OW86191  12.534   3.006   9.855
62056SOL    HW186192  12.617   2.977   9.807
62056SOL    HW286193  12.485   3.073   9.799
62057SOL     OW86194  11.722   2.058  10.195
62057SOL    HW186195  11.717   2.053  10.295
62057SOL    HW286196  11.724   2.154  10.166
62058SOL     OW86197  12.180   3.318   9.787
62058SOL    HW186198  12.134   3.390   9.735
62058SOL    HW286199  12.176   3.338   9.885
62059SOL     OW86200  11.523   3.663  10.163
62059SOL    HW186201  11.573   3.577  10.169
62059SOL    HW286202  11.588   3.740  10.160
62060SOL     OW86203  12.399   3.412  10.816
62060SOL    HW186204  12.405   3.335  10.880
62060SOL    HW286205  12.347   3.386  10.736
62061SOL     OW86206  11.493   2.805   9.552
62061SOL    HW186207  11.575   2.844   9.510
62061SOL    HW286208  11.466   2.723   9.503
62062SOL     OW86209  12.630   2.597  10.038
62062SOL    HW186210  12.625   2.532  10.113
62062SOL    HW286211  12.710   2.656  10.051
62063SOL     OW86212  11.633   3.128  11.037
62063SOL    HW186213  11.583   3.129  10.951
62063SOL    HW286214  11.570   3.110  11.113
62064SOL     OW86215  12.283   3.638   9.547
62064SOL    HW186216  12.223   3.576   9.597
62064SOL    HW286217  12.314   3.594   9.462
62065SOL     OW86218  11.374   2.147  10.808
62065SOL    HW186219  11.294   2.207  10.795
62065SOL    HW286220  11.364   2.098  10.894
62066SOL     OW86221  11.636   3.605   9.633
62066SOL    HW186222  11.669   3.644   9.719
62066SOL    HW286223  11.712   3.598   9.568
62067SOL     OW86224  12.572   1.969   9.736
62067SOL    HW186225  12.548   1.932   9.646
62067SOL    HW286226  12.671   1.985   9.740
62068SOL     OW86227  11.421   3.647  10.551
62068SOL    HW186228  11.478   3.582  10.601
62068SOL    HW286229  11.405   3.614  10.458
62069SOL     OW86230  12.112   3.560  10.214
62069SOL    HW186231  12.192   3.503  10.235
62069SOL    HW286232  12.063   3.520  10.137
62070SOL     OW86233  11.554   2.562   9.790
62070SOL    HW186234  11.599   2.472   9.787
62070SOL    HW286235  11.460   2.551   9.823
62071SOL     OW86236  11.786   1.984   9.427
62071SOL    HW186237  11.884   1.962   9.434
62071SOL    HW286238  11.755   1.967   9.334
62072SOL     OW86239  11.953   2.126  11.059
62072SOL    HW186240  12.020   2.065  11.102
62072SOL    HW286241  11.880   2.145  11.124
62073SOL     OW86242  12.060   3.376  10.505
62073SOL    HW186243  12.037   3.351  10.411
62073SOL    HW286244  12.121   3.307  10.544
62074SOL     OW86245  12.523   2.452  10.743
62074SOL    HW186246  12.551   2.409  10.828
62074SOL    HW286247  12.548   2.548  10.744
62075SOL     OW86248  11.975   3.264  10.234
62075SOL    HW186249  12.065   3.278  10.192
62075SOL    HW286250  11.904   3.266  10.163
62076SOL     OW86251  12.094   2.365  10.209
62076SOL    HW186252  12.069   2.356  10.113
62076SOL    HW286253  12.142   2.283  10.240
62077SOL     OW86254  11.711   1.926   9.822
62077SOL    HW186255  11.630   1.927   9.880
62077SOL    HW286256  11.714   2.009   9.767
62078SOL     OW86257  12.606   3.050   9.351
62078SOL    HW186258  12.638   2.974   9.408
62078SOL    HW286259  12.514   3.077   9.381
62079SOL     OW86260  11.469   1.897   9.481
62079SOL    HW186261  11.518   1.981   9.460
62079SOL    HW286262  11.531   1.832   9.526
62080SOL     OW86263  12.107   2.098   9.790
62080SOL    HW186264  12.059   2.139   9.712
62080SOL    HW286265  12.206   2.096   9.771
62081SOL     OW86266  12.248   2.545  10.774
62081SOL    HW186267  12.168   2.484  10.777
62081SOL    HW286268  12.329   2.492  10.750
62082SOL     OW86269  12.399   3.432  10.103
62082SOL    HW186270  12.420   3.506  10.038
62082SOL    HW286271  12.467   3.432  10.176
62083SOL     OW86272  11.631   3.014  10.051
62083SOL    HW186273  11.560   2.987  10.116
62083SOL    HW286274  11.605   2.986   9.958
62084SOL     OW86275  12.443   3.659   9.901
62084SOL    HW186276  12.487   3.723   9.837
62084SOL    HW286277  12.393   3.711   9.971
62085SOL     OW86278  12.204   2.411   9.326
62085SOL    HW186279  12.163   2.493   9.287
62085SOL    HW286280  12.268   2.437   9.399
62086SOL     OW86281  11.250   2.418  10.696
62086SOL    HW186282  11.342   2.417  10.655
62086SOL    HW286283  11.244   2.492  10.763
62087SOL     OW86284  11.733   2.084  10.457
62087SOL    HW186285  11.771   2.000  10.494
62087SOL    HW286286  11.645   2.103  10.501
62088SOL     OW86287  12.038   2.316   9.952
62088SOL    HW186288  12.006   2.388   9.890
62088SOL    HW286289  12.062   2.235   9.899
62089SOL     OW86290  12.189   1.901  10.063
62089SOL    HW186291  12.117   1.906   9.994
62089SOL    HW286292  12.165   1.832  10.132
62090SOL     OW86293  12.601   3.035  10.177
62090SOL    HW186294  12.546   2.951  10.170
62090SOL    HW286295  12.627   3.064  10.085
62091SOL     OW86296  12.638   2.452  10.302
62091SOL    HW186297  12.608   2.357  10.309
62091SOL    HW286298  12.711   2.468  10.368
62092SOL     OW86299  11.660   3.247   9.484
62092SOL    HW186300  11.573   3.232   9.531
62092SOL    HW286301  11.643   3.273   9.389
62093SOL     OW86302  12.562   2.437   9.388
62093SOL    HW186303  12.508   2.416   9.469
62093SOL    HW286304  12.653   2.396   9.397
62094SOL     OW86305  11.699   2.118   9.638
62094SOL    HW186306  11.726   2.059   9.563
62094SOL    HW286307  11.699   2.213   9.607
62095SOL     OW86308  12.236   3.209  10.650
62095SOL    HW186309  12.156   3.186  10.705
62095SOL    HW286310  12.319   3.183  10.699
62096SOL     OW86311  12.764   3.491  10.935
62096SOL    HW186312  12.791   3.525  10.845
62096SOL    HW286313  12.843   3.453  10.981
62097SOL     OW86314  12.283   3.057  10.410
62097SOL    HW186315  12.243   3.101  10.491
62097SOL    HW286316  12.242   3.094  10.327
62098SOL     OW86317  12.087   1.951  10.712
62098SOL    HW186318  12.112   1.931  10.617
62098SOL    HW286319  12.159   2.007  10.754
62099SOL     OW86320  12.152   2.978  11.029
62099SOL    HW186321  12.053   2.984  11.039
62099SOL    HW286322  12.175   2.898  10.973
62100SOL     OW86323  11.877   2.912   9.678
62100SOL    HW186324  11.863   2.919   9.777
62100SOL    HW286325  11.961   2.861   9.660
62101SOL     OW86326  11.582   2.675  10.561
62101SOL    HW186327  11.668   2.687  10.611
62101SOL    HW286328  11.540   2.588  10.588
62102SOL     OW86329  12.446   2.248  10.572
62102SOL    HW186330  12.467   2.322  10.636
62102SOL    HW286331  12.357   2.265  10.529
62103SOL     OW86332  11.236   3.426  10.641
62103SOL    HW186333  11.190   3.508  10.607
62103SOL    HW286334  11.334   3.445  10.650
62104SOL     OW86335  11.539   2.962   9.811
62104SOL    HW186336  11.532   3.045   9.755
62104SOL    HW286337  11.543   2.882   9.751
62105SOL     OW86338  11.738   2.399  10.175
62105SOL    HW186339  11.750   2.465  10.101
62105SOL    HW286340  11.784   2.433  10.258
62106SOL     OW86341  12.424   3.210   9.698
62106SOL    HW186342  12.474   3.287   9.738
62106SOL    HW286343  12.329   3.212   9.730
62107SOL     OW86344  12.444   3.307  10.452
62107SOL    HW186345  12.491   3.320  10.539
62107SOL    HW286346  12.378   3.233  10.461
62108SOL     OW86347  12.754   2.501   9.782
62108SOL    HW186348  12.723   2.562   9.855
62108SOL    HW286349  12.804   2.553   9.713
62109SOL     OW86350  11.526   3.372  10.639
62109SOL    HW186351  11.505   3.328  10.552
62109SOL    HW286352  11.623   3.398  10.642
62110SOL     OW86353  11.574   2.613  10.908
62110SOL    HW186354  11.642   2.668  10.861
62110SOL    HW286355  11.614   2.525  10.935
62111SOL     OW86356  12.185   1.967  11.080
62111SOL    HW186357  12.191   2.052  11.028
62111SOL    HW286358  12.217   1.891  11.023
62112SOL     OW86359  11.676   1.912  11.050
62112SOL    HW186360  11.634   1.855  10.980
62112SOL    HW286361  11.610   1.981  11.082
62113SOL     OW86362  11.745   2.732  10.339
62113SOL    HW186363  11.789   2.821  10.330
62113SOL    HW286364  11.682   2.732  10.416
62114SOL     OW86365  12.532   2.724  10.355
62114SOL    HW186366  12.457   2.724  10.289
62114SOL    HW286367  12.569   2.632  10.364
62115SOL     OW86368  12.381   2.387   9.585
62115SOL    HW186369  12.394   2.303   9.639
62115SOL    HW286370  12.352   2.461   9.645
62116SOL     OW86371  11.479   2.075  10.541
62116SOL    HW186372  11.456   2.112  10.631
62116SOL    HW286373  11.449   1.980  10.535
62117SOL     OW86374  11.209   3.172  10.592
62117SOL    HW186375  11.262   3.123  10.660
62117SOL    HW286376  11.231   3.270  10.597
62118SOL     OW86377  11.904   2.496  10.374
62118SOL    HW186378  11.963   2.470  10.298
62118SOL    HW286379  11.876   2.592  10.363
62119SOL     OW86380  11.479   1.925   9.928
62119SOL    HW186381  11.468   2.019   9.961
62119SOL    HW286382  11.474   1.862  10.005
62120SOL     OW86383  12.794   2.229   9.684
62120SOL    HW186384  12.796   2.153   9.748
62120SOL    HW286385  12.746   2.306   9.724
62121SOL     OW86386  12.195   2.628  10.276
62121SOL    HW186387  12.210   2.649  10.372
62121SOL    HW286388  12.165   2.533  10.267
62122SOL     OW86389  12.152   3.435  11.010
62122SOL    HW186390  12.132   3.479  10.922
62122SOL    HW286391  12.191   3.344  10.994
62123SOL     OW86392  11.522   2.760  11.114
62123SOL    HW186393  11.598   2.804  11.162
62123SOL    HW286394  11.557   2.713  11.032
62124SOL     OW86395  12.712   2.136   9.435
62124SOL    HW186396  12.651   2.061   9.458
62124SOL    HW286397  12.734   2.188   9.518
62125SOL     OW86398  12.475   2.700   9.352
62125SOL    HW186399  12.509   2.607   9.367
62125SOL    HW286400  12.493   2.727   9.257
62126SOL     OW86401  12.240   3.195  10.159
62126SOL    HW186402  12.247   3.111  10.104
62126SOL    HW286403  12.302   3.264  10.123
62127SOL     OW86404  11.491   2.672  10.259
62127SOL    HW186405  11.584   2.708  10.264
62127SOL    HW286406  11.485   2.587  10.311
62128SOL     OW86407  11.511   2.371  10.316
62128SOL    HW186408  11.459   2.288  10.299
62128SOL    HW286409  11.588   2.376  10.252
62129SOL     OW86410  12.310   2.242  10.988
62129SOL    HW186411  12.265   2.305  11.052
62129SOL    HW286412  12.403   2.273  10.971
62130SOL     OW86413  12.332   2.069  10.787
62130SOL    HW186414  12.332   2.133  10.864
62130SOL    HW286415  12.360   2.117  10.704
62131SOL     OW86416  11.180   3.188   9.510
62131SOL    HW186417  11.087   3.209   9.479
62131SOL    HW286418  11.190   3.089   9.523
62132SOL     OW86419  11.260   3.663  10.237
62132SOL    HW186420  11.218   3.577  10.210
62132SOL    HW286421  11.354   3.666  10.203
62133SOL     OW86422  11.676   3.430  10.220
62133SOL    HW186423  11.742   3.504  10.229
62133SOL    HW286424  11.720   3.351  10.178
62134SOL     OW86425  12.174   2.658  10.548
62134SOL    HW186426  12.215   2.626  10.634
62134SOL    HW286427  12.078   2.631  10.545
62135SOL     OW86428  11.212   2.406  10.424
62135SOL    HW186429  11.297   2.373  10.383
62135SOL    HW286430  11.225   2.421  10.522
62136SOL     OW86431  11.361   2.382  11.032
62136SOL    HW186432  11.420   2.342  10.962
62136SOL    HW286433  11.303   2.453  10.991
62137SOL     OW86434  12.541   2.812  10.970
62137SOL    HW186435  12.580   2.901  10.990
62137SOL    HW286436  12.551   2.792  10.873
62138SOL     OW86437  11.987   2.434   9.635
62138SOL    HW186438  11.994   2.345   9.589
62138SOL    HW286439  11.893   2.468   9.627
62139SOL     OW86440  11.424   3.426  11.054
62139SOL    HW186441  11.394   3.483  11.130
62139SOL    HW286442  11.417   3.329  11.080
62140SOL     OW86443  11.843   2.326  10.579
62140SOL    HW186444  11.809   2.237  10.549
62140SOL    HW286445  11.869   2.380  10.499
62141SOL     OW86446  12.102   3.540  10.775
62141SOL    HW186447  12.078   3.522  10.680
62141SOL    HW286448  12.132   3.634  10.785
62142SOL     OW86449  11.645   2.362   9.501
62142SOL    HW186450  11.706   2.442   9.505
62142SOL    HW286451  11.550   2.393   9.508
62143SOL     OW86452  11.331   2.999  10.776
62143SOL    HW186453  11.353   2.938  10.852
62143SOL    HW286454  11.341   2.950  10.690
62144SOL     OW86455  12.519   2.921  10.544
62144SOL    HW186456  12.543   2.858  10.470
62144SOL    HW286457  12.429   2.961  10.526
62145SOL     OW86458  12.474   2.717   9.619
62145SOL    HW186459  12.388   2.686   9.661
62145SOL    HW286460  12.470   2.703   9.520
62146SOL     OW86461  12.424   3.593  10.438
62146SOL    HW186462  12.508   3.598  10.384
62146SOL    HW286463  12.401   3.497  10.456
62147SOL     OW86464  11.255   3.120  10.332
62147SOL    HW186465  11.250   3.119  10.432
62147SOL    HW286466  11.172   3.079  10.294
62148SOL     OW86467  11.860   3.524  11.026
62148SOL    HW186468  11.804   3.605  11.035
62148SOL    HW286469  11.912   3.528  10.940
62149SOL     OW86470  12.898   1.997   9.833
62149SOL    HW186471  12.971   1.980   9.766
62149SOL    HW286472  12.867   1.910   9.871
62150SOL     OW86473  12.560   3.435   9.787
62150SOL    HW186474  12.627   3.447   9.713
62150SOL    HW286475  12.520   3.524   9.810
62151SOL     OW86476  11.302   3.656  11.161
62151SOL    HW186477  11.261   3.582  11.214
62151SOL    HW286478  11.366   3.707  11.219
62152SOL     OW86479  12.452   2.789   9.982
62152SOL    HW186480  12.512   2.708   9.984
62152SOL    HW286481  12.492   2.858   9.922
62153SOL     OW86482  12.002   3.135  10.732
62153SOL    HW186483  11.997   3.168  10.827
62153SOL    HW286484  11.916   3.154  10.686
62154SOL     OW86485  11.844   3.478   9.464
62154SOL    HW186486  11.853   3.488   9.365
62154SOL    HW286487  11.804   3.389   9.485
62155SOL     OW86488  11.435   2.188  10.030
62155SOL    HW186489  11.356   2.239   9.996
62155SOL    HW286490  11.426   2.173  10.128
62156SOL     OW86491  12.366   3.474   9.341
62156SOL    HW186492  12.372   3.381   9.378
62156SOL    HW286493  12.307   3.474   9.261
62157SOL     OW86494  11.994   2.864  10.682
62157SOL    HW186495  12.034   2.863  10.590
62157SOL    HW286496  12.004   2.956  10.722
62158SOL     OW86497  12.088   2.772   9.601
62158SOL    HW186498  12.151   2.810   9.533
62158SOL    HW286499  12.128   2.689   9.640
62159SOL     OW86500  12.676   3.469   9.354
62159SOL    HW186501  12.584   3.506   9.361
62159SOL    HW286502  12.714   3.489   9.264
62160SOL     OW86503  11.544   3.150  10.800
62160SOL    HW186504  11.531   3.243  10.766
62160SOL    HW286505  11.460   3.098  10.787
62161SOL     OW86506  12.211   2.960  10.006
62161SOL    HW186507  12.141   2.913  10.060
62161SOL    HW286508  12.270   2.892   9.963
62162SOL     OW86509  12.186   2.098  10.281
62162SOL    HW186510  12.178   2.062  10.188
62162SOL    HW286511  12.184   2.022  10.346
62163SOL     OW86512  11.762   3.349   9.801
62163SOL    HW186513  11.804   3.291   9.731
62163SOL    HW286514  11.718   3.428   9.757
62164SOL     OW86515  11.427   3.210   9.600
62164SOL    HW186516  11.331   3.211   9.573
62164SOL    HW286517  11.439   3.263   9.684
62165SOL     OW86518  11.277   2.875  11.036
62165SOL    HW186519  11.200   2.842  11.090
62165SOL    HW286520  11.362   2.845  11.078
62166SOL     OW86521  11.844   2.065  10.799
62166SOL    HW186522  11.934   2.049  10.759
62166SOL    HW286523  11.852   2.070  10.898
62167SOL     OW86524  11.247   2.207   9.343
62167SOL    HW186525  11.155   2.179   9.314
62167SOL    HW286526  11.278   2.284   9.287
62168SOL     OW86527  12.612   2.718  10.708
62168SOL    HW186528  12.555   2.770  10.645
62168SOL    HW286529  12.708   2.730  10.684
62169SOL     OW86530  11.244   2.028   9.628
62169SOL    HW186531  11.227   2.111   9.574
62169SOL    HW286532  11.334   1.991   9.606
62170SOL     OW86533  12.355   3.197   9.429
62170SOL    HW186534  12.256   3.186   9.431
62170SOL    HW286535  12.389   3.212   9.522
62171SOL     OW86536  11.785   2.704  10.741
62171SOL    HW186537  11.841   2.785  10.724
62171SOL    HW286538  11.844   2.624  10.744
62172SOL     OW86539  12.665   3.629  10.269
62172SOL    HW186540  12.698   3.693  10.200
62172SOL    HW286541  12.731   3.623  10.344
62173SOL     OW86542  11.888   2.427  11.018
62173SOL    HW186543  11.907   2.492  11.092
62173SOL    HW286544  11.948   2.347  11.027
62174SOL     OW86545  12.622   3.082  10.943
62174SOL    HW186546  12.613   3.072  11.042
62174SOL    HW286547  12.718   3.075  10.917
62175SOL     OW86548  11.562   3.603  10.870
62175SOL    HW186549  11.471   3.644  10.868
62175SOL    HW286550  11.555   3.509  10.902
62176SOL     OW86551  12.397   2.187   9.759
62176SOL    HW186552  12.462   2.113   9.748
62176SOL    HW286553  12.417   2.237   9.843
62177SOL     OW86554  11.766   2.607   9.962
62177SOL    HW186555  11.816   2.692   9.943
62177SOL    HW286556  11.678   2.609   9.914
62178SOL     OW86557  12.031   3.236   9.326
62178SOL    HW186558  11.985   3.251   9.414
62178SOL    HW286559  12.075   3.321   9.296
62179SOL     OW86560  11.833   3.652  10.263
62179SOL    HW186561  11.787   3.740  10.250
62179SOL    HW286562  11.932   3.664  10.256
62180SOL     OW86563  12.031   2.818  10.171
62180SOL    HW186564  12.085   2.749  10.219
62180SOL    HW286565  11.999   2.887  10.237
62181SOL     OW86566  12.255   2.846   9.397
62181SOL    HW186567  12.232   2.899   9.315
62181SOL    HW286568  12.336   2.790   9.378
62182SOL     OW86569  13.033   3.431  10.161
62182SOL    HW186570  12.962   3.419  10.091
62182SOL    HW286571  13.034   3.352  10.221
62183SOL     OW86572  11.393   3.176  11.154
62183SOL    HW186573  11.328   3.103  11.133
62183SOL    HW286574  11.397   3.190  11.252
62184SOL     OW86575  11.251   3.102   9.963
62184SOL    HW186576  11.250   3.055  10.051
62184SOL    HW286577  11.333   3.074   9.912
62185SOL     OW86578  11.844   3.253  10.934
62185SOL    HW186579  11.766   3.203  10.972
62185SOL    HW286580  11.841   3.348  10.965
62186SOL     OW86581  11.600   2.286   9.830
62186SOL    HW186582  11.630   2.214   9.768
62186SOL    HW286583  11.561   2.246   9.913
62187SOL     OW86584  11.489   2.409  10.590
62187SOL    HW186585  11.527   2.350  10.662
62187SOL    HW286586  11.529   2.383  10.502
62188SOL     OW86587  11.984   3.448   9.997
62188SOL    HW186588  12.016   3.458   9.903
62188SOL    HW286589  11.905   3.386   9.999
62189SOL     OW86590  12.596   2.076  10.422
62189SOL    HW186591  12.648   2.011  10.477
62189SOL    HW286592  12.547   2.139  10.483
62190SOL     OW86593  12.173   1.896  10.464
62190SOL    HW186594  12.110   1.824  10.433
62190SOL    HW286595  12.266   1.860  10.464
62191SOL     OW86596  11.942   3.192   9.611
62191SOL    HW186597  11.896   3.105   9.628
62191SOL    HW286598  12.033   3.189   9.652
62192SOL     OW86599  11.790   3.429  10.594
62192SOL    HW186600  11.785   3.511  10.651
62192SOL    HW286601  11.879   3.426  10.549
62193SOL     OW86602  12.524   1.914   9.478
62193SOL    HW186603  12.559   1.873   9.394
62193SOL    HW286604  12.434   1.876   9.498
62194SOL     OW86605  12.472   2.315  10.001
62194SOL    HW186606  12.413   2.395  10.005
62194SOL    HW286607  12.487   2.280  10.094
62195SOL     OW86608  12.765   2.083  10.192
62195SOL    HW186609  12.681   2.082  10.246
62195SOL    HW286610  12.767   2.166  10.136
62196SOL     OW86611  11.211   2.939   9.610
62196SOL    HW186612  11.310   2.928   9.601
62196SOL    HW286613  11.171   2.853   9.642
62197SOL     OW86614  12.047   3.508   9.647
62197SOL    HW186615  11.970   3.473   9.593
62197SOL    HW286616  12.015   3.579   9.709
62198SOL     OW86617  11.402   2.490  11.285
62198SOL    HW186618  11.309   2.488  11.322
62198SOL    HW286619  11.403   2.451  11.193
62199SOL     OW86620  11.397   2.137  12.168
62199SOL    HW186621  11.432   2.120  12.260
62199SOL    HW286622  11.309   2.092  12.156
62200SOL     OW86623  11.191   2.230  11.819
62200SOL    HW186624  11.109   2.273  11.858
62200SOL    HW286625  11.163   2.157  11.756
62201SOL     OW86626  11.741   3.137  12.337
62201SOL    HW186627  11.648   3.130  12.300
62201SOL    HW286628  11.752   3.226  12.381
62202SOL     OW86629  12.727   3.373  11.875
62202SOL    HW186630  12.670   3.357  11.956
62202SOL    HW286631  12.668   3.383  11.795
62203SOL     OW86632  12.307   2.565  11.889
62203SOL    HW186633  12.364   2.643  11.864
62203SOL    HW286634  12.247   2.591  11.965
62204SOL     OW86635  11.940   3.006  12.195
62204SOL    HW186636  11.862   3.023  12.255
62204SOL    HW286637  11.974   3.093  12.159
62205SOL     OW86638  11.857   2.874  11.837
62205SOL    HW186639  11.926   2.858  11.907
62205SOL    HW286640  11.784   2.931  11.875
62206SOL     OW86641  11.507   3.297  12.233
62206SOL    HW186642  11.429   3.266  12.180
62206SOL    HW286643  11.565   3.355  12.176
62207SOL     OW86644  12.632   3.367  12.511
62207SOL    HW186645  12.656   3.461  12.537
62207SOL    HW286646  12.616   3.313  12.593
62208SOL     OW86647  11.610   2.254  12.671
62208SOL    HW186648  11.692   2.198  12.680
62208SOL    HW286649  11.529   2.196  12.675
62209SOL     OW86650  11.403   3.575  11.655
62209SOL    HW186651  11.437   3.652  11.709
62209SOL    HW286652  11.447   3.575  11.565
62210SOL     OW86653  11.402   3.296  11.710
62210SOL    HW186654  11.376   3.392  11.710
62210SOL    HW286655  11.331   3.242  11.755
62211SOL     OW86656  11.412   2.953  12.058
62211SOL    HW186657  11.426   2.869  12.110
62211SOL    HW286658  11.357   3.017  12.113
62212SOL     OW86659  11.792   3.648  12.611
62212SOL    HW186660  11.700   3.631  12.646
62212SOL    HW286661  11.820   3.740  12.637
62213SOL     OW86662  11.778   2.826  11.295
62213SOL    HW186663  11.785   2.910  11.241
62213SOL    HW286664  11.824   2.839  11.383
62214SOL     OW86665  12.766   1.976  12.652
62214SOL    HW186666  12.748   2.043  12.580
62214SOL    HW286667  12.763   2.022  12.741
62215SOL     OW86668  11.294   2.505  11.735
62215SOL    HW186669  11.249   2.417  11.752
62215SOL    HW286670  11.293   2.559  11.819
62216SOL     OW86671  11.199   3.458  11.289
62216SOL    HW186672  11.180   3.362  11.310
62216SOL    HW286673  11.166   3.516  11.364
62217SOL     OW86674  12.861   2.784  11.784
62217SOL    HW186675  12.956   2.755  11.792
62217SOL    HW286676  12.853   2.849  11.709
62218SOL     OW86677  11.285   2.599  12.769
62218SOL    HW186678  11.373   2.586  12.814
62218SOL    HW286679  11.272   2.696  12.747
62219SOL     OW86680  11.785   3.227  11.898
62219SOL    HW186681  11.736   3.140  11.907
62219SOL    HW286682  11.762   3.270  11.811
62220SOL     OW86683  12.465   3.090  12.595
62220SOL    HW186684  12.502   3.017  12.537
62220SOL    HW286685  12.517   3.095  12.680
62221SOL     OW86686  11.981   1.866  11.674
62221SOL    HW186687  12.021   1.957  11.665
62221SOL    HW286688  11.881   1.874  11.680
62222SOL     OW86689  11.369   2.838  12.436
62222SOL    HW186690  11.458   2.793  12.422
62222SOL    HW286691  11.296   2.773  12.417
62223SOL     OW86692  12.638   3.279  12.125
62223SOL    HW186693  12.579   3.285  12.205
62223SOL    HW286694  12.623   3.191  12.079
62224SOL     OW86695  12.839   3.576  11.744
62224SOL    HW186696  12.798   3.553  11.656
62224SOL    HW286697  12.821   3.502  11.809
62225SOL     OW86698  11.770   2.591  11.442
62225SOL    HW186699  11.794   2.660  11.374
62225SOL    HW286700  11.692   2.624  11.496
62226SOL     OW86701  12.453   2.207  12.116
62226SOL    HW186702  12.367   2.157  12.103
62226SOL    HW286703  12.515   2.153  12.172
62227SOL     OW86704  11.979   2.467  12.637
62227SOL    HW186705  11.932   2.464  12.726
62227SOL    HW286706  11.928   2.412  12.571
62228SOL     OW86707  12.145   2.752  12.744
62228SOL    HW186708  12.191   2.668  12.715
62228SOL    HW286709  12.089   2.786  12.669
62229SOL     OW86710  12.163   2.272  12.414
62229SOL    HW186711  12.086   2.306  12.468
62229SOL    HW286712  12.129   2.221  12.335
62230SOL     OW86713  12.213   2.563  11.601
62230SOL    HW186714  12.239   2.559  11.697
62230SOL    HW286715  12.128   2.512  11.587
62231SOL     OW86716  11.248   2.673  11.961
62231SOL    HW186717  11.347   2.661  11.970
62231SOL    HW286718  11.224   2.768  11.982
62232SOL     OW86719  11.302   3.683  12.743
62232SOL    HW186720  11.292   3.668  12.842
62232SOL    HW286721  11.216   3.719  12.707
62233SOL     OW86722  12.037   2.210  11.367
62233SOL    HW186723  12.096   2.273  11.318
62233SOL    HW286724  12.056   2.116  11.338
62234SOL     OW86725  12.534   3.006  11.717
62234SOL    HW186726  12.617   2.977  11.669
62234SOL    HW286727  12.485   3.073  11.661
62235SOL     OW86728  11.722   2.058  12.057
62235SOL    HW186729  11.717   2.053  12.157
62235SOL    HW286730  11.724   2.154  12.028
62236SOL     OW86731  12.180   3.318  11.649
62236SOL    HW186732  12.134   3.390  11.597
62236SOL    HW286733  12.176   3.338  11.747
62237SOL     OW86734  11.523   3.663  12.025
62237SOL    HW186735  11.573   3.577  12.031
62237SOL    HW286736  11.588   3.740  12.022
62238SOL     OW86737  12.399   3.412  12.678
62238SOL    HW186738  12.405   3.335  12.742
62238SOL    HW286739  12.347   3.386  12.598
62239SOL     OW86740  11.493   2.805  11.414
62239SOL    HW186741  11.575   2.844  11.372
62239SOL    HW286742  11.466   2.723  11.365
62240SOL     OW86743  12.630   2.597  11.900
62240SOL    HW186744  12.625   2.532  11.975
62240SOL    HW286745  12.710   2.656  11.913
62241SOL     OW86746  12.283   3.638  11.409
62241SOL    HW186747  12.223   3.576  11.459
62241SOL    HW286748  12.314   3.594  11.324
62242SOL     OW86749  11.374   2.147  12.670
62242SOL    HW186750  11.294   2.207  12.657
62242SOL    HW286751  11.364   2.098  12.756
62243SOL     OW86752  11.636   3.605  11.495
62243SOL    HW186753  11.669   3.644  11.581
62243SOL    HW286754  11.712   3.598  11.430
62244SOL     OW86755  12.572   1.969  11.598
62244SOL    HW186756  12.548   1.932  11.508
62244SOL    HW286757  12.671   1.985  11.602
62245SOL     OW86758  11.421   3.647  12.413
62245SOL    HW186759  11.478   3.582  12.463
62245SOL    HW286760  11.405   3.614  12.320
62246SOL     OW86761  12.112   3.560  12.076
62246SOL    HW186762  12.192   3.503  12.097
62246SOL    HW286763  12.063   3.520  11.999
62247SOL     OW86764  11.554   2.562  11.652
62247SOL    HW186765  11.599   2.472  11.649
62247SOL    HW286766  11.460   2.551  11.685
62248SOL     OW86767  11.786   1.984  11.289
62248SOL    HW186768  11.884   1.962  11.296
62248SOL    HW286769  11.755   1.967  11.196
62249SOL     OW86770  12.060   3.376  12.367
62249SOL    HW186771  12.037   3.351  12.273
62249SOL    HW286772  12.121   3.307  12.406
62250SOL     OW86773  12.523   2.452  12.605
62250SOL    HW186774  12.551   2.409  12.690
62250SOL    HW286775  12.548   2.548  12.606
62251SOL     OW86776  11.975   3.264  12.096
62251SOL    HW186777  12.065   3.278  12.054
62251SOL    HW286778  11.904   3.266  12.025
62252SOL     OW86779  12.094   2.365  12.071
62252SOL    HW186780  12.069   2.356  11.975
62252SOL    HW286781  12.142   2.283  12.102
62253SOL     OW86782  11.711   1.926  11.684
62253SOL    HW186783  11.630   1.927  11.742
62253SOL    HW286784  11.714   2.009  11.629
62254SOL     OW86785  12.606   3.050  11.213
62254SOL    HW186786  12.638   2.974  11.270
62254SOL    HW286787  12.514   3.077  11.243
62255SOL     OW86788  11.469   1.897  11.343
62255SOL    HW186789  11.518   1.981  11.322
62255SOL    HW286790  11.531   1.832  11.388
62256SOL     OW86791  12.107   2.098  11.652
62256SOL    HW186792  12.059   2.139  11.574
62256SOL    HW286793  12.206   2.096  11.633
62257SOL     OW86794  12.248   2.545  12.636
62257SOL    HW186795  12.168   2.484  12.639
62257SOL    HW286796  12.329   2.492  12.612
62258SOL     OW86797  12.399   3.432  11.965
62258SOL    HW186798  12.420   3.506  11.900
62258SOL    HW286799  12.467   3.432  12.038
62259SOL     OW86800  11.631   3.014  11.913
62259SOL    HW186801  11.560   2.987  11.978
62259SOL    HW286802  11.605   2.986  11.820
62260SOL     OW86803  12.443   3.659  11.763
62260SOL    HW186804  12.487   3.723  11.699
62260SOL    HW286805  12.393   3.711  11.833
62261SOL     OW86806  12.204   2.411  11.188
62261SOL    HW186807  12.163   2.493  11.149
62261SOL    HW286808  12.268   2.437  11.261
62262SOL     OW86809  11.250   2.418  12.558
62262SOL    HW186810  11.342   2.417  12.517
62262SOL    HW286811  11.244   2.492  12.625
62263SOL     OW86812  11.733   2.084  12.319
62263SOL    HW186813  11.771   2.000  12.356
62263SOL    HW286814  11.645   2.103  12.363
62264SOL     OW86815  12.038   2.316  11.814
62264SOL    HW186816  12.006   2.388  11.752
62264SOL    HW286817  12.062   2.235  11.761
62265SOL     OW86818  12.189   1.901  11.925
62265SOL    HW186819  12.117   1.906  11.856
62265SOL    HW286820  12.165   1.832  11.994
62266SOL     OW86821  12.601   3.035  12.039
62266SOL    HW186822  12.546   2.951  12.032
62266SOL    HW286823  12.627   3.064  11.947
62267SOL     OW86824  12.638   2.452  12.164
62267SOL    HW186825  12.608   2.357  12.171
62267SOL    HW286826  12.711   2.468  12.230
62268SOL     OW86827  11.660   3.247  11.346
62268SOL    HW186828  11.573   3.232  11.393
62268SOL    HW286829  11.643   3.273  11.251
62269SOL     OW86830  12.562   2.437  11.250
62269SOL    HW186831  12.508   2.416  11.331
62269SOL    HW286832  12.653   2.396  11.259
62270SOL     OW86833  11.699   2.118  11.500
62270SOL    HW186834  11.726   2.059  11.425
62270SOL    HW286835  11.699   2.213  11.469
62271SOL     OW86836  12.236   3.209  12.512
62271SOL    HW186837  12.156   3.186  12.567
62271SOL    HW286838  12.319   3.183  12.561
62272SOL     OW86839  12.283   3.057  12.272
62272SOL    HW186840  12.243   3.101  12.353
62272SOL    HW286841  12.242   3.094  12.189
62273SOL     OW86842  12.087   1.951  12.574
62273SOL    HW186843  12.112   1.931  12.479
62273SOL    HW286844  12.159   2.007  12.616
62274SOL     OW86845  11.877   2.912  11.540
62274SOL    HW186846  11.863   2.919  11.639
62274SOL    HW286847  11.961   2.861  11.522
62275SOL     OW86848  11.582   2.675  12.423
62275SOL    HW186849  11.668   2.687  12.473
62275SOL    HW286850  11.540   2.588  12.450
62276SOL     OW86851  12.446   2.248  12.434
62276SOL    HW186852  12.467   2.322  12.498
62276SOL    HW286853  12.357   2.265  12.391
62277SOL     OW86854  11.236   3.426  12.503
62277SOL    HW186855  11.190   3.508  12.469
62277SOL    HW286856  11.334   3.445  12.512
62278SOL     OW86857  11.539   2.962  11.673
62278SOL    HW186858  11.532   3.045  11.617
62278SOL    HW286859  11.543   2.882  11.613
62279SOL     OW86860  11.738   2.399  12.037
62279SOL    HW186861  11.750   2.465  11.963
62279SOL    HW286862  11.784   2.433  12.120
62280SOL     OW86863  12.424   3.210  11.560
62280SOL    HW186864  12.474   3.287  11.600
62280SOL    HW286865  12.329   3.212  11.592
62281SOL     OW86866  12.444   3.307  12.314
62281SOL    HW186867  12.491   3.320  12.401
62281SOL    HW286868  12.378   3.233  12.323
62282SOL     OW86869  12.754   2.501  11.644
62282SOL    HW186870  12.723   2.562  11.717
62282SOL    HW286871  12.804   2.553  11.575
62283SOL     OW86872  11.526   3.372  12.501
62283SOL    HW186873  11.505   3.328  12.414
62283SOL    HW286874  11.623   3.398  12.504
62284SOL     OW86875  11.574   2.613  12.770
62284SOL    HW186876  11.642   2.668  12.723
62284SOL    HW286877  11.614   2.525  12.797
62285SOL     OW86878  11.745   2.732  12.201
62285SOL    HW186879  11.789   2.821  12.192
62285SOL    HW286880  11.682   2.732  12.278
62286SOL     OW86881  12.532   2.724  12.217
62286SOL    HW186882  12.457   2.724  12.151
62286SOL    HW286883  12.569   2.632  12.226
62287SOL     OW86884  12.381   2.387  11.447
62287SOL    HW186885  12.394   2.303  11.501
62287SOL    HW286886  12.352   2.461  11.507
62288SOL     OW86887  11.479   2.075  12.403
62288SOL    HW186888  11.456   2.112  12.493
62288SOL    HW286889  11.449   1.980  12.397
62289SOL     OW86890  11.209   3.172  12.454
62289SOL    HW186891  11.262   3.123  12.522
62289SOL    HW286892  11.231   3.270  12.459
62290SOL     OW86893  11.904   2.496  12.236
62290SOL    HW186894  11.963   2.470  12.160
62290SOL    HW286895  11.876   2.592  12.225
62291SOL     OW86896  11.479   1.925  11.790
62291SOL    HW186897  11.468   2.019  11.823
62291SOL    HW286898  11.474   1.862  11.867
62292SOL     OW86899  12.794   2.229  11.546
62292SOL    HW186900  12.796   2.153  11.610
62292SOL    HW286901  12.746   2.306  11.586
62293SOL     OW86902  12.195   2.628  12.138
62293SOL    HW186903  12.210   2.649  12.234
62293SOL    HW286904  12.165   2.533  12.129
62294SOL     OW86905  12.712   2.136  11.297
62294SOL    HW186906  12.651   2.061  11.320
62294SOL    HW286907  12.734   2.188  11.380
62295SOL     OW86908  12.475   2.700  11.214
62295SOL    HW186909  12.509   2.607  11.229
62295SOL    HW286910  12.493   2.727  11.119
62296SOL     OW86911  12.240   3.195  12.021
62296SOL    HW186912  12.247   3.111  11.966
62296SOL    HW286913  12.302   3.264  11.985
62297SOL     OW86914  11.491   2.672  12.121
62297SOL    HW186915  11.584   2.708  12.126
62297SOL    HW286916  11.485   2.587  12.173
62298SOL     OW86917  11.511   2.371  12.178
62298SOL    HW186918  11.459   2.288  12.161
62298SOL    HW286919  11.588   2.376  12.114
62299SOL     OW86920  12.332   2.069  12.649
62299SOL    HW186921  12.332   2.133  12.726
62299SOL    HW286922  12.360   2.117  12.566
62300SOL     OW86923  11.180   3.188  11.372
62300SOL    HW186924  11.087   3.209  11.341
62300SOL    HW286925  11.190   3.089  11.385
62301SOL     OW86926  11.260   3.663  12.099
62301SOL    HW186927  11.218   3.577  12.072
62301SOL    HW286928  11.354   3.666  12.065
62302SOL     OW86929  11.676   3.430  12.082
62302SOL    HW186930  11.742   3.504  12.091
62302SOL    HW286931  11.720   3.351  12.040
62303SOL     OW86932  12.174   2.658  12.410
62303SOL    HW186933  12.215   2.626  12.496
62303SOL    HW286934  12.078   2.631  12.407
62304SOL     OW86935  11.212   2.406  12.286
62304SOL    HW186936  11.297   2.373  12.245
62304SOL    HW286937  11.225   2.421  12.384
62305SOL     OW86938  11.424   3.426  12.916
62305SOL    HW186939  11.394   3.483  12.992
62305SOL    HW286940  11.417   3.329  12.942
62306SOL     OW86941  11.843   2.326  12.441
62306SOL    HW186942  11.809   2.237  12.411
62306SOL    HW286943  11.869   2.380  12.361
62307SOL     OW86944  12.102   3.540  12.637
62307SOL    HW186945  12.078   3.522  12.542
62307SOL    HW286946  12.132   3.634  12.647
62308SOL     OW86947  11.645   2.362  11.363
62308SOL    HW186948  11.706   2.442  11.367
62308SOL    HW286949  11.550   2.393  11.370
62309SOL     OW86950  11.331   2.999  12.638
62309SOL    HW186951  11.353   2.938  12.714
62309SOL    HW286952  11.341   2.950  12.552
62310SOL     OW86953  12.519   2.921  12.406
62310SOL    HW186954  12.543   2.858  12.332
62310SOL    HW286955  12.429   2.961  12.388
62311SOL     OW86956  12.474   2.717  11.481
62311SOL    HW186957  12.388   2.686  11.523
62311SOL    HW286958  12.470   2.703  11.382
62312SOL     OW86959  12.424   3.593  12.300
62312SOL    HW186960  12.508   3.598  12.246
62312SOL    HW286961  12.401   3.497  12.318
62313SOL     OW86962  11.255   3.120  12.194
62313SOL    HW186963  11.250   3.119  12.294
62313SOL    HW286964  11.172   3.079  12.156
62314SOL     OW86965  12.898   1.997  11.695
62314SOL    HW186966  12.971   1.980  11.628
62314SOL    HW286967  12.867   1.910  11.733
62315SOL     OW86968  12.560   3.435  11.649
62315SOL    HW186969  12.627   3.447  11.575
62315SOL    HW286970  12.520   3.524  11.672
62316SOL     OW86971  12.452   2.789  11.844
62316SOL    HW186972  12.512   2.708  11.846
62316SOL    HW286973  12.492   2.858  11.784
62317SOL     OW86974  12.002   3.135  12.594
62317SOL    HW186975  11.997   3.168  12.689
62317SOL    HW286976  11.916   3.154  12.548
62318SOL     OW86977  11.844   3.478  11.326
62318SOL    HW186978  11.853   3.488  11.227
62318SOL    HW286979  11.804   3.389  11.347
62319SOL     OW86980  11.435   2.188  11.892
62319SOL    HW186981  11.356   2.239  11.858
62319SOL    HW286982  11.426   2.173  11.990
62320SOL     OW86983  12.366   3.474  11.203
62320SOL    HW186984  12.372   3.381  11.240
62320SOL    HW286985  12.307   3.474  11.123
62321SOL     OW86986  11.994   2.864  12.544
62321SOL    HW186987  12.034   2.863  12.452
62321SOL    HW286988  12.004   2.956  12.584
62322SOL     OW86989  12.088   2.772  11.463
62322SOL    HW186990  12.151   2.810  11.395
62322SOL    HW286991  12.128   2.689  11.502
62323SOL     OW86992  12.676   3.469  11.216
62323SOL    HW186993  12.584   3.506  11.223
62323SOL    HW286994  12.714   3.489  11.126
62324SOL     OW86995  11.544   3.150  12.662
62324SOL    HW186996  11.531   3.243  12.628
62324SOL    HW286997  11.460   3.098  12.649
62325SOL     OW86998  12.211   2.960  11.868
62325SOL    HW186999  12.141   2.913  11.922
62325SOL    HW287000  12.270   2.892  11.825
62326SOL     OW87001  12.186   2.098  12.143
62326SOL    HW187002  12.178   2.062  12.050
62326SOL    HW287003  12.184   2.022  12.208
62327SOL     OW87004  11.762   3.349  11.663
62327SOL    HW187005  11.804   3.291  11.593
62327SOL    HW287006  11.718   3.428  11.619
62328SOL     OW87007  11.427   3.210  11.462
62328SOL    HW187008  11.331   3.211  11.435
62328SOL    HW287009  11.439   3.263  11.546
62329SOL     OW87010  11.277   2.875  12.898
62329SOL    HW187011  11.200   2.842  12.952
62329SOL    HW287012  11.362   2.845  12.940
62330SOL     OW87013  11.844   2.065  12.661
62330SOL    HW187014  11.934   2.049  12.621
62330SOL    HW287015  11.852   2.070  12.760
62331SOL     OW87016  11.247   2.207  11.205
62331SOL    HW187017  11.155   2.179  11.176
62331SOL    HW287018  11.278   2.284  11.149
62332SOL     OW87019  12.612   2.718  12.570
62332SOL    HW187020  12.555   2.770  12.507
62332SOL    HW287021  12.708   2.730  12.546
62333SOL     OW87022  11.244   2.028  11.490
62333SOL    HW187023  11.227   2.111  11.436
62333SOL    HW287024  11.334   1.991  11.468
62334SOL     OW87025  11.785   2.704  12.603
62334SOL    HW187026  11.841   2.785  12.586
62334SOL    HW287027  11.844   2.624  12.606
62335SOL     OW87028  12.665   3.629  12.131
62335SOL    HW187029  12.698   3.693  12.062
62335SOL    HW287030  12.731   3.623  12.206
62336SOL     OW87031  11.888   2.427  12.880
62336SOL    HW187032  11.907   2.492  12.954
62336SOL    HW287033  11.948   2.347  12.889
62337SOL     OW87034  11.562   3.603  12.732
62337SOL    HW187035  11.471   3.644  12.730
62337SOL    HW287036  11.555   3.509  12.764
62338SOL     OW87037  12.397   2.187  11.621
62338SOL    HW187038  12.462   2.113  11.610
62338SOL    HW287039  12.417   2.237  11.705
62339SOL     OW87040  11.766   2.607  11.824
62339SOL    HW187041  11.816   2.692  11.805
62339SOL    HW287042  11.678   2.609  11.776
62340SOL     OW87043  12.031   3.236  11.188
62340SOL    HW187044  11.985   3.251  11.276
62340SOL    HW287045  12.075   3.321  11.158
62341SOL     OW87046  11.833   3.652  12.125
62341SOL    HW187047  11.787   3.740  12.112
62341SOL    HW287048  11.932   3.664  12.118
62342SOL     OW87049  12.031   2.818  12.033
62342SOL    HW187050  12.085   2.749  12.081
62342SOL    HW287051  11.999   2.887  12.099
62343SOL     OW87052  12.255   2.846  11.259
62343SOL    HW187053  12.232   2.899  11.177
62343SOL    HW287054  12.336   2.790  11.240
62344SOL     OW87055  13.033   3.431  12.023
62344SOL    HW187056  12.962   3.419  11.953
62344SOL    HW287057  13.034   3.352  12.083
62345SOL     OW87058  11.251   3.102  11.825
62345SOL    HW187059  11.250   3.055  11.913
62345SOL    HW287060  11.333   3.074  11.774
62346SOL     OW87061  11.844   3.253  12.796
62346SOL    HW187062  11.766   3.203  12.834
62346SOL    HW287063  11.841   3.348  12.827
62347SOL     OW87064  11.600   2.286  11.692
62347SOL    HW187065  11.630   2.214  11.630
62347SOL    HW287066  11.561   2.246  11.775
62348SOL     OW87067  11.489   2.409  12.452
62348SOL    HW187068  11.527   2.350  12.524
62348SOL    HW287069  11.529   2.383  12.364
62349SOL     OW87070  11.984   3.448  11.859
62349SOL    HW187071  12.016   3.458  11.765
62349SOL    HW287072  11.905   3.386  11.861
62350SOL     OW87073  12.596   2.076  12.284
62350SOL    HW187074  12.648   2.011  12.339
62350SOL    HW287075  12.547   2.139  12.345
62351SOL     OW87076  12.173   1.896  12.326
62351SOL    HW187077  12.110   1.824  12.295
62351SOL    HW287078  12.266   1.860  12.326
62352SOL     OW87079  11.942   3.192  11.473
62352SOL    HW187080  11.896   3.105  11.490
62352SOL    HW287081  12.033   3.189  11.514
62353SOL     OW87082  11.790   3.429  12.456
62353SOL    HW187083  11.785   3.511  12.513
62353SOL    HW287084  11.879   3.426  12.411
62354SOL     OW87085  12.524   1.914  11.340
62354SOL    HW187086  12.559   1.873  11.256
62354SOL    HW287087  12.434   1.876  11.360
62355SOL     OW87088  12.472   2.315  11.863
62355SOL    HW187089  12.413   2.395  11.867
62355SOL    HW287090  12.487   2.280  11.956
62356SOL     OW87091  12.765   2.083  12.054
62356SOL    HW187092  12.681   2.082  12.108
62356SOL    HW287093  12.767   2.166  11.998
62357SOL     OW87094  11.211   2.939  11.472
62357SOL    HW187095  11.310   2.928  11.463
62357SOL    HW287096  11.171   2.853  11.504
62358SOL     OW87097  12.047   3.508  11.509
62358SOL    HW187098  11.970   3.473  11.455
62358SOL    HW287099  12.015   3.579  11.571
62359SOL     OW87100  11.402   4.352   0.113
62359SOL    HW187101  11.309   4.350   0.150
62359SOL    HW287102  11.403   4.313   0.021
62360SOL     OW87103  11.397   3.999   0.996
62360SOL    HW187104  11.432   3.982   1.088
62360SOL    HW287105  11.309   3.954   0.984
62361SOL     OW87106  11.191   4.092   0.647
62361SOL    HW187107  11.109   4.135   0.686
62361SOL    HW287108  11.163   4.019   0.584
62362SOL     OW87109  11.741   4.999   1.165
62362SOL    HW187110  11.648   4.992   1.128
62362SOL    HW287111  11.752   5.088   1.209
62363SOL     OW87112  12.727   5.235   0.703
62363SOL    HW187113  12.670   5.219   0.784
62363SOL    HW287114  12.668   5.245   0.623
62364SOL     OW87115  12.307   4.427   0.717
62364SOL    HW187116  12.364   4.505   0.692
62364SOL    HW287117  12.247   4.453   0.793
62365SOL     OW87118  11.940   4.868   1.023
62365SOL    HW187119  11.862   4.885   1.083
62365SOL    HW287120  11.974   4.955   0.987
62366SOL     OW87121  12.022   4.522   1.823
62366SOL    HW187122  12.018   4.598   1.888
62366SOL    HW287123  12.044   4.558   1.732
62367SOL     OW87124  11.857   4.736   0.665
62367SOL    HW187125  11.926   4.720   0.735
62367SOL    HW287126  11.784   4.793   0.703
62368SOL     OW87127  11.858   4.885   1.803
62368SOL    HW187128  11.918   4.964   1.817
62368SOL    HW287129  11.772   4.916   1.762
62369SOL     OW87130  11.507   5.159   1.061
62369SOL    HW187131  11.429   5.128   1.008
62369SOL    HW287132  11.565   5.217   1.004
62370SOL     OW87133  12.632   5.229   1.339
62370SOL    HW187134  12.656   5.323   1.365
62370SOL    HW287135  12.616   5.175   1.421
62371SOL     OW87136  11.610   4.116   1.499
62371SOL    HW187137  11.692   4.060   1.508
62371SOL    HW287138  11.529   4.058   1.503
62372SOL     OW87139  11.403   5.437   0.483
62372SOL    HW187140  11.437   5.514   0.537
62372SOL    HW287141  11.447   5.437   0.393
62373SOL     OW87142  12.299   5.065   1.690
62373SOL    HW187143  12.346   5.065   1.778
62373SOL    HW287144  12.251   4.978   1.679
62374SOL     OW87145  11.402   5.158   0.538
62374SOL    HW187146  11.376   5.254   0.538
62374SOL    HW287147  11.331   5.104   0.583
62375SOL     OW87148  11.412   4.815   0.886
62375SOL    HW187149  11.426   4.731   0.938
62375SOL    HW287150  11.357   4.879   0.941
62376SOL     OW87151  11.792   5.510   1.439
62376SOL    HW187152  11.700   5.493   1.474
62376SOL    HW287153  11.820   5.602   1.465
62377SOL     OW87154  11.778   4.688   0.123
62377SOL    HW187155  11.785   4.772   0.069
62377SOL    HW287156  11.824   4.701   0.211
62378SOL     OW87157  12.766   3.838   1.480
62378SOL    HW187158  12.748   3.905   1.408
62378SOL    HW287159  12.763   3.884   1.569
62379SOL     OW87160  11.294   4.367   0.563
62379SOL    HW187161  11.249   4.279   0.580
62379SOL    HW287162  11.293   4.421   0.647
62380SOL     OW87163  11.199   5.320   0.117
62380SOL    HW187164  11.180   5.224   0.138
62380SOL    HW287165  11.166   5.378   0.192
62381SOL     OW87166  12.861   4.646   0.612
62381SOL    HW187167  12.956   4.617   0.620
62381SOL    HW287168  12.853   4.711   0.537
62382SOL     OW87169  11.285   4.461   1.597
62382SOL    HW187170  11.373   4.448   1.642
62382SOL    HW287171  11.272   4.558   1.575
62383SOL     OW87172  11.785   5.089   0.726
62383SOL    HW187173  11.736   5.002   0.735
62383SOL    HW287174  11.762   5.132   0.639
62384SOL     OW87175  12.465   4.952   1.423
62384SOL    HW187176  12.502   4.879   1.365
62384SOL    HW287177  12.517   4.957   1.508
62385SOL     OW87178  11.981   3.728   0.502
62385SOL    HW187179  12.021   3.819   0.493
62385SOL    HW287180  11.881   3.736   0.508
62386SOL     OW87181  11.369   4.700   1.264
62386SOL    HW187182  11.458   4.655   1.250
62386SOL    HW287183  11.296   4.635   1.245
62387SOL     OW87184  12.359   5.516   1.616
62387SOL    HW187185  12.383   5.576   1.540
62387SOL    HW287186  12.366   5.421   1.586
62388SOL     OW87187  11.489   3.975   1.801
62388SOL    HW187188  11.560   4.046   1.807
62388SOL    HW287189  11.401   4.014   1.829
62389SOL     OW87190  12.638   5.141   0.953
62389SOL    HW187191  12.579   5.147   1.033
62389SOL    HW287192  12.623   5.053   0.907
62390SOL     OW87193  12.839   5.438   0.572
62390SOL    HW187194  12.798   5.415   0.484
62390SOL    HW287195  12.821   5.364   0.637
62391SOL     OW87196  11.770   4.453   0.270
62391SOL    HW187197  11.794   4.522   0.202
62391SOL    HW287198  11.692   4.486   0.324
62392SOL     OW87199  12.453   4.069   0.944
62392SOL    HW187200  12.367   4.019   0.931
62392SOL    HW287201  12.515   4.015   1.000
62393SOL     OW87202  11.979   4.329   1.465
62393SOL    HW187203  11.932   4.326   1.554
62393SOL    HW287204  11.928   4.274   1.399
62394SOL     OW87205  12.566   4.193   1.674
62394SOL    HW187206  12.546   4.236   1.762
62394SOL    HW287207  12.644   4.131   1.683
62395SOL     OW87208  12.145   4.614   1.572
62395SOL    HW187209  12.191   4.530   1.543
62395SOL    HW287210  12.089   4.648   1.497
62396SOL     OW87211  12.163   4.134   1.242
62396SOL    HW187212  12.086   4.168   1.296
62396SOL    HW287213  12.129   4.083   1.163
62397SOL     OW87214  12.213   4.425   0.429
62397SOL    HW187215  12.239   4.421   0.525
62397SOL    HW287216  12.128   4.374   0.415
62398SOL     OW87217  11.248   4.535   0.789
62398SOL    HW187218  11.347   4.523   0.798
62398SOL    HW287219  11.224   4.630   0.810
62399SOL     OW87220  11.302   5.545   1.571
62399SOL    HW187221  11.292   5.530   1.670
62399SOL    HW287222  11.216   5.581   1.535
62400SOL     OW87223  12.037   4.072   0.195
62400SOL    HW187224  12.096   4.135   0.146
62400SOL    HW287225  12.056   3.978   0.166
62401SOL     OW87226  12.534   4.868   0.545
62401SOL    HW187227  12.617   4.839   0.497
62401SOL    HW287228  12.485   4.935   0.489
62402SOL     OW87229  11.722   3.920   0.885
62402SOL    HW187230  11.717   3.915   0.985
62402SOL    HW287231  11.724   4.016   0.856
62403SOL     OW87232  12.180   5.180   0.477
62403SOL    HW187233  12.134   5.252   0.425
62403SOL    HW287234  12.176   5.200   0.575
62404SOL     OW87235  11.523   5.525   0.853
62404SOL    HW187236  11.573   5.439   0.859
62404SOL    HW287237  11.588   5.602   0.850
62405SOL     OW87238  12.399   5.274   1.506
62405SOL    HW187239  12.405   5.197   1.570
62405SOL    HW287240  12.347   5.248   1.426
62406SOL     OW87241  11.493   4.667   0.242
62406SOL    HW187242  11.575   4.706   0.200
62406SOL    HW287243  11.466   4.585   0.193
62407SOL     OW87244  12.630   4.459   0.728
62407SOL    HW187245  12.625   4.394   0.803
62407SOL    HW287246  12.710   4.518   0.741
62408SOL     OW87247  11.633   4.990   1.727
62408SOL    HW187248  11.583   4.991   1.641
62408SOL    HW287249  11.570   4.972   1.803
62409SOL     OW87250  12.283   5.500   0.237
62409SOL    HW187251  12.223   5.438   0.287
62409SOL    HW287252  12.314   5.456   0.152
62410SOL     OW87253  11.374   4.009   1.498
62410SOL    HW187254  11.294   4.069   1.485
62410SOL    HW287255  11.364   3.960   1.584
62411SOL     OW87256  11.636   5.467   0.323
62411SOL    HW187257  11.669   5.506   0.409
62411SOL    HW287258  11.712   5.460   0.258
62412SOL     OW87259  12.572   3.831   0.426
62412SOL    HW187260  12.548   3.794   0.336
62412SOL    HW287261  12.671   3.847   0.430
62413SOL     OW87262  11.421   5.509   1.241
62413SOL    HW187263  11.478   5.444   1.291
62413SOL    HW287264  11.405   5.476   1.148
62414SOL     OW87265  12.112   5.422   0.904
62414SOL    HW187266  12.192   5.365   0.925
62414SOL    HW287267  12.063   5.382   0.827
62415SOL     OW87268  11.554   4.424   0.480
62415SOL    HW187269  11.599   4.334   0.477
62415SOL    HW287270  11.460   4.413   0.513
62416SOL     OW87271  11.786   3.846   0.117
62416SOL    HW187272  11.884   3.824   0.124
62416SOL    HW287273  11.755   3.829   0.024
62417SOL     OW87274  11.953   3.988   1.749
62417SOL    HW187275  12.020   3.927   1.792
62417SOL    HW287276  11.880   4.007   1.814
62418SOL     OW87277  12.060   5.238   1.195
62418SOL    HW187278  12.037   5.213   1.101
62418SOL    HW287279  12.121   5.169   1.234
62419SOL     OW87280  12.523   4.314   1.433
62419SOL    HW187281  12.551   4.271   1.518
62419SOL    HW287282  12.548   4.410   1.434
62420SOL     OW87283  11.975   5.126   0.924
62420SOL    HW187284  12.065   5.140   0.882
62420SOL    HW287285  11.904   5.128   0.853
62421SOL     OW87286  12.094   4.227   0.899
62421SOL    HW187287  12.069   4.218   0.803
62421SOL    HW287288  12.142   4.145   0.930
62422SOL     OW87289  11.711   3.788   0.512
62422SOL    HW187290  11.630   3.789   0.570
62422SOL    HW287291  11.714   3.871   0.457
62423SOL     OW87292  12.606   4.912   0.041
62423SOL    HW187293  12.638   4.836   0.098
62423SOL    HW287294  12.514   4.939   0.071
62424SOL     OW87295  11.469   3.759   0.171
62424SOL    HW187296  11.518   3.843   0.150
62424SOL    HW287297  11.531   3.694   0.216
62425SOL     OW87298  12.107   3.960   0.480
62425SOL    HW187299  12.059   4.001   0.402
62425SOL    HW287300  12.206   3.958   0.461
62426SOL     OW87301  12.248   4.407   1.464
62426SOL    HW187302  12.168   4.346   1.467
62426SOL    HW287303  12.329   4.354   1.440
62427SOL     OW87304  12.399   5.294   0.793
62427SOL    HW187305  12.420   5.368   0.728
62427SOL    HW287306  12.467   5.294   0.866
62428SOL     OW87307  11.631   4.876   0.741
62428SOL    HW187308  11.560   4.849   0.806
62428SOL    HW287309  11.605   4.848   0.648
62429SOL     OW87310  12.443   5.521   0.591
62429SOL    HW187311  12.487   5.585   0.527
62429SOL    HW287312  12.393   5.573   0.661
62430SOL     OW87313  12.204   4.273   0.016
62430SOL    HW187314  12.163   4.355  -0.023
62430SOL    HW287315  12.268   4.299   0.089
62431SOL     OW87316  11.250   4.280   1.386
62431SOL    HW187317  11.342   4.279   1.345
62431SOL    HW287318  11.244   4.354   1.453
62432SOL     OW87319  11.733   3.946   1.147
62432SOL    HW187320  11.771   3.862   1.184
62432SOL    HW287321  11.645   3.965   1.191
62433SOL     OW87322  12.038   4.178   0.642
62433SOL    HW187323  12.006   4.250   0.580
62433SOL    HW287324  12.062   4.097   0.589
62434SOL     OW87325  12.189   3.763   0.753
62434SOL    HW187326  12.117   3.768   0.684
62434SOL    HW287327  12.165   3.694   0.822
62435SOL     OW87328  12.601   4.897   0.867
62435SOL    HW187329  12.546   4.813   0.860
62435SOL    HW287330  12.627   4.926   0.775
62436SOL     OW87331  12.638   4.314   0.992
62436SOL    HW187332  12.608   4.219   0.999
62436SOL    HW287333  12.711   4.330   1.058
62437SOL     OW87334  11.660   5.109   0.174
62437SOL    HW187335  11.573   5.094   0.221
62437SOL    HW287336  11.643   5.135   0.079
62438SOL     OW87337  12.562   4.299   0.078
62438SOL    HW187338  12.508   4.278   0.159
62438SOL    HW287339  12.653   4.258   0.087
62439SOL     OW87340  11.699   3.980   0.328
62439SOL    HW187341  11.726   3.921   0.253
62439SOL    HW287342  11.699   4.075   0.297
62440SOL     OW87343  12.236   5.071   1.340
62440SOL    HW187344  12.156   5.048   1.395
62440SOL    HW287345  12.319   5.045   1.389
62441SOL     OW87346  12.764   5.353   1.625
62441SOL    HW187347  12.791   5.387   1.535
62441SOL    HW287348  12.843   5.315   1.671
62442SOL     OW87349  12.283   4.919   1.100
62442SOL    HW187350  12.243   4.963   1.181
62442SOL    HW287351  12.242   4.956   1.017
62443SOL     OW87352  12.087   3.813   1.402
62443SOL    HW187353  12.112   3.793   1.307
62443SOL    HW287354  12.159   3.869   1.444
62444SOL     OW87355  12.152   4.840   1.719
62444SOL    HW187356  12.053   4.846   1.729
62444SOL    HW287357  12.175   4.760   1.663
62445SOL     OW87358  11.877   4.774   0.368
62445SOL    HW187359  11.863   4.781   0.467
62445SOL    HW287360  11.961   4.723   0.350
62446SOL     OW87361  11.582   4.537   1.251
62446SOL    HW187362  11.668   4.549   1.301
62446SOL    HW287363  11.540   4.450   1.278
62447SOL     OW87364  12.446   4.110   1.262
62447SOL    HW187365  12.467   4.184   1.326
62447SOL    HW287366  12.357   4.127   1.219
62448SOL     OW87367  11.236   5.288   1.331
62448SOL    HW187368  11.190   5.370   1.297
62448SOL    HW287369  11.334   5.307   1.340
62449SOL     OW87370  11.539   4.824   0.501
62449SOL    HW187371  11.532   4.907   0.445
62449SOL    HW287372  11.543   4.744   0.441
62450SOL     OW87373  11.738   4.261   0.865
62450SOL    HW187374  11.750   4.327   0.791
62450SOL    HW287375  11.784   4.295   0.948
62451SOL     OW87376  12.424   5.072   0.388
62451SOL    HW187377  12.474   5.149   0.428
62451SOL    HW287378  12.329   5.074   0.420
62452SOL     OW87379  12.444   5.169   1.142
62452SOL    HW187380  12.491   5.182   1.229
62452SOL    HW287381  12.378   5.095   1.151
62453SOL     OW87382  12.754   4.363   0.472
62453SOL    HW187383  12.723   4.424   0.545
62453SOL    HW287384  12.804   4.415   0.403
62454SOL     OW87385  11.526   5.234   1.329
62454SOL    HW187386  11.505   5.190   1.242
62454SOL    HW287387  11.623   5.260   1.332
62455SOL     OW87388  11.574   4.475   1.598
62455SOL    HW187389  11.642   4.530   1.551
62455SOL    HW287390  11.614   4.387   1.625
62456SOL     OW87391  12.185   3.829   1.770
62456SOL    HW187392  12.191   3.914   1.718
62456SOL    HW287393  12.217   3.753   1.713
62457SOL     OW87394  11.676   3.774   1.740
62457SOL    HW187395  11.634   3.717   1.670
62457SOL    HW287396  11.610   3.843   1.772
62458SOL     OW87397  11.745   4.594   1.029
62458SOL    HW187398  11.789   4.683   1.020
62458SOL    HW287399  11.682   4.594   1.106
62459SOL     OW87400  12.532   4.586   1.045
62459SOL    HW187401  12.457   4.586   0.979
62459SOL    HW287402  12.569   4.494   1.054
62460SOL     OW87403  12.381   4.249   0.275
62460SOL    HW187404  12.394   4.165   0.329
62460SOL    HW287405  12.352   4.323   0.335
62461SOL     OW87406  11.479   3.937   1.231
62461SOL    HW187407  11.456   3.974   1.321
62461SOL    HW287408  11.449   3.842   1.225
62462SOL     OW87409  11.209   5.034   1.282
62462SOL    HW187410  11.262   4.985   1.350
62462SOL    HW287411  11.231   5.132   1.287
62463SOL     OW87412  11.904   4.358   1.064
62463SOL    HW187413  11.963   4.332   0.988
62463SOL    HW287414  11.876   4.454   1.053
62464SOL     OW87415  11.479   3.787   0.618
62464SOL    HW187416  11.468   3.881   0.651
62464SOL    HW287417  11.474   3.724   0.695
62465SOL     OW87418  12.794   4.091   0.374
62465SOL    HW187419  12.796   4.015   0.438
62465SOL    HW287420  12.746   4.168   0.414
62466SOL     OW87421  12.195   4.490   0.966
62466SOL    HW187422  12.210   4.511   1.062
62466SOL    HW287423  12.165   4.395   0.957
62467SOL     OW87424  12.152   5.297   1.700
62467SOL    HW187425  12.132   5.341   1.612
62467SOL    HW287426  12.191   5.206   1.684
62468SOL     OW87427  11.522   4.622   1.804
62468SOL    HW187428  11.598   4.666   1.852
62468SOL    HW287429  11.557   4.575   1.722
62469SOL     OW87430  12.712   3.998   0.125
62469SOL    HW187431  12.651   3.923   0.148
62469SOL    HW287432  12.734   4.050   0.208
62470SOL     OW87433  12.475   4.562   0.042
62470SOL    HW187434  12.509   4.469   0.057
62470SOL    HW287435  12.493   4.589  -0.053
62471SOL     OW87436  12.240   5.057   0.849
62471SOL    HW187437  12.247   4.973   0.794
62471SOL    HW287438  12.302   5.126   0.813
62472SOL     OW87439  11.491   4.534   0.949
62472SOL    HW187440  11.584   4.570   0.954
62472SOL    HW287441  11.485   4.449   1.001
62473SOL     OW87442  11.511   4.233   1.006
62473SOL    HW187443  11.459   4.150   0.989
62473SOL    HW287444  11.588   4.238   0.942
62474SOL     OW87445  12.310   4.104   1.678
62474SOL    HW187446  12.265   4.167   1.742
62474SOL    HW287447  12.403   4.135   1.661
62475SOL     OW87448  12.332   3.931   1.477
62475SOL    HW187449  12.332   3.995   1.554
62475SOL    HW287450  12.360   3.979   1.394
62476SOL     OW87451  11.180   5.050   0.200
62476SOL    HW187452  11.087   5.071   0.169
62476SOL    HW287453  11.190   4.951   0.213
62477SOL     OW87454  11.260   5.525   0.927
62477SOL    HW187455  11.218   5.439   0.900
62477SOL    HW287456  11.354   5.528   0.893
62478SOL     OW87457  11.676   5.292   0.910
62478SOL    HW187458  11.742   5.366   0.919
62478SOL    HW287459  11.720   5.213   0.868
62479SOL     OW87460  12.174   4.520   1.238
62479SOL    HW187461  12.215   4.488   1.324
62479SOL    HW287462  12.078   4.493   1.235
62480SOL     OW87463  11.212   4.268   1.114
62480SOL    HW187464  11.297   4.235   1.073
62480SOL    HW287465  11.225   4.283   1.212
62481SOL     OW87466  11.361   4.244   1.722
62481SOL    HW187467  11.420   4.204   1.652
62481SOL    HW287468  11.303   4.315   1.681
62482SOL     OW87469  12.541   4.674   1.660
62482SOL    HW187470  12.580   4.763   1.680
62482SOL    HW287471  12.551   4.654   1.563
62483SOL     OW87472  11.987   4.296   0.325
62483SOL    HW187473  11.994   4.207   0.279
62483SOL    HW287474  11.893   4.330   0.317
62484SOL     OW87475  11.424   5.288   1.744
62484SOL    HW187476  11.394   5.345   1.820
62484SOL    HW287477  11.417   5.191   1.770
62485SOL     OW87478  11.843   4.188   1.269
62485SOL    HW187479  11.809   4.099   1.239
62485SOL    HW287480  11.869   4.242   1.189
62486SOL     OW87481  12.102   5.402   1.465
62486SOL    HW187482  12.078   5.384   1.370
62486SOL    HW287483  12.132   5.496   1.475
62487SOL     OW87484  11.645   4.224   0.191
62487SOL    HW187485  11.706   4.304   0.195
62487SOL    HW287486  11.550   4.255   0.198
62488SOL     OW87487  11.331   4.861   1.466
62488SOL    HW187488  11.353   4.800   1.542
62488SOL    HW287489  11.341   4.812   1.380
62489SOL     OW87490  12.519   4.783   1.234
62489SOL    HW187491  12.543   4.720   1.160
62489SOL    HW287492  12.429   4.823   1.216
62490SOL     OW87493  12.474   4.579   0.309
62490SOL    HW187494  12.388   4.548   0.351
62490SOL    HW287495  12.470   4.565   0.210
62491SOL     OW87496  12.424   5.455   1.128
62491SOL    HW187497  12.508   5.460   1.074
62491SOL    HW287498  12.401   5.359   1.146
62492SOL     OW87499  11.255   4.982   1.022
62492SOL    HW187500  11.250   4.981   1.122
62492SOL    HW287501  11.172   4.941   0.984
62493SOL     OW87502  11.860   5.386   1.716
62493SOL    HW187503  11.804   5.467   1.725
62493SOL    HW287504  11.912   5.390   1.630
62494SOL     OW87505  12.075   3.810   0.133
62494SOL    HW187506  12.126   3.811   0.047
62494SOL    HW287507  12.131   3.768   0.204
62495SOL     OW87508  12.898   3.859   0.523
62495SOL    HW187509  12.971   3.842   0.456
62495SOL    HW287510  12.867   3.772   0.561
62496SOL     OW87511  12.560   5.297   0.477
62496SOL    HW187512  12.627   5.309   0.403
62496SOL    HW287513  12.520   5.386   0.500
62497SOL     OW87514  11.302   5.518   1.851
62497SOL    HW187515  11.261   5.444   1.904
62497SOL    HW287516  11.366   5.569   1.909
62498SOL     OW87517  12.452   4.651   0.672
62498SOL    HW187518  12.512   4.570   0.674
62498SOL    HW287519  12.492   4.720   0.612
62499SOL     OW87520  12.002   4.997   1.422
62499SOL    HW187521  11.997   5.030   1.517
62499SOL    HW287522  11.916   5.016   1.376
62500SOL     OW87523  11.844   5.340   0.154
62500SOL    HW187524  11.853   5.350   0.055
62500SOL    HW287525  11.804   5.251   0.175
62501SOL     OW87526  11.435   4.050   0.720
62501SOL    HW187527  11.356   4.101   0.686
62501SOL    HW287528  11.426   4.035   0.818
62502SOL     OW87529  12.366   5.336   0.031
62502SOL    HW187530  12.372   5.243   0.068
62502SOL    HW287531  12.307   5.336  -0.049
62503SOL     OW87532  12.088   4.634   0.291
62503SOL    HW187533  12.151   4.672   0.223
62503SOL    HW287534  12.128   4.551   0.330
62504SOL     OW87535  12.676   5.331   0.044
62504SOL    HW187536  12.584   5.368   0.051
62504SOL    HW287537  12.714   5.351  -0.046
62505SOL     OW87538  11.544   5.012   1.490
62505SOL    HW187539  11.531   5.105   1.456
62505SOL    HW287540  11.460   4.960   1.477
62506SOL     OW87541  12.211   4.822   0.696
62506SOL    HW187542  12.141   4.775   0.750
62506SOL    HW287543  12.270   4.754   0.653
62507SOL     OW87544  12.186   3.960   0.971
62507SOL    HW187545  12.178   3.924   0.878
62507SOL    HW287546  12.184   3.884   1.036
62508SOL     OW87547  11.762   5.211   0.491
62508SOL    HW187548  11.804   5.153   0.421
62508SOL    HW287549  11.718   5.290   0.447
62509SOL     OW87550  11.427   5.072   0.290
62509SOL    HW187551  11.331   5.073   0.263
62509SOL    HW287552  11.439   5.125   0.374
62510SOL     OW87553  11.277   4.737   1.726
62510SOL    HW187554  11.200   4.704   1.780
62510SOL    HW287555  11.362   4.707   1.768
62511SOL     OW87556  11.844   3.927   1.489
62511SOL    HW187557  11.934   3.911   1.449
62511SOL    HW287558  11.852   3.932   1.588
62512SOL     OW87559  12.612   4.580   1.398
62512SOL    HW187560  12.555   4.632   1.335
62512SOL    HW287561  12.708   4.592   1.374
62513SOL     OW87562  11.244   3.890   0.318
62513SOL    HW187563  11.227   3.973   0.264
62513SOL    HW287564  11.334   3.853   0.296
62514SOL     OW87565  12.355   5.059   0.119
62514SOL    HW187566  12.256   5.048   0.121
62514SOL    HW287567  12.389   5.074   0.212
62515SOL     OW87568  11.785   4.566   1.431
62515SOL    HW187569  11.841   4.647   1.414
62515SOL    HW287570  11.844   4.486   1.434
62516SOL     OW87571  12.665   5.491   0.959
62516SOL    HW187572  12.698   5.555   0.890
62516SOL    HW287573  12.731   5.485   1.034
62517SOL     OW87574  11.888   4.289   1.708
62517SOL    HW187575  11.907   4.354   1.782
62517SOL    HW287576  11.948   4.209   1.717
62518SOL     OW87577  12.622   4.944   1.633
62518SOL    HW187578  12.613   4.934   1.732
62518SOL    HW287579  12.718   4.937   1.607
62519SOL     OW87580  11.562   5.465   1.560
62519SOL    HW187581  11.471   5.506   1.558
62519SOL    HW287582  11.555   5.371   1.592
62520SOL     OW87583  12.397   4.049   0.449
62520SOL    HW187584  12.462   3.975   0.438
62520SOL    HW287585  12.417   4.099   0.533
62521SOL     OW87586  11.766   4.469   0.652
62521SOL    HW187587  11.816   4.554   0.633
62521SOL    HW287588  11.678   4.471   0.604
62522SOL     OW87589  12.031   5.098   0.016
62522SOL    HW187590  11.985   5.113   0.104
62522SOL    HW287591  12.075   5.183  -0.014
62523SOL     OW87592  11.833   5.514   0.953
62523SOL    HW187593  11.787   5.602   0.940
62523SOL    HW287594  11.932   5.526   0.946
62524SOL     OW87595  12.031   4.680   0.861
62524SOL    HW187596  12.085   4.611   0.909
62524SOL    HW287597  11.999   4.749   0.927
62525SOL     OW87598  12.255   4.708   0.087
62525SOL    HW187599  12.232   4.761   0.005
62525SOL    HW287600  12.336   4.652   0.068
62526SOL     OW87601  13.033   5.293   0.851
62526SOL    HW187602  12.962   5.281   0.781
62526SOL    HW287603  13.034   5.214   0.911
62527SOL     OW87604  11.393   5.038   1.844
62527SOL    HW187605  11.328   4.965   1.823
62527SOL    HW287606  11.397   5.052   1.942
62528SOL     OW87607  11.251   4.964   0.653
62528SOL    HW187608  11.250   4.917   0.741
62528SOL    HW287609  11.333   4.936   0.602
62529SOL     OW87610  11.844   5.115   1.624
62529SOL    HW187611  11.766   5.065   1.662
62529SOL    HW287612  11.841   5.210   1.655
62530SOL     OW87613  11.600   4.148   0.520
62530SOL    HW187614  11.630   4.076   0.458
62530SOL    HW287615  11.561   4.108   0.603
62531SOL     OW87616  11.489   4.271   1.280
62531SOL    HW187617  11.527   4.212   1.352
62531SOL    HW287618  11.529   4.245   1.192
62532SOL     OW87619  11.984   5.310   0.687
62532SOL    HW187620  12.016   5.320   0.593
62532SOL    HW287621  11.905   5.248   0.689
62533SOL     OW87622  12.596   3.938   1.112
62533SOL    HW187623  12.648   3.873   1.167
62533SOL    HW287624  12.547   4.001   1.173
62534SOL     OW87625  12.173   3.758   1.154
62534SOL    HW187626  12.110   3.686   1.123
62534SOL    HW287627  12.266   3.722   1.154
62535SOL     OW87628  11.942   5.054   0.301
62535SOL    HW187629  11.896   4.967   0.318
62535SOL    HW287630  12.033   5.051   0.342
62536SOL     OW87631  11.790   5.291   1.284
62536SOL    HW187632  11.785   5.373   1.341
62536SOL    HW287633  11.879   5.288   1.239
62537SOL     OW87634  12.524   3.776   0.168
62537SOL    HW187635  12.559   3.735   0.084
62537SOL    HW287636  12.434   3.738   0.188
62538SOL     OW87637  12.472   4.177   0.691
62538SOL    HW187638  12.413   4.257   0.695
62538SOL    HW287639  12.487   4.142   0.784
62539SOL     OW87640  12.765   3.945   0.882
62539SOL    HW187641  12.681   3.944   0.936
62539SOL    HW287642  12.767   4.028   0.826
62540SOL     OW87643  11.211   4.801   0.300
62540SOL    HW187644  11.310   4.790   0.291
62540SOL    HW287645  11.171   4.715   0.332
62541SOL     OW87646  12.047   5.370   0.337
62541SOL    HW187647  11.970   5.335   0.283
62541SOL    HW287648  12.015   5.441   0.399
62542SOL     OW87649  11.402   4.352   1.975
62542SOL    HW187650  11.309   4.350   2.012
62542SOL    HW287651  11.403   4.313   1.883
62543SOL     OW87652  11.397   3.999   2.858
62543SOL    HW187653  11.432   3.982   2.950
62543SOL    HW287654  11.309   3.954   2.846
62544SOL     OW87655  11.191   4.092   2.509
62544SOL    HW187656  11.109   4.135   2.548
62544SOL    HW287657  11.163   4.019   2.446
62545SOL     OW87658  11.741   4.999   3.027
62545SOL    HW187659  11.648   4.992   2.990
62545SOL    HW287660  11.752   5.088   3.071
62546SOL     OW87661  12.727   5.235   2.565
62546SOL    HW187662  12.670   5.219   2.646
62546SOL    HW287663  12.668   5.245   2.485
62547SOL     OW87664  12.307   4.427   2.579
62547SOL    HW187665  12.364   4.505   2.554
62547SOL    HW287666  12.247   4.453   2.655
62548SOL     OW87667  11.940   4.868   2.885
62548SOL    HW187668  11.862   4.885   2.945
62548SOL    HW287669  11.974   4.955   2.849
62549SOL     OW87670  12.022   4.522   3.685
62549SOL    HW187671  12.018   4.598   3.750
62549SOL    HW287672  12.044   4.558   3.594
62550SOL     OW87673  11.857   4.736   2.527
62550SOL    HW187674  11.926   4.720   2.597
62550SOL    HW287675  11.784   4.793   2.565
62551SOL     OW87676  11.858   4.885   3.665
62551SOL    HW187677  11.918   4.964   3.679
62551SOL    HW287678  11.772   4.916   3.624
62552SOL     OW87679  12.632   5.229   3.201
62552SOL    HW187680  12.656   5.323   3.227
62552SOL    HW287681  12.616   5.175   3.283
62553SOL     OW87682  11.610   4.116   3.361
62553SOL    HW187683  11.692   4.060   3.370
62553SOL    HW287684  11.529   4.058   3.365
62554SOL     OW87685  11.403   5.437   2.345
62554SOL    HW187686  11.437   5.514   2.399
62554SOL    HW287687  11.447   5.437   2.255
62555SOL     OW87688  12.299   5.065   3.552
62555SOL    HW187689  12.346   5.065   3.640
62555SOL    HW287690  12.251   4.978   3.541
62556SOL     OW87691  11.402   5.158   2.400
62556SOL    HW187692  11.376   5.254   2.400
62556SOL    HW287693  11.331   5.104   2.445
62557SOL     OW87694  11.412   4.815   2.748
62557SOL    HW187695  11.426   4.731   2.800
62557SOL    HW287696  11.357   4.879   2.803
62558SOL     OW87697  11.792   5.510   3.301
62558SOL    HW187698  11.700   5.493   3.336
62558SOL    HW287699  11.820   5.602   3.327
62559SOL     OW87700  11.778   4.688   1.985
62559SOL    HW187701  11.785   4.772   1.931
62559SOL    HW287702  11.824   4.701   2.073
62560SOL     OW87703  12.766   3.838   3.342
62560SOL    HW187704  12.748   3.905   3.270
62560SOL    HW287705  12.763   3.884   3.431
62561SOL     OW87706  11.294   4.367   2.425
62561SOL    HW187707  11.249   4.279   2.442
62561SOL    HW287708  11.293   4.421   2.509
62562SOL     OW87709  11.199   5.320   1.979
62562SOL    HW187710  11.180   5.224   2.000
62562SOL    HW287711  11.166   5.378   2.054
62563SOL     OW87712  12.861   4.646   2.474
62563SOL    HW187713  12.956   4.617   2.482
62563SOL    HW287714  12.853   4.711   2.399
62564SOL     OW87715  11.285   4.461   3.459
62564SOL    HW187716  11.373   4.448   3.504
62564SOL    HW287717  11.272   4.558   3.437
62565SOL     OW87718  11.785   5.089   2.588
62565SOL    HW187719  11.736   5.002   2.597
62565SOL    HW287720  11.762   5.132   2.501
62566SOL     OW87721  12.465   4.952   3.285
62566SOL    HW187722  12.502   4.879   3.227
62566SOL    HW287723  12.517   4.957   3.370
62567SOL     OW87724  11.369   4.700   3.126
62567SOL    HW187725  11.458   4.655   3.112
62567SOL    HW287726  11.296   4.635   3.107
62568SOL     OW87727  12.359   5.516   3.478
62568SOL    HW187728  12.383   5.576   3.402
62568SOL    HW287729  12.366   5.421   3.448
62569SOL     OW87730  11.489   3.975   3.663
62569SOL    HW187731  11.560   4.046   3.669
62569SOL    HW287732  11.401   4.014   3.691
62570SOL     OW87733  12.638   5.141   2.815
62570SOL    HW187734  12.579   5.147   2.895
62570SOL    HW287735  12.623   5.053   2.769
62571SOL     OW87736  12.839   5.438   2.434
62571SOL    HW187737  12.798   5.415   2.346
62571SOL    HW287738  12.821   5.364   2.499
62572SOL     OW87739  11.770   4.453   2.132
62572SOL    HW187740  11.794   4.522   2.064
62572SOL    HW287741  11.692   4.486   2.186
62573SOL     OW87742  12.453   4.069   2.806
62573SOL    HW187743  12.367   4.019   2.793
62573SOL    HW287744  12.515   4.015   2.862
62574SOL     OW87745  11.979   4.329   3.327
62574SOL    HW187746  11.932   4.326   3.416
62574SOL    HW287747  11.928   4.274   3.261
62575SOL     OW87748  12.566   4.193   3.536
62575SOL    HW187749  12.546   4.236   3.624
62575SOL    HW287750  12.644   4.131   3.545
62576SOL     OW87751  12.145   4.614   3.434
62576SOL    HW187752  12.191   4.530   3.405
62576SOL    HW287753  12.089   4.648   3.359
62577SOL     OW87754  12.163   4.134   3.104
62577SOL    HW187755  12.086   4.168   3.158
62577SOL    HW287756  12.129   4.083   3.025
62578SOL     OW87757  12.213   4.425   2.291
62578SOL    HW187758  12.239   4.421   2.387
62578SOL    HW287759  12.128   4.374   2.277
62579SOL     OW87760  11.248   4.535   2.651
62579SOL    HW187761  11.347   4.523   2.660
62579SOL    HW287762  11.224   4.630   2.672
62580SOL     OW87763  11.302   5.545   3.433
62580SOL    HW187764  11.292   5.530   3.532
62580SOL    HW287765  11.216   5.581   3.397
62581SOL     OW87766  12.037   4.072   2.057
62581SOL    HW187767  12.096   4.135   2.008
62581SOL    HW287768  12.056   3.978   2.028
62582SOL     OW87769  12.534   4.868   2.407
62582SOL    HW187770  12.617   4.839   2.359
62582SOL    HW287771  12.485   4.935   2.351
62583SOL     OW87772  11.722   3.920   2.747
62583SOL    HW187773  11.717   3.915   2.847
62583SOL    HW287774  11.724   4.016   2.718
62584SOL     OW87775  12.180   5.180   2.339
62584SOL    HW187776  12.134   5.252   2.287
62584SOL    HW287777  12.176   5.200   2.437
62585SOL     OW87778  11.523   5.525   2.715
62585SOL    HW187779  11.573   5.439   2.721
62585SOL    HW287780  11.588   5.602   2.712
62586SOL     OW87781  12.399   5.274   3.368
62586SOL    HW187782  12.405   5.197   3.432
62586SOL    HW287783  12.347   5.248   3.288
62587SOL     OW87784  11.493   4.667   2.104
62587SOL    HW187785  11.575   4.706   2.062
62587SOL    HW287786  11.466   4.585   2.055
62588SOL     OW87787  12.630   4.459   2.590
62588SOL    HW187788  12.625   4.394   2.665
62588SOL    HW287789  12.710   4.518   2.603
62589SOL     OW87790  11.633   4.990   3.589
62589SOL    HW187791  11.583   4.991   3.503
62589SOL    HW287792  11.570   4.972   3.665
62590SOL     OW87793  12.283   5.500   2.099
62590SOL    HW187794  12.223   5.438   2.149
62590SOL    HW287795  12.314   5.456   2.014
62591SOL     OW87796  11.374   4.009   3.360
62591SOL    HW187797  11.294   4.069   3.347
62591SOL    HW287798  11.364   3.960   3.446
62592SOL     OW87799  11.636   5.467   2.185
62592SOL    HW187800  11.669   5.506   2.271
62592SOL    HW287801  11.712   5.460   2.120
62593SOL     OW87802  12.572   3.831   2.288
62593SOL    HW187803  12.548   3.794   2.198
62593SOL    HW287804  12.671   3.847   2.292
62594SOL     OW87805  11.421   5.509   3.103
62594SOL    HW187806  11.478   5.444   3.153
62594SOL    HW287807  11.405   5.476   3.010
62595SOL     OW87808  12.112   5.422   2.766
62595SOL    HW187809  12.192   5.365   2.787
62595SOL    HW287810  12.063   5.382   2.689
62596SOL     OW87811  11.554   4.424   2.342
62596SOL    HW187812  11.599   4.334   2.339
62596SOL    HW287813  11.460   4.413   2.375
62597SOL     OW87814  11.786   3.846   1.979
62597SOL    HW187815  11.884   3.824   1.986
62597SOL    HW287816  11.755   3.829   1.886
62598SOL     OW87817  11.953   3.988   3.611
62598SOL    HW187818  12.020   3.927   3.654
62598SOL    HW287819  11.880   4.007   3.676
62599SOL     OW87820  12.060   5.238   3.057
62599SOL    HW187821  12.037   5.213   2.963
62599SOL    HW287822  12.121   5.169   3.096
62600SOL     OW87823  12.523   4.314   3.295
62600SOL    HW187824  12.551   4.271   3.380
62600SOL    HW287825  12.548   4.410   3.296
62601SOL     OW87826  11.975   5.126   2.786
62601SOL    HW187827  12.065   5.140   2.744
62601SOL    HW287828  11.904   5.128   2.715
62602SOL     OW87829  12.094   4.227   2.761
62602SOL    HW187830  12.069   4.218   2.665
62602SOL    HW287831  12.142   4.145   2.792
62603SOL     OW87832  11.711   3.788   2.374
62603SOL    HW187833  11.630   3.789   2.432
62603SOL    HW287834  11.714   3.871   2.319
62604SOL     OW87835  12.606   4.912   1.903
62604SOL    HW187836  12.638   4.836   1.960
62604SOL    HW287837  12.514   4.939   1.933
62605SOL     OW87838  11.469   3.759   2.033
62605SOL    HW187839  11.518   3.843   2.012
62605SOL    HW287840  11.531   3.694   2.078
62606SOL     OW87841  12.107   3.960   2.342
62606SOL    HW187842  12.059   4.001   2.264
62606SOL    HW287843  12.206   3.958   2.323
62607SOL     OW87844  12.248   4.407   3.326
62607SOL    HW187845  12.168   4.346   3.329
62607SOL    HW287846  12.329   4.354   3.302
62608SOL     OW87847  12.399   5.294   2.655
62608SOL    HW187848  12.420   5.368   2.590
62608SOL    HW287849  12.467   5.294   2.728
62609SOL     OW87850  11.631   4.876   2.603
62609SOL    HW187851  11.560   4.849   2.668
62609SOL    HW287852  11.605   4.848   2.510
62610SOL     OW87853  12.443   5.521   2.453
62610SOL    HW187854  12.487   5.585   2.389
62610SOL    HW287855  12.393   5.573   2.523
62611SOL     OW87856  12.204   4.273   1.878
62611SOL    HW187857  12.163   4.355   1.839
62611SOL    HW287858  12.268   4.299   1.951
62612SOL     OW87859  11.250   4.280   3.248
62612SOL    HW187860  11.342   4.279   3.207
62612SOL    HW287861  11.244   4.354   3.315
62613SOL     OW87862  11.733   3.946   3.009
62613SOL    HW187863  11.771   3.862   3.046
62613SOL    HW287864  11.645   3.965   3.053
62614SOL     OW87865  12.038   4.178   2.504
62614SOL    HW187866  12.006   4.250   2.442
62614SOL    HW287867  12.062   4.097   2.451
62615SOL     OW87868  12.189   3.763   2.615
62615SOL    HW187869  12.117   3.768   2.546
62615SOL    HW287870  12.165   3.694   2.684
62616SOL     OW87871  12.601   4.897   2.729
62616SOL    HW187872  12.546   4.813   2.722
62616SOL    HW287873  12.627   4.926   2.637
62617SOL     OW87874  12.638   4.314   2.854
62617SOL    HW187875  12.608   4.219   2.861
62617SOL    HW287876  12.711   4.330   2.920
62618SOL     OW87877  11.660   5.109   2.036
62618SOL    HW187878  11.573   5.094   2.083
62618SOL    HW287879  11.643   5.135   1.941
62619SOL     OW87880  12.562   4.299   1.940
62619SOL    HW187881  12.508   4.278   2.021
62619SOL    HW287882  12.653   4.258   1.949
62620SOL     OW87883  11.699   3.980   2.190
62620SOL    HW187884  11.726   3.921   2.115
62620SOL    HW287885  11.699   4.075   2.159
62621SOL     OW87886  12.236   5.071   3.202
62621SOL    HW187887  12.156   5.048   3.257
62621SOL    HW287888  12.319   5.045   3.251
62622SOL     OW87889  12.764   5.353   3.487
62622SOL    HW187890  12.791   5.387   3.397
62622SOL    HW287891  12.843   5.315   3.533
62623SOL     OW87892  12.283   4.919   2.962
62623SOL    HW187893  12.243   4.963   3.043
62623SOL    HW287894  12.242   4.956   2.879
62624SOL     OW87895  12.087   3.813   3.264
62624SOL    HW187896  12.112   3.793   3.169
62624SOL    HW287897  12.159   3.869   3.306
62625SOL     OW87898  12.152   4.840   3.581
62625SOL    HW187899  12.053   4.846   3.591
62625SOL    HW287900  12.175   4.760   3.525
62626SOL     OW87901  11.877   4.774   2.230
62626SOL    HW187902  11.863   4.781   2.329
62626SOL    HW287903  11.961   4.723   2.212
62627SOL     OW87904  11.582   4.537   3.113
62627SOL    HW187905  11.668   4.549   3.163
62627SOL    HW287906  11.540   4.450   3.140
62628SOL     OW87907  12.446   4.110   3.124
62628SOL    HW187908  12.467   4.184   3.188
62628SOL    HW287909  12.357   4.127   3.081
62629SOL     OW87910  11.236   5.288   3.193
62629SOL    HW187911  11.190   5.370   3.159
62629SOL    HW287912  11.334   5.307   3.202
62630SOL     OW87913  11.539   4.824   2.363
62630SOL    HW187914  11.532   4.907   2.307
62630SOL    HW287915  11.543   4.744   2.303
62631SOL     OW87916  11.738   4.261   2.727
62631SOL    HW187917  11.750   4.327   2.653
62631SOL    HW287918  11.784   4.295   2.810
62632SOL     OW87919  12.424   5.072   2.250
62632SOL    HW187920  12.474   5.149   2.290
62632SOL    HW287921  12.329   5.074   2.282
62633SOL     OW87922  12.444   5.169   3.004
62633SOL    HW187923  12.491   5.182   3.091
62633SOL    HW287924  12.378   5.095   3.013
62634SOL     OW87925  12.754   4.363   2.334
62634SOL    HW187926  12.723   4.424   2.407
62634SOL    HW287927  12.804   4.415   2.265
62635SOL     OW87928  11.526   5.234   3.191
62635SOL    HW187929  11.505   5.190   3.104
62635SOL    HW287930  11.623   5.260   3.194
62636SOL     OW87931  11.574   4.475   3.460
62636SOL    HW187932  11.642   4.530   3.413
62636SOL    HW287933  11.614   4.387   3.487
62637SOL     OW87934  12.185   3.829   3.632
62637SOL    HW187935  12.191   3.914   3.580
62637SOL    HW287936  12.217   3.753   3.575
62638SOL     OW87937  11.676   3.774   3.602
62638SOL    HW187938  11.634   3.717   3.532
62638SOL    HW287939  11.610   3.843   3.634
62639SOL     OW87940  11.745   4.594   2.891
62639SOL    HW187941  11.789   4.683   2.882
62639SOL    HW287942  11.682   4.594   2.968
62640SOL     OW87943  12.532   4.586   2.907
62640SOL    HW187944  12.457   4.586   2.841
62640SOL    HW287945  12.569   4.494   2.916
62641SOL     OW87946  12.381   4.249   2.137
62641SOL    HW187947  12.394   4.165   2.191
62641SOL    HW287948  12.352   4.323   2.197
62642SOL     OW87949  11.479   3.937   3.093
62642SOL    HW187950  11.456   3.974   3.183
62642SOL    HW287951  11.449   3.842   3.087
62643SOL     OW87952  11.209   5.034   3.144
62643SOL    HW187953  11.262   4.985   3.212
62643SOL    HW287954  11.231   5.132   3.149
62644SOL     OW87955  11.904   4.358   2.926
62644SOL    HW187956  11.963   4.332   2.850
62644SOL    HW287957  11.876   4.454   2.915
62645SOL     OW87958  11.479   3.787   2.480
62645SOL    HW187959  11.468   3.881   2.513
62645SOL    HW287960  11.474   3.724   2.557
62646SOL     OW87961  12.794   4.091   2.236
62646SOL    HW187962  12.796   4.015   2.300
62646SOL    HW287963  12.746   4.168   2.276
62647SOL     OW87964  12.195   4.490   2.828
62647SOL    HW187965  12.210   4.511   2.924
62647SOL    HW287966  12.165   4.395   2.819
62648SOL     OW87967  12.152   5.297   3.562
62648SOL    HW187968  12.132   5.341   3.474
62648SOL    HW287969  12.191   5.206   3.546
62649SOL     OW87970  11.522   4.622   3.666
62649SOL    HW187971  11.598   4.666   3.714
62649SOL    HW287972  11.557   4.575   3.584
62650SOL     OW87973  12.712   3.998   1.987
62650SOL    HW187974  12.651   3.923   2.010
62650SOL    HW287975  12.734   4.050   2.070
62651SOL     OW87976  12.475   4.562   1.904
62651SOL    HW187977  12.509   4.469   1.919
62651SOL    HW287978  12.493   4.589   1.809
62652SOL     OW87979  12.240   5.057   2.711
62652SOL    HW187980  12.247   4.973   2.656
62652SOL    HW287981  12.302   5.126   2.675
62653SOL     OW87982  11.491   4.534   2.811
62653SOL    HW187983  11.584   4.570   2.816
62653SOL    HW287984  11.485   4.449   2.863
62654SOL     OW87985  11.511   4.233   2.868
62654SOL    HW187986  11.459   4.150   2.851
62654SOL    HW287987  11.588   4.238   2.804
62655SOL     OW87988  12.310   4.104   3.540
62655SOL    HW187989  12.265   4.167   3.604
62655SOL    HW287990  12.403   4.135   3.523
62656SOL     OW87991  12.332   3.931   3.339
62656SOL    HW187992  12.332   3.995   3.416
62656SOL    HW287993  12.360   3.979   3.256
62657SOL     OW87994  11.180   5.050   2.062
62657SOL    HW187995  11.087   5.071   2.031
62657SOL    HW287996  11.190   4.951   2.075
62658SOL     OW87997  11.260   5.525   2.789
62658SOL    HW187998  11.218   5.439   2.762
62658SOL    HW287999  11.354   5.528   2.755
62659SOL     OW88000  11.676   5.292   2.772
62659SOL    HW188001  11.742   5.366   2.781
62659SOL    HW288002  11.720   5.213   2.730
62660SOL     OW88003  12.174   4.520   3.100
62660SOL    HW188004  12.215   4.488   3.186
62660SOL    HW288005  12.078   4.493   3.097
62661SOL     OW88006  11.212   4.268   2.976
62661SOL    HW188007  11.297   4.235   2.935
62661SOL    HW288008  11.225   4.283   3.074
62662SOL     OW88009  11.361   4.244   3.584
62662SOL    HW188010  11.420   4.204   3.514
62662SOL    HW288011  11.303   4.315   3.543
62663SOL     OW88012  12.541   4.674   3.522
62663SOL    HW188013  12.580   4.763   3.542
62663SOL    HW288014  12.551   4.654   3.425
62664SOL     OW88015  11.987   4.296   2.187
62664SOL    HW188016  11.994   4.207   2.141
62664SOL    HW288017  11.893   4.330   2.179
62665SOL     OW88018  11.424   5.288   3.606
62665SOL    HW188019  11.394   5.345   3.682
62665SOL    HW288020  11.417   5.191   3.632
62666SOL     OW88021  11.843   4.188   3.131
62666SOL    HW188022  11.809   4.099   3.101
62666SOL    HW288023  11.869   4.242   3.051
62667SOL     OW88024  12.102   5.402   3.327
62667SOL    HW188025  12.078   5.384   3.232
62667SOL    HW288026  12.132   5.496   3.337
62668SOL     OW88027  11.645   4.224   2.053
62668SOL    HW188028  11.706   4.304   2.057
62668SOL    HW288029  11.550   4.255   2.060
62669SOL     OW88030  11.331   4.861   3.328
62669SOL    HW188031  11.353   4.800   3.404
62669SOL    HW288032  11.341   4.812   3.242
62670SOL     OW88033  12.519   4.783   3.096
62670SOL    HW188034  12.543   4.720   3.022
62670SOL    HW288035  12.429   4.823   3.078
62671SOL     OW88036  12.474   4.579   2.171
62671SOL    HW188037  12.388   4.548   2.213
62671SOL    HW288038  12.470   4.565   2.072
62672SOL     OW88039  12.424   5.455   2.990
62672SOL    HW188040  12.508   5.460   2.936
62672SOL    HW288041  12.401   5.359   3.008
62673SOL     OW88042  11.255   4.982   2.884
62673SOL    HW188043  11.250   4.981   2.984
62673SOL    HW288044  11.172   4.941   2.846
62674SOL     OW88045  11.860   5.386   3.578
62674SOL    HW188046  11.804   5.467   3.587
62674SOL    HW288047  11.912   5.390   3.492
62675SOL     OW88048  12.898   3.859   2.385
62675SOL    HW188049  12.971   3.842   2.318
62675SOL    HW288050  12.867   3.772   2.423
62676SOL     OW88051  12.560   5.297   2.339
62676SOL    HW188052  12.627   5.309   2.265
62676SOL    HW288053  12.520   5.386   2.362
62677SOL     OW88054  11.302   5.518   3.713
62677SOL    HW188055  11.261   5.444   3.766
62677SOL    HW288056  11.366   5.569   3.771
62678SOL     OW88057  12.452   4.651   2.534
62678SOL    HW188058  12.512   4.570   2.536
62678SOL    HW288059  12.492   4.720   2.474
62679SOL     OW88060  12.002   4.997   3.284
62679SOL    HW188061  11.997   5.030   3.379
62679SOL    HW288062  11.916   5.016   3.238
62680SOL     OW88063  11.844   5.340   2.016
62680SOL    HW188064  11.853   5.350   1.917
62680SOL    HW288065  11.804   5.251   2.037
62681SOL     OW88066  11.435   4.050   2.582
62681SOL    HW188067  11.356   4.101   2.548
62681SOL    HW288068  11.426   4.035   2.680
62682SOL     OW88069  12.366   5.336   1.893
62682SOL    HW188070  12.372   5.243   1.930
62682SOL    HW288071  12.307   5.336   1.813
62683SOL     OW88072  11.994   4.726   3.234
62683SOL    HW188073  12.034   4.725   3.142
62683SOL    HW288074  12.004   4.818   3.274
62684SOL     OW88075  12.088   4.634   2.153
62684SOL    HW188076  12.151   4.672   2.085
62684SOL    HW288077  12.128   4.551   2.192
62685SOL     OW88078  12.676   5.331   1.906
62685SOL    HW188079  12.584   5.368   1.913
62685SOL    HW288080  12.714   5.351   1.816
62686SOL     OW88081  11.544   5.012   3.352
62686SOL    HW188082  11.531   5.105   3.318
62686SOL    HW288083  11.460   4.960   3.339
62687SOL     OW88084  12.211   4.822   2.558
62687SOL    HW188085  12.141   4.775   2.612
62687SOL    HW288086  12.270   4.754   2.515
62688SOL     OW88087  12.186   3.960   2.833
62688SOL    HW188088  12.178   3.924   2.740
62688SOL    HW288089  12.184   3.884   2.898
62689SOL     OW88090  11.762   5.211   2.353
62689SOL    HW188091  11.804   5.153   2.283
62689SOL    HW288092  11.718   5.290   2.309
62690SOL     OW88093  11.427   5.072   2.152
62690SOL    HW188094  11.331   5.073   2.125
62690SOL    HW288095  11.439   5.125   2.236
62691SOL     OW88096  11.277   4.737   3.588
62691SOL    HW188097  11.200   4.704   3.642
62691SOL    HW288098  11.362   4.707   3.630
62692SOL     OW88099  11.844   3.927   3.351
62692SOL    HW188100  11.934   3.911   3.311
62692SOL    HW288101  11.852   3.932   3.450
62693SOL     OW88102  11.247   4.069   1.895
62693SOL    HW188103  11.155   4.041   1.866
62693SOL    HW288104  11.278   4.146   1.839
62694SOL     OW88105  12.612   4.580   3.260
62694SOL    HW188106  12.555   4.632   3.197
62694SOL    HW288107  12.708   4.592   3.236
62695SOL     OW88108  11.244   3.890   2.180
62695SOL    HW188109  11.227   3.973   2.126
62695SOL    HW288110  11.334   3.853   2.158
62696SOL     OW88111  11.785   4.566   3.293
62696SOL    HW188112  11.841   4.647   3.276
62696SOL    HW288113  11.844   4.486   3.296
62697SOL     OW88114  12.665   5.491   2.821
62697SOL    HW188115  12.698   5.555   2.752
62697SOL    HW288116  12.731   5.485   2.896
62698SOL     OW88117  11.888   4.289   3.570
62698SOL    HW188118  11.907   4.354   3.644
62698SOL    HW288119  11.948   4.209   3.579
62699SOL     OW88120  12.622   4.944   3.495
62699SOL    HW188121  12.613   4.934   3.594
62699SOL    HW288122  12.718   4.937   3.469
62700SOL     OW88123  11.562   5.465   3.422
62700SOL    HW188124  11.471   5.506   3.420
62700SOL    HW288125  11.555   5.371   3.454
62701SOL     OW88126  12.397   4.049   2.311
62701SOL    HW188127  12.462   3.975   2.300
62701SOL    HW288128  12.417   4.099   2.395
62702SOL     OW88129  11.766   4.469   2.514
62702SOL    HW188130  11.816   4.554   2.495
62702SOL    HW288131  11.678   4.471   2.466
62703SOL     OW88132  12.031   5.098   1.878
62703SOL    HW188133  11.985   5.113   1.966
62703SOL    HW288134  12.075   5.183   1.848
62704SOL     OW88135  11.833   5.514   2.815
62704SOL    HW188136  11.787   5.602   2.802
62704SOL    HW288137  11.932   5.526   2.808
62705SOL     OW88138  12.031   4.680   2.723
62705SOL    HW188139  12.085   4.611   2.771
62705SOL    HW288140  11.999   4.749   2.789
62706SOL     OW88141  12.255   4.708   1.949
62706SOL    HW188142  12.232   4.761   1.867
62706SOL    HW288143  12.336   4.652   1.930
62707SOL     OW88144  13.033   5.293   2.713
62707SOL    HW188145  12.962   5.281   2.643
62707SOL    HW288146  13.034   5.214   2.773
62708SOL     OW88147  11.393   5.038   3.706
62708SOL    HW188148  11.328   4.965   3.685
62708SOL    HW288149  11.397   5.052   3.804
62709SOL     OW88150  11.251   4.964   2.515
62709SOL    HW188151  11.250   4.917   2.603
62709SOL    HW288152  11.333   4.936   2.464
62710SOL     OW88153  11.844   5.115   3.486
62710SOL    HW188154  11.766   5.065   3.524
62710SOL    HW288155  11.841   5.210   3.517
62711SOL     OW88156  11.600   4.148   2.382
62711SOL    HW188157  11.630   4.076   2.320
62711SOL    HW288158  11.561   4.108   2.465
62712SOL     OW88159  11.489   4.271   3.142
62712SOL    HW188160  11.527   4.212   3.214
62712SOL    HW288161  11.529   4.245   3.054
62713SOL     OW88162  11.984   5.310   2.549
62713SOL    HW188163  12.016   5.320   2.455
62713SOL    HW288164  11.905   5.248   2.551
62714SOL     OW88165  12.596   3.938   2.974
62714SOL    HW188166  12.648   3.873   3.029
62714SOL    HW288167  12.547   4.001   3.035
62715SOL     OW88168  12.173   3.758   3.016
62715SOL    HW188169  12.110   3.686   2.985
62715SOL    HW288170  12.266   3.722   3.016
62716SOL     OW88171  11.942   5.054   2.163
62716SOL    HW188172  11.896   4.967   2.180
62716SOL    HW288173  12.033   5.051   2.204
62717SOL     OW88174  11.790   5.291   3.146
62717SOL    HW188175  11.785   5.373   3.203
62717SOL    HW288176  11.879   5.288   3.101
62718SOL     OW88177  12.524   3.776   2.030
62718SOL    HW188178  12.559   3.735   1.946
62718SOL    HW288179  12.434   3.738   2.050
62719SOL     OW88180  12.472   4.177   2.553
62719SOL    HW188181  12.413   4.257   2.557
62719SOL    HW288182  12.487   4.142   2.646
62720SOL     OW88183  12.765   3.945   2.744
62720SOL    HW188184  12.681   3.944   2.798
62720SOL    HW288185  12.767   4.028   2.688
62721SOL     OW88186  11.211   4.801   2.162
62721SOL    HW188187  11.310   4.790   2.153
62721SOL    HW288188  11.171   4.715   2.194
62722SOL     OW88189  12.047   5.370   2.199
62722SOL    HW188190  11.970   5.335   2.145
62722SOL    HW288191  12.015   5.441   2.261
62723SOL     OW88192  11.402   4.352   3.837
62723SOL    HW188193  11.309   4.350   3.874
62723SOL    HW288194  11.403   4.313   3.745
62724SOL     OW88195  11.397   3.999   4.720
62724SOL    HW188196  11.432   3.982   4.812
62724SOL    HW288197  11.309   3.954   4.708
62725SOL     OW88198  11.191   4.092   4.371
62725SOL    HW188199  11.109   4.135   4.410
62725SOL    HW288200  11.163   4.019   4.308
62726SOL     OW88201  11.741   4.999   4.889
62726SOL    HW188202  11.648   4.992   4.852
62726SOL    HW288203  11.752   5.088   4.933
62727SOL     OW88204  12.727   5.235   4.427
62727SOL    HW188205  12.670   5.219   4.508
62727SOL    HW288206  12.668   5.245   4.347
62728SOL     OW88207  12.307   4.427   4.441
62728SOL    HW188208  12.364   4.505   4.416
62728SOL    HW288209  12.247   4.453   4.517
62729SOL     OW88210  11.940   4.868   4.747
62729SOL    HW188211  11.862   4.885   4.807
62729SOL    HW288212  11.974   4.955   4.711
62730SOL     OW88213  12.022   4.522   5.547
62730SOL    HW188214  12.018   4.598   5.612
62730SOL    HW288215  12.044   4.558   5.456
62731SOL     OW88216  11.857   4.736   4.389
62731SOL    HW188217  11.926   4.720   4.459
62731SOL    HW288218  11.784   4.793   4.427
62732SOL     OW88219  11.858   4.885   5.527
62732SOL    HW188220  11.918   4.964   5.541
62732SOL    HW288221  11.772   4.916   5.486
62733SOL     OW88222  11.507   5.159   4.785
62733SOL    HW188223  11.429   5.128   4.732
62733SOL    HW288224  11.565   5.217   4.728
62734SOL     OW88225  12.632   5.229   5.063
62734SOL    HW188226  12.656   5.323   5.089
62734SOL    HW288227  12.616   5.175   5.145
62735SOL     OW88228  11.610   4.116   5.223
62735SOL    HW188229  11.692   4.060   5.232
62735SOL    HW288230  11.529   4.058   5.227
62736SOL     OW88231  11.403   5.437   4.207
62736SOL    HW188232  11.437   5.514   4.261
62736SOL    HW288233  11.447   5.437   4.117
62737SOL     OW88234  12.299   5.065   5.414
62737SOL    HW188235  12.346   5.065   5.502
62737SOL    HW288236  12.251   4.978   5.403
62738SOL     OW88237  11.402   5.158   4.262
62738SOL    HW188238  11.376   5.254   4.262
62738SOL    HW288239  11.331   5.104   4.307
62739SOL     OW88240  11.412   4.815   4.610
62739SOL    HW188241  11.426   4.731   4.662
62739SOL    HW288242  11.357   4.879   4.665
62740SOL     OW88243  11.792   5.510   5.163
62740SOL    HW188244  11.700   5.493   5.198
62740SOL    HW288245  11.820   5.602   5.189
62741SOL     OW88246  11.778   4.688   3.847
62741SOL    HW188247  11.785   4.772   3.793
62741SOL    HW288248  11.824   4.701   3.935
62742SOL     OW88249  12.766   3.838   5.204
62742SOL    HW188250  12.748   3.905   5.132
62742SOL    HW288251  12.763   3.884   5.293
62743SOL     OW88252  11.294   4.367   4.287
62743SOL    HW188253  11.249   4.279   4.304
62743SOL    HW288254  11.293   4.421   4.371
62744SOL     OW88255  11.199   5.320   3.841
62744SOL    HW188256  11.180   5.224   3.862
62744SOL    HW288257  11.166   5.378   3.916
62745SOL     OW88258  12.861   4.646   4.336
62745SOL    HW188259  12.956   4.617   4.344
62745SOL    HW288260  12.853   4.711   4.261
62746SOL     OW88261  11.285   4.461   5.321
62746SOL    HW188262  11.373   4.448   5.366
62746SOL    HW288263  11.272   4.558   5.299
62747SOL     OW88264  11.785   5.089   4.450
62747SOL    HW188265  11.736   5.002   4.459
62747SOL    HW288266  11.762   5.132   4.363
62748SOL     OW88267  12.465   4.952   5.147
62748SOL    HW188268  12.502   4.879   5.089
62748SOL    HW288269  12.517   4.957   5.232
62749SOL     OW88270  11.981   3.728   4.226
62749SOL    HW188271  12.021   3.819   4.217
62749SOL    HW288272  11.881   3.736   4.232
62750SOL     OW88273  11.369   4.700   4.988
62750SOL    HW188274  11.458   4.655   4.974
62750SOL    HW288275  11.296   4.635   4.969
62751SOL     OW88276  12.359   5.516   5.340
62751SOL    HW188277  12.383   5.576   5.264
62751SOL    HW288278  12.366   5.421   5.310
62752SOL     OW88279  11.489   3.975   5.525
62752SOL    HW188280  11.560   4.046   5.531
62752SOL    HW288281  11.401   4.014   5.553
62753SOL     OW88282  12.638   5.141   4.677
62753SOL    HW188283  12.579   5.147   4.757
62753SOL    HW288284  12.623   5.053   4.631
62754SOL     OW88285  12.839   5.438   4.296
62754SOL    HW188286  12.798   5.415   4.208
62754SOL    HW288287  12.821   5.364   4.361
62755SOL     OW88288  11.770   4.453   3.994
62755SOL    HW188289  11.794   4.522   3.926
62755SOL    HW288290  11.692   4.486   4.048
62756SOL     OW88291  12.453   4.069   4.668
62756SOL    HW188292  12.367   4.019   4.655
62756SOL    HW288293  12.515   4.015   4.724
62757SOL     OW88294  11.979   4.329   5.189
62757SOL    HW188295  11.932   4.326   5.278
62757SOL    HW288296  11.928   4.274   5.123
62758SOL     OW88297  12.566   4.193   5.398
62758SOL    HW188298  12.546   4.236   5.486
62758SOL    HW288299  12.644   4.131   5.407
62759SOL     OW88300  12.145   4.614   5.296
62759SOL    HW188301  12.191   4.530   5.267
62759SOL    HW288302  12.089   4.648   5.221
62760SOL     OW88303  12.163   4.134   4.966
62760SOL    HW188304  12.086   4.168   5.020
62760SOL    HW288305  12.129   4.083   4.887
62761SOL     OW88306  12.213   4.425   4.153
62761SOL    HW188307  12.239   4.421   4.249
62761SOL    HW288308  12.128   4.374   4.139
62762SOL     OW88309  11.248   4.535   4.513
62762SOL    HW188310  11.347   4.523   4.522
62762SOL    HW288311  11.224   4.630   4.534
62763SOL     OW88312  11.302   5.545   5.295
62763SOL    HW188313  11.292   5.530   5.394
62763SOL    HW288314  11.216   5.581   5.259
62764SOL     OW88315  12.037   4.072   3.919
62764SOL    HW188316  12.096   4.135   3.870
62764SOL    HW288317  12.056   3.978   3.890
62765SOL     OW88318  12.534   4.868   4.269
62765SOL    HW188319  12.617   4.839   4.221
62765SOL    HW288320  12.485   4.935   4.213
62766SOL     OW88321  11.722   3.920   4.609
62766SOL    HW188322  11.717   3.915   4.709
62766SOL    HW288323  11.724   4.016   4.580
62767SOL     OW88324  12.180   5.180   4.201
62767SOL    HW188325  12.134   5.252   4.149
62767SOL    HW288326  12.176   5.200   4.299
62768SOL     OW88327  11.523   5.525   4.577
62768SOL    HW188328  11.573   5.439   4.583
62768SOL    HW288329  11.588   5.602   4.574
62769SOL     OW88330  12.399   5.274   5.230
62769SOL    HW188331  12.405   5.197   5.294
62769SOL    HW288332  12.347   5.248   5.150
62770SOL     OW88333  11.493   4.667   3.966
62770SOL    HW188334  11.575   4.706   3.924
62770SOL    HW288335  11.466   4.585   3.917
62771SOL     OW88336  12.630   4.459   4.452
62771SOL    HW188337  12.625   4.394   4.527
62771SOL    HW288338  12.710   4.518   4.465
62772SOL     OW88339  11.633   4.990   5.451
62772SOL    HW188340  11.583   4.991   5.365
62772SOL    HW288341  11.570   4.972   5.527
62773SOL     OW88342  12.283   5.500   3.961
62773SOL    HW188343  12.223   5.438   4.011
62773SOL    HW288344  12.314   5.456   3.876
62774SOL     OW88345  11.374   4.009   5.222
62774SOL    HW188346  11.294   4.069   5.209
62774SOL    HW288347  11.364   3.960   5.308
62775SOL     OW88348  11.636   5.467   4.047
62775SOL    HW188349  11.669   5.506   4.133
62775SOL    HW288350  11.712   5.460   3.982
62776SOL     OW88351  12.572   3.831   4.150
62776SOL    HW188352  12.548   3.794   4.060
62776SOL    HW288353  12.671   3.847   4.154
62777SOL     OW88354  11.421   5.509   4.965
62777SOL    HW188355  11.478   5.444   5.015
62777SOL    HW288356  11.405   5.476   4.872
62778SOL     OW88357  12.112   5.422   4.628
62778SOL    HW188358  12.192   5.365   4.649
62778SOL    HW288359  12.063   5.382   4.551
62779SOL     OW88360  11.554   4.424   4.204
62779SOL    HW188361  11.599   4.334   4.201
62779SOL    HW288362  11.460   4.413   4.237
62780SOL     OW88363  11.786   3.846   3.841
62780SOL    HW188364  11.884   3.824   3.848
62780SOL    HW288365  11.755   3.829   3.748
62781SOL     OW88366  11.953   3.988   5.473
62781SOL    HW188367  12.020   3.927   5.516
62781SOL    HW288368  11.880   4.007   5.538
62782SOL     OW88369  12.060   5.238   4.919
62782SOL    HW188370  12.037   5.213   4.825
62782SOL    HW288371  12.121   5.169   4.958
62783SOL     OW88372  12.523   4.314   5.157
62783SOL    HW188373  12.551   4.271   5.242
62783SOL    HW288374  12.548   4.410   5.158
62784SOL     OW88375  11.975   5.126   4.648
62784SOL    HW188376  12.065   5.140   4.606
62784SOL    HW288377  11.904   5.128   4.577
62785SOL     OW88378  12.094   4.227   4.623
62785SOL    HW188379  12.069   4.218   4.527
62785SOL    HW288380  12.142   4.145   4.654
62786SOL     OW88381  11.711   3.788   4.236
62786SOL    HW188382  11.630   3.789   4.294
62786SOL    HW288383  11.714   3.871   4.181
62787SOL     OW88384  12.606   4.912   3.765
62787SOL    HW188385  12.638   4.836   3.822
62787SOL    HW288386  12.514   4.939   3.795
62788SOL     OW88387  11.469   3.759   3.895
62788SOL    HW188388  11.518   3.843   3.874
62788SOL    HW288389  11.531   3.694   3.940
62789SOL     OW88390  12.107   3.960   4.204
62789SOL    HW188391  12.059   4.001   4.126
62789SOL    HW288392  12.206   3.958   4.185
62790SOL     OW88393  12.248   4.407   5.188
62790SOL    HW188394  12.168   4.346   5.191
62790SOL    HW288395  12.329   4.354   5.164
62791SOL     OW88396  12.399   5.294   4.517
62791SOL    HW188397  12.420   5.368   4.452
62791SOL    HW288398  12.467   5.294   4.590
62792SOL     OW88399  11.631   4.876   4.465
62792SOL    HW188400  11.560   4.849   4.530
62792SOL    HW288401  11.605   4.848   4.372
62793SOL     OW88402  12.443   5.521   4.315
62793SOL    HW188403  12.487   5.585   4.251
62793SOL    HW288404  12.393   5.573   4.385
62794SOL     OW88405  12.204   4.273   3.740
62794SOL    HW188406  12.163   4.355   3.701
62794SOL    HW288407  12.268   4.299   3.813
62795SOL     OW88408  11.250   4.280   5.110
62795SOL    HW188409  11.342   4.279   5.069
62795SOL    HW288410  11.244   4.354   5.177
62796SOL     OW88411  11.733   3.946   4.871
62796SOL    HW188412  11.771   3.862   4.908
62796SOL    HW288413  11.645   3.965   4.915
62797SOL     OW88414  12.038   4.178   4.366
62797SOL    HW188415  12.006   4.250   4.304
62797SOL    HW288416  12.062   4.097   4.313
62798SOL     OW88417  12.189   3.763   4.477
62798SOL    HW188418  12.117   3.768   4.408
62798SOL    HW288419  12.165   3.694   4.546
62799SOL     OW88420  12.601   4.897   4.591
62799SOL    HW188421  12.546   4.813   4.584
62799SOL    HW288422  12.627   4.926   4.499
62800SOL     OW88423  12.638   4.314   4.716
62800SOL    HW188424  12.608   4.219   4.723
62800SOL    HW288425  12.711   4.330   4.782
62801SOL     OW88426  11.660   5.109   3.898
62801SOL    HW188427  11.573   5.094   3.945
62801SOL    HW288428  11.643   5.135   3.803
62802SOL     OW88429  12.562   4.299   3.802
62802SOL    HW188430  12.508   4.278   3.883
62802SOL    HW288431  12.653   4.258   3.811
62803SOL     OW88432  11.699   3.980   4.052
62803SOL    HW188433  11.726   3.921   3.977
62803SOL    HW288434  11.699   4.075   4.021
62804SOL     OW88435  12.236   5.071   5.064
62804SOL    HW188436  12.156   5.048   5.119
62804SOL    HW288437  12.319   5.045   5.113
62805SOL     OW88438  12.764   5.353   5.349
62805SOL    HW188439  12.791   5.387   5.259
62805SOL    HW288440  12.843   5.315   5.395
62806SOL     OW88441  12.283   4.919   4.824
62806SOL    HW188442  12.243   4.963   4.905
62806SOL    HW288443  12.242   4.956   4.741
62807SOL     OW88444  12.087   3.813   5.126
62807SOL    HW188445  12.112   3.793   5.031
62807SOL    HW288446  12.159   3.869   5.168
62808SOL     OW88447  12.152   4.840   5.443
62808SOL    HW188448  12.053   4.846   5.453
62808SOL    HW288449  12.175   4.760   5.387
62809SOL     OW88450  11.877   4.774   4.092
62809SOL    HW188451  11.863   4.781   4.191
62809SOL    HW288452  11.961   4.723   4.074
62810SOL     OW88453  11.582   4.537   4.975
62810SOL    HW188454  11.668   4.549   5.025
62810SOL    HW288455  11.540   4.450   5.002
62811SOL     OW88456  12.446   4.110   4.986
62811SOL    HW188457  12.467   4.184   5.050
62811SOL    HW288458  12.357   4.127   4.943
62812SOL     OW88459  11.236   5.288   5.055
62812SOL    HW188460  11.190   5.370   5.021
62812SOL    HW288461  11.334   5.307   5.064
62813SOL     OW88462  11.539   4.824   4.225
62813SOL    HW188463  11.532   4.907   4.169
62813SOL    HW288464  11.543   4.744   4.165
62814SOL     OW88465  11.738   4.261   4.589
62814SOL    HW188466  11.750   4.327   4.515
62814SOL    HW288467  11.784   4.295   4.672
62815SOL     OW88468  12.424   5.072   4.112
62815SOL    HW188469  12.474   5.149   4.152
62815SOL    HW288470  12.329   5.074   4.144
62816SOL     OW88471  12.444   5.169   4.866
62816SOL    HW188472  12.491   5.182   4.953
62816SOL    HW288473  12.378   5.095   4.875
62817SOL     OW88474  12.754   4.363   4.196
62817SOL    HW188475  12.723   4.424   4.269
62817SOL    HW288476  12.804   4.415   4.127
62818SOL     OW88477  11.526   5.234   5.053
62818SOL    HW188478  11.505   5.190   4.966
62818SOL    HW288479  11.623   5.260   5.056
62819SOL     OW88480  11.574   4.475   5.322
62819SOL    HW188481  11.642   4.530   5.275
62819SOL    HW288482  11.614   4.387   5.349
62820SOL     OW88483  12.185   3.829   5.494
62820SOL    HW188484  12.191   3.914   5.442
62820SOL    HW288485  12.217   3.753   5.437
62821SOL     OW88486  11.676   3.774   5.464
62821SOL    HW188487  11.634   3.717   5.394
62821SOL    HW288488  11.610   3.843   5.496
62822SOL     OW88489  11.745   4.594   4.753
62822SOL    HW188490  11.789   4.683   4.744
62822SOL    HW288491  11.682   4.594   4.830
62823SOL     OW88492  12.532   4.586   4.769
62823SOL    HW188493  12.457   4.586   4.703
62823SOL    HW288494  12.569   4.494   4.778
62824SOL     OW88495  12.381   4.249   3.999
62824SOL    HW188496  12.394   4.165   4.053
62824SOL    HW288497  12.352   4.323   4.059
62825SOL     OW88498  11.479   3.937   4.955
62825SOL    HW188499  11.456   3.974   5.045
62825SOL    HW288500  11.449   3.842   4.949
62826SOL     OW88501  11.209   5.034   5.006
62826SOL    HW188502  11.262   4.985   5.074
62826SOL    HW288503  11.231   5.132   5.011
62827SOL     OW88504  11.904   4.358   4.788
62827SOL    HW188505  11.963   4.332   4.712
62827SOL    HW288506  11.876   4.454   4.777
62828SOL     OW88507  11.479   3.787   4.342
62828SOL    HW188508  11.468   3.881   4.375
62828SOL    HW288509  11.474   3.724   4.419
62829SOL     OW88510  12.794   4.091   4.098
62829SOL    HW188511  12.796   4.015   4.162
62829SOL    HW288512  12.746   4.168   4.138
62830SOL     OW88513  12.195   4.490   4.690
62830SOL    HW188514  12.210   4.511   4.786
62830SOL    HW288515  12.165   4.395   4.681
62831SOL     OW88516  12.152   5.297   5.424
62831SOL    HW188517  12.132   5.341   5.336
62831SOL    HW288518  12.191   5.206   5.408
62832SOL     OW88519  11.522   4.622   5.528
62832SOL    HW188520  11.598   4.666   5.576
62832SOL    HW288521  11.557   4.575   5.446
62833SOL     OW88522  12.712   3.998   3.849
62833SOL    HW188523  12.651   3.923   3.872
62833SOL    HW288524  12.734   4.050   3.932
62834SOL     OW88525  12.475   4.562   3.766
62834SOL    HW188526  12.509   4.469   3.781
62834SOL    HW288527  12.493   4.589   3.671
62835SOL     OW88528  12.240   5.057   4.573
62835SOL    HW188529  12.247   4.973   4.518
62835SOL    HW288530  12.302   5.126   4.537
62836SOL     OW88531  11.491   4.534   4.673
62836SOL    HW188532  11.584   4.570   4.678
62836SOL    HW288533  11.485   4.449   4.725
62837SOL     OW88534  11.511   4.233   4.730
62837SOL    HW188535  11.459   4.150   4.713
62837SOL    HW288536  11.588   4.238   4.666
62838SOL     OW88537  12.310   4.104   5.402
62838SOL    HW188538  12.265   4.167   5.466
62838SOL    HW288539  12.403   4.135   5.385
62839SOL     OW88540  12.332   3.931   5.201
62839SOL    HW188541  12.332   3.995   5.278
62839SOL    HW288542  12.360   3.979   5.118
62840SOL     OW88543  11.180   5.050   3.924
62840SOL    HW188544  11.087   5.071   3.893
62840SOL    HW288545  11.190   4.951   3.937
62841SOL     OW88546  11.260   5.525   4.651
62841SOL    HW188547  11.218   5.439   4.624
62841SOL    HW288548  11.354   5.528   4.617
62842SOL     OW88549  11.676   5.292   4.634
62842SOL    HW188550  11.742   5.366   4.643
62842SOL    HW288551  11.720   5.213   4.592
62843SOL     OW88552  12.174   4.520   4.962
62843SOL    HW188553  12.215   4.488   5.048
62843SOL    HW288554  12.078   4.493   4.959
62844SOL     OW88555  11.212   4.268   4.838
62844SOL    HW188556  11.297   4.235   4.797
62844SOL    HW288557  11.225   4.283   4.936
62845SOL     OW88558  11.361   4.244   5.446
62845SOL    HW188559  11.420   4.204   5.376
62845SOL    HW288560  11.303   4.315   5.405
62846SOL     OW88561  12.541   4.674   5.384
62846SOL    HW188562  12.580   4.763   5.404
62846SOL    HW288563  12.551   4.654   5.287
62847SOL     OW88564  11.987   4.296   4.049
62847SOL    HW188565  11.994   4.207   4.003
62847SOL    HW288566  11.893   4.330   4.041
62848SOL     OW88567  11.424   5.288   5.468
62848SOL    HW188568  11.394   5.345   5.544
62848SOL    HW288569  11.417   5.191   5.494
62849SOL     OW88570  11.843   4.188   4.993
62849SOL    HW188571  11.809   4.099   4.963
62849SOL    HW288572  11.869   4.242   4.913
62850SOL     OW88573  12.102   5.402   5.189
62850SOL    HW188574  12.078   5.384   5.094
62850SOL    HW288575  12.132   5.496   5.199
62851SOL     OW88576  11.645   4.224   3.915
62851SOL    HW188577  11.706   4.304   3.919
62851SOL    HW288578  11.550   4.255   3.922
62852SOL     OW88579  11.331   4.861   5.190
62852SOL    HW188580  11.353   4.800   5.266
62852SOL    HW288581  11.341   4.812   5.104
62853SOL     OW88582  12.519   4.783   4.958
62853SOL    HW188583  12.543   4.720   4.884
62853SOL    HW288584  12.429   4.823   4.940
62854SOL     OW88585  12.474   4.579   4.033
62854SOL    HW188586  12.388   4.548   4.075
62854SOL    HW288587  12.470   4.565   3.934
62855SOL     OW88588  12.424   5.455   4.852
62855SOL    HW188589  12.508   5.460   4.798
62855SOL    HW288590  12.401   5.359   4.870
62856SOL     OW88591  11.255   4.982   4.746
62856SOL    HW188592  11.250   4.981   4.846
62856SOL    HW288593  11.172   4.941   4.708
62857SOL     OW88594  11.860   5.386   5.440
62857SOL    HW188595  11.804   5.467   5.449
62857SOL    HW288596  11.912   5.390   5.354
62858SOL     OW88597  12.898   3.859   4.247
62858SOL    HW188598  12.971   3.842   4.180
62858SOL    HW288599  12.867   3.772   4.285
62859SOL     OW88600  12.560   5.297   4.201
62859SOL    HW188601  12.627   5.309   4.127
62859SOL    HW288602  12.520   5.386   4.224
62860SOL     OW88603  11.302   5.518   5.575
62860SOL    HW188604  11.261   5.444   5.628
62860SOL    HW288605  11.366   5.569   5.633
62861SOL     OW88606  12.452   4.651   4.396
62861SOL    HW188607  12.512   4.570   4.398
62861SOL    HW288608  12.492   4.720   4.336
62862SOL     OW88609  12.002   4.997   5.146
62862SOL    HW188610  11.997   5.030   5.241
62862SOL    HW288611  11.916   5.016   5.100
62863SOL     OW88612  11.844   5.340   3.878
62863SOL    HW188613  11.853   5.350   3.779
62863SOL    HW288614  11.804   5.251   3.899
62864SOL     OW88615  11.435   4.050   4.444
62864SOL    HW188616  11.356   4.101   4.410
62864SOL    HW288617  11.426   4.035   4.542
62865SOL     OW88618  12.366   5.336   3.755
62865SOL    HW188619  12.372   5.243   3.792
62865SOL    HW288620  12.307   5.336   3.675
62866SOL     OW88621  11.994   4.726   5.096
62866SOL    HW188622  12.034   4.725   5.004
62866SOL    HW288623  12.004   4.818   5.136
62867SOL     OW88624  12.088   4.634   4.015
62867SOL    HW188625  12.151   4.672   3.947
62867SOL    HW288626  12.128   4.551   4.054
62868SOL     OW88627  12.676   5.331   3.768
62868SOL    HW188628  12.584   5.368   3.775
62868SOL    HW288629  12.714   5.351   3.678
62869SOL     OW88630  11.544   5.012   5.214
62869SOL    HW188631  11.531   5.105   5.180
62869SOL    HW288632  11.460   4.960   5.201
62870SOL     OW88633  12.211   4.822   4.420
62870SOL    HW188634  12.141   4.775   4.474
62870SOL    HW288635  12.270   4.754   4.377
62871SOL     OW88636  12.186   3.960   4.695
62871SOL    HW188637  12.178   3.924   4.602
62871SOL    HW288638  12.184   3.884   4.760
62872SOL     OW88639  11.762   5.211   4.215
62872SOL    HW188640  11.804   5.153   4.145
62872SOL    HW288641  11.718   5.290   4.171
62873SOL     OW88642  11.427   5.072   4.014
62873SOL    HW188643  11.331   5.073   3.987
62873SOL    HW288644  11.439   5.125   4.098
62874SOL     OW88645  11.277   4.737   5.450
62874SOL    HW188646  11.200   4.704   5.504
62874SOL    HW288647  11.362   4.707   5.492
62875SOL     OW88648  11.844   3.927   5.213
62875SOL    HW188649  11.934   3.911   5.173
62875SOL    HW288650  11.852   3.932   5.312
62876SOL     OW88651  11.247   4.069   3.757
62876SOL    HW188652  11.155   4.041   3.728
62876SOL    HW288653  11.278   4.146   3.701
62877SOL     OW88654  12.612   4.580   5.122
62877SOL    HW188655  12.555   4.632   5.059
62877SOL    HW288656  12.708   4.592   5.098
62878SOL     OW88657  11.244   3.890   4.042
62878SOL    HW188658  11.227   3.973   3.988
62878SOL    HW288659  11.334   3.853   4.020
62879SOL     OW88660  12.355   5.059   3.843
62879SOL    HW188661  12.256   5.048   3.845
62879SOL    HW288662  12.389   5.074   3.936
62880SOL     OW88663  11.785   4.566   5.155
62880SOL    HW188664  11.841   4.647   5.138
62880SOL    HW288665  11.844   4.486   5.158
62881SOL     OW88666  12.665   5.491   4.683
62881SOL    HW188667  12.698   5.555   4.614
62881SOL    HW288668  12.731   5.485   4.758
62882SOL     OW88669  11.888   4.289   5.432
62882SOL    HW188670  11.907   4.354   5.506
62882SOL    HW288671  11.948   4.209   5.441
62883SOL     OW88672  12.622   4.944   5.357
62883SOL    HW188673  12.613   4.934   5.456
62883SOL    HW288674  12.718   4.937   5.331
62884SOL     OW88675  11.562   5.465   5.284
62884SOL    HW188676  11.471   5.506   5.282
62884SOL    HW288677  11.555   5.371   5.316
62885SOL     OW88678  12.397   4.049   4.173
62885SOL    HW188679  12.462   3.975   4.162
62885SOL    HW288680  12.417   4.099   4.257
62886SOL     OW88681  11.766   4.469   4.376
62886SOL    HW188682  11.816   4.554   4.357
62886SOL    HW288683  11.678   4.471   4.328
62887SOL     OW88684  12.031   5.098   3.740
62887SOL    HW188685  11.985   5.113   3.828
62887SOL    HW288686  12.075   5.183   3.710
62888SOL     OW88687  11.833   5.514   4.677
62888SOL    HW188688  11.787   5.602   4.664
62888SOL    HW288689  11.932   5.526   4.670
62889SOL     OW88690  12.031   4.680   4.585
62889SOL    HW188691  12.085   4.611   4.633
62889SOL    HW288692  11.999   4.749   4.651
62890SOL     OW88693  12.255   4.708   3.811
62890SOL    HW188694  12.232   4.761   3.729
62890SOL    HW288695  12.336   4.652   3.792
62891SOL     OW88696  13.033   5.293   4.575
62891SOL    HW188697  12.962   5.281   4.505
62891SOL    HW288698  13.034   5.214   4.635
62892SOL     OW88699  11.393   5.038   5.568
62892SOL    HW188700  11.328   4.965   5.547
62892SOL    HW288701  11.397   5.052   5.666
62893SOL     OW88702  11.251   4.964   4.377
62893SOL    HW188703  11.250   4.917   4.465
62893SOL    HW288704  11.333   4.936   4.326
62894SOL     OW88705  11.844   5.115   5.348
62894SOL    HW188706  11.766   5.065   5.386
62894SOL    HW288707  11.841   5.210   5.379
62895SOL     OW88708  11.600   4.148   4.244
62895SOL    HW188709  11.630   4.076   4.182
62895SOL    HW288710  11.561   4.108   4.327
62896SOL     OW88711  11.489   4.271   5.004
62896SOL    HW188712  11.527   4.212   5.076
62896SOL    HW288713  11.529   4.245   4.916
62897SOL     OW88714  11.984   5.310   4.411
62897SOL    HW188715  12.016   5.320   4.317
62897SOL    HW288716  11.905   5.248   4.413
62898SOL     OW88717  12.596   3.938   4.836
62898SOL    HW188718  12.648   3.873   4.891
62898SOL    HW288719  12.547   4.001   4.897
62899SOL     OW88720  12.173   3.758   4.878
62899SOL    HW188721  12.110   3.686   4.847
62899SOL    HW288722  12.266   3.722   4.878
62900SOL     OW88723  11.942   5.054   4.025
62900SOL    HW188724  11.896   4.967   4.042
62900SOL    HW288725  12.033   5.051   4.066
62901SOL     OW88726  11.790   5.291   5.008
62901SOL    HW188727  11.785   5.373   5.065
62901SOL    HW288728  11.879   5.288   4.963
62902SOL     OW88729  12.524   3.776   3.892
62902SOL    HW188730  12.559   3.735   3.808
62902SOL    HW288731  12.434   3.738   3.912
62903SOL     OW88732  12.472   4.177   4.415
62903SOL    HW188733  12.413   4.257   4.419
62903SOL    HW288734  12.487   4.142   4.508
62904SOL     OW88735  12.765   3.945   4.606
62904SOL    HW188736  12.681   3.944   4.660
62904SOL    HW288737  12.767   4.028   4.550
62905SOL     OW88738  11.211   4.801   4.024
62905SOL    HW188739  11.310   4.790   4.015
62905SOL    HW288740  11.171   4.715   4.056
62906SOL     OW88741  12.047   5.370   4.061
62906SOL    HW188742  11.970   5.335   4.007
62906SOL    HW288743  12.015   5.441   4.123
62907SOL     OW88744  11.402   4.352   5.699
62907SOL    HW188745  11.309   4.350   5.736
62907SOL    HW288746  11.403   4.313   5.607
62908SOL     OW88747  11.397   3.999   6.582
62908SOL    HW188748  11.432   3.982   6.674
62908SOL    HW288749  11.309   3.954   6.570
62909SOL     OW88750  11.191   4.092   6.233
62909SOL    HW188751  11.109   4.135   6.272
62909SOL    HW288752  11.163   4.019   6.170
62910SOL     OW88753  11.741   4.999   6.751
62910SOL    HW188754  11.648   4.992   6.714
62910SOL    HW288755  11.752   5.088   6.795
62911SOL     OW88756  12.727   5.235   6.289
62911SOL    HW188757  12.670   5.219   6.370
62911SOL    HW288758  12.668   5.245   6.209
62912SOL     OW88759  12.307   4.427   6.303
62912SOL    HW188760  12.364   4.505   6.278
62912SOL    HW288761  12.247   4.453   6.379
62913SOL     OW88762  11.940   4.868   6.609
62913SOL    HW188763  11.862   4.885   6.669
62913SOL    HW288764  11.974   4.955   6.573
62914SOL     OW88765  12.022   4.522   7.409
62914SOL    HW188766  12.018   4.598   7.474
62914SOL    HW288767  12.044   4.558   7.318
62915SOL     OW88768  11.857   4.736   6.251
62915SOL    HW188769  11.926   4.720   6.321
62915SOL    HW288770  11.784   4.793   6.289
62916SOL     OW88771  11.858   4.885   7.389
62916SOL    HW188772  11.918   4.964   7.403
62916SOL    HW288773  11.772   4.916   7.348
62917SOL     OW88774  11.507   5.159   6.647
62917SOL    HW188775  11.429   5.128   6.594
62917SOL    HW288776  11.565   5.217   6.590
62918SOL     OW88777  12.632   5.229   6.925
62918SOL    HW188778  12.656   5.323   6.951
62918SOL    HW288779  12.616   5.175   7.007
62919SOL     OW88780  11.610   4.116   7.085
62919SOL    HW188781  11.692   4.060   7.094
62919SOL    HW288782  11.529   4.058   7.089
62920SOL     OW88783  11.403   5.437   6.069
62920SOL    HW188784  11.437   5.514   6.123
62920SOL    HW288785  11.447   5.437   5.979
62921SOL     OW88786  12.299   5.065   7.276
62921SOL    HW188787  12.346   5.065   7.364
62921SOL    HW288788  12.251   4.978   7.265
62922SOL     OW88789  11.412   4.815   6.472
62922SOL    HW188790  11.426   4.731   6.524
62922SOL    HW288791  11.357   4.879   6.527
62923SOL     OW88792  11.792   5.510   7.025
62923SOL    HW188793  11.700   5.493   7.060
62923SOL    HW288794  11.820   5.602   7.051
62924SOL     OW88795  11.778   4.688   5.709
62924SOL    HW188796  11.785   4.772   5.655
62924SOL    HW288797  11.824   4.701   5.797
62925SOL     OW88798  12.766   3.838   7.066
62925SOL    HW188799  12.748   3.905   6.994
62925SOL    HW288800  12.763   3.884   7.155
62926SOL     OW88801  11.294   4.367   6.149
62926SOL    HW188802  11.249   4.279   6.166
62926SOL    HW288803  11.293   4.421   6.233
62927SOL     OW88804  11.199   5.320   5.703
62927SOL    HW188805  11.180   5.224   5.724
62927SOL    HW288806  11.166   5.378   5.778
62928SOL     OW88807  12.861   4.646   6.198
62928SOL    HW188808  12.956   4.617   6.206
62928SOL    HW288809  12.853   4.711   6.123
62929SOL     OW88810  11.285   4.461   7.183
62929SOL    HW188811  11.373   4.448   7.228
62929SOL    HW288812  11.272   4.558   7.161
62930SOL     OW88813  11.785   5.089   6.312
62930SOL    HW188814  11.736   5.002   6.321
62930SOL    HW288815  11.762   5.132   6.225
62931SOL     OW88816  12.465   4.952   7.009
62931SOL    HW188817  12.502   4.879   6.951
62931SOL    HW288818  12.517   4.957   7.094
62932SOL     OW88819  11.981   3.728   6.088
62932SOL    HW188820  12.021   3.819   6.079
62932SOL    HW288821  11.881   3.736   6.094
62933SOL     OW88822  11.369   4.700   6.850
62933SOL    HW188823  11.458   4.655   6.836
62933SOL    HW288824  11.296   4.635   6.831
62934SOL     OW88825  12.359   5.516   7.202
62934SOL    HW188826  12.383   5.576   7.126
62934SOL    HW288827  12.366   5.421   7.172
62935SOL     OW88828  11.489   3.975   7.387
62935SOL    HW188829  11.560   4.046   7.393
62935SOL    HW288830  11.401   4.014   7.415
62936SOL     OW88831  12.638   5.141   6.539
62936SOL    HW188832  12.579   5.147   6.619
62936SOL    HW288833  12.623   5.053   6.493
62937SOL     OW88834  12.839   5.438   6.158
62937SOL    HW188835  12.798   5.415   6.070
62937SOL    HW288836  12.821   5.364   6.223
62938SOL     OW88837  11.770   4.453   5.856
62938SOL    HW188838  11.794   4.522   5.788
62938SOL    HW288839  11.692   4.486   5.910
62939SOL     OW88840  12.453   4.069   6.530
62939SOL    HW188841  12.367   4.019   6.517
62939SOL    HW288842  12.515   4.015   6.586
62940SOL     OW88843  11.979   4.329   7.051
62940SOL    HW188844  11.932   4.326   7.140
62940SOL    HW288845  11.928   4.274   6.985
62941SOL     OW88846  12.566   4.193   7.260
62941SOL    HW188847  12.546   4.236   7.348
62941SOL    HW288848  12.644   4.131   7.269
62942SOL     OW88849  12.145   4.614   7.158
62942SOL    HW188850  12.191   4.530   7.129
62942SOL    HW288851  12.089   4.648   7.083
62943SOL     OW88852  12.163   4.134   6.828
62943SOL    HW188853  12.086   4.168   6.882
62943SOL    HW288854  12.129   4.083   6.749
62944SOL     OW88855  12.213   4.425   6.015
62944SOL    HW188856  12.239   4.421   6.111
62944SOL    HW288857  12.128   4.374   6.001
62945SOL     OW88858  11.248   4.535   6.375
62945SOL    HW188859  11.347   4.523   6.384
62945SOL    HW288860  11.224   4.630   6.396
62946SOL     OW88861  11.302   5.545   7.157
62946SOL    HW188862  11.292   5.530   7.256
62946SOL    HW288863  11.216   5.581   7.121
62947SOL     OW88864  12.037   4.072   5.781
62947SOL    HW188865  12.096   4.135   5.732
62947SOL    HW288866  12.056   3.978   5.752
62948SOL     OW88867  12.534   4.868   6.131
62948SOL    HW188868  12.617   4.839   6.083
62948SOL    HW288869  12.485   4.935   6.075
62949SOL     OW88870  11.722   3.920   6.471
62949SOL    HW188871  11.717   3.915   6.571
62949SOL    HW288872  11.724   4.016   6.442
62950SOL     OW88873  12.180   5.180   6.063
62950SOL    HW188874  12.134   5.252   6.011
62950SOL    HW288875  12.176   5.200   6.161
62951SOL     OW88876  11.523   5.525   6.439
62951SOL    HW188877  11.573   5.439   6.445
62951SOL    HW288878  11.588   5.602   6.436
62952SOL     OW88879  12.399   5.274   7.092
62952SOL    HW188880  12.405   5.197   7.156
62952SOL    HW288881  12.347   5.248   7.012
62953SOL     OW88882  11.493   4.667   5.828
62953SOL    HW188883  11.575   4.706   5.786
62953SOL    HW288884  11.466   4.585   5.779
62954SOL     OW88885  12.630   4.459   6.314
62954SOL    HW188886  12.625   4.394   6.389
62954SOL    HW288887  12.710   4.518   6.327
62955SOL     OW88888  11.633   4.990   7.313
62955SOL    HW188889  11.583   4.991   7.227
62955SOL    HW288890  11.570   4.972   7.389
62956SOL     OW88891  12.283   5.500   5.823
62956SOL    HW188892  12.223   5.438   5.873
62956SOL    HW288893  12.314   5.456   5.738
62957SOL     OW88894  11.374   4.009   7.084
62957SOL    HW188895  11.294   4.069   7.071
62957SOL    HW288896  11.364   3.960   7.170
62958SOL     OW88897  11.636   5.467   5.909
62958SOL    HW188898  11.669   5.506   5.995
62958SOL    HW288899  11.712   5.460   5.844
62959SOL     OW88900  12.572   3.831   6.012
62959SOL    HW188901  12.548   3.794   5.922
62959SOL    HW288902  12.671   3.847   6.016
62960SOL     OW88903  11.421   5.509   6.827
62960SOL    HW188904  11.478   5.444   6.877
62960SOL    HW288905  11.405   5.476   6.734
62961SOL     OW88906  12.112   5.422   6.490
62961SOL    HW188907  12.192   5.365   6.511
62961SOL    HW288908  12.063   5.382   6.413
62962SOL     OW88909  11.554   4.424   6.066
62962SOL    HW188910  11.599   4.334   6.063
62962SOL    HW288911  11.460   4.413   6.099
62963SOL     OW88912  11.786   3.846   5.703
62963SOL    HW188913  11.884   3.824   5.710
62963SOL    HW288914  11.755   3.829   5.610
62964SOL     OW88915  11.953   3.988   7.335
62964SOL    HW188916  12.020   3.927   7.378
62964SOL    HW288917  11.880   4.007   7.400
62965SOL     OW88918  12.060   5.238   6.781
62965SOL    HW188919  12.037   5.213   6.687
62965SOL    HW288920  12.121   5.169   6.820
62966SOL     OW88921  12.523   4.314   7.019
62966SOL    HW188922  12.551   4.271   7.104
62966SOL    HW288923  12.548   4.410   7.020
62967SOL     OW88924  11.975   5.126   6.510
62967SOL    HW188925  12.065   5.140   6.468
62967SOL    HW288926  11.904   5.128   6.439
62968SOL     OW88927  12.094   4.227   6.485
62968SOL    HW188928  12.069   4.218   6.389
62968SOL    HW288929  12.142   4.145   6.516
62969SOL     OW88930  11.711   3.788   6.098
62969SOL    HW188931  11.630   3.789   6.156
62969SOL    HW288932  11.714   3.871   6.043
62970SOL     OW88933  12.606   4.912   5.627
62970SOL    HW188934  12.638   4.836   5.684
62970SOL    HW288935  12.514   4.939   5.657
62971SOL     OW88936  11.469   3.759   5.757
62971SOL    HW188937  11.518   3.843   5.736
62971SOL    HW288938  11.531   3.694   5.802
62972SOL     OW88939  12.107   3.960   6.066
62972SOL    HW188940  12.059   4.001   5.988
62972SOL    HW288941  12.206   3.958   6.047
62973SOL     OW88942  12.248   4.407   7.050
62973SOL    HW188943  12.168   4.346   7.053
62973SOL    HW288944  12.329   4.354   7.026
62974SOL     OW88945  12.399   5.294   6.379
62974SOL    HW188946  12.420   5.368   6.314
62974SOL    HW288947  12.467   5.294   6.452
62975SOL     OW88948  11.631   4.876   6.327
62975SOL    HW188949  11.560   4.849   6.392
62975SOL    HW288950  11.605   4.848   6.234
62976SOL     OW88951  12.443   5.521   6.177
62976SOL    HW188952  12.487   5.585   6.113
62976SOL    HW288953  12.393   5.573   6.247
62977SOL     OW88954  12.204   4.273   5.602
62977SOL    HW188955  12.163   4.355   5.563
62977SOL    HW288956  12.268   4.299   5.675
62978SOL     OW88957  11.250   4.280   6.972
62978SOL    HW188958  11.342   4.279   6.931
62978SOL    HW288959  11.244   4.354   7.039
62979SOL     OW88960  11.733   3.946   6.733
62979SOL    HW188961  11.771   3.862   6.770
62979SOL    HW288962  11.645   3.965   6.777
62980SOL     OW88963  12.038   4.178   6.228
62980SOL    HW188964  12.006   4.250   6.166
62980SOL    HW288965  12.062   4.097   6.175
62981SOL     OW88966  12.189   3.763   6.339
62981SOL    HW188967  12.117   3.768   6.270
62981SOL    HW288968  12.165   3.694   6.408
62982SOL     OW88969  12.601   4.897   6.453
62982SOL    HW188970  12.546   4.813   6.446
62982SOL    HW288971  12.627   4.926   6.361
62983SOL     OW88972  12.638   4.314   6.578
62983SOL    HW188973  12.608   4.219   6.585
62983SOL    HW288974  12.711   4.330   6.644
62984SOL     OW88975  11.660   5.109   5.760
62984SOL    HW188976  11.573   5.094   5.807
62984SOL    HW288977  11.643   5.135   5.665
62985SOL     OW88978  12.562   4.299   5.664
62985SOL    HW188979  12.508   4.278   5.745
62985SOL    HW288980  12.653   4.258   5.673
62986SOL     OW88981  11.699   3.980   5.914
62986SOL    HW188982  11.726   3.921   5.839
62986SOL    HW288983  11.699   4.075   5.883
62987SOL     OW88984  12.236   5.071   6.926
62987SOL    HW188985  12.156   5.048   6.981
62987SOL    HW288986  12.319   5.045   6.975
62988SOL     OW88987  12.764   5.353   7.211
62988SOL    HW188988  12.791   5.387   7.121
62988SOL    HW288989  12.843   5.315   7.257
62989SOL     OW88990  12.283   4.919   6.686
62989SOL    HW188991  12.243   4.963   6.767
62989SOL    HW288992  12.242   4.956   6.603
62990SOL     OW88993  12.087   3.813   6.988
62990SOL    HW188994  12.112   3.793   6.893
62990SOL    HW288995  12.159   3.869   7.030
62991SOL     OW88996  12.152   4.840   7.305
62991SOL    HW188997  12.053   4.846   7.315
62991SOL    HW288998  12.175   4.760   7.249
62992SOL     OW88999  11.877   4.774   5.954
62992SOL    HW189000  11.863   4.781   6.053
62992SOL    HW289001  11.961   4.723   5.936
62993SOL     OW89002  11.582   4.537   6.837
62993SOL    HW189003  11.668   4.549   6.887
62993SOL    HW289004  11.540   4.450   6.864
62994SOL     OW89005  12.446   4.110   6.848
62994SOL    HW189006  12.467   4.184   6.912
62994SOL    HW289007  12.357   4.127   6.805
62995SOL     OW89008  11.236   5.288   6.917
62995SOL    HW189009  11.190   5.370   6.883
62995SOL    HW289010  11.334   5.307   6.926
62996SOL     OW89011  11.539   4.824   6.087
62996SOL    HW189012  11.532   4.907   6.031
62996SOL    HW289013  11.543   4.744   6.027
62997SOL     OW89014  11.738   4.261   6.451
62997SOL    HW189015  11.750   4.327   6.377
62997SOL    HW289016  11.784   4.295   6.534
62998SOL     OW89017  12.424   5.072   5.974
62998SOL    HW189018  12.474   5.149   6.014
62998SOL    HW289019  12.329   5.074   6.006
62999SOL     OW89020  12.444   5.169   6.728
62999SOL    HW189021  12.491   5.182   6.815
62999SOL    HW289022  12.378   5.095   6.737
63000SOL     OW89023  12.754   4.363   6.058
63000SOL    HW189024  12.723   4.424   6.131
63000SOL    HW289025  12.804   4.415   5.989
63001SOL     OW89026  11.526   5.234   6.915
63001SOL    HW189027  11.505   5.190   6.828
63001SOL    HW289028  11.623   5.260   6.918
63002SOL     OW89029  11.574   4.475   7.184
63002SOL    HW189030  11.642   4.530   7.137
63002SOL    HW289031  11.614   4.387   7.211
63003SOL     OW89032  12.185   3.829   7.356
63003SOL    HW189033  12.191   3.914   7.304
63003SOL    HW289034  12.217   3.753   7.299
63004SOL     OW89035  11.676   3.774   7.326
63004SOL    HW189036  11.634   3.717   7.256
63004SOL    HW289037  11.610   3.843   7.358
63005SOL     OW89038  11.745   4.594   6.615
63005SOL    HW189039  11.789   4.683   6.606
63005SOL    HW289040  11.682   4.594   6.692
63006SOL     OW89041  12.532   4.586   6.631
63006SOL    HW189042  12.457   4.586   6.565
63006SOL    HW289043  12.569   4.494   6.640
63007SOL     OW89044  12.381   4.249   5.861
63007SOL    HW189045  12.394   4.165   5.915
63007SOL    HW289046  12.352   4.323   5.921
63008SOL     OW89047  11.479   3.937   6.817
63008SOL    HW189048  11.456   3.974   6.907
63008SOL    HW289049  11.449   3.842   6.811
63009SOL     OW89050  11.209   5.034   6.868
63009SOL    HW189051  11.262   4.985   6.936
63009SOL    HW289052  11.231   5.132   6.873
63010SOL     OW89053  11.904   4.358   6.650
63010SOL    HW189054  11.963   4.332   6.574
63010SOL    HW289055  11.876   4.454   6.639
63011SOL     OW89056  11.479   3.787   6.204
63011SOL    HW189057  11.468   3.881   6.237
63011SOL    HW289058  11.474   3.724   6.281
63012SOL     OW89059  12.794   4.091   5.960
63012SOL    HW189060  12.796   4.015   6.024
63012SOL    HW289061  12.746   4.168   6.000
63013SOL     OW89062  12.195   4.490   6.552
63013SOL    HW189063  12.210   4.511   6.648
63013SOL    HW289064  12.165   4.395   6.543
63014SOL     OW89065  12.152   5.297   7.286
63014SOL    HW189066  12.132   5.341   7.198
63014SOL    HW289067  12.191   5.206   7.270
63015SOL     OW89068  11.522   4.622   7.390
63015SOL    HW189069  11.598   4.666   7.438
63015SOL    HW289070  11.557   4.575   7.308
63016SOL     OW89071  12.712   3.998   5.711
63016SOL    HW189072  12.651   3.923   5.734
63016SOL    HW289073  12.734   4.050   5.794
63017SOL     OW89074  12.475   4.562   5.628
63017SOL    HW189075  12.509   4.469   5.643
63017SOL    HW289076  12.493   4.589   5.533
63018SOL     OW89077  12.240   5.057   6.435
63018SOL    HW189078  12.247   4.973   6.380
63018SOL    HW289079  12.302   5.126   6.399
63019SOL     OW89080  11.491   4.534   6.535
63019SOL    HW189081  11.584   4.570   6.540
63019SOL    HW289082  11.485   4.449   6.587
63020SOL     OW89083  11.511   4.233   6.592
63020SOL    HW189084  11.459   4.150   6.575
63020SOL    HW289085  11.588   4.238   6.528
63021SOL     OW89086  12.310   4.104   7.264
63021SOL    HW189087  12.265   4.167   7.328
63021SOL    HW289088  12.403   4.135   7.247
63022SOL     OW89089  11.180   5.050   5.786
63022SOL    HW189090  11.087   5.071   5.755
63022SOL    HW289091  11.190   4.951   5.799
63023SOL     OW89092  11.260   5.525   6.513
63023SOL    HW189093  11.218   5.439   6.486
63023SOL    HW289094  11.354   5.528   6.479
63024SOL     OW89095  11.676   5.292   6.496
63024SOL    HW189096  11.742   5.366   6.505
63024SOL    HW289097  11.720   5.213   6.454
63025SOL     OW89098  12.174   4.520   6.824
63025SOL    HW189099  12.215   4.488   6.910
63025SOL    HW289100  12.078   4.493   6.821
63026SOL     OW89101  11.212   4.268   6.700
63026SOL    HW189102  11.297   4.235   6.659
63026SOL    HW289103  11.225   4.283   6.798
63027SOL     OW89104  11.361   4.244   7.308
63027SOL    HW189105  11.420   4.204   7.238
63027SOL    HW289106  11.303   4.315   7.267
63028SOL     OW89107  12.541   4.674   7.246
63028SOL    HW189108  12.580   4.763   7.266
63028SOL    HW289109  12.551   4.654   7.149
63029SOL     OW89110  11.424   5.288   7.330
63029SOL    HW189111  11.394   5.345   7.406
63029SOL    HW289112  11.417   5.191   7.356
63030SOL     OW89113  11.843   4.188   6.855
63030SOL    HW189114  11.809   4.099   6.825
63030SOL    HW289115  11.869   4.242   6.775
63031SOL     OW89116  12.102   5.402   7.051
63031SOL    HW189117  12.078   5.384   6.956
63031SOL    HW289118  12.132   5.496   7.061
63032SOL     OW89119  11.645   4.224   5.777
63032SOL    HW189120  11.706   4.304   5.781
63032SOL    HW289121  11.550   4.255   5.784
63033SOL     OW89122  11.331   4.861   7.052
63033SOL    HW189123  11.353   4.800   7.128
63033SOL    HW289124  11.341   4.812   6.966
63034SOL     OW89125  12.519   4.783   6.820
63034SOL    HW189126  12.543   4.720   6.746
63034SOL    HW289127  12.429   4.823   6.802
63035SOL     OW89128  12.474   4.579   5.895
63035SOL    HW189129  12.388   4.548   5.937
63035SOL    HW289130  12.470   4.565   5.796
63036SOL     OW89131  12.424   5.455   6.714
63036SOL    HW189132  12.508   5.460   6.660
63036SOL    HW289133  12.401   5.359   6.732
63037SOL     OW89134  11.255   4.982   6.608
63037SOL    HW189135  11.250   4.981   6.708
63037SOL    HW289136  11.172   4.941   6.570
63038SOL     OW89137  11.860   5.386   7.302
63038SOL    HW189138  11.804   5.467   7.311
63038SOL    HW289139  11.912   5.390   7.216
63039SOL     OW89140  12.898   3.859   6.109
63039SOL    HW189141  12.971   3.842   6.042
63039SOL    HW289142  12.867   3.772   6.147
63040SOL     OW89143  12.560   5.297   6.063
63040SOL    HW189144  12.627   5.309   5.989
63040SOL    HW289145  12.520   5.386   6.086
63041SOL     OW89146  11.302   5.518   7.437
63041SOL    HW189147  11.261   5.444   7.490
63041SOL    HW289148  11.366   5.569   7.495
63042SOL     OW89149  12.452   4.651   6.258
63042SOL    HW189150  12.512   4.570   6.260
63042SOL    HW289151  12.492   4.720   6.198
63043SOL     OW89152  11.844   5.340   5.740
63043SOL    HW189153  11.853   5.350   5.641
63043SOL    HW289154  11.804   5.251   5.761
63044SOL     OW89155  11.435   4.050   6.306
63044SOL    HW189156  11.356   4.101   6.272
63044SOL    HW289157  11.426   4.035   6.404
63045SOL     OW89158  12.366   5.336   5.617
63045SOL    HW189159  12.372   5.243   5.654
63045SOL    HW289160  12.307   5.336   5.537
63046SOL     OW89161  11.994   4.726   6.958
63046SOL    HW189162  12.034   4.725   6.866
63046SOL    HW289163  12.004   4.818   6.998
63047SOL     OW89164  12.088   4.634   5.877
63047SOL    HW189165  12.151   4.672   5.809
63047SOL    HW289166  12.128   4.551   5.916
63048SOL     OW89167  12.676   5.331   5.630
63048SOL    HW189168  12.584   5.368   5.637
63048SOL    HW289169  12.714   5.351   5.540
63049SOL     OW89170  11.544   5.012   7.076
63049SOL    HW189171  11.531   5.105   7.042
63049SOL    HW289172  11.460   4.960   7.063
63050SOL     OW89173  12.211   4.822   6.282
63050SOL    HW189174  12.141   4.775   6.336
63050SOL    HW289175  12.270   4.754   6.239
63051SOL     OW89176  12.186   3.960   6.557
63051SOL    HW189177  12.178   3.924   6.464
63051SOL    HW289178  12.184   3.884   6.622
63052SOL     OW89179  11.762   5.211   6.077
63052SOL    HW189180  11.804   5.153   6.007
63052SOL    HW289181  11.718   5.290   6.033
63053SOL     OW89182  11.427   5.072   5.876
63053SOL    HW189183  11.331   5.073   5.849
63053SOL    HW289184  11.439   5.125   5.960
63054SOL     OW89185  11.277   4.737   7.312
63054SOL    HW189186  11.200   4.704   7.366
63054SOL    HW289187  11.362   4.707   7.354
63055SOL     OW89188  11.844   3.927   7.075
63055SOL    HW189189  11.934   3.911   7.035
63055SOL    HW289190  11.852   3.932   7.174
63056SOL     OW89191  11.247   4.069   5.619
63056SOL    HW189192  11.155   4.041   5.590
63056SOL    HW289193  11.278   4.146   5.563
63057SOL     OW89194  12.612   4.580   6.984
63057SOL    HW189195  12.555   4.632   6.921
63057SOL    HW289196  12.708   4.592   6.960
63058SOL     OW89197  11.244   3.890   5.904
63058SOL    HW189198  11.227   3.973   5.850
63058SOL    HW289199  11.334   3.853   5.882
63059SOL     OW89200  12.355   5.059   5.705
63059SOL    HW189201  12.256   5.048   5.707
63059SOL    HW289202  12.389   5.074   5.798
63060SOL     OW89203  11.785   4.566   7.017
63060SOL    HW189204  11.841   4.647   7.000
63060SOL    HW289205  11.844   4.486   7.020
63061SOL     OW89206  12.665   5.491   6.545
63061SOL    HW189207  12.698   5.555   6.476
63061SOL    HW289208  12.731   5.485   6.620
63062SOL     OW89209  11.888   4.289   7.294
63062SOL    HW189210  11.907   4.354   7.368
63062SOL    HW289211  11.948   4.209   7.303
63063SOL     OW89212  12.622   4.944   7.219
63063SOL    HW189213  12.613   4.934   7.318
63063SOL    HW289214  12.718   4.937   7.193
63064SOL     OW89215  11.562   5.465   7.146
63064SOL    HW189216  11.471   5.506   7.144
63064SOL    HW289217  11.555   5.371   7.178
63065SOL     OW89218  12.397   4.049   6.035
63065SOL    HW189219  12.462   3.975   6.024
63065SOL    HW289220  12.417   4.099   6.119
63066SOL     OW89221  11.766   4.469   6.238
63066SOL    HW189222  11.816   4.554   6.219
63066SOL    HW289223  11.678   4.471   6.190
63067SOL     OW89224  12.031   5.098   5.602
63067SOL    HW189225  11.985   5.113   5.690
63067SOL    HW289226  12.075   5.183   5.572
63068SOL     OW89227  11.833   5.514   6.539
63068SOL    HW189228  11.787   5.602   6.526
63068SOL    HW289229  11.932   5.526   6.532
63069SOL     OW89230  12.031   4.680   6.447
63069SOL    HW189231  12.085   4.611   6.495
63069SOL    HW289232  11.999   4.749   6.513
63070SOL     OW89233  12.255   4.708   5.673
63070SOL    HW189234  12.232   4.761   5.591
63070SOL    HW289235  12.336   4.652   5.654
63071SOL     OW89236  13.033   5.293   6.437
63071SOL    HW189237  12.962   5.281   6.367
63071SOL    HW289238  13.034   5.214   6.497
63072SOL     OW89239  11.393   5.038   7.430
63072SOL    HW189240  11.328   4.965   7.409
63072SOL    HW289241  11.397   5.052   7.528
63073SOL     OW89242  11.251   4.964   6.239
63073SOL    HW189243  11.250   4.917   6.327
63073SOL    HW289244  11.333   4.936   6.188
63074SOL     OW89245  11.844   5.115   7.210
63074SOL    HW189246  11.766   5.065   7.248
63074SOL    HW289247  11.841   5.210   7.241
63075SOL     OW89248  11.600   4.148   6.106
63075SOL    HW189249  11.630   4.076   6.044
63075SOL    HW289250  11.561   4.108   6.189
63076SOL     OW89251  11.489   4.271   6.866
63076SOL    HW189252  11.527   4.212   6.938
63076SOL    HW289253  11.529   4.245   6.778
63077SOL     OW89254  11.984   5.310   6.273
63077SOL    HW189255  12.016   5.320   6.179
63077SOL    HW289256  11.905   5.248   6.275
63078SOL     OW89257  12.596   3.938   6.698
63078SOL    HW189258  12.648   3.873   6.753
63078SOL    HW289259  12.547   4.001   6.759
63079SOL     OW89260  12.173   3.758   6.740
63079SOL    HW189261  12.110   3.686   6.709
63079SOL    HW289262  12.266   3.722   6.740
63080SOL     OW89263  11.942   5.054   5.887
63080SOL    HW189264  11.896   4.967   5.904
63080SOL    HW289265  12.033   5.051   5.928
63081SOL     OW89266  11.790   5.291   6.870
63081SOL    HW189267  11.785   5.373   6.927
63081SOL    HW289268  11.879   5.288   6.825
63082SOL     OW89269  12.524   3.776   5.754
63082SOL    HW189270  12.559   3.735   5.670
63082SOL    HW289271  12.434   3.738   5.774
63083SOL     OW89272  12.472   4.177   6.277
63083SOL    HW189273  12.413   4.257   6.281
63083SOL    HW289274  12.487   4.142   6.370
63084SOL     OW89275  12.765   3.945   6.468
63084SOL    HW189276  12.681   3.944   6.522
63084SOL    HW289277  12.767   4.028   6.412
63085SOL     OW89278  11.211   4.801   5.886
63085SOL    HW189279  11.310   4.790   5.877
63085SOL    HW289280  11.171   4.715   5.918
63086SOL     OW89281  12.047   5.370   5.923
63086SOL    HW189282  11.970   5.335   5.869
63086SOL    HW289283  12.015   5.441   5.985
63087SOL     OW89284  11.402   4.352   7.561
63087SOL    HW189285  11.309   4.350   7.598
63087SOL    HW289286  11.403   4.313   7.469
63088SOL     OW89287  11.397   3.999   8.444
63088SOL    HW189288  11.432   3.982   8.536
63088SOL    HW289289  11.309   3.954   8.432
63089SOL     OW89290  11.191   4.092   8.095
63089SOL    HW189291  11.109   4.135   8.134
63089SOL    HW289292  11.163   4.019   8.032
63090SOL     OW89293  11.741   4.999   8.613
63090SOL    HW189294  11.648   4.992   8.576
63090SOL    HW289295  11.752   5.088   8.657
63091SOL     OW89296  12.727   5.235   8.151
63091SOL    HW189297  12.670   5.219   8.232
63091SOL    HW289298  12.668   5.245   8.071
63092SOL     OW89299  12.307   4.427   8.165
63092SOL    HW189300  12.364   4.505   8.140
63092SOL    HW289301  12.247   4.453   8.241
63093SOL     OW89302  11.940   4.868   8.471
63093SOL    HW189303  11.862   4.885   8.531
63093SOL    HW289304  11.974   4.955   8.435
63094SOL     OW89305  12.022   4.522   9.271
63094SOL    HW189306  12.018   4.598   9.336
63094SOL    HW289307  12.044   4.558   9.180
63095SOL     OW89308  11.857   4.736   8.113
63095SOL    HW189309  11.926   4.720   8.183
63095SOL    HW289310  11.784   4.793   8.151
63096SOL     OW89311  11.858   4.885   9.251
63096SOL    HW189312  11.918   4.964   9.265
63096SOL    HW289313  11.772   4.916   9.210
63097SOL     OW89314  11.507   5.159   8.509
63097SOL    HW189315  11.429   5.128   8.456
63097SOL    HW289316  11.565   5.217   8.452
63098SOL     OW89317  12.632   5.229   8.787
63098SOL    HW189318  12.656   5.323   8.813
63098SOL    HW289319  12.616   5.175   8.869
63099SOL     OW89320  11.610   4.116   8.947
63099SOL    HW189321  11.692   4.060   8.956
63099SOL    HW289322  11.529   4.058   8.951
63100SOL     OW89323  11.403   5.437   7.931
63100SOL    HW189324  11.437   5.514   7.985
63100SOL    HW289325  11.447   5.437   7.841
63101SOL     OW89326  12.299   5.065   9.138
63101SOL    HW189327  12.346   5.065   9.226
63101SOL    HW289328  12.251   4.978   9.127
63102SOL     OW89329  11.402   5.158   7.986
63102SOL    HW189330  11.376   5.254   7.986
63102SOL    HW289331  11.331   5.104   8.031
63103SOL     OW89332  11.412   4.815   8.334
63103SOL    HW189333  11.426   4.731   8.386
63103SOL    HW289334  11.357   4.879   8.389
63104SOL     OW89335  11.792   5.510   8.887
63104SOL    HW189336  11.700   5.493   8.922
63104SOL    HW289337  11.820   5.602   8.913
63105SOL     OW89338  11.778   4.688   7.571
63105SOL    HW189339  11.785   4.772   7.517
63105SOL    HW289340  11.824   4.701   7.659
63106SOL     OW89341  12.766   3.838   8.928
63106SOL    HW189342  12.748   3.905   8.856
63106SOL    HW289343  12.763   3.884   9.017
63107SOL     OW89344  11.294   4.367   8.011
63107SOL    HW189345  11.249   4.279   8.028
63107SOL    HW289346  11.293   4.421   8.095
63108SOL     OW89347  11.199   5.320   7.565
63108SOL    HW189348  11.180   5.224   7.586
63108SOL    HW289349  11.166   5.378   7.640
63109SOL     OW89350  12.861   4.646   8.060
63109SOL    HW189351  12.956   4.617   8.068
63109SOL    HW289352  12.853   4.711   7.985
63110SOL     OW89353  11.285   4.461   9.045
63110SOL    HW189354  11.373   4.448   9.090
63110SOL    HW289355  11.272   4.558   9.023
63111SOL     OW89356  11.785   5.089   8.174
63111SOL    HW189357  11.736   5.002   8.183
63111SOL    HW289358  11.762   5.132   8.087
63112SOL     OW89359  12.465   4.952   8.871
63112SOL    HW189360  12.502   4.879   8.813
63112SOL    HW289361  12.517   4.957   8.956
63113SOL     OW89362  11.981   3.728   7.950
63113SOL    HW189363  12.021   3.819   7.941
63113SOL    HW289364  11.881   3.736   7.956
63114SOL     OW89365  11.369   4.700   8.712
63114SOL    HW189366  11.458   4.655   8.698
63114SOL    HW289367  11.296   4.635   8.693
63115SOL     OW89368  12.359   5.516   9.064
63115SOL    HW189369  12.383   5.576   8.988
63115SOL    HW289370  12.366   5.421   9.034
63116SOL     OW89371  11.489   3.975   9.249
63116SOL    HW189372  11.560   4.046   9.255
63116SOL    HW289373  11.401   4.014   9.277
63117SOL     OW89374  12.638   5.141   8.401
63117SOL    HW189375  12.579   5.147   8.481
63117SOL    HW289376  12.623   5.053   8.355
63118SOL     OW89377  12.839   5.438   8.020
63118SOL    HW189378  12.798   5.415   7.932
63118SOL    HW289379  12.821   5.364   8.085
63119SOL     OW89380  11.770   4.453   7.718
63119SOL    HW189381  11.794   4.522   7.650
63119SOL    HW289382  11.692   4.486   7.772
63120SOL     OW89383  12.453   4.069   8.392
63120SOL    HW189384  12.367   4.019   8.379
63120SOL    HW289385  12.515   4.015   8.448
63121SOL     OW89386  11.979   4.329   8.913
63121SOL    HW189387  11.932   4.326   9.002
63121SOL    HW289388  11.928   4.274   8.847
63122SOL     OW89389  12.566   4.193   9.122
63122SOL    HW189390  12.546   4.236   9.210
63122SOL    HW289391  12.644   4.131   9.131
63123SOL     OW89392  12.145   4.614   9.020
63123SOL    HW189393  12.191   4.530   8.991
63123SOL    HW289394  12.089   4.648   8.945
63124SOL     OW89395  12.163   4.134   8.690
63124SOL    HW189396  12.086   4.168   8.744
63124SOL    HW289397  12.129   4.083   8.611
63125SOL     OW89398  12.213   4.425   7.877
63125SOL    HW189399  12.239   4.421   7.973
63125SOL    HW289400  12.128   4.374   7.863
63126SOL     OW89401  11.248   4.535   8.237
63126SOL    HW189402  11.347   4.523   8.246
63126SOL    HW289403  11.224   4.630   8.258
63127SOL     OW89404  11.302   5.545   9.019
63127SOL    HW189405  11.292   5.530   9.118
63127SOL    HW289406  11.216   5.581   8.983
63128SOL     OW89407  12.037   4.072   7.643
63128SOL    HW189408  12.096   4.135   7.594
63128SOL    HW289409  12.056   3.978   7.614
63129SOL     OW89410  12.534   4.868   7.993
63129SOL    HW189411  12.617   4.839   7.945
63129SOL    HW289412  12.485   4.935   7.937
63130SOL     OW89413  11.722   3.920   8.333
63130SOL    HW189414  11.717   3.915   8.433
63130SOL    HW289415  11.724   4.016   8.304
63131SOL     OW89416  12.180   5.180   7.925
63131SOL    HW189417  12.134   5.252   7.873
63131SOL    HW289418  12.176   5.200   8.023
63132SOL     OW89419  11.523   5.525   8.301
63132SOL    HW189420  11.573   5.439   8.307
63132SOL    HW289421  11.588   5.602   8.298
63133SOL     OW89422  12.399   5.274   8.954
63133SOL    HW189423  12.405   5.197   9.018
63133SOL    HW289424  12.347   5.248   8.874
63134SOL     OW89425  11.493   4.667   7.690
63134SOL    HW189426  11.575   4.706   7.648
63134SOL    HW289427  11.466   4.585   7.641
63135SOL     OW89428  12.630   4.459   8.176
63135SOL    HW189429  12.625   4.394   8.251
63135SOL    HW289430  12.710   4.518   8.189
63136SOL     OW89431  11.633   4.990   9.175
63136SOL    HW189432  11.583   4.991   9.089
63136SOL    HW289433  11.570   4.972   9.251
63137SOL     OW89434  12.283   5.500   7.685
63137SOL    HW189435  12.223   5.438   7.735
63137SOL    HW289436  12.314   5.456   7.600
63138SOL     OW89437  11.374   4.009   8.946
63138SOL    HW189438  11.294   4.069   8.933
63138SOL    HW289439  11.364   3.960   9.032
63139SOL     OW89440  11.636   5.467   7.771
63139SOL    HW189441  11.669   5.506   7.857
63139SOL    HW289442  11.712   5.460   7.706
63140SOL     OW89443  12.572   3.831   7.874
63140SOL    HW189444  12.548   3.794   7.784
63140SOL    HW289445  12.671   3.847   7.878
63141SOL     OW89446  11.421   5.509   8.689
63141SOL    HW189447  11.478   5.444   8.739
63141SOL    HW289448  11.405   5.476   8.596
63142SOL     OW89449  12.112   5.422   8.352
63142SOL    HW189450  12.192   5.365   8.373
63142SOL    HW289451  12.063   5.382   8.275
63143SOL     OW89452  11.554   4.424   7.928
63143SOL    HW189453  11.599   4.334   7.925
63143SOL    HW289454  11.460   4.413   7.961
63144SOL     OW89455  11.786   3.846   7.565
63144SOL    HW189456  11.884   3.824   7.572
63144SOL    HW289457  11.755   3.829   7.472
63145SOL     OW89458  11.953   3.988   9.197
63145SOL    HW189459  12.020   3.927   9.240
63145SOL    HW289460  11.880   4.007   9.262
63146SOL     OW89461  12.060   5.238   8.643
63146SOL    HW189462  12.037   5.213   8.549
63146SOL    HW289463  12.121   5.169   8.682
63147SOL     OW89464  12.523   4.314   8.881
63147SOL    HW189465  12.551   4.271   8.966
63147SOL    HW289466  12.548   4.410   8.882
63148SOL     OW89467  11.975   5.126   8.372
63148SOL    HW189468  12.065   5.140   8.330
63148SOL    HW289469  11.904   5.128   8.301
63149SOL     OW89470  12.094   4.227   8.347
63149SOL    HW189471  12.069   4.218   8.251
63149SOL    HW289472  12.142   4.145   8.378
63150SOL     OW89473  11.711   3.788   7.960
63150SOL    HW189474  11.630   3.789   8.018
63150SOL    HW289475  11.714   3.871   7.905
63151SOL     OW89476  12.606   4.912   7.489
63151SOL    HW189477  12.638   4.836   7.546
63151SOL    HW289478  12.514   4.939   7.519
63152SOL     OW89479  11.469   3.759   7.619
63152SOL    HW189480  11.518   3.843   7.598
63152SOL    HW289481  11.531   3.694   7.664
63153SOL     OW89482  12.107   3.960   7.928
63153SOL    HW189483  12.059   4.001   7.850
63153SOL    HW289484  12.206   3.958   7.909
63154SOL     OW89485  12.248   4.407   8.912
63154SOL    HW189486  12.168   4.346   8.915
63154SOL    HW289487  12.329   4.354   8.888
63155SOL     OW89488  12.399   5.294   8.241
63155SOL    HW189489  12.420   5.368   8.176
63155SOL    HW289490  12.467   5.294   8.314
63156SOL     OW89491  11.631   4.876   8.189
63156SOL    HW189492  11.560   4.849   8.254
63156SOL    HW289493  11.605   4.848   8.096
63157SOL     OW89494  12.443   5.521   8.039
63157SOL    HW189495  12.487   5.585   7.975
63157SOL    HW289496  12.393   5.573   8.109
63158SOL     OW89497  12.204   4.273   7.464
63158SOL    HW189498  12.163   4.355   7.425
63158SOL    HW289499  12.268   4.299   7.537
63159SOL     OW89500  11.250   4.280   8.834
63159SOL    HW189501  11.342   4.279   8.793
63159SOL    HW289502  11.244   4.354   8.901
63160SOL     OW89503  11.733   3.946   8.595
63160SOL    HW189504  11.771   3.862   8.632
63160SOL    HW289505  11.645   3.965   8.639
63161SOL     OW89506  12.038   4.178   8.090
63161SOL    HW189507  12.006   4.250   8.028
63161SOL    HW289508  12.062   4.097   8.037
63162SOL     OW89509  12.189   3.763   8.201
63162SOL    HW189510  12.117   3.768   8.132
63162SOL    HW289511  12.165   3.694   8.270
63163SOL     OW89512  12.601   4.897   8.315
63163SOL    HW189513  12.546   4.813   8.308
63163SOL    HW289514  12.627   4.926   8.223
63164SOL     OW89515  12.638   4.314   8.440
63164SOL    HW189516  12.608   4.219   8.447
63164SOL    HW289517  12.711   4.330   8.506
63165SOL     OW89518  11.660   5.109   7.622
63165SOL    HW189519  11.573   5.094   7.669
63165SOL    HW289520  11.643   5.135   7.527
63166SOL     OW89521  12.562   4.299   7.526
63166SOL    HW189522  12.508   4.278   7.607
63166SOL    HW289523  12.653   4.258   7.535
63167SOL     OW89524  11.699   3.980   7.776
63167SOL    HW189525  11.726   3.921   7.701
63167SOL    HW289526  11.699   4.075   7.745
63168SOL     OW89527  12.236   5.071   8.788
63168SOL    HW189528  12.156   5.048   8.843
63168SOL    HW289529  12.319   5.045   8.837
63169SOL     OW89530  12.764   5.353   9.073
63169SOL    HW189531  12.791   5.387   8.983
63169SOL    HW289532  12.843   5.315   9.119
63170SOL     OW89533  12.283   4.919   8.548
63170SOL    HW189534  12.243   4.963   8.629
63170SOL    HW289535  12.242   4.956   8.465
63171SOL     OW89536  12.087   3.813   8.850
63171SOL    HW189537  12.112   3.793   8.755
63171SOL    HW289538  12.159   3.869   8.892
63172SOL     OW89539  12.152   4.840   9.167
63172SOL    HW189540  12.053   4.846   9.177
63172SOL    HW289541  12.175   4.760   9.111
63173SOL     OW89542  11.877   4.774   7.816
63173SOL    HW189543  11.863   4.781   7.915
63173SOL    HW289544  11.961   4.723   7.798
63174SOL     OW89545  11.582   4.537   8.699
63174SOL    HW189546  11.668   4.549   8.749
63174SOL    HW289547  11.540   4.450   8.726
63175SOL     OW89548  12.446   4.110   8.710
63175SOL    HW189549  12.467   4.184   8.774
63175SOL    HW289550  12.357   4.127   8.667
63176SOL     OW89551  11.236   5.288   8.779
63176SOL    HW189552  11.190   5.370   8.745
63176SOL    HW289553  11.334   5.307   8.788
63177SOL     OW89554  11.539   4.824   7.949
63177SOL    HW189555  11.532   4.907   7.893
63177SOL    HW289556  11.543   4.744   7.889
63178SOL     OW89557  11.738   4.261   8.313
63178SOL    HW189558  11.750   4.327   8.239
63178SOL    HW289559  11.784   4.295   8.396
63179SOL     OW89560  12.424   5.072   7.836
63179SOL    HW189561  12.474   5.149   7.876
63179SOL    HW289562  12.329   5.074   7.868
63180SOL     OW89563  12.444   5.169   8.590
63180SOL    HW189564  12.491   5.182   8.677
63180SOL    HW289565  12.378   5.095   8.599
63181SOL     OW89566  12.754   4.363   7.920
63181SOL    HW189567  12.723   4.424   7.993
63181SOL    HW289568  12.804   4.415   7.851
63182SOL     OW89569  11.526   5.234   8.777
63182SOL    HW189570  11.505   5.190   8.690
63182SOL    HW289571  11.623   5.260   8.780
63183SOL     OW89572  11.574   4.475   9.046
63183SOL    HW189573  11.642   4.530   8.999
63183SOL    HW289574  11.614   4.387   9.073
63184SOL     OW89575  12.185   3.829   9.218
63184SOL    HW189576  12.191   3.914   9.166
63184SOL    HW289577  12.217   3.753   9.161
63185SOL     OW89578  11.676   3.774   9.188
63185SOL    HW189579  11.634   3.717   9.118
63185SOL    HW289580  11.610   3.843   9.220
63186SOL     OW89581  11.745   4.594   8.477
63186SOL    HW189582  11.789   4.683   8.468
63186SOL    HW289583  11.682   4.594   8.554
63187SOL     OW89584  12.532   4.586   8.493
63187SOL    HW189585  12.457   4.586   8.427
63187SOL    HW289586  12.569   4.494   8.502
63188SOL     OW89587  12.381   4.249   7.723
63188SOL    HW189588  12.394   4.165   7.777
63188SOL    HW289589  12.352   4.323   7.783
63189SOL     OW89590  11.479   3.937   8.679
63189SOL    HW189591  11.456   3.974   8.769
63189SOL    HW289592  11.449   3.842   8.673
63190SOL     OW89593  11.209   5.034   8.730
63190SOL    HW189594  11.262   4.985   8.798
63190SOL    HW289595  11.231   5.132   8.735
63191SOL     OW89596  11.904   4.358   8.512
63191SOL    HW189597  11.963   4.332   8.436
63191SOL    HW289598  11.876   4.454   8.501
63192SOL     OW89599  11.479   3.787   8.066
63192SOL    HW189600  11.468   3.881   8.099
63192SOL    HW289601  11.474   3.724   8.143
63193SOL     OW89602  12.794   4.091   7.822
63193SOL    HW189603  12.796   4.015   7.886
63193SOL    HW289604  12.746   4.168   7.862
63194SOL     OW89605  12.195   4.490   8.414
63194SOL    HW189606  12.210   4.511   8.510
63194SOL    HW289607  12.165   4.395   8.405
63195SOL     OW89608  12.152   5.297   9.148
63195SOL    HW189609  12.132   5.341   9.060
63195SOL    HW289610  12.191   5.206   9.132
63196SOL     OW89611  11.522   4.622   9.252
63196SOL    HW189612  11.598   4.666   9.300
63196SOL    HW289613  11.557   4.575   9.170
63197SOL     OW89614  12.712   3.998   7.573
63197SOL    HW189615  12.651   3.923   7.596
63197SOL    HW289616  12.734   4.050   7.656
63198SOL     OW89617  12.475   4.562   7.490
63198SOL    HW189618  12.509   4.469   7.505
63198SOL    HW289619  12.493   4.589   7.395
63199SOL     OW89620  12.240   5.057   8.297
63199SOL    HW189621  12.247   4.973   8.242
63199SOL    HW289622  12.302   5.126   8.261
63200SOL     OW89623  11.491   4.534   8.397
63200SOL    HW189624  11.584   4.570   8.402
63200SOL    HW289625  11.485   4.449   8.449
63201SOL     OW89626  11.511   4.233   8.454
63201SOL    HW189627  11.459   4.150   8.437
63201SOL    HW289628  11.588   4.238   8.390
63202SOL     OW89629  12.310   4.104   9.126
63202SOL    HW189630  12.265   4.167   9.190
63202SOL    HW289631  12.403   4.135   9.109
63203SOL     OW89632  12.332   3.931   8.925
63203SOL    HW189633  12.332   3.995   9.002
63203SOL    HW289634  12.360   3.979   8.842
63204SOL     OW89635  11.180   5.050   7.648
63204SOL    HW189636  11.087   5.071   7.617
63204SOL    HW289637  11.190   4.951   7.661
63205SOL     OW89638  11.260   5.525   8.375
63205SOL    HW189639  11.218   5.439   8.348
63205SOL    HW289640  11.354   5.528   8.341
63206SOL     OW89641  11.676   5.292   8.358
63206SOL    HW189642  11.742   5.366   8.367
63206SOL    HW289643  11.720   5.213   8.316
63207SOL     OW89644  12.174   4.520   8.686
63207SOL    HW189645  12.215   4.488   8.772
63207SOL    HW289646  12.078   4.493   8.683
63208SOL     OW89647  11.212   4.268   8.562
63208SOL    HW189648  11.297   4.235   8.521
63208SOL    HW289649  11.225   4.283   8.660
63209SOL     OW89650  11.361   4.244   9.170
63209SOL    HW189651  11.420   4.204   9.100
63209SOL    HW289652  11.303   4.315   9.129
63210SOL     OW89653  12.541   4.674   9.108
63210SOL    HW189654  12.580   4.763   9.128
63210SOL    HW289655  12.551   4.654   9.011
63211SOL     OW89656  11.987   4.296   7.773
63211SOL    HW189657  11.994   4.207   7.727
63211SOL    HW289658  11.893   4.330   7.765
63212SOL     OW89659  11.424   5.288   9.192
63212SOL    HW189660  11.394   5.345   9.268
63212SOL    HW289661  11.417   5.191   9.218
63213SOL     OW89662  11.843   4.188   8.717
63213SOL    HW189663  11.809   4.099   8.687
63213SOL    HW289664  11.869   4.242   8.637
63214SOL     OW89665  12.102   5.402   8.913
63214SOL    HW189666  12.078   5.384   8.818
63214SOL    HW289667  12.132   5.496   8.923
63215SOL     OW89668  11.645   4.224   7.639
63215SOL    HW189669  11.706   4.304   7.643
63215SOL    HW289670  11.550   4.255   7.646
63216SOL     OW89671  11.331   4.861   8.914
63216SOL    HW189672  11.353   4.800   8.990
63216SOL    HW289673  11.341   4.812   8.828
63217SOL     OW89674  12.519   4.783   8.682
63217SOL    HW189675  12.543   4.720   8.608
63217SOL    HW289676  12.429   4.823   8.664
63218SOL     OW89677  12.474   4.579   7.757
63218SOL    HW189678  12.388   4.548   7.799
63218SOL    HW289679  12.470   4.565   7.658
63219SOL     OW89680  12.424   5.455   8.576
63219SOL    HW189681  12.508   5.460   8.522
63219SOL    HW289682  12.401   5.359   8.594
63220SOL     OW89683  11.255   4.982   8.470
63220SOL    HW189684  11.250   4.981   8.570
63220SOL    HW289685  11.172   4.941   8.432
63221SOL     OW89686  11.860   5.386   9.164
63221SOL    HW189687  11.804   5.467   9.173
63221SOL    HW289688  11.912   5.390   9.078
63222SOL     OW89689  12.898   3.859   7.971
63222SOL    HW189690  12.971   3.842   7.904
63222SOL    HW289691  12.867   3.772   8.009
63223SOL     OW89692  12.560   5.297   7.925
63223SOL    HW189693  12.627   5.309   7.851
63223SOL    HW289694  12.520   5.386   7.948
63224SOL     OW89695  11.302   5.518   9.299
63224SOL    HW189696  11.261   5.444   9.352
63224SOL    HW289697  11.366   5.569   9.357
63225SOL     OW89698  12.452   4.651   8.120
63225SOL    HW189699  12.512   4.570   8.122
63225SOL    HW289700  12.492   4.720   8.060
63226SOL     OW89701  12.002   4.997   8.870
63226SOL    HW189702  11.997   5.030   8.965
63226SOL    HW289703  11.916   5.016   8.824
63227SOL     OW89704  11.844   5.340   7.602
63227SOL    HW189705  11.853   5.350   7.503
63227SOL    HW289706  11.804   5.251   7.623
63228SOL     OW89707  11.435   4.050   8.168
63228SOL    HW189708  11.356   4.101   8.134
63228SOL    HW289709  11.426   4.035   8.266
63229SOL     OW89710  12.366   5.336   7.479
63229SOL    HW189711  12.372   5.243   7.516
63229SOL    HW289712  12.307   5.336   7.399
63230SOL     OW89713  11.994   4.726   8.820
63230SOL    HW189714  12.034   4.725   8.728
63230SOL    HW289715  12.004   4.818   8.860
63231SOL     OW89716  12.088   4.634   7.739
63231SOL    HW189717  12.151   4.672   7.671
63231SOL    HW289718  12.128   4.551   7.778
63232SOL     OW89719  12.676   5.331   7.492
63232SOL    HW189720  12.584   5.368   7.499
63232SOL    HW289721  12.714   5.351   7.402
63233SOL     OW89722  11.544   5.012   8.938
63233SOL    HW189723  11.531   5.105   8.904
63233SOL    HW289724  11.460   4.960   8.925
63234SOL     OW89725  12.211   4.822   8.144
63234SOL    HW189726  12.141   4.775   8.198
63234SOL    HW289727  12.270   4.754   8.101
63235SOL     OW89728  12.186   3.960   8.419
63235SOL    HW189729  12.178   3.924   8.326
63235SOL    HW289730  12.184   3.884   8.484
63236SOL     OW89731  11.762   5.211   7.939
63236SOL    HW189732  11.804   5.153   7.869
63236SOL    HW289733  11.718   5.290   7.895
63237SOL     OW89734  11.427   5.072   7.738
63237SOL    HW189735  11.331   5.073   7.711
63237SOL    HW289736  11.439   5.125   7.822
63238SOL     OW89737  11.277   4.737   9.174
63238SOL    HW189738  11.200   4.704   9.228
63238SOL    HW289739  11.362   4.707   9.216
63239SOL     OW89740  11.844   3.927   8.937
63239SOL    HW189741  11.934   3.911   8.897
63239SOL    HW289742  11.852   3.932   9.036
63240SOL     OW89743  11.247   4.069   7.481
63240SOL    HW189744  11.155   4.041   7.452
63240SOL    HW289745  11.278   4.146   7.425
63241SOL     OW89746  12.612   4.580   8.846
63241SOL    HW189747  12.555   4.632   8.783
63241SOL    HW289748  12.708   4.592   8.822
63242SOL     OW89749  11.244   3.890   7.766
63242SOL    HW189750  11.227   3.973   7.712
63242SOL    HW289751  11.334   3.853   7.744
63243SOL     OW89752  12.355   5.059   7.567
63243SOL    HW189753  12.256   5.048   7.569
63243SOL    HW289754  12.389   5.074   7.660
63244SOL     OW89755  11.785   4.566   8.879
63244SOL    HW189756  11.841   4.647   8.862
63244SOL    HW289757  11.844   4.486   8.882
63245SOL     OW89758  12.665   5.491   8.407
63245SOL    HW189759  12.698   5.555   8.338
63245SOL    HW289760  12.731   5.485   8.482
63246SOL     OW89761  11.888   4.289   9.156
63246SOL    HW189762  11.907   4.354   9.230
63246SOL    HW289763  11.948   4.209   9.165
63247SOL     OW89764  12.622   4.944   9.081
63247SOL    HW189765  12.613   4.934   9.180
63247SOL    HW289766  12.718   4.937   9.055
63248SOL     OW89767  11.562   5.465   9.008
63248SOL    HW189768  11.471   5.506   9.006
63248SOL    HW289769  11.555   5.371   9.040
63249SOL     OW89770  12.397   4.049   7.897
63249SOL    HW189771  12.462   3.975   7.886
63249SOL    HW289772  12.417   4.099   7.981
63250SOL     OW89773  11.766   4.469   8.100
63250SOL    HW189774  11.816   4.554   8.081
63250SOL    HW289775  11.678   4.471   8.052
63251SOL     OW89776  12.031   5.098   7.464
63251SOL    HW189777  11.985   5.113   7.552
63251SOL    HW289778  12.075   5.183   7.434
63252SOL     OW89779  11.833   5.514   8.401
63252SOL    HW189780  11.787   5.602   8.388
63252SOL    HW289781  11.932   5.526   8.394
63253SOL     OW89782  12.031   4.680   8.309
63253SOL    HW189783  12.085   4.611   8.357
63253SOL    HW289784  11.999   4.749   8.375
63254SOL     OW89785  12.255   4.708   7.535
63254SOL    HW189786  12.232   4.761   7.453
63254SOL    HW289787  12.336   4.652   7.516
63255SOL     OW89788  13.033   5.293   8.299
63255SOL    HW189789  12.962   5.281   8.229
63255SOL    HW289790  13.034   5.214   8.359
63256SOL     OW89791  11.393   5.038   9.292
63256SOL    HW189792  11.328   4.965   9.271
63256SOL    HW289793  11.397   5.052   9.390
63257SOL     OW89794  11.251   4.964   8.101
63257SOL    HW189795  11.250   4.917   8.189
63257SOL    HW289796  11.333   4.936   8.050
63258SOL     OW89797  11.844   5.115   9.072
63258SOL    HW189798  11.766   5.065   9.110
63258SOL    HW289799  11.841   5.210   9.103
63259SOL     OW89800  11.600   4.148   7.968
63259SOL    HW189801  11.630   4.076   7.906
63259SOL    HW289802  11.561   4.108   8.051
63260SOL     OW89803  11.489   4.271   8.728
63260SOL    HW189804  11.527   4.212   8.800
63260SOL    HW289805  11.529   4.245   8.640
63261SOL     OW89806  11.984   5.310   8.135
63261SOL    HW189807  12.016   5.320   8.041
63261SOL    HW289808  11.905   5.248   8.137
63262SOL     OW89809  12.596   3.938   8.560
63262SOL    HW189810  12.648   3.873   8.615
63262SOL    HW289811  12.547   4.001   8.621
63263SOL     OW89812  12.173   3.758   8.602
63263SOL    HW189813  12.110   3.686   8.571
63263SOL    HW289814  12.266   3.722   8.602
63264SOL     OW89815  11.942   5.054   7.749
63264SOL    HW189816  11.896   4.967   7.766
63264SOL    HW289817  12.033   5.051   7.790
63265SOL     OW89818  11.790   5.291   8.732
63265SOL    HW189819  11.785   5.373   8.789
63265SOL    HW289820  11.879   5.288   8.687
63266SOL     OW89821  12.524   3.776   7.616
63266SOL    HW189822  12.559   3.735   7.532
63266SOL    HW289823  12.434   3.738   7.636
63267SOL     OW89824  12.472   4.177   8.139
63267SOL    HW189825  12.413   4.257   8.143
63267SOL    HW289826  12.487   4.142   8.232
63268SOL     OW89827  12.765   3.945   8.330
63268SOL    HW189828  12.681   3.944   8.384
63268SOL    HW289829  12.767   4.028   8.274
63269SOL     OW89830  11.211   4.801   7.748
63269SOL    HW189831  11.310   4.790   7.739
63269SOL    HW289832  11.171   4.715   7.780
63270SOL     OW89833  12.047   5.370   7.785
63270SOL    HW189834  11.970   5.335   7.731
63270SOL    HW289835  12.015   5.441   7.847
63271SOL     OW89836  11.402   4.352   9.423
63271SOL    HW189837  11.309   4.350   9.460
63271SOL    HW289838  11.403   4.313   9.331
63272SOL     OW89839  11.397   3.999  10.306
63272SOL    HW189840  11.432   3.982  10.398
63272SOL    HW289841  11.309   3.954  10.294
63273SOL     OW89842  11.191   4.092   9.957
63273SOL    HW189843  11.109   4.135   9.996
63273SOL    HW289844  11.163   4.019   9.894
63274SOL     OW89845  11.741   4.999  10.475
63274SOL    HW189846  11.648   4.992  10.438
63274SOL    HW289847  11.752   5.088  10.519
63275SOL     OW89848  12.727   5.235  10.013
63275SOL    HW189849  12.670   5.219  10.094
63275SOL    HW289850  12.668   5.245   9.933
63276SOL     OW89851  12.307   4.427  10.027
63276SOL    HW189852  12.364   4.505  10.002
63276SOL    HW289853  12.247   4.453  10.103
63277SOL     OW89854  11.940   4.868  10.333
63277SOL    HW189855  11.862   4.885  10.393
63277SOL    HW289856  11.974   4.955  10.297
63278SOL     OW89857  12.022   4.522  11.133
63278SOL    HW189858  12.018   4.598  11.198
63278SOL    HW289859  12.044   4.558  11.042
63279SOL     OW89860  11.857   4.736   9.975
63279SOL    HW189861  11.926   4.720  10.045
63279SOL    HW289862  11.784   4.793  10.013
63280SOL     OW89863  11.858   4.885  11.113
63280SOL    HW189864  11.918   4.964  11.127
63280SOL    HW289865  11.772   4.916  11.072
63281SOL     OW89866  11.507   5.159  10.371
63281SOL    HW189867  11.429   5.128  10.318
63281SOL    HW289868  11.565   5.217  10.314
63282SOL     OW89869  12.632   5.229  10.649
63282SOL    HW189870  12.656   5.323  10.675
63282SOL    HW289871  12.616   5.175  10.731
63283SOL     OW89872  11.610   4.116  10.809
63283SOL    HW189873  11.692   4.060  10.818
63283SOL    HW289874  11.529   4.058  10.813
63284SOL     OW89875  11.403   5.437   9.793
63284SOL    HW189876  11.437   5.514   9.847
63284SOL    HW289877  11.447   5.437   9.703
63285SOL     OW89878  12.299   5.065  11.000
63285SOL    HW189879  12.346   5.065  11.088
63285SOL    HW289880  12.251   4.978  10.989
63286SOL     OW89881  11.402   5.158   9.848
63286SOL    HW189882  11.376   5.254   9.848
63286SOL    HW289883  11.331   5.104   9.893
63287SOL     OW89884  11.412   4.815  10.196
63287SOL    HW189885  11.426   4.731  10.248
63287SOL    HW289886  11.357   4.879  10.251
63288SOL     OW89887  11.792   5.510  10.749
63288SOL    HW189888  11.700   5.493  10.784
63288SOL    HW289889  11.820   5.602  10.775
63289SOL     OW89890  11.778   4.688   9.433
63289SOL    HW189891  11.785   4.772   9.379
63289SOL    HW289892  11.824   4.701   9.521
63290SOL     OW89893  12.766   3.838  10.790
63290SOL    HW189894  12.748   3.905  10.718
63290SOL    HW289895  12.763   3.884  10.879
63291SOL     OW89896  11.294   4.367   9.873
63291SOL    HW189897  11.249   4.279   9.890
63291SOL    HW289898  11.293   4.421   9.957
63292SOL     OW89899  11.199   5.320   9.427
63292SOL    HW189900  11.180   5.224   9.448
63292SOL    HW289901  11.166   5.378   9.502
63293SOL     OW89902  12.861   4.646   9.922
63293SOL    HW189903  12.956   4.617   9.930
63293SOL    HW289904  12.853   4.711   9.847
63294SOL     OW89905  11.285   4.461  10.907
63294SOL    HW189906  11.373   4.448  10.952
63294SOL    HW289907  11.272   4.558  10.885
63295SOL     OW89908  11.785   5.089  10.036
63295SOL    HW189909  11.736   5.002  10.045
63295SOL    HW289910  11.762   5.132   9.949
63296SOL     OW89911  12.465   4.952  10.733
63296SOL    HW189912  12.502   4.879  10.675
63296SOL    HW289913  12.517   4.957  10.818
63297SOL     OW89914  11.981   3.728   9.812
63297SOL    HW189915  12.021   3.819   9.803
63297SOL    HW289916  11.881   3.736   9.818
63298SOL     OW89917  11.369   4.700  10.574
63298SOL    HW189918  11.458   4.655  10.560
63298SOL    HW289919  11.296   4.635  10.555
63299SOL     OW89920  12.359   5.516  10.926
63299SOL    HW189921  12.383   5.576  10.850
63299SOL    HW289922  12.366   5.421  10.896
63300SOL     OW89923  11.489   3.975  11.111
63300SOL    HW189924  11.560   4.046  11.117
63300SOL    HW289925  11.401   4.014  11.139
63301SOL     OW89926  12.638   5.141  10.263
63301SOL    HW189927  12.579   5.147  10.343
63301SOL    HW289928  12.623   5.053  10.217
63302SOL     OW89929  12.839   5.438   9.882
63302SOL    HW189930  12.798   5.415   9.794
63302SOL    HW289931  12.821   5.364   9.947
63303SOL     OW89932  11.770   4.453   9.580
63303SOL    HW189933  11.794   4.522   9.512
63303SOL    HW289934  11.692   4.486   9.634
63304SOL     OW89935  12.453   4.069  10.254
63304SOL    HW189936  12.367   4.019  10.241
63304SOL    HW289937  12.515   4.015  10.310
63305SOL     OW89938  11.979   4.329  10.775
63305SOL    HW189939  11.932   4.326  10.864
63305SOL    HW289940  11.928   4.274  10.709
63306SOL     OW89941  12.566   4.193  10.984
63306SOL    HW189942  12.546   4.236  11.072
63306SOL    HW289943  12.644   4.131  10.993
63307SOL     OW89944  12.145   4.614  10.882
63307SOL    HW189945  12.191   4.530  10.853
63307SOL    HW289946  12.089   4.648  10.807
63308SOL     OW89947  12.163   4.134  10.552
63308SOL    HW189948  12.086   4.168  10.606
63308SOL    HW289949  12.129   4.083  10.473
63309SOL     OW89950  12.213   4.425   9.739
63309SOL    HW189951  12.239   4.421   9.835
63309SOL    HW289952  12.128   4.374   9.725
63310SOL     OW89953  11.248   4.535  10.099
63310SOL    HW189954  11.347   4.523  10.108
63310SOL    HW289955  11.224   4.630  10.120
63311SOL     OW89956  11.302   5.545  10.881
63311SOL    HW189957  11.292   5.530  10.980
63311SOL    HW289958  11.216   5.581  10.845
63312SOL     OW89959  12.037   4.072   9.505
63312SOL    HW189960  12.096   4.135   9.456
63312SOL    HW289961  12.056   3.978   9.476
63313SOL     OW89962  12.534   4.868   9.855
63313SOL    HW189963  12.617   4.839   9.807
63313SOL    HW289964  12.485   4.935   9.799
63314SOL     OW89965  11.722   3.920  10.195
63314SOL    HW189966  11.717   3.915  10.295
63314SOL    HW289967  11.724   4.016  10.166
63315SOL     OW89968  12.180   5.180   9.787
63315SOL    HW189969  12.134   5.252   9.735
63315SOL    HW289970  12.176   5.200   9.885
63316SOL     OW89971  11.523   5.525  10.163
63316SOL    HW189972  11.573   5.439  10.169
63316SOL    HW289973  11.588   5.602  10.160
63317SOL     OW89974  12.399   5.274  10.816
63317SOL    HW189975  12.405   5.197  10.880
63317SOL    HW289976  12.347   5.248  10.736
63318SOL     OW89977  11.493   4.667   9.552
63318SOL    HW189978  11.575   4.706   9.510
63318SOL    HW289979  11.466   4.585   9.503
63319SOL     OW89980  12.630   4.459  10.038
63319SOL    HW189981  12.625   4.394  10.113
63319SOL    HW289982  12.710   4.518  10.051
63320SOL     OW89983  11.633   4.990  11.037
63320SOL    HW189984  11.583   4.991  10.951
63320SOL    HW289985  11.570   4.972  11.113
63321SOL     OW89986  12.283   5.500   9.547
63321SOL    HW189987  12.223   5.438   9.597
63321SOL    HW289988  12.314   5.456   9.462
63322SOL     OW89989  11.374   4.009  10.808
63322SOL    HW189990  11.294   4.069  10.795
63322SOL    HW289991  11.364   3.960  10.894
63323SOL     OW89992  11.636   5.467   9.633
63323SOL    HW189993  11.669   5.506   9.719
63323SOL    HW289994  11.712   5.460   9.568
63324SOL     OW89995  12.572   3.831   9.736
63324SOL    HW189996  12.548   3.794   9.646
63324SOL    HW289997  12.671   3.847   9.740
63325SOL     OW89998  11.421   5.509  10.551
63325SOL    HW189999  11.478   5.444  10.601
63325SOL    HW290000  11.405   5.476  10.458
63326SOL     OW90001  12.112   5.422  10.214
63326SOL    HW190002  12.192   5.365  10.235
63326SOL    HW290003  12.063   5.382  10.137
63327SOL     OW90004  11.554   4.424   9.790
63327SOL    HW190005  11.599   4.334   9.787
63327SOL    HW290006  11.460   4.413   9.823
63328SOL     OW90007  11.786   3.846   9.427
63328SOL    HW190008  11.884   3.824   9.434
63328SOL    HW290009  11.755   3.829   9.334
63329SOL     OW90010  11.953   3.988  11.059
63329SOL    HW190011  12.020   3.927  11.102
63329SOL    HW290012  11.880   4.007  11.124
63330SOL     OW90013  12.060   5.238  10.505
63330SOL    HW190014  12.037   5.213  10.411
63330SOL    HW290015  12.121   5.169  10.544
63331SOL     OW90016  12.523   4.314  10.743
63331SOL    HW190017  12.551   4.271  10.828
63331SOL    HW290018  12.548   4.410  10.744
63332SOL     OW90019  11.975   5.126  10.234
63332SOL    HW190020  12.065   5.140  10.192
63332SOL    HW290021  11.904   5.128  10.163
63333SOL     OW90022  12.094   4.227  10.209
63333SOL    HW190023  12.069   4.218  10.113
63333SOL    HW290024  12.142   4.145  10.240
63334SOL     OW90025  11.711   3.788   9.822
63334SOL    HW190026  11.630   3.789   9.880
63334SOL    HW290027  11.714   3.871   9.767
63335SOL     OW90028  12.606   4.912   9.351
63335SOL    HW190029  12.638   4.836   9.408
63335SOL    HW290030  12.514   4.939   9.381
63336SOL     OW90031  11.469   3.759   9.481
63336SOL    HW190032  11.518   3.843   9.460
63336SOL    HW290033  11.531   3.694   9.526
63337SOL     OW90034  12.107   3.960   9.790
63337SOL    HW190035  12.059   4.001   9.712
63337SOL    HW290036  12.206   3.958   9.771
63338SOL     OW90037  12.248   4.407  10.774
63338SOL    HW190038  12.168   4.346  10.777
63338SOL    HW290039  12.329   4.354  10.750
63339SOL     OW90040  12.399   5.294  10.103
63339SOL    HW190041  12.420   5.368  10.038
63339SOL    HW290042  12.467   5.294  10.176
63340SOL     OW90043  11.631   4.876  10.051
63340SOL    HW190044  11.560   4.849  10.116
63340SOL    HW290045  11.605   4.848   9.958
63341SOL     OW90046  12.443   5.521   9.901
63341SOL    HW190047  12.487   5.585   9.837
63341SOL    HW290048  12.393   5.573   9.971
63342SOL     OW90049  12.204   4.273   9.326
63342SOL    HW190050  12.163   4.355   9.287
63342SOL    HW290051  12.268   4.299   9.399
63343SOL     OW90052  11.250   4.280  10.696
63343SOL    HW190053  11.342   4.279  10.655
63343SOL    HW290054  11.244   4.354  10.763
63344SOL     OW90055  11.733   3.946  10.457
63344SOL    HW190056  11.771   3.862  10.494
63344SOL    HW290057  11.645   3.965  10.501
63345SOL     OW90058  12.038   4.178   9.952
63345SOL    HW190059  12.006   4.250   9.890
63345SOL    HW290060  12.062   4.097   9.899
63346SOL     OW90061  12.189   3.763  10.063
63346SOL    HW190062  12.117   3.768   9.994
63346SOL    HW290063  12.165   3.694  10.132
63347SOL     OW90064  12.601   4.897  10.177
63347SOL    HW190065  12.546   4.813  10.170
63347SOL    HW290066  12.627   4.926  10.085
63348SOL     OW90067  12.638   4.314  10.302
63348SOL    HW190068  12.608   4.219  10.309
63348SOL    HW290069  12.711   4.330  10.368
63349SOL     OW90070  11.660   5.109   9.484
63349SOL    HW190071  11.573   5.094   9.531
63349SOL    HW290072  11.643   5.135   9.389
63350SOL     OW90073  12.562   4.299   9.388
63350SOL    HW190074  12.508   4.278   9.469
63350SOL    HW290075  12.653   4.258   9.397
63351SOL     OW90076  11.699   3.980   9.638
63351SOL    HW190077  11.726   3.921   9.563
63351SOL    HW290078  11.699   4.075   9.607
63352SOL     OW90079  12.236   5.071  10.650
63352SOL    HW190080  12.156   5.048  10.705
63352SOL    HW290081  12.319   5.045  10.699
63353SOL     OW90082  12.764   5.353  10.935
63353SOL    HW190083  12.791   5.387  10.845
63353SOL    HW290084  12.843   5.315  10.981
63354SOL     OW90085  12.283   4.919  10.410
63354SOL    HW190086  12.243   4.963  10.491
63354SOL    HW290087  12.242   4.956  10.327
63355SOL     OW90088  12.087   3.813  10.712
63355SOL    HW190089  12.112   3.793  10.617
63355SOL    HW290090  12.159   3.869  10.754
63356SOL     OW90091  12.152   4.840  11.029
63356SOL    HW190092  12.053   4.846  11.039
63356SOL    HW290093  12.175   4.760  10.973
63357SOL     OW90094  11.877   4.774   9.678
63357SOL    HW190095  11.863   4.781   9.777
63357SOL    HW290096  11.961   4.723   9.660
63358SOL     OW90097  11.582   4.537  10.561
63358SOL    HW190098  11.668   4.549  10.611
63358SOL    HW290099  11.540   4.450  10.588
63359SOL     OW90100  12.446   4.110  10.572
63359SOL    HW190101  12.467   4.184  10.636
63359SOL    HW290102  12.357   4.127  10.529
63360SOL     OW90103  11.236   5.288  10.641
63360SOL    HW190104  11.190   5.370  10.607
63360SOL    HW290105  11.334   5.307  10.650
63361SOL     OW90106  11.539   4.824   9.811
63361SOL    HW190107  11.532   4.907   9.755
63361SOL    HW290108  11.543   4.744   9.751
63362SOL     OW90109  11.738   4.261  10.175
63362SOL    HW190110  11.750   4.327  10.101
63362SOL    HW290111  11.784   4.295  10.258
63363SOL     OW90112  12.424   5.072   9.698
63363SOL    HW190113  12.474   5.149   9.738
63363SOL    HW290114  12.329   5.074   9.730
63364SOL     OW90115  12.444   5.169  10.452
63364SOL    HW190116  12.491   5.182  10.539
63364SOL    HW290117  12.378   5.095  10.461
63365SOL     OW90118  12.754   4.363   9.782
63365SOL    HW190119  12.723   4.424   9.855
63365SOL    HW290120  12.804   4.415   9.713
63366SOL     OW90121  11.526   5.234  10.639
63366SOL    HW190122  11.505   5.190  10.552
63366SOL    HW290123  11.623   5.260  10.642
63367SOL     OW90124  11.574   4.475  10.908
63367SOL    HW190125  11.642   4.530  10.861
63367SOL    HW290126  11.614   4.387  10.935
63368SOL     OW90127  12.185   3.829  11.080
63368SOL    HW190128  12.191   3.914  11.028
63368SOL    HW290129  12.217   3.753  11.023
63369SOL     OW90130  11.676   3.774  11.050
63369SOL    HW190131  11.634   3.717  10.980
63369SOL    HW290132  11.610   3.843  11.082
63370SOL     OW90133  11.745   4.594  10.339
63370SOL    HW190134  11.789   4.683  10.330
63370SOL    HW290135  11.682   4.594  10.416
63371SOL     OW90136  12.532   4.586  10.355
63371SOL    HW190137  12.457   4.586  10.289
63371SOL    HW290138  12.569   4.494  10.364
63372SOL     OW90139  12.381   4.249   9.585
63372SOL    HW190140  12.394   4.165   9.639
63372SOL    HW290141  12.352   4.323   9.645
63373SOL     OW90142  11.479   3.937  10.541
63373SOL    HW190143  11.456   3.974  10.631
63373SOL    HW290144  11.449   3.842  10.535
63374SOL     OW90145  11.209   5.034  10.592
63374SOL    HW190146  11.262   4.985  10.660
63374SOL    HW290147  11.231   5.132  10.597
63375SOL     OW90148  11.904   4.358  10.374
63375SOL    HW190149  11.963   4.332  10.298
63375SOL    HW290150  11.876   4.454  10.363
63376SOL     OW90151  11.479   3.787   9.928
63376SOL    HW190152  11.468   3.881   9.961
63376SOL    HW290153  11.474   3.724  10.005
63377SOL     OW90154  12.794   4.091   9.684
63377SOL    HW190155  12.796   4.015   9.748
63377SOL    HW290156  12.746   4.168   9.724
63378SOL     OW90157  12.195   4.490  10.276
63378SOL    HW190158  12.210   4.511  10.372
63378SOL    HW290159  12.165   4.395  10.267
63379SOL     OW90160  12.152   5.297  11.010
63379SOL    HW190161  12.132   5.341  10.922
63379SOL    HW290162  12.191   5.206  10.994
63380SOL     OW90163  11.522   4.622  11.114
63380SOL    HW190164  11.598   4.666  11.162
63380SOL    HW290165  11.557   4.575  11.032
63381SOL     OW90166  12.712   3.998   9.435
63381SOL    HW190167  12.651   3.923   9.458
63381SOL    HW290168  12.734   4.050   9.518
63382SOL     OW90169  12.475   4.562   9.352
63382SOL    HW190170  12.509   4.469   9.367
63382SOL    HW290171  12.493   4.589   9.257
63383SOL     OW90172  12.240   5.057  10.159
63383SOL    HW190173  12.247   4.973  10.104
63383SOL    HW290174  12.302   5.126  10.123
63384SOL     OW90175  11.491   4.534  10.259
63384SOL    HW190176  11.584   4.570  10.264
63384SOL    HW290177  11.485   4.449  10.311
63385SOL     OW90178  11.511   4.233  10.316
63385SOL    HW190179  11.459   4.150  10.299
63385SOL    HW290180  11.588   4.238  10.252
63386SOL     OW90181  12.310   4.104  10.988
63386SOL    HW190182  12.265   4.167  11.052
63386SOL    HW290183  12.403   4.135  10.971
63387SOL     OW90184  12.332   3.931  10.787
63387SOL    HW190185  12.332   3.995  10.864
63387SOL    HW290186  12.360   3.979  10.704
63388SOL     OW90187  11.180   5.050   9.510
63388SOL    HW190188  11.087   5.071   9.479
63388SOL    HW290189  11.190   4.951   9.523
63389SOL     OW90190  11.260   5.525  10.237
63389SOL    HW190191  11.218   5.439  10.210
63389SOL    HW290192  11.354   5.528  10.203
63390SOL     OW90193  11.676   5.292  10.220
63390SOL    HW190194  11.742   5.366  10.229
63390SOL    HW290195  11.720   5.213  10.178
63391SOL     OW90196  12.174   4.520  10.548
63391SOL    HW190197  12.215   4.488  10.634
63391SOL    HW290198  12.078   4.493  10.545
63392SOL     OW90199  11.212   4.268  10.424
63392SOL    HW190200  11.297   4.235  10.383
63392SOL    HW290201  11.225   4.283  10.522
63393SOL     OW90202  11.361   4.244  11.032
63393SOL    HW190203  11.420   4.204  10.962
63393SOL    HW290204  11.303   4.315  10.991
63394SOL     OW90205  12.541   4.674  10.970
63394SOL    HW190206  12.580   4.763  10.990
63394SOL    HW290207  12.551   4.654  10.873
63395SOL     OW90208  11.987   4.296   9.635
63395SOL    HW190209  11.994   4.207   9.589
63395SOL    HW290210  11.893   4.330   9.627
63396SOL     OW90211  11.424   5.288  11.054
63396SOL    HW190212  11.394   5.345  11.130
63396SOL    HW290213  11.417   5.191  11.080
63397SOL     OW90214  11.843   4.188  10.579
63397SOL    HW190215  11.809   4.099  10.549
63397SOL    HW290216  11.869   4.242  10.499
63398SOL     OW90217  12.102   5.402  10.775
63398SOL    HW190218  12.078   5.384  10.680
63398SOL    HW290219  12.132   5.496  10.785
63399SOL     OW90220  11.645   4.224   9.501
63399SOL    HW190221  11.706   4.304   9.505
63399SOL    HW290222  11.550   4.255   9.508
63400SOL     OW90223  11.331   4.861  10.776
63400SOL    HW190224  11.353   4.800  10.852
63400SOL    HW290225  11.341   4.812  10.690
63401SOL     OW90226  12.519   4.783  10.544
63401SOL    HW190227  12.543   4.720  10.470
63401SOL    HW290228  12.429   4.823  10.526
63402SOL     OW90229  12.474   4.579   9.619
63402SOL    HW190230  12.388   4.548   9.661
63402SOL    HW290231  12.470   4.565   9.520
63403SOL     OW90232  12.424   5.455  10.438
63403SOL    HW190233  12.508   5.460  10.384
63403SOL    HW290234  12.401   5.359  10.456
63404SOL     OW90235  11.255   4.982  10.332
63404SOL    HW190236  11.250   4.981  10.432
63404SOL    HW290237  11.172   4.941  10.294
63405SOL     OW90238  11.860   5.386  11.026
63405SOL    HW190239  11.804   5.467  11.035
63405SOL    HW290240  11.912   5.390  10.940
63406SOL     OW90241  12.898   3.859   9.833
63406SOL    HW190242  12.971   3.842   9.766
63406SOL    HW290243  12.867   3.772   9.871
63407SOL     OW90244  12.560   5.297   9.787
63407SOL    HW190245  12.627   5.309   9.713
63407SOL    HW290246  12.520   5.386   9.810
63408SOL     OW90247  11.302   5.518  11.161
63408SOL    HW190248  11.261   5.444  11.214
63408SOL    HW290249  11.366   5.569  11.219
63409SOL     OW90250  12.452   4.651   9.982
63409SOL    HW190251  12.512   4.570   9.984
63409SOL    HW290252  12.492   4.720   9.922
63410SOL     OW90253  12.002   4.997  10.732
63410SOL    HW190254  11.997   5.030  10.827
63410SOL    HW290255  11.916   5.016  10.686
63411SOL     OW90256  11.844   5.340   9.464
63411SOL    HW190257  11.853   5.350   9.365
63411SOL    HW290258  11.804   5.251   9.485
63412SOL     OW90259  11.435   4.050  10.030
63412SOL    HW190260  11.356   4.101   9.996
63412SOL    HW290261  11.426   4.035  10.128
63413SOL     OW90262  12.366   5.336   9.341
63413SOL    HW190263  12.372   5.243   9.378
63413SOL    HW290264  12.307   5.336   9.261
63414SOL     OW90265  11.994   4.726  10.682
63414SOL    HW190266  12.034   4.725  10.590
63414SOL    HW290267  12.004   4.818  10.722
63415SOL     OW90268  12.088   4.634   9.601
63415SOL    HW190269  12.151   4.672   9.533
63415SOL    HW290270  12.128   4.551   9.640
63416SOL     OW90271  12.676   5.331   9.354
63416SOL    HW190272  12.584   5.368   9.361
63416SOL    HW290273  12.714   5.351   9.264
63417SOL     OW90274  11.544   5.012  10.800
63417SOL    HW190275  11.531   5.105  10.766
63417SOL    HW290276  11.460   4.960  10.787
63418SOL     OW90277  12.211   4.822  10.006
63418SOL    HW190278  12.141   4.775  10.060
63418SOL    HW290279  12.270   4.754   9.963
63419SOL     OW90280  12.186   3.960  10.281
63419SOL    HW190281  12.178   3.924  10.188
63419SOL    HW290282  12.184   3.884  10.346
63420SOL     OW90283  11.762   5.211   9.801
63420SOL    HW190284  11.804   5.153   9.731
63420SOL    HW290285  11.718   5.290   9.757
63421SOL     OW90286  11.427   5.072   9.600
63421SOL    HW190287  11.331   5.073   9.573
63421SOL    HW290288  11.439   5.125   9.684
63422SOL     OW90289  11.277   4.737  11.036
63422SOL    HW190290  11.200   4.704  11.090
63422SOL    HW290291  11.362   4.707  11.078
63423SOL     OW90292  11.844   3.927  10.799
63423SOL    HW190293  11.934   3.911  10.759
63423SOL    HW290294  11.852   3.932  10.898
63424SOL     OW90295  11.247   4.069   9.343
63424SOL    HW190296  11.155   4.041   9.314
63424SOL    HW290297  11.278   4.146   9.287
63425SOL     OW90298  12.612   4.580  10.708
63425SOL    HW190299  12.555   4.632  10.645
63425SOL    HW290300  12.708   4.592  10.684
63426SOL     OW90301  11.244   3.890   9.628
63426SOL    HW190302  11.227   3.973   9.574
63426SOL    HW290303  11.334   3.853   9.606
63427SOL     OW90304  12.355   5.059   9.429
63427SOL    HW190305  12.256   5.048   9.431
63427SOL    HW290306  12.389   5.074   9.522
63428SOL     OW90307  11.785   4.566  10.741
63428SOL    HW190308  11.841   4.647  10.724
63428SOL    HW290309  11.844   4.486  10.744
63429SOL     OW90310  12.665   5.491  10.269
63429SOL    HW190311  12.698   5.555  10.200
63429SOL    HW290312  12.731   5.485  10.344
63430SOL     OW90313  11.888   4.289  11.018
63430SOL    HW190314  11.907   4.354  11.092
63430SOL    HW290315  11.948   4.209  11.027
63431SOL     OW90316  12.622   4.944  10.943
63431SOL    HW190317  12.613   4.934  11.042
63431SOL    HW290318  12.718   4.937  10.917
63432SOL     OW90319  11.562   5.465  10.870
63432SOL    HW190320  11.471   5.506  10.868
63432SOL    HW290321  11.555   5.371  10.902
63433SOL     OW90322  12.397   4.049   9.759
63433SOL    HW190323  12.462   3.975   9.748
63433SOL    HW290324  12.417   4.099   9.843
63434SOL     OW90325  11.766   4.469   9.962
63434SOL    HW190326  11.816   4.554   9.943
63434SOL    HW290327  11.678   4.471   9.914
63435SOL     OW90328  12.031   5.098   9.326
63435SOL    HW190329  11.985   5.113   9.414
63435SOL    HW290330  12.075   5.183   9.296
63436SOL     OW90331  11.833   5.514  10.263
63436SOL    HW190332  11.787   5.602  10.250
63436SOL    HW290333  11.932   5.526  10.256
63437SOL     OW90334  12.031   4.680  10.171
63437SOL    HW190335  12.085   4.611  10.219
63437SOL    HW290336  11.999   4.749  10.237
63438SOL     OW90337  12.255   4.708   9.397
63438SOL    HW190338  12.232   4.761   9.315
63438SOL    HW290339  12.336   4.652   9.378
63439SOL     OW90340  13.033   5.293  10.161
63439SOL    HW190341  12.962   5.281  10.091
63439SOL    HW290342  13.034   5.214  10.221
63440SOL     OW90343  11.393   5.038  11.154
63440SOL    HW190344  11.328   4.965  11.133
63440SOL    HW290345  11.397   5.052  11.252
63441SOL     OW90346  11.251   4.964   9.963
63441SOL    HW190347  11.250   4.917  10.051
63441SOL    HW290348  11.333   4.936   9.912
63442SOL     OW90349  11.844   5.115  10.934
63442SOL    HW190350  11.766   5.065  10.972
63442SOL    HW290351  11.841   5.210  10.965
63443SOL     OW90352  11.600   4.148   9.830
63443SOL    HW190353  11.630   4.076   9.768
63443SOL    HW290354  11.561   4.108   9.913
63444SOL     OW90355  11.489   4.271  10.590
63444SOL    HW190356  11.527   4.212  10.662
63444SOL    HW290357  11.529   4.245  10.502
63445SOL     OW90358  11.984   5.310   9.997
63445SOL    HW190359  12.016   5.320   9.903
63445SOL    HW290360  11.905   5.248   9.999
63446SOL     OW90361  12.596   3.938  10.422
63446SOL    HW190362  12.648   3.873  10.477
63446SOL    HW290363  12.547   4.001  10.483
63447SOL     OW90364  12.173   3.758  10.464
63447SOL    HW190365  12.110   3.686  10.433
63447SOL    HW290366  12.266   3.722  10.464
63448SOL     OW90367  11.942   5.054   9.611
63448SOL    HW190368  11.896   4.967   9.628
63448SOL    HW290369  12.033   5.051   9.652
63449SOL     OW90370  11.790   5.291  10.594
63449SOL    HW190371  11.785   5.373  10.651
63449SOL    HW290372  11.879   5.288  10.549
63450SOL     OW90373  12.524   3.776   9.478
63450SOL    HW190374  12.559   3.735   9.394
63450SOL    HW290375  12.434   3.738   9.498
63451SOL     OW90376  12.472   4.177  10.001
63451SOL    HW190377  12.413   4.257  10.005
63451SOL    HW290378  12.487   4.142  10.094
63452SOL     OW90379  12.765   3.945  10.192
63452SOL    HW190380  12.681   3.944  10.246
63452SOL    HW290381  12.767   4.028  10.136
63453SOL     OW90382  11.211   4.801   9.610
63453SOL    HW190383  11.310   4.790   9.601
63453SOL    HW290384  11.171   4.715   9.642
63454SOL     OW90385  12.047   5.370   9.647
63454SOL    HW190386  11.970   5.335   9.593
63454SOL    HW290387  12.015   5.441   9.709
63455SOL     OW90388  11.402   4.352  11.285
63455SOL    HW190389  11.309   4.350  11.322
63455SOL    HW290390  11.403   4.313  11.193
63456SOL     OW90391  11.397   3.999  12.168
63456SOL    HW190392  11.432   3.982  12.260
63456SOL    HW290393  11.309   3.954  12.156
63457SOL     OW90394  11.191   4.092  11.819
63457SOL    HW190395  11.109   4.135  11.858
63457SOL    HW290396  11.163   4.019  11.756
63458SOL     OW90397  11.741   4.999  12.337
63458SOL    HW190398  11.648   4.992  12.300
63458SOL    HW290399  11.752   5.088  12.381
63459SOL     OW90400  12.727   5.235  11.875
63459SOL    HW190401  12.670   5.219  11.956
63459SOL    HW290402  12.668   5.245  11.795
63460SOL     OW90403  12.307   4.427  11.889
63460SOL    HW190404  12.364   4.505  11.864
63460SOL    HW290405  12.247   4.453  11.965
63461SOL     OW90406  11.940   4.868  12.195
63461SOL    HW190407  11.862   4.885  12.255
63461SOL    HW290408  11.974   4.955  12.159
63462SOL     OW90409  11.857   4.736  11.837
63462SOL    HW190410  11.926   4.720  11.907
63462SOL    HW290411  11.784   4.793  11.875
63463SOL     OW90412  11.507   5.159  12.233
63463SOL    HW190413  11.429   5.128  12.180
63463SOL    HW290414  11.565   5.217  12.176
63464SOL     OW90415  11.610   4.116  12.671
63464SOL    HW190416  11.692   4.060  12.680
63464SOL    HW290417  11.529   4.058  12.675
63465SOL     OW90418  11.403   5.437  11.655
63465SOL    HW190419  11.437   5.514  11.709
63465SOL    HW290420  11.447   5.437  11.565
63466SOL     OW90421  11.402   5.158  11.710
63466SOL    HW190422  11.376   5.254  11.710
63466SOL    HW290423  11.331   5.104  11.755
63467SOL     OW90424  11.412   4.815  12.058
63467SOL    HW190425  11.426   4.731  12.110
63467SOL    HW290426  11.357   4.879  12.113
63468SOL     OW90427  11.792   5.510  12.611
63468SOL    HW190428  11.700   5.493  12.646
63468SOL    HW290429  11.820   5.602  12.637
63469SOL     OW90430  11.778   4.688  11.295
63469SOL    HW190431  11.785   4.772  11.241
63469SOL    HW290432  11.824   4.701  11.383
63470SOL     OW90433  12.766   3.838  12.652
63470SOL    HW190434  12.748   3.905  12.580
63470SOL    HW290435  12.763   3.884  12.741
63471SOL     OW90436  11.294   4.367  11.735
63471SOL    HW190437  11.249   4.279  11.752
63471SOL    HW290438  11.293   4.421  11.819
63472SOL     OW90439  11.199   5.320  11.289
63472SOL    HW190440  11.180   5.224  11.310
63472SOL    HW290441  11.166   5.378  11.364
63473SOL     OW90442  12.861   4.646  11.784
63473SOL    HW190443  12.956   4.617  11.792
63473SOL    HW290444  12.853   4.711  11.709
63474SOL     OW90445  11.285   4.461  12.769
63474SOL    HW190446  11.373   4.448  12.814
63474SOL    HW290447  11.272   4.558  12.747
63475SOL     OW90448  11.785   5.089  11.898
63475SOL    HW190449  11.736   5.002  11.907
63475SOL    HW290450  11.762   5.132  11.811
63476SOL     OW90451  12.465   4.952  12.595
63476SOL    HW190452  12.502   4.879  12.537
63476SOL    HW290453  12.517   4.957  12.680
63477SOL     OW90454  11.981   3.728  11.674
63477SOL    HW190455  12.021   3.819  11.665
63477SOL    HW290456  11.881   3.736  11.680
63478SOL     OW90457  11.369   4.700  12.436
63478SOL    HW190458  11.458   4.655  12.422
63478SOL    HW290459  11.296   4.635  12.417
63479SOL     OW90460  12.638   5.141  12.125
63479SOL    HW190461  12.579   5.147  12.205
63479SOL    HW290462  12.623   5.053  12.079
63480SOL     OW90463  12.839   5.438  11.744
63480SOL    HW190464  12.798   5.415  11.656
63480SOL    HW290465  12.821   5.364  11.809
63481SOL     OW90466  11.770   4.453  11.442
63481SOL    HW190467  11.794   4.522  11.374
63481SOL    HW290468  11.692   4.486  11.496
63482SOL     OW90469  12.453   4.069  12.116
63482SOL    HW190470  12.367   4.019  12.103
63482SOL    HW290471  12.515   4.015  12.172
63483SOL     OW90472  11.979   4.329  12.637
63483SOL    HW190473  11.932   4.326  12.726
63483SOL    HW290474  11.928   4.274  12.571
63484SOL     OW90475  12.145   4.614  12.744
63484SOL    HW190476  12.191   4.530  12.715
63484SOL    HW290477  12.089   4.648  12.669
63485SOL     OW90478  12.163   4.134  12.414
63485SOL    HW190479  12.086   4.168  12.468
63485SOL    HW290480  12.129   4.083  12.335
63486SOL     OW90481  12.213   4.425  11.601
63486SOL    HW190482  12.239   4.421  11.697
63486SOL    HW290483  12.128   4.374  11.587
63487SOL     OW90484  11.248   4.535  11.961
63487SOL    HW190485  11.347   4.523  11.970
63487SOL    HW290486  11.224   4.630  11.982
63488SOL     OW90487  11.302   5.545  12.743
63488SOL    HW190488  11.292   5.530  12.842
63488SOL    HW290489  11.216   5.581  12.707
63489SOL     OW90490  12.037   4.072  11.367
63489SOL    HW190491  12.096   4.135  11.318
63489SOL    HW290492  12.056   3.978  11.338
63490SOL     OW90493  12.534   4.868  11.717
63490SOL    HW190494  12.617   4.839  11.669
63490SOL    HW290495  12.485   4.935  11.661
63491SOL     OW90496  11.722   3.920  12.057
63491SOL    HW190497  11.717   3.915  12.157
63491SOL    HW290498  11.724   4.016  12.028
63492SOL     OW90499  12.180   5.180  11.649
63492SOL    HW190500  12.134   5.252  11.597
63492SOL    HW290501  12.176   5.200  11.747
63493SOL     OW90502  11.523   5.525  12.025
63493SOL    HW190503  11.573   5.439  12.031
63493SOL    HW290504  11.588   5.602  12.022
63494SOL     OW90505  12.399   5.274  12.678
63494SOL    HW190506  12.405   5.197  12.742
63494SOL    HW290507  12.347   5.248  12.598
63495SOL     OW90508  11.493   4.667  11.414
63495SOL    HW190509  11.575   4.706  11.372
63495SOL    HW290510  11.466   4.585  11.365
63496SOL     OW90511  12.630   4.459  11.900
63496SOL    HW190512  12.625   4.394  11.975
63496SOL    HW290513  12.710   4.518  11.913
63497SOL     OW90514  12.283   5.500  11.409
63497SOL    HW190515  12.223   5.438  11.459
63497SOL    HW290516  12.314   5.456  11.324
63498SOL     OW90517  11.374   4.009  12.670
63498SOL    HW190518  11.294   4.069  12.657
63498SOL    HW290519  11.364   3.960  12.756
63499SOL     OW90520  11.636   5.467  11.495
63499SOL    HW190521  11.669   5.506  11.581
63499SOL    HW290522  11.712   5.460  11.430
63500SOL     OW90523  12.572   3.831  11.598
63500SOL    HW190524  12.548   3.794  11.508
63500SOL    HW290525  12.671   3.847  11.602
63501SOL     OW90526  11.421   5.509  12.413
63501SOL    HW190527  11.478   5.444  12.463
63501SOL    HW290528  11.405   5.476  12.320
63502SOL     OW90529  12.112   5.422  12.076
63502SOL    HW190530  12.192   5.365  12.097
63502SOL    HW290531  12.063   5.382  11.999
63503SOL     OW90532  11.554   4.424  11.652
63503SOL    HW190533  11.599   4.334  11.649
63503SOL    HW290534  11.460   4.413  11.685
63504SOL     OW90535  11.786   3.846  11.289
63504SOL    HW190536  11.884   3.824  11.296
63504SOL    HW290537  11.755   3.829  11.196
63505SOL     OW90538  12.060   5.238  12.367
63505SOL    HW190539  12.037   5.213  12.273
63505SOL    HW290540  12.121   5.169  12.406
63506SOL     OW90541  12.523   4.314  12.605
63506SOL    HW190542  12.551   4.271  12.690
63506SOL    HW290543  12.548   4.410  12.606
63507SOL     OW90544  11.975   5.126  12.096
63507SOL    HW190545  12.065   5.140  12.054
63507SOL    HW290546  11.904   5.128  12.025
63508SOL     OW90547  12.094   4.227  12.071
63508SOL    HW190548  12.069   4.218  11.975
63508SOL    HW290549  12.142   4.145  12.102
63509SOL     OW90550  11.711   3.788  11.684
63509SOL    HW190551  11.630   3.789  11.742
63509SOL    HW290552  11.714   3.871  11.629
63510SOL     OW90553  12.606   4.912  11.213
63510SOL    HW190554  12.638   4.836  11.270
63510SOL    HW290555  12.514   4.939  11.243
63511SOL     OW90556  11.469   3.759  11.343
63511SOL    HW190557  11.518   3.843  11.322
63511SOL    HW290558  11.531   3.694  11.388
63512SOL     OW90559  12.107   3.960  11.652
63512SOL    HW190560  12.059   4.001  11.574
63512SOL    HW290561  12.206   3.958  11.633
63513SOL     OW90562  12.248   4.407  12.636
63513SOL    HW190563  12.168   4.346  12.639
63513SOL    HW290564  12.329   4.354  12.612
63514SOL     OW90565  12.399   5.294  11.965
63514SOL    HW190566  12.420   5.368  11.900
63514SOL    HW290567  12.467   5.294  12.038
63515SOL     OW90568  11.631   4.876  11.913
63515SOL    HW190569  11.560   4.849  11.978
63515SOL    HW290570  11.605   4.848  11.820
63516SOL     OW90571  12.443   5.521  11.763
63516SOL    HW190572  12.487   5.585  11.699
63516SOL    HW290573  12.393   5.573  11.833
63517SOL     OW90574  12.204   4.273  11.188
63517SOL    HW190575  12.163   4.355  11.149
63517SOL    HW290576  12.268   4.299  11.261
63518SOL     OW90577  11.250   4.280  12.558
63518SOL    HW190578  11.342   4.279  12.517
63518SOL    HW290579  11.244   4.354  12.625
63519SOL     OW90580  11.733   3.946  12.319
63519SOL    HW190581  11.771   3.862  12.356
63519SOL    HW290582  11.645   3.965  12.363
63520SOL     OW90583  12.038   4.178  11.814
63520SOL    HW190584  12.006   4.250  11.752
63520SOL    HW290585  12.062   4.097  11.761
63521SOL     OW90586  12.189   3.763  11.925
63521SOL    HW190587  12.117   3.768  11.856
63521SOL    HW290588  12.165   3.694  11.994
63522SOL     OW90589  12.601   4.897  12.039
63522SOL    HW190590  12.546   4.813  12.032
63522SOL    HW290591  12.627   4.926  11.947
63523SOL     OW90592  12.638   4.314  12.164
63523SOL    HW190593  12.608   4.219  12.171
63523SOL    HW290594  12.711   4.330  12.230
63524SOL     OW90595  11.660   5.109  11.346
63524SOL    HW190596  11.573   5.094  11.393
63524SOL    HW290597  11.643   5.135  11.251
63525SOL     OW90598  12.562   4.299  11.250
63525SOL    HW190599  12.508   4.278  11.331
63525SOL    HW290600  12.653   4.258  11.259
63526SOL     OW90601  11.699   3.980  11.500
63526SOL    HW190602  11.726   3.921  11.425
63526SOL    HW290603  11.699   4.075  11.469
63527SOL     OW90604  12.236   5.071  12.512
63527SOL    HW190605  12.156   5.048  12.567
63527SOL    HW290606  12.319   5.045  12.561
63528SOL     OW90607  12.283   4.919  12.272
63528SOL    HW190608  12.243   4.963  12.353
63528SOL    HW290609  12.242   4.956  12.189
63529SOL     OW90610  12.087   3.813  12.574
63529SOL    HW190611  12.112   3.793  12.479
63529SOL    HW290612  12.159   3.869  12.616
63530SOL     OW90613  11.877   4.774  11.540
63530SOL    HW190614  11.863   4.781  11.639
63530SOL    HW290615  11.961   4.723  11.522
63531SOL     OW90616  11.582   4.537  12.423
63531SOL    HW190617  11.668   4.549  12.473
63531SOL    HW290618  11.540   4.450  12.450
63532SOL     OW90619  12.446   4.110  12.434
63532SOL    HW190620  12.467   4.184  12.498
63532SOL    HW290621  12.357   4.127  12.391
63533SOL     OW90622  11.236   5.288  12.503
63533SOL    HW190623  11.190   5.370  12.469
63533SOL    HW290624  11.334   5.307  12.512
63534SOL     OW90625  11.539   4.824  11.673
63534SOL    HW190626  11.532   4.907  11.617
63534SOL    HW290627  11.543   4.744  11.613
63535SOL     OW90628  11.738   4.261  12.037
63535SOL    HW190629  11.750   4.327  11.963
63535SOL    HW290630  11.784   4.295  12.120
63536SOL     OW90631  12.424   5.072  11.560
63536SOL    HW190632  12.474   5.149  11.600
63536SOL    HW290633  12.329   5.074  11.592
63537SOL     OW90634  12.444   5.169  12.314
63537SOL    HW190635  12.491   5.182  12.401
63537SOL    HW290636  12.378   5.095  12.323
63538SOL     OW90637  12.754   4.363  11.644
63538SOL    HW190638  12.723   4.424  11.717
63538SOL    HW290639  12.804   4.415  11.575
63539SOL     OW90640  11.526   5.234  12.501
63539SOL    HW190641  11.505   5.190  12.414
63539SOL    HW290642  11.623   5.260  12.504
63540SOL     OW90643  11.574   4.475  12.770
63540SOL    HW190644  11.642   4.530  12.723
63540SOL    HW290645  11.614   4.387  12.797
63541SOL     OW90646  11.745   4.594  12.201
63541SOL    HW190647  11.789   4.683  12.192
63541SOL    HW290648  11.682   4.594  12.278
63542SOL     OW90649  12.532   4.586  12.217
63542SOL    HW190650  12.457   4.586  12.151
63542SOL    HW290651  12.569   4.494  12.226
63543SOL     OW90652  12.381   4.249  11.447
63543SOL    HW190653  12.394   4.165  11.501
63543SOL    HW290654  12.352   4.323  11.507
63544SOL     OW90655  11.479   3.937  12.403
63544SOL    HW190656  11.456   3.974  12.493
63544SOL    HW290657  11.449   3.842  12.397
63545SOL     OW90658  11.209   5.034  12.454
63545SOL    HW190659  11.262   4.985  12.522
63545SOL    HW290660  11.231   5.132  12.459
63546SOL     OW90661  11.904   4.358  12.236
63546SOL    HW190662  11.963   4.332  12.160
63546SOL    HW290663  11.876   4.454  12.225
63547SOL     OW90664  11.479   3.787  11.790
63547SOL    HW190665  11.468   3.881  11.823
63547SOL    HW290666  11.474   3.724  11.867
63548SOL     OW90667  12.794   4.091  11.546
63548SOL    HW190668  12.796   4.015  11.610
63548SOL    HW290669  12.746   4.168  11.586
63549SOL     OW90670  12.195   4.490  12.138
63549SOL    HW190671  12.210   4.511  12.234
63549SOL    HW290672  12.165   4.395  12.129
63550SOL     OW90673  12.712   3.998  11.297
63550SOL    HW190674  12.651   3.923  11.320
63550SOL    HW290675  12.734   4.050  11.380
63551SOL     OW90676  12.475   4.562  11.214
63551SOL    HW190677  12.509   4.469  11.229
63551SOL    HW290678  12.493   4.589  11.119
63552SOL     OW90679  12.240   5.057  12.021
63552SOL    HW190680  12.247   4.973  11.966
63552SOL    HW290681  12.302   5.126  11.985
63553SOL     OW90682  11.491   4.534  12.121
63553SOL    HW190683  11.584   4.570  12.126
63553SOL    HW290684  11.485   4.449  12.173
63554SOL     OW90685  11.511   4.233  12.178
63554SOL    HW190686  11.459   4.150  12.161
63554SOL    HW290687  11.588   4.238  12.114
63555SOL     OW90688  12.332   3.931  12.649
63555SOL    HW190689  12.332   3.995  12.726
63555SOL    HW290690  12.360   3.979  12.566
63556SOL     OW90691  11.180   5.050  11.372
63556SOL    HW190692  11.087   5.071  11.341
63556SOL    HW290693  11.190   4.951  11.385
63557SOL     OW90694  11.260   5.525  12.099
63557SOL    HW190695  11.218   5.439  12.072
63557SOL    HW290696  11.354   5.528  12.065
63558SOL     OW90697  11.676   5.292  12.082
63558SOL    HW190698  11.742   5.366  12.091
63558SOL    HW290699  11.720   5.213  12.040
63559SOL     OW90700  12.174   4.520  12.410
63559SOL    HW190701  12.215   4.488  12.496
63559SOL    HW290702  12.078   4.493  12.407
63560SOL     OW90703  11.212   4.268  12.286
63560SOL    HW190704  11.297   4.235  12.245
63560SOL    HW290705  11.225   4.283  12.384
63561SOL     OW90706  11.987   4.296  11.497
63561SOL    HW190707  11.994   4.207  11.451
63561SOL    HW290708  11.893   4.330  11.489
63562SOL     OW90709  11.424   5.288  12.916
63562SOL    HW190710  11.394   5.345  12.992
63562SOL    HW290711  11.417   5.191  12.942
63563SOL     OW90712  11.843   4.188  12.441
63563SOL    HW190713  11.809   4.099  12.411
63563SOL    HW290714  11.869   4.242  12.361
63564SOL     OW90715  12.102   5.402  12.637
63564SOL    HW190716  12.078   5.384  12.542
63564SOL    HW290717  12.132   5.496  12.647
63565SOL     OW90718  11.645   4.224  11.363
63565SOL    HW190719  11.706   4.304  11.367
63565SOL    HW290720  11.550   4.255  11.370
63566SOL     OW90721  11.331   4.861  12.638
63566SOL    HW190722  11.353   4.800  12.714
63566SOL    HW290723  11.341   4.812  12.552
63567SOL     OW90724  12.519   4.783  12.406
63567SOL    HW190725  12.543   4.720  12.332
63567SOL    HW290726  12.429   4.823  12.388
63568SOL     OW90727  12.474   4.579  11.481
63568SOL    HW190728  12.388   4.548  11.523
63568SOL    HW290729  12.470   4.565  11.382
63569SOL     OW90730  12.424   5.455  12.300
63569SOL    HW190731  12.508   5.460  12.246
63569SOL    HW290732  12.401   5.359  12.318
63570SOL     OW90733  11.255   4.982  12.194
63570SOL    HW190734  11.250   4.981  12.294
63570SOL    HW290735  11.172   4.941  12.156
63571SOL     OW90736  12.898   3.859  11.695
63571SOL    HW190737  12.971   3.842  11.628
63571SOL    HW290738  12.867   3.772  11.733
63572SOL     OW90739  12.560   5.297  11.649
63572SOL    HW190740  12.627   5.309  11.575
63572SOL    HW290741  12.520   5.386  11.672
63573SOL     OW90742  12.452   4.651  11.844
63573SOL    HW190743  12.512   4.570  11.846
63573SOL    HW290744  12.492   4.720  11.784
63574SOL     OW90745  12.002   4.997  12.594
63574SOL    HW190746  11.997   5.030  12.689
63574SOL    HW290747  11.916   5.016  12.548
63575SOL     OW90748  11.844   5.340  11.326
63575SOL    HW190749  11.853   5.350  11.227
63575SOL    HW290750  11.804   5.251  11.347
63576SOL     OW90751  11.435   4.050  11.892
63576SOL    HW190752  11.356   4.101  11.858
63576SOL    HW290753  11.426   4.035  11.990
63577SOL     OW90754  12.366   5.336  11.203
63577SOL    HW190755  12.372   5.243  11.240
63577SOL    HW290756  12.307   5.336  11.123
63578SOL     OW90757  11.994   4.726  12.544
63578SOL    HW190758  12.034   4.725  12.452
63578SOL    HW290759  12.004   4.818  12.584
63579SOL     OW90760  12.088   4.634  11.463
63579SOL    HW190761  12.151   4.672  11.395
63579SOL    HW290762  12.128   4.551  11.502
63580SOL     OW90763  12.676   5.331  11.216
63580SOL    HW190764  12.584   5.368  11.223
63580SOL    HW290765  12.714   5.351  11.126
63581SOL     OW90766  11.544   5.012  12.662
63581SOL    HW190767  11.531   5.105  12.628
63581SOL    HW290768  11.460   4.960  12.649
63582SOL     OW90769  12.211   4.822  11.868
63582SOL    HW190770  12.141   4.775  11.922
63582SOL    HW290771  12.270   4.754  11.825
63583SOL     OW90772  12.186   3.960  12.143
63583SOL    HW190773  12.178   3.924  12.050
63583SOL    HW290774  12.184   3.884  12.208
63584SOL     OW90775  11.762   5.211  11.663
63584SOL    HW190776  11.804   5.153  11.593
63584SOL    HW290777  11.718   5.290  11.619
63585SOL     OW90778  11.427   5.072  11.462
63585SOL    HW190779  11.331   5.073  11.435
63585SOL    HW290780  11.439   5.125  11.546
63586SOL     OW90781  11.277   4.737  12.898
63586SOL    HW190782  11.200   4.704  12.952
63586SOL    HW290783  11.362   4.707  12.940
63587SOL     OW90784  11.844   3.927  12.661
63587SOL    HW190785  11.934   3.911  12.621
63587SOL    HW290786  11.852   3.932  12.760
63588SOL     OW90787  11.247   4.069  11.205
63588SOL    HW190788  11.155   4.041  11.176
63588SOL    HW290789  11.278   4.146  11.149
63589SOL     OW90790  12.612   4.580  12.570
63589SOL    HW190791  12.555   4.632  12.507
63589SOL    HW290792  12.708   4.592  12.546
63590SOL     OW90793  11.244   3.890  11.490
63590SOL    HW190794  11.227   3.973  11.436
63590SOL    HW290795  11.334   3.853  11.468
63591SOL     OW90796  12.355   5.059  11.291
63591SOL    HW190797  12.256   5.048  11.293
63591SOL    HW290798  12.389   5.074  11.384
63592SOL     OW90799  11.785   4.566  12.603
63592SOL    HW190800  11.841   4.647  12.586
63592SOL    HW290801  11.844   4.486  12.606
63593SOL     OW90802  12.665   5.491  12.131
63593SOL    HW190803  12.698   5.555  12.062
63593SOL    HW290804  12.731   5.485  12.206
63594SOL     OW90805  11.888   4.289  12.880
63594SOL    HW190806  11.907   4.354  12.954
63594SOL    HW290807  11.948   4.209  12.889
63595SOL     OW90808  11.562   5.465  12.732
63595SOL    HW190809  11.471   5.506  12.730
63595SOL    HW290810  11.555   5.371  12.764
63596SOL     OW90811  12.397   4.049  11.621
63596SOL    HW190812  12.462   3.975  11.610
63596SOL    HW290813  12.417   4.099  11.705
63597SOL     OW90814  11.766   4.469  11.824
63597SOL    HW190815  11.816   4.554  11.805
63597SOL    HW290816  11.678   4.471  11.776
63598SOL     OW90817  12.031   5.098  11.188
63598SOL    HW190818  11.985   5.113  11.276
63598SOL    HW290819  12.075   5.183  11.158
63599SOL     OW90820  11.833   5.514  12.125
63599SOL    HW190821  11.787   5.602  12.112
63599SOL    HW290822  11.932   5.526  12.118
63600SOL     OW90823  12.031   4.680  12.033
63600SOL    HW190824  12.085   4.611  12.081
63600SOL    HW290825  11.999   4.749  12.099
63601SOL     OW90826  12.255   4.708  11.259
63601SOL    HW190827  12.232   4.761  11.177
63601SOL    HW290828  12.336   4.652  11.240
63602SOL     OW90829  13.033   5.293  12.023
63602SOL    HW190830  12.962   5.281  11.953
63602SOL    HW290831  13.034   5.214  12.083
63603SOL     OW90832  11.251   4.964  11.825
63603SOL    HW190833  11.250   4.917  11.913
63603SOL    HW290834  11.333   4.936  11.774
63604SOL     OW90835  11.844   5.115  12.796
63604SOL    HW190836  11.766   5.065  12.834
63604SOL    HW290837  11.841   5.210  12.827
63605SOL     OW90838  11.600   4.148  11.692
63605SOL    HW190839  11.630   4.076  11.630
63605SOL    HW290840  11.561   4.108  11.775
63606SOL     OW90841  11.489   4.271  12.452
63606SOL    HW190842  11.527   4.212  12.524
63606SOL    HW290843  11.529   4.245  12.364
63607SOL     OW90844  11.984   5.310  11.859
63607SOL    HW190845  12.016   5.320  11.765
63607SOL    HW290846  11.905   5.248  11.861
63608SOL     OW90847  12.596   3.938  12.284
63608SOL    HW190848  12.648   3.873  12.339
63608SOL    HW290849  12.547   4.001  12.345
63609SOL     OW90850  12.173   3.758  12.326
63609SOL    HW190851  12.110   3.686  12.295
63609SOL    HW290852  12.266   3.722  12.326
63610SOL     OW90853  11.942   5.054  11.473
63610SOL    HW190854  11.896   4.967  11.490
63610SOL    HW290855  12.033   5.051  11.514
63611SOL     OW90856  11.790   5.291  12.456
63611SOL    HW190857  11.785   5.373  12.513
63611SOL    HW290858  11.879   5.288  12.411
63612SOL     OW90859  12.524   3.776  11.340
63612SOL    HW190860  12.559   3.735  11.256
63612SOL    HW290861  12.434   3.738  11.360
63613SOL     OW90862  12.472   4.177  11.863
63613SOL    HW190863  12.413   4.257  11.867
63613SOL    HW290864  12.487   4.142  11.956
63614SOL     OW90865  12.765   3.945  12.054
63614SOL    HW190866  12.681   3.944  12.108
63614SOL    HW290867  12.767   4.028  11.998
63615SOL     OW90868  11.211   4.801  11.472
63615SOL    HW190869  11.310   4.790  11.463
63615SOL    HW290870  11.171   4.715  11.504
63616SOL     OW90871  12.047   5.370  11.509
63616SOL    HW190872  11.970   5.335  11.455
63616SOL    HW290873  12.015   5.441  11.571
63617SOL     OW90874  11.402   6.214   0.113
63617SOL    HW190875  11.309   6.212   0.150
63617SOL    HW290876  11.403   6.175   0.021
63618SOL     OW90877  11.397   5.861   0.996
63618SOL    HW190878  11.432   5.844   1.088
63618SOL    HW290879  11.309   5.816   0.984
63619SOL     OW90880  11.191   5.954   0.647
63619SOL    HW190881  11.109   5.997   0.686
63619SOL    HW290882  11.163   5.881   0.584
63620SOL     OW90883  11.741   6.861   1.165
63620SOL    HW190884  11.648   6.854   1.128
63620SOL    HW290885  11.752   6.950   1.209
63621SOL     OW90886  12.727   7.097   0.703
63621SOL    HW190887  12.670   7.081   0.784
63621SOL    HW290888  12.668   7.107   0.623
63622SOL     OW90889  12.307   6.289   0.717
63622SOL    HW190890  12.364   6.367   0.692
63622SOL    HW290891  12.247   6.315   0.793
63623SOL     OW90892  11.940   6.730   1.023
63623SOL    HW190893  11.862   6.747   1.083
63623SOL    HW290894  11.974   6.817   0.987
63624SOL     OW90895  12.022   6.384   1.823
63624SOL    HW190896  12.018   6.460   1.888
63624SOL    HW290897  12.044   6.420   1.732
63625SOL     OW90898  11.857   6.598   0.665
63625SOL    HW190899  11.926   6.582   0.735
63625SOL    HW290900  11.784   6.655   0.703
63626SOL     OW90901  11.858   6.747   1.803
63626SOL    HW190902  11.918   6.826   1.817
63626SOL    HW290903  11.772   6.778   1.762
63627SOL     OW90904  11.507   7.021   1.061
63627SOL    HW190905  11.429   6.990   1.008
63627SOL    HW290906  11.565   7.079   1.004
63628SOL     OW90907  12.632   7.091   1.339
63628SOL    HW190908  12.656   7.185   1.365
63628SOL    HW290909  12.616   7.037   1.421
63629SOL     OW90910  11.610   5.978   1.499
63629SOL    HW190911  11.692   5.922   1.508
63629SOL    HW290912  11.529   5.920   1.503
63630SOL     OW90913  11.403   7.299   0.483
63630SOL    HW190914  11.437   7.376   0.537
63630SOL    HW290915  11.447   7.299   0.393
63631SOL     OW90916  12.299   6.927   1.690
63631SOL    HW190917  12.346   6.927   1.778
63631SOL    HW290918  12.251   6.840   1.679
63632SOL     OW90919  11.402   7.020   0.538
63632SOL    HW190920  11.376   7.116   0.538
63632SOL    HW290921  11.331   6.966   0.583
63633SOL     OW90922  11.412   6.677   0.886
63633SOL    HW190923  11.426   6.593   0.938
63633SOL    HW290924  11.357   6.741   0.941
63634SOL     OW90925  11.792   7.372   1.439
63634SOL    HW190926  11.700   7.355   1.474
63634SOL    HW290927  11.820   7.464   1.465
63635SOL     OW90928  11.778   6.550   0.123
63635SOL    HW190929  11.785   6.634   0.069
63635SOL    HW290930  11.824   6.563   0.211
63636SOL     OW90931  12.766   5.700   1.480
63636SOL    HW190932  12.748   5.767   1.408
63636SOL    HW290933  12.763   5.746   1.569
63637SOL     OW90934  11.294   6.229   0.563
63637SOL    HW190935  11.249   6.141   0.580
63637SOL    HW290936  11.293   6.283   0.647
63638SOL     OW90937  11.199   7.182   0.117
63638SOL    HW190938  11.180   7.086   0.138
63638SOL    HW290939  11.166   7.240   0.192
63639SOL     OW90940  12.861   6.508   0.612
63639SOL    HW190941  12.956   6.479   0.620
63639SOL    HW290942  12.853   6.573   0.537
63640SOL     OW90943  11.285   6.323   1.597
63640SOL    HW190944  11.373   6.310   1.642
63640SOL    HW290945  11.272   6.420   1.575
63641SOL     OW90946  11.785   6.951   0.726
63641SOL    HW190947  11.736   6.864   0.735
63641SOL    HW290948  11.762   6.994   0.639
63642SOL     OW90949  12.465   6.814   1.423
63642SOL    HW190950  12.502   6.741   1.365
63642SOL    HW290951  12.517   6.819   1.508
63643SOL     OW90952  11.981   5.590   0.502
63643SOL    HW190953  12.021   5.681   0.493
63643SOL    HW290954  11.881   5.598   0.508
63644SOL     OW90955  11.369   6.562   1.264
63644SOL    HW190956  11.458   6.517   1.250
63644SOL    HW290957  11.296   6.497   1.245
63645SOL     OW90958  12.359   7.378   1.616
63645SOL    HW190959  12.383   7.438   1.540
63645SOL    HW290960  12.366   7.283   1.586
63646SOL     OW90961  11.489   5.837   1.801
63646SOL    HW190962  11.560   5.908   1.807
63646SOL    HW290963  11.401   5.876   1.829
63647SOL     OW90964  12.638   7.003   0.953
63647SOL    HW190965  12.579   7.009   1.033
63647SOL    HW290966  12.623   6.915   0.907
63648SOL     OW90967  12.839   7.300   0.572
63648SOL    HW190968  12.798   7.277   0.484
63648SOL    HW290969  12.821   7.226   0.637
63649SOL     OW90970  11.770   6.315   0.270
63649SOL    HW190971  11.794   6.384   0.202
63649SOL    HW290972  11.692   6.348   0.324
63650SOL     OW90973  12.453   5.931   0.944
63650SOL    HW190974  12.367   5.881   0.931
63650SOL    HW290975  12.515   5.877   1.000
63651SOL     OW90976  11.979   6.191   1.465
63651SOL    HW190977  11.932   6.188   1.554
63651SOL    HW290978  11.928   6.136   1.399
63652SOL     OW90979  12.566   6.055   1.674
63652SOL    HW190980  12.546   6.098   1.762
63652SOL    HW290981  12.644   5.993   1.683
63653SOL     OW90982  12.145   6.476   1.572
63653SOL    HW190983  12.191   6.392   1.543
63653SOL    HW290984  12.089   6.510   1.497
63654SOL     OW90985  12.163   5.996   1.242
63654SOL    HW190986  12.086   6.030   1.296
63654SOL    HW290987  12.129   5.945   1.163
63655SOL     OW90988  12.213   6.287   0.429
63655SOL    HW190989  12.239   6.283   0.525
63655SOL    HW290990  12.128   6.236   0.415
63656SOL     OW90991  11.248   6.397   0.789
63656SOL    HW190992  11.347   6.385   0.798
63656SOL    HW290993  11.224   6.492   0.810
63657SOL     OW90994  11.302   7.407   1.571
63657SOL    HW190995  11.292   7.392   1.670
63657SOL    HW290996  11.216   7.443   1.535
63658SOL     OW90997  12.037   5.934   0.195
63658SOL    HW190998  12.096   5.997   0.146
63658SOL    HW290999  12.056   5.840   0.166
63659SOL     OW91000  12.534   6.730   0.545
63659SOL    HW191001  12.617   6.701   0.497
63659SOL    HW291002  12.485   6.797   0.489
63660SOL     OW91003  11.722   5.782   0.885
63660SOL    HW191004  11.717   5.777   0.985
63660SOL    HW291005  11.724   5.878   0.856
63661SOL     OW91006  12.180   7.042   0.477
63661SOL    HW191007  12.134   7.114   0.425
63661SOL    HW291008  12.176   7.062   0.575
63662SOL     OW91009  11.523   7.387   0.853
63662SOL    HW191010  11.573   7.301   0.859
63662SOL    HW291011  11.588   7.464   0.850
63663SOL     OW91012  12.399   7.136   1.506
63663SOL    HW191013  12.405   7.059   1.570
63663SOL    HW291014  12.347   7.110   1.426
63664SOL     OW91015  11.493   6.529   0.242
63664SOL    HW191016  11.575   6.568   0.200
63664SOL    HW291017  11.466   6.447   0.193
63665SOL     OW91018  12.630   6.321   0.728
63665SOL    HW191019  12.625   6.256   0.803
63665SOL    HW291020  12.710   6.380   0.741
63666SOL     OW91021  11.633   6.852   1.727
63666SOL    HW191022  11.583   6.853   1.641
63666SOL    HW291023  11.570   6.834   1.803
63667SOL     OW91024  12.283   7.362   0.237
63667SOL    HW191025  12.223   7.300   0.287
63667SOL    HW291026  12.314   7.318   0.152
63668SOL     OW91027  11.374   5.871   1.498
63668SOL    HW191028  11.294   5.931   1.485
63668SOL    HW291029  11.364   5.822   1.584
63669SOL     OW91030  11.636   7.329   0.323
63669SOL    HW191031  11.669   7.368   0.409
63669SOL    HW291032  11.712   7.322   0.258
63670SOL     OW91033  12.572   5.693   0.426
63670SOL    HW191034  12.548   5.656   0.336
63670SOL    HW291035  12.671   5.709   0.430
63671SOL     OW91036  11.421   7.371   1.241
63671SOL    HW191037  11.478   7.306   1.291
63671SOL    HW291038  11.405   7.338   1.148
63672SOL     OW91039  12.112   7.284   0.904
63672SOL    HW191040  12.192   7.227   0.925
63672SOL    HW291041  12.063   7.244   0.827
63673SOL     OW91042  11.554   6.286   0.480
63673SOL    HW191043  11.599   6.196   0.477
63673SOL    HW291044  11.460   6.275   0.513
63674SOL     OW91045  11.786   5.708   0.117
63674SOL    HW191046  11.884   5.686   0.124
63674SOL    HW291047  11.755   5.691   0.024
63675SOL     OW91048  11.953   5.850   1.749
63675SOL    HW191049  12.020   5.789   1.792
63675SOL    HW291050  11.880   5.869   1.814
63676SOL     OW91051  12.060   7.100   1.195
63676SOL    HW191052  12.037   7.075   1.101
63676SOL    HW291053  12.121   7.031   1.234
63677SOL     OW91054  12.523   6.176   1.433
63677SOL    HW191055  12.551   6.133   1.518
63677SOL    HW291056  12.548   6.272   1.434
63678SOL     OW91057  11.975   6.988   0.924
63678SOL    HW191058  12.065   7.002   0.882
63678SOL    HW291059  11.904   6.990   0.853
63679SOL     OW91060  12.094   6.089   0.899
63679SOL    HW191061  12.069   6.080   0.803
63679SOL    HW291062  12.142   6.007   0.930
63680SOL     OW91063  11.711   5.650   0.512
63680SOL    HW191064  11.630   5.651   0.570
63680SOL    HW291065  11.714   5.733   0.457
63681SOL     OW91066  12.606   6.774   0.041
63681SOL    HW191067  12.638   6.698   0.098
63681SOL    HW291068  12.514   6.801   0.071
63682SOL     OW91069  11.469   5.621   0.171
63682SOL    HW191070  11.518   5.705   0.150
63682SOL    HW291071  11.531   5.556   0.216
63683SOL     OW91072  12.107   5.822   0.480
63683SOL    HW191073  12.059   5.863   0.402
63683SOL    HW291074  12.206   5.820   0.461
63684SOL     OW91075  12.248   6.269   1.464
63684SOL    HW191076  12.168   6.208   1.467
63684SOL    HW291077  12.329   6.216   1.440
63685SOL     OW91078  12.399   7.156   0.793
63685SOL    HW191079  12.420   7.230   0.728
63685SOL    HW291080  12.467   7.156   0.866
63686SOL     OW91081  11.631   6.738   0.741
63686SOL    HW191082  11.560   6.711   0.806
63686SOL    HW291083  11.605   6.710   0.648
63687SOL     OW91084  12.443   7.383   0.591
63687SOL    HW191085  12.487   7.447   0.527
63687SOL    HW291086  12.393   7.435   0.661
63688SOL     OW91087  12.204   6.135   0.016
63688SOL    HW191088  12.163   6.217  -0.023
63688SOL    HW291089  12.268   6.161   0.089
63689SOL     OW91090  11.250   6.142   1.386
63689SOL    HW191091  11.342   6.141   1.345
63689SOL    HW291092  11.244   6.216   1.453
63690SOL     OW91093  11.733   5.808   1.147
63690SOL    HW191094  11.771   5.724   1.184
63690SOL    HW291095  11.645   5.827   1.191
63691SOL     OW91096  12.189   5.625   0.753
63691SOL    HW191097  12.117   5.630   0.684
63691SOL    HW291098  12.165   5.556   0.822
63692SOL     OW91099  12.601   6.759   0.867
63692SOL    HW191100  12.546   6.675   0.860
63692SOL    HW291101  12.627   6.788   0.775
63693SOL     OW91102  12.638   6.176   0.992
63693SOL    HW191103  12.608   6.081   0.999
63693SOL    HW291104  12.711   6.192   1.058
63694SOL     OW91105  11.660   6.971   0.174
63694SOL    HW191106  11.573   6.956   0.221
63694SOL    HW291107  11.643   6.997   0.079
63695SOL     OW91108  12.562   6.161   0.078
63695SOL    HW191109  12.508   6.140   0.159
63695SOL    HW291110  12.653   6.120   0.087
63696SOL     OW91111  11.699   5.842   0.328
63696SOL    HW191112  11.726   5.783   0.253
63696SOL    HW291113  11.699   5.937   0.297
63697SOL     OW91114  12.236   6.933   1.340
63697SOL    HW191115  12.156   6.910   1.395
63697SOL    HW291116  12.319   6.907   1.389
63698SOL     OW91117  12.764   7.215   1.625
63698SOL    HW191118  12.791   7.249   1.535
63698SOL    HW291119  12.843   7.177   1.671
63699SOL     OW91120  12.283   6.781   1.100
63699SOL    HW191121  12.243   6.825   1.181
63699SOL    HW291122  12.242   6.818   1.017
63700SOL     OW91123  12.087   5.675   1.402
63700SOL    HW191124  12.112   5.655   1.307
63700SOL    HW291125  12.159   5.731   1.444
63701SOL     OW91126  12.152   6.702   1.719
63701SOL    HW191127  12.053   6.708   1.729
63701SOL    HW291128  12.175   6.622   1.663
63702SOL     OW91129  11.877   6.636   0.368
63702SOL    HW191130  11.863   6.643   0.467
63702SOL    HW291131  11.961   6.585   0.350
63703SOL     OW91132  11.582   6.399   1.251
63703SOL    HW191133  11.668   6.411   1.301
63703SOL    HW291134  11.540   6.312   1.278
63704SOL     OW91135  12.446   5.972   1.262
63704SOL    HW191136  12.467   6.046   1.326
63704SOL    HW291137  12.357   5.989   1.219
63705SOL     OW91138  11.236   7.150   1.331
63705SOL    HW191139  11.190   7.232   1.297
63705SOL    HW291140  11.334   7.169   1.340
63706SOL     OW91141  11.539   6.686   0.501
63706SOL    HW191142  11.532   6.769   0.445
63706SOL    HW291143  11.543   6.606   0.441
63707SOL     OW91144  11.738   6.123   0.865
63707SOL    HW191145  11.750   6.189   0.791
63707SOL    HW291146  11.784   6.157   0.948
63708SOL     OW91147  12.424   6.934   0.388
63708SOL    HW191148  12.474   7.011   0.428
63708SOL    HW291149  12.329   6.936   0.420
63709SOL     OW91150  12.444   7.031   1.142
63709SOL    HW191151  12.491   7.044   1.229
63709SOL    HW291152  12.378   6.957   1.151
63710SOL     OW91153  12.754   6.225   0.472
63710SOL    HW191154  12.723   6.286   0.545
63710SOL    HW291155  12.804   6.277   0.403
63711SOL     OW91156  11.526   7.096   1.329
63711SOL    HW191157  11.505   7.052   1.242
63711SOL    HW291158  11.623   7.122   1.332
63712SOL     OW91159  11.574   6.337   1.598
63712SOL    HW191160  11.642   6.392   1.551
63712SOL    HW291161  11.614   6.249   1.625
63713SOL     OW91162  12.185   5.691   1.770
63713SOL    HW191163  12.191   5.776   1.718
63713SOL    HW291164  12.217   5.615   1.713
63714SOL     OW91165  11.676   5.636   1.740
63714SOL    HW191166  11.634   5.579   1.670
63714SOL    HW291167  11.610   5.705   1.772
63715SOL     OW91168  11.745   6.456   1.029
63715SOL    HW191169  11.789   6.545   1.020
63715SOL    HW291170  11.682   6.456   1.106
63716SOL     OW91171  12.532   6.448   1.045
63716SOL    HW191172  12.457   6.448   0.979
63716SOL    HW291173  12.569   6.356   1.054
63717SOL     OW91174  12.381   6.111   0.275
63717SOL    HW191175  12.394   6.027   0.329
63717SOL    HW291176  12.352   6.185   0.335
63718SOL     OW91177  11.479   5.799   1.231
63718SOL    HW191178  11.456   5.836   1.321
63718SOL    HW291179  11.449   5.704   1.225
63719SOL     OW91180  11.209   6.896   1.282
63719SOL    HW191181  11.262   6.847   1.350
63719SOL    HW291182  11.231   6.994   1.287
63720SOL     OW91183  11.904   6.220   1.064
63720SOL    HW191184  11.963   6.194   0.988
63720SOL    HW291185  11.876   6.316   1.053
63721SOL     OW91186  11.479   5.649   0.618
63721SOL    HW191187  11.468   5.743   0.651
63721SOL    HW291188  11.474   5.586   0.695
63722SOL     OW91189  12.794   5.953   0.374
63722SOL    HW191190  12.796   5.877   0.438
63722SOL    HW291191  12.746   6.030   0.414
63723SOL     OW91192  12.195   6.352   0.966
63723SOL    HW191193  12.210   6.373   1.062
63723SOL    HW291194  12.165   6.257   0.957
63724SOL     OW91195  12.152   7.159   1.700
63724SOL    HW191196  12.132   7.203   1.612
63724SOL    HW291197  12.191   7.068   1.684
63725SOL     OW91198  11.522   6.484   1.804
63725SOL    HW191199  11.598   6.528   1.852
63725SOL    HW291200  11.557   6.437   1.722
63726SOL     OW91201  12.712   5.860   0.125
63726SOL    HW191202  12.651   5.785   0.148
63726SOL    HW291203  12.734   5.912   0.208
63727SOL     OW91204  12.475   6.424   0.042
63727SOL    HW191205  12.509   6.331   0.057
63727SOL    HW291206  12.493   6.451  -0.053
63728SOL     OW91207  11.491   6.396   0.949
63728SOL    HW191208  11.584   6.432   0.954
63728SOL    HW291209  11.485   6.311   1.001
63729SOL     OW91210  11.511   6.095   1.006
63729SOL    HW191211  11.459   6.012   0.989
63729SOL    HW291212  11.588   6.100   0.942
63730SOL     OW91213  12.310   5.966   1.678
63730SOL    HW191214  12.265   6.029   1.742
63730SOL    HW291215  12.403   5.997   1.661
63731SOL     OW91216  12.332   5.793   1.477
63731SOL    HW191217  12.332   5.857   1.554
63731SOL    HW291218  12.360   5.841   1.394
63732SOL     OW91219  11.180   6.912   0.200
63732SOL    HW191220  11.087   6.933   0.169
63732SOL    HW291221  11.190   6.813   0.213
63733SOL     OW91222  11.260   7.387   0.927
63733SOL    HW191223  11.218   7.301   0.900
63733SOL    HW291224  11.354   7.390   0.893
63734SOL     OW91225  11.676   7.154   0.910
63734SOL    HW191226  11.742   7.228   0.919
63734SOL    HW291227  11.720   7.075   0.868
63735SOL     OW91228  12.174   6.382   1.238
63735SOL    HW191229  12.215   6.350   1.324
63735SOL    HW291230  12.078   6.355   1.235
63736SOL     OW91231  11.212   6.130   1.114
63736SOL    HW191232  11.297   6.097   1.073
63736SOL    HW291233  11.225   6.145   1.212
63737SOL     OW91234  11.361   6.106   1.722
63737SOL    HW191235  11.420   6.066   1.652
63737SOL    HW291236  11.303   6.177   1.681
63738SOL     OW91237  12.541   6.536   1.660
63738SOL    HW191238  12.580   6.625   1.680
63738SOL    HW291239  12.551   6.516   1.563
63739SOL     OW91240  11.987   6.158   0.325
63739SOL    HW191241  11.994   6.069   0.279
63739SOL    HW291242  11.893   6.192   0.317
63740SOL     OW91243  11.424   7.150   1.744
63740SOL    HW191244  11.394   7.207   1.820
63740SOL    HW291245  11.417   7.053   1.770
63741SOL     OW91246  11.843   6.050   1.269
63741SOL    HW191247  11.809   5.961   1.239
63741SOL    HW291248  11.869   6.104   1.189
63742SOL     OW91249  12.102   7.264   1.465
63742SOL    HW191250  12.078   7.246   1.370
63742SOL    HW291251  12.132   7.358   1.475
63743SOL     OW91252  11.645   6.086   0.191
63743SOL    HW191253  11.706   6.166   0.195
63743SOL    HW291254  11.550   6.117   0.198
63744SOL     OW91255  11.331   6.723   1.466
63744SOL    HW191256  11.353   6.662   1.542
63744SOL    HW291257  11.341   6.674   1.380
63745SOL     OW91258  12.519   6.645   1.234
63745SOL    HW191259  12.543   6.582   1.160
63745SOL    HW291260  12.429   6.685   1.216
63746SOL     OW91261  12.474   6.441   0.309
63746SOL    HW191262  12.388   6.410   0.351
63746SOL    HW291263  12.470   6.427   0.210
63747SOL     OW91264  12.424   7.317   1.128
63747SOL    HW191265  12.508   7.322   1.074
63747SOL    HW291266  12.401   7.221   1.146
63748SOL     OW91267  11.255   6.844   1.022
63748SOL    HW191268  11.250   6.843   1.122
63748SOL    HW291269  11.172   6.803   0.984
63749SOL     OW91270  11.860   7.248   1.716
63749SOL    HW191271  11.804   7.329   1.725
63749SOL    HW291272  11.912   7.252   1.630
63750SOL     OW91273  12.075   5.672   0.133
63750SOL    HW191274  12.126   5.673   0.047
63750SOL    HW291275  12.131   5.630   0.204
63751SOL     OW91276  12.898   5.721   0.523
63751SOL    HW191277  12.971   5.704   0.456
63751SOL    HW291278  12.867   5.634   0.561
63752SOL     OW91279  12.560   7.159   0.477
63752SOL    HW191280  12.627   7.171   0.403
63752SOL    HW291281  12.520   7.248   0.500
63753SOL     OW91282  11.302   7.380   1.851
63753SOL    HW191283  11.261   7.306   1.904
63753SOL    HW291284  11.366   7.431   1.909
63754SOL     OW91285  12.452   6.513   0.672
63754SOL    HW191286  12.512   6.432   0.674
63754SOL    HW291287  12.492   6.582   0.612
63755SOL     OW91288  12.002   6.859   1.422
63755SOL    HW191289  11.997   6.892   1.517
63755SOL    HW291290  11.916   6.878   1.376
63756SOL     OW91291  11.844   7.202   0.154
63756SOL    HW191292  11.853   7.212   0.055
63756SOL    HW291293  11.804   7.113   0.175
63757SOL     OW91294  11.435   5.912   0.720
63757SOL    HW191295  11.356   5.963   0.686
63757SOL    HW291296  11.426   5.897   0.818
63758SOL     OW91297  12.366   7.198   0.031
63758SOL    HW191298  12.372   7.105   0.068
63758SOL    HW291299  12.307   7.198  -0.049
63759SOL     OW91300  11.994   6.588   1.372
63759SOL    HW191301  12.034   6.587   1.280
63759SOL    HW291302  12.004   6.680   1.412
63760SOL     OW91303  12.088   6.496   0.291
63760SOL    HW191304  12.151   6.534   0.223
63760SOL    HW291305  12.128   6.413   0.330
63761SOL     OW91306  12.676   7.193   0.044
63761SOL    HW191307  12.584   7.230   0.051
63761SOL    HW291308  12.714   7.213  -0.046
63762SOL     OW91309  11.544   6.874   1.490
63762SOL    HW191310  11.531   6.967   1.456
63762SOL    HW291311  11.460   6.822   1.477
63763SOL     OW91312  12.211   6.684   0.696
63763SOL    HW191313  12.141   6.637   0.750
63763SOL    HW291314  12.270   6.616   0.653
63764SOL     OW91315  12.186   5.822   0.971
63764SOL    HW191316  12.178   5.786   0.878
63764SOL    HW291317  12.184   5.746   1.036
63765SOL     OW91318  11.762   7.073   0.491
63765SOL    HW191319  11.804   7.015   0.421
63765SOL    HW291320  11.718   7.152   0.447
63766SOL     OW91321  11.427   6.934   0.290
63766SOL    HW191322  11.331   6.935   0.263
63766SOL    HW291323  11.439   6.987   0.374
63767SOL     OW91324  11.277   6.599   1.726
63767SOL    HW191325  11.200   6.566   1.780
63767SOL    HW291326  11.362   6.569   1.768
63768SOL     OW91327  11.844   5.789   1.489
63768SOL    HW191328  11.934   5.773   1.449
63768SOL    HW291329  11.852   5.794   1.588
63769SOL     OW91330  12.612   6.442   1.398
63769SOL    HW191331  12.555   6.494   1.335
63769SOL    HW291332  12.708   6.454   1.374
63770SOL     OW91333  11.244   5.752   0.318
63770SOL    HW191334  11.227   5.835   0.264
63770SOL    HW291335  11.334   5.715   0.296
63771SOL     OW91336  12.355   6.921   0.119
63771SOL    HW191337  12.256   6.910   0.121
63771SOL    HW291338  12.389   6.936   0.212
63772SOL     OW91339  11.785   6.428   1.431
63772SOL    HW191340  11.841   6.509   1.414
63772SOL    HW291341  11.844   6.348   1.434
63773SOL     OW91342  12.665   7.353   0.959
63773SOL    HW191343  12.698   7.417   0.890
63773SOL    HW291344  12.731   7.347   1.034
63774SOL     OW91345  11.888   6.151   1.708
63774SOL    HW191346  11.907   6.216   1.782
63774SOL    HW291347  11.948   6.071   1.717
63775SOL     OW91348  12.622   6.806   1.633
63775SOL    HW191349  12.613   6.796   1.732
63775SOL    HW291350  12.718   6.799   1.607
63776SOL     OW91351  11.562   7.327   1.560
63776SOL    HW191352  11.471   7.368   1.558
63776SOL    HW291353  11.555   7.233   1.592
63777SOL     OW91354  12.397   5.911   0.449
63777SOL    HW191355  12.462   5.837   0.438
63777SOL    HW291356  12.417   5.961   0.533
63778SOL     OW91357  11.766   6.331   0.652
63778SOL    HW191358  11.816   6.416   0.633
63778SOL    HW291359  11.678   6.333   0.604
63779SOL     OW91360  12.031   6.960   0.016
63779SOL    HW191361  11.985   6.975   0.104
63779SOL    HW291362  12.075   7.045  -0.014
63780SOL     OW91363  11.833   7.376   0.953
63780SOL    HW191364  11.787   7.464   0.940
63780SOL    HW291365  11.932   7.388   0.946
63781SOL     OW91366  12.031   6.542   0.861
63781SOL    HW191367  12.085   6.473   0.909
63781SOL    HW291368  11.999   6.611   0.927
63782SOL     OW91369  12.255   6.570   0.087
63782SOL    HW191370  12.232   6.623   0.005
63782SOL    HW291371  12.336   6.514   0.068
63783SOL     OW91372  13.033   7.155   0.851
63783SOL    HW191373  12.962   7.143   0.781
63783SOL    HW291374  13.034   7.076   0.911
63784SOL     OW91375  11.393   6.900   1.844
63784SOL    HW191376  11.328   6.827   1.823
63784SOL    HW291377  11.397   6.914   1.942
63785SOL     OW91378  11.251   6.826   0.653
63785SOL    HW191379  11.250   6.779   0.741
63785SOL    HW291380  11.333   6.798   0.602
63786SOL     OW91381  11.844   6.977   1.624
63786SOL    HW191382  11.766   6.927   1.662
63786SOL    HW291383  11.841   7.072   1.655
63787SOL     OW91384  11.600   6.010   0.520
63787SOL    HW191385  11.630   5.938   0.458
63787SOL    HW291386  11.561   5.970   0.603
63788SOL     OW91387  11.489   6.133   1.280
63788SOL    HW191388  11.527   6.074   1.352
63788SOL    HW291389  11.529   6.107   1.192
63789SOL     OW91390  11.984   7.172   0.687
63789SOL    HW191391  12.016   7.182   0.593
63789SOL    HW291392  11.905   7.110   0.689
63790SOL     OW91393  12.596   5.800   1.112
63790SOL    HW191394  12.648   5.735   1.167
63790SOL    HW291395  12.547   5.863   1.173
63791SOL     OW91396  12.173   5.620   1.154
63791SOL    HW191397  12.110   5.548   1.123
63791SOL    HW291398  12.266   5.584   1.154
63792SOL     OW91399  11.942   6.916   0.301
63792SOL    HW191400  11.896   6.829   0.318
63792SOL    HW291401  12.033   6.913   0.342
63793SOL     OW91402  11.790   7.153   1.284
63793SOL    HW191403  11.785   7.235   1.341
63793SOL    HW291404  11.879   7.150   1.239
63794SOL     OW91405  12.524   5.638   0.168
63794SOL    HW191406  12.559   5.597   0.084
63794SOL    HW291407  12.434   5.600   0.188
63795SOL     OW91408  12.472   6.039   0.691
63795SOL    HW191409  12.413   6.119   0.695
63795SOL    HW291410  12.487   6.004   0.784
63796SOL     OW91411  12.765   5.807   0.882
63796SOL    HW191412  12.681   5.806   0.936
63796SOL    HW291413  12.767   5.890   0.826
63797SOL     OW91414  11.211   6.663   0.300
63797SOL    HW191415  11.310   6.652   0.291
63797SOL    HW291416  11.171   6.577   0.332
63798SOL     OW91417  12.047   7.232   0.337
63798SOL    HW191418  11.970   7.197   0.283
63798SOL    HW291419  12.015   7.303   0.399
63799SOL     OW91420  11.402   6.214   1.975
63799SOL    HW191421  11.309   6.212   2.012
63799SOL    HW291422  11.403   6.175   1.883
63800SOL     OW91423  11.397   5.861   2.858
63800SOL    HW191424  11.432   5.844   2.950
63800SOL    HW291425  11.309   5.816   2.846
63801SOL     OW91426  11.191   5.954   2.509
63801SOL    HW191427  11.109   5.997   2.548
63801SOL    HW291428  11.163   5.881   2.446
63802SOL     OW91429  11.741   6.861   3.027
63802SOL    HW191430  11.648   6.854   2.990
63802SOL    HW291431  11.752   6.950   3.071
63803SOL     OW91432  12.727   7.097   2.565
63803SOL    HW191433  12.670   7.081   2.646
63803SOL    HW291434  12.668   7.107   2.485
63804SOL     OW91435  12.307   6.289   2.579
63804SOL    HW191436  12.364   6.367   2.554
63804SOL    HW291437  12.247   6.315   2.655
63805SOL     OW91438  11.940   6.730   2.885
63805SOL    HW191439  11.862   6.747   2.945
63805SOL    HW291440  11.974   6.817   2.849
63806SOL     OW91441  12.022   6.384   3.685
63806SOL    HW191442  12.018   6.460   3.750
63806SOL    HW291443  12.044   6.420   3.594
63807SOL     OW91444  11.857   6.598   2.527
63807SOL    HW191445  11.926   6.582   2.597
63807SOL    HW291446  11.784   6.655   2.565
63808SOL     OW91447  11.858   6.747   3.665
63808SOL    HW191448  11.918   6.826   3.679
63808SOL    HW291449  11.772   6.778   3.624
63809SOL     OW91450  11.507   7.021   2.923
63809SOL    HW191451  11.429   6.990   2.870
63809SOL    HW291452  11.565   7.079   2.866
63810SOL     OW91453  12.632   7.091   3.201
63810SOL    HW191454  12.656   7.185   3.227
63810SOL    HW291455  12.616   7.037   3.283
63811SOL     OW91456  11.610   5.978   3.361
63811SOL    HW191457  11.692   5.922   3.370
63811SOL    HW291458  11.529   5.920   3.365
63812SOL     OW91459  11.403   7.299   2.345
63812SOL    HW191460  11.437   7.376   2.399
63812SOL    HW291461  11.447   7.299   2.255
63813SOL     OW91462  12.299   6.927   3.552
63813SOL    HW191463  12.346   6.927   3.640
63813SOL    HW291464  12.251   6.840   3.541
63814SOL     OW91465  11.402   7.020   2.400
63814SOL    HW191466  11.376   7.116   2.400
63814SOL    HW291467  11.331   6.966   2.445
63815SOL     OW91468  11.412   6.677   2.748
63815SOL    HW191469  11.426   6.593   2.800
63815SOL    HW291470  11.357   6.741   2.803
63816SOL     OW91471  11.792   7.372   3.301
63816SOL    HW191472  11.700   7.355   3.336
63816SOL    HW291473  11.820   7.464   3.327
63817SOL     OW91474  11.778   6.550   1.985
63817SOL    HW191475  11.785   6.634   1.931
63817SOL    HW291476  11.824   6.563   2.073
63818SOL     OW91477  12.766   5.700   3.342
63818SOL    HW191478  12.748   5.767   3.270
63818SOL    HW291479  12.763   5.746   3.431
63819SOL     OW91480  11.294   6.229   2.425
63819SOL    HW191481  11.249   6.141   2.442
63819SOL    HW291482  11.293   6.283   2.509
63820SOL     OW91483  11.199   7.182   1.979
63820SOL    HW191484  11.180   7.086   2.000
63820SOL    HW291485  11.166   7.240   2.054
63821SOL     OW91486  12.861   6.508   2.474
63821SOL    HW191487  12.956   6.479   2.482
63821SOL    HW291488  12.853   6.573   2.399
63822SOL     OW91489  11.285   6.323   3.459
63822SOL    HW191490  11.373   6.310   3.504
63822SOL    HW291491  11.272   6.420   3.437
63823SOL     OW91492  11.785   6.951   2.588
63823SOL    HW191493  11.736   6.864   2.597
63823SOL    HW291494  11.762   6.994   2.501
63824SOL     OW91495  12.465   6.814   3.285
63824SOL    HW191496  12.502   6.741   3.227
63824SOL    HW291497  12.517   6.819   3.370
63825SOL     OW91498  11.981   5.590   2.364
63825SOL    HW191499  12.021   5.681   2.355
63825SOL    HW291500  11.881   5.598   2.370
63826SOL     OW91501  11.369   6.562   3.126
63826SOL    HW191502  11.458   6.517   3.112
63826SOL    HW291503  11.296   6.497   3.107
63827SOL     OW91504  12.359   7.378   3.478
63827SOL    HW191505  12.383   7.438   3.402
63827SOL    HW291506  12.366   7.283   3.448
63828SOL     OW91507  11.489   5.837   3.663
63828SOL    HW191508  11.560   5.908   3.669
63828SOL    HW291509  11.401   5.876   3.691
63829SOL     OW91510  12.638   7.003   2.815
63829SOL    HW191511  12.579   7.009   2.895
63829SOL    HW291512  12.623   6.915   2.769
63830SOL     OW91513  12.839   7.300   2.434
63830SOL    HW191514  12.798   7.277   2.346
63830SOL    HW291515  12.821   7.226   2.499
63831SOL     OW91516  11.770   6.315   2.132
63831SOL    HW191517  11.794   6.384   2.064
63831SOL    HW291518  11.692   6.348   2.186
63832SOL     OW91519  12.453   5.931   2.806
63832SOL    HW191520  12.367   5.881   2.793
63832SOL    HW291521  12.515   5.877   2.862
63833SOL     OW91522  11.979   6.191   3.327
63833SOL    HW191523  11.932   6.188   3.416
63833SOL    HW291524  11.928   6.136   3.261
63834SOL     OW91525  12.566   6.055   3.536
63834SOL    HW191526  12.546   6.098   3.624
63834SOL    HW291527  12.644   5.993   3.545
63835SOL     OW91528  12.145   6.476   3.434
63835SOL    HW191529  12.191   6.392   3.405
63835SOL    HW291530  12.089   6.510   3.359
63836SOL     OW91531  12.163   5.996   3.104
63836SOL    HW191532  12.086   6.030   3.158
63836SOL    HW291533  12.129   5.945   3.025
63837SOL     OW91534  12.213   6.287   2.291
63837SOL    HW191535  12.239   6.283   2.387
63837SOL    HW291536  12.128   6.236   2.277
63838SOL     OW91537  11.248   6.397   2.651
63838SOL    HW191538  11.347   6.385   2.660
63838SOL    HW291539  11.224   6.492   2.672
63839SOL     OW91540  11.302   7.407   3.433
63839SOL    HW191541  11.292   7.392   3.532
63839SOL    HW291542  11.216   7.443   3.397
63840SOL     OW91543  12.037   5.934   2.057
63840SOL    HW191544  12.096   5.997   2.008
63840SOL    HW291545  12.056   5.840   2.028
63841SOL     OW91546  12.534   6.730   2.407
63841SOL    HW191547  12.617   6.701   2.359
63841SOL    HW291548  12.485   6.797   2.351
63842SOL     OW91549  11.722   5.782   2.747
63842SOL    HW191550  11.717   5.777   2.847
63842SOL    HW291551  11.724   5.878   2.718
63843SOL     OW91552  12.180   7.042   2.339
63843SOL    HW191553  12.134   7.114   2.287
63843SOL    HW291554  12.176   7.062   2.437
63844SOL     OW91555  11.523   7.387   2.715
63844SOL    HW191556  11.573   7.301   2.721
63844SOL    HW291557  11.588   7.464   2.712
63845SOL     OW91558  12.399   7.136   3.368
63845SOL    HW191559  12.405   7.059   3.432
63845SOL    HW291560  12.347   7.110   3.288
63846SOL     OW91561  11.493   6.529   2.104
63846SOL    HW191562  11.575   6.568   2.062
63846SOL    HW291563  11.466   6.447   2.055
63847SOL     OW91564  12.630   6.321   2.590
63847SOL    HW191565  12.625   6.256   2.665
63847SOL    HW291566  12.710   6.380   2.603
63848SOL     OW91567  11.633   6.852   3.589
63848SOL    HW191568  11.583   6.853   3.503
63848SOL    HW291569  11.570   6.834   3.665
63849SOL     OW91570  12.283   7.362   2.099
63849SOL    HW191571  12.223   7.300   2.149
63849SOL    HW291572  12.314   7.318   2.014
63850SOL     OW91573  11.374   5.871   3.360
63850SOL    HW191574  11.294   5.931   3.347
63850SOL    HW291575  11.364   5.822   3.446
63851SOL     OW91576  11.636   7.329   2.185
63851SOL    HW191577  11.669   7.368   2.271
63851SOL    HW291578  11.712   7.322   2.120
63852SOL     OW91579  12.572   5.693   2.288
63852SOL    HW191580  12.548   5.656   2.198
63852SOL    HW291581  12.671   5.709   2.292
63853SOL     OW91582  11.421   7.371   3.103
63853SOL    HW191583  11.478   7.306   3.153
63853SOL    HW291584  11.405   7.338   3.010
63854SOL     OW91585  12.112   7.284   2.766
63854SOL    HW191586  12.192   7.227   2.787
63854SOL    HW291587  12.063   7.244   2.689
63855SOL     OW91588  11.554   6.286   2.342
63855SOL    HW191589  11.599   6.196   2.339
63855SOL    HW291590  11.460   6.275   2.375
63856SOL     OW91591  11.786   5.708   1.979
63856SOL    HW191592  11.884   5.686   1.986
63856SOL    HW291593  11.755   5.691   1.886
63857SOL     OW91594  11.953   5.850   3.611
63857SOL    HW191595  12.020   5.789   3.654
63857SOL    HW291596  11.880   5.869   3.676
63858SOL     OW91597  12.060   7.100   3.057
63858SOL    HW191598  12.037   7.075   2.963
63858SOL    HW291599  12.121   7.031   3.096
63859SOL     OW91600  12.523   6.176   3.295
63859SOL    HW191601  12.551   6.133   3.380
63859SOL    HW291602  12.548   6.272   3.296
63860SOL     OW91603  11.975   6.988   2.786
63860SOL    HW191604  12.065   7.002   2.744
63860SOL    HW291605  11.904   6.990   2.715
63861SOL     OW91606  12.094   6.089   2.761
63861SOL    HW191607  12.069   6.080   2.665
63861SOL    HW291608  12.142   6.007   2.792
63862SOL     OW91609  11.711   5.650   2.374
63862SOL    HW191610  11.630   5.651   2.432
63862SOL    HW291611  11.714   5.733   2.319
63863SOL     OW91612  12.606   6.774   1.903
63863SOL    HW191613  12.638   6.698   1.960
63863SOL    HW291614  12.514   6.801   1.933
63864SOL     OW91615  11.469   5.621   2.033
63864SOL    HW191616  11.518   5.705   2.012
63864SOL    HW291617  11.531   5.556   2.078
63865SOL     OW91618  12.107   5.822   2.342
63865SOL    HW191619  12.059   5.863   2.264
63865SOL    HW291620  12.206   5.820   2.323
63866SOL     OW91621  12.248   6.269   3.326
63866SOL    HW191622  12.168   6.208   3.329
63866SOL    HW291623  12.329   6.216   3.302
63867SOL     OW91624  12.399   7.156   2.655
63867SOL    HW191625  12.420   7.230   2.590
63867SOL    HW291626  12.467   7.156   2.728
63868SOL     OW91627  11.631   6.738   2.603
63868SOL    HW191628  11.560   6.711   2.668
63868SOL    HW291629  11.605   6.710   2.510
63869SOL     OW91630  12.443   7.383   2.453
63869SOL    HW191631  12.487   7.447   2.389
63869SOL    HW291632  12.393   7.435   2.523
63870SOL     OW91633  12.204   6.135   1.878
63870SOL    HW191634  12.163   6.217   1.839
63870SOL    HW291635  12.268   6.161   1.951
63871SOL     OW91636  11.250   6.142   3.248
63871SOL    HW191637  11.342   6.141   3.207
63871SOL    HW291638  11.244   6.216   3.315
63872SOL     OW91639  11.733   5.808   3.009
63872SOL    HW191640  11.771   5.724   3.046
63872SOL    HW291641  11.645   5.827   3.053
63873SOL     OW91642  12.038   6.040   2.504
63873SOL    HW191643  12.006   6.112   2.442
63873SOL    HW291644  12.062   5.959   2.451
63874SOL     OW91645  12.189   5.625   2.615
63874SOL    HW191646  12.117   5.630   2.546
63874SOL    HW291647  12.165   5.556   2.684
63875SOL     OW91648  12.601   6.759   2.729
63875SOL    HW191649  12.546   6.675   2.722
63875SOL    HW291650  12.627   6.788   2.637
63876SOL     OW91651  12.638   6.176   2.854
63876SOL    HW191652  12.608   6.081   2.861
63876SOL    HW291653  12.711   6.192   2.920
63877SOL     OW91654  11.660   6.971   2.036
63877SOL    HW191655  11.573   6.956   2.083
63877SOL    HW291656  11.643   6.997   1.941
63878SOL     OW91657  12.562   6.161   1.940
63878SOL    HW191658  12.508   6.140   2.021
63878SOL    HW291659  12.653   6.120   1.949
63879SOL     OW91660  11.699   5.842   2.190
63879SOL    HW191661  11.726   5.783   2.115
63879SOL    HW291662  11.699   5.937   2.159
63880SOL     OW91663  12.236   6.933   3.202
63880SOL    HW191664  12.156   6.910   3.257
63880SOL    HW291665  12.319   6.907   3.251
63881SOL     OW91666  12.764   7.215   3.487
63881SOL    HW191667  12.791   7.249   3.397
63881SOL    HW291668  12.843   7.177   3.533
63882SOL     OW91669  12.283   6.781   2.962
63882SOL    HW191670  12.243   6.825   3.043
63882SOL    HW291671  12.242   6.818   2.879
63883SOL     OW91672  12.087   5.675   3.264
63883SOL    HW191673  12.112   5.655   3.169
63883SOL    HW291674  12.159   5.731   3.306
63884SOL     OW91675  12.152   6.702   3.581
63884SOL    HW191676  12.053   6.708   3.591
63884SOL    HW291677  12.175   6.622   3.525
63885SOL     OW91678  11.877   6.636   2.230
63885SOL    HW191679  11.863   6.643   2.329
63885SOL    HW291680  11.961   6.585   2.212
63886SOL     OW91681  11.582   6.399   3.113
63886SOL    HW191682  11.668   6.411   3.163
63886SOL    HW291683  11.540   6.312   3.140
63887SOL     OW91684  12.446   5.972   3.124
63887SOL    HW191685  12.467   6.046   3.188
63887SOL    HW291686  12.357   5.989   3.081
63888SOL     OW91687  11.236   7.150   3.193
63888SOL    HW191688  11.190   7.232   3.159
63888SOL    HW291689  11.334   7.169   3.202
63889SOL     OW91690  11.539   6.686   2.363
63889SOL    HW191691  11.532   6.769   2.307
63889SOL    HW291692  11.543   6.606   2.303
63890SOL     OW91693  11.738   6.123   2.727
63890SOL    HW191694  11.750   6.189   2.653
63890SOL    HW291695  11.784   6.157   2.810
63891SOL     OW91696  12.424   6.934   2.250
63891SOL    HW191697  12.474   7.011   2.290
63891SOL    HW291698  12.329   6.936   2.282
63892SOL     OW91699  12.444   7.031   3.004
63892SOL    HW191700  12.491   7.044   3.091
63892SOL    HW291701  12.378   6.957   3.013
63893SOL     OW91702  12.754   6.225   2.334
63893SOL    HW191703  12.723   6.286   2.407
63893SOL    HW291704  12.804   6.277   2.265
63894SOL     OW91705  11.526   7.096   3.191
63894SOL    HW191706  11.505   7.052   3.104
63894SOL    HW291707  11.623   7.122   3.194
63895SOL     OW91708  11.574   6.337   3.460
63895SOL    HW191709  11.642   6.392   3.413
63895SOL    HW291710  11.614   6.249   3.487
63896SOL     OW91711  12.185   5.691   3.632
63896SOL    HW191712  12.191   5.776   3.580
63896SOL    HW291713  12.217   5.615   3.575
63897SOL     OW91714  11.676   5.636   3.602
63897SOL    HW191715  11.634   5.579   3.532
63897SOL    HW291716  11.610   5.705   3.634
63898SOL     OW91717  11.745   6.456   2.891
63898SOL    HW191718  11.789   6.545   2.882
63898SOL    HW291719  11.682   6.456   2.968
63899SOL     OW91720  12.532   6.448   2.907
63899SOL    HW191721  12.457   6.448   2.841
63899SOL    HW291722  12.569   6.356   2.916
63900SOL     OW91723  12.381   6.111   2.137
63900SOL    HW191724  12.394   6.027   2.191
63900SOL    HW291725  12.352   6.185   2.197
63901SOL     OW91726  11.479   5.799   3.093
63901SOL    HW191727  11.456   5.836   3.183
63901SOL    HW291728  11.449   5.704   3.087
63902SOL     OW91729  11.209   6.896   3.144
63902SOL    HW191730  11.262   6.847   3.212
63902SOL    HW291731  11.231   6.994   3.149
63903SOL     OW91732  11.904   6.220   2.926
63903SOL    HW191733  11.963   6.194   2.850
63903SOL    HW291734  11.876   6.316   2.915
63904SOL     OW91735  11.479   5.649   2.480
63904SOL    HW191736  11.468   5.743   2.513
63904SOL    HW291737  11.474   5.586   2.557
63905SOL     OW91738  12.794   5.953   2.236
63905SOL    HW191739  12.796   5.877   2.300
63905SOL    HW291740  12.746   6.030   2.276
63906SOL     OW91741  12.195   6.352   2.828
63906SOL    HW191742  12.210   6.373   2.924
63906SOL    HW291743  12.165   6.257   2.819
63907SOL     OW91744  12.152   7.159   3.562
63907SOL    HW191745  12.132   7.203   3.474
63907SOL    HW291746  12.191   7.068   3.546
63908SOL     OW91747  11.522   6.484   3.666
63908SOL    HW191748  11.598   6.528   3.714
63908SOL    HW291749  11.557   6.437   3.584
63909SOL     OW91750  12.712   5.860   1.987
63909SOL    HW191751  12.651   5.785   2.010
63909SOL    HW291752  12.734   5.912   2.070
63910SOL     OW91753  12.475   6.424   1.904
63910SOL    HW191754  12.509   6.331   1.919
63910SOL    HW291755  12.493   6.451   1.809
63911SOL     OW91756  12.240   6.919   2.711
63911SOL    HW191757  12.247   6.835   2.656
63911SOL    HW291758  12.302   6.988   2.675
63912SOL     OW91759  11.491   6.396   2.811
63912SOL    HW191760  11.584   6.432   2.816
63912SOL    HW291761  11.485   6.311   2.863
63913SOL     OW91762  11.511   6.095   2.868
63913SOL    HW191763  11.459   6.012   2.851
63913SOL    HW291764  11.588   6.100   2.804
63914SOL     OW91765  12.310   5.966   3.540
63914SOL    HW191766  12.265   6.029   3.604
63914SOL    HW291767  12.403   5.997   3.523
63915SOL     OW91768  12.332   5.793   3.339
63915SOL    HW191769  12.332   5.857   3.416
63915SOL    HW291770  12.360   5.841   3.256
63916SOL     OW91771  11.180   6.912   2.062
63916SOL    HW191772  11.087   6.933   2.031
63916SOL    HW291773  11.190   6.813   2.075
63917SOL     OW91774  11.260   7.387   2.789
63917SOL    HW191775  11.218   7.301   2.762
63917SOL    HW291776  11.354   7.390   2.755
63918SOL     OW91777  11.676   7.154   2.772
63918SOL    HW191778  11.742   7.228   2.781
63918SOL    HW291779  11.720   7.075   2.730
63919SOL     OW91780  12.174   6.382   3.100
63919SOL    HW191781  12.215   6.350   3.186
63919SOL    HW291782  12.078   6.355   3.097
63920SOL     OW91783  11.212   6.130   2.976
63920SOL    HW191784  11.297   6.097   2.935
63920SOL    HW291785  11.225   6.145   3.074
63921SOL     OW91786  11.361   6.106   3.584
63921SOL    HW191787  11.420   6.066   3.514
63921SOL    HW291788  11.303   6.177   3.543
63922SOL     OW91789  12.541   6.536   3.522
63922SOL    HW191790  12.580   6.625   3.542
63922SOL    HW291791  12.551   6.516   3.425
63923SOL     OW91792  11.987   6.158   2.187
63923SOL    HW191793  11.994   6.069   2.141
63923SOL    HW291794  11.893   6.192   2.179
63924SOL     OW91795  11.424   7.150   3.606
63924SOL    HW191796  11.394   7.207   3.682
63924SOL    HW291797  11.417   7.053   3.632
63925SOL     OW91798  11.843   6.050   3.131
63925SOL    HW191799  11.809   5.961   3.101
63925SOL    HW291800  11.869   6.104   3.051
63926SOL     OW91801  12.102   7.264   3.327
63926SOL    HW191802  12.078   7.246   3.232
63926SOL    HW291803  12.132   7.358   3.337
63927SOL     OW91804  11.645   6.086   2.053
63927SOL    HW191805  11.706   6.166   2.057
63927SOL    HW291806  11.550   6.117   2.060
63928SOL     OW91807  11.331   6.723   3.328
63928SOL    HW191808  11.353   6.662   3.404
63928SOL    HW291809  11.341   6.674   3.242
63929SOL     OW91810  12.519   6.645   3.096
63929SOL    HW191811  12.543   6.582   3.022
63929SOL    HW291812  12.429   6.685   3.078
63930SOL     OW91813  12.474   6.441   2.171
63930SOL    HW191814  12.388   6.410   2.213
63930SOL    HW291815  12.470   6.427   2.072
63931SOL     OW91816  12.424   7.317   2.990
63931SOL    HW191817  12.508   7.322   2.936
63931SOL    HW291818  12.401   7.221   3.008
63932SOL     OW91819  11.255   6.844   2.884
63932SOL    HW191820  11.250   6.843   2.984
63932SOL    HW291821  11.172   6.803   2.846
63933SOL     OW91822  11.860   7.248   3.578
63933SOL    HW191823  11.804   7.329   3.587
63933SOL    HW291824  11.912   7.252   3.492
63934SOL     OW91825  12.898   5.721   2.385
63934SOL    HW191826  12.971   5.704   2.318
63934SOL    HW291827  12.867   5.634   2.423
63935SOL     OW91828  12.560   7.159   2.339
63935SOL    HW191829  12.627   7.171   2.265
63935SOL    HW291830  12.520   7.248   2.362
63936SOL     OW91831  11.302   7.380   3.713
63936SOL    HW191832  11.261   7.306   3.766
63936SOL    HW291833  11.366   7.431   3.771
63937SOL     OW91834  12.452   6.513   2.534
63937SOL    HW191835  12.512   6.432   2.536
63937SOL    HW291836  12.492   6.582   2.474
63938SOL     OW91837  12.002   6.859   3.284
63938SOL    HW191838  11.997   6.892   3.379
63938SOL    HW291839  11.916   6.878   3.238
63939SOL     OW91840  11.844   7.202   2.016
63939SOL    HW191841  11.853   7.212   1.917
63939SOL    HW291842  11.804   7.113   2.037
63940SOL     OW91843  11.435   5.912   2.582
63940SOL    HW191844  11.356   5.963   2.548
63940SOL    HW291845  11.426   5.897   2.680
63941SOL     OW91846  12.366   7.198   1.893
63941SOL    HW191847  12.372   7.105   1.930
63941SOL    HW291848  12.307   7.198   1.813
63942SOL     OW91849  11.994   6.588   3.234
63942SOL    HW191850  12.034   6.587   3.142
63942SOL    HW291851  12.004   6.680   3.274
63943SOL     OW91852  12.088   6.496   2.153
63943SOL    HW191853  12.151   6.534   2.085
63943SOL    HW291854  12.128   6.413   2.192
63944SOL     OW91855  12.676   7.193   1.906
63944SOL    HW191856  12.584   7.230   1.913
63944SOL    HW291857  12.714   7.213   1.816
63945SOL     OW91858  11.544   6.874   3.352
63945SOL    HW191859  11.531   6.967   3.318
63945SOL    HW291860  11.460   6.822   3.339
63946SOL     OW91861  12.211   6.684   2.558
63946SOL    HW191862  12.141   6.637   2.612
63946SOL    HW291863  12.270   6.616   2.515
63947SOL     OW91864  12.186   5.822   2.833
63947SOL    HW191865  12.178   5.786   2.740
63947SOL    HW291866  12.184   5.746   2.898
63948SOL     OW91867  11.762   7.073   2.353
63948SOL    HW191868  11.804   7.015   2.283
63948SOL    HW291869  11.718   7.152   2.309
63949SOL     OW91870  11.427   6.934   2.152
63949SOL    HW191871  11.331   6.935   2.125
63949SOL    HW291872  11.439   6.987   2.236
63950SOL     OW91873  11.277   6.599   3.588
63950SOL    HW191874  11.200   6.566   3.642
63950SOL    HW291875  11.362   6.569   3.630
63951SOL     OW91876  11.844   5.789   3.351
63951SOL    HW191877  11.934   5.773   3.311
63951SOL    HW291878  11.852   5.794   3.450
63952SOL     OW91879  11.247   5.931   1.895
63952SOL    HW191880  11.155   5.903   1.866
63952SOL    HW291881  11.278   6.008   1.839
63953SOL     OW91882  12.612   6.442   3.260
63953SOL    HW191883  12.555   6.494   3.197
63953SOL    HW291884  12.708   6.454   3.236
63954SOL     OW91885  11.244   5.752   2.180
63954SOL    HW191886  11.227   5.835   2.126
63954SOL    HW291887  11.334   5.715   2.158
63955SOL     OW91888  12.355   6.921   1.981
63955SOL    HW191889  12.256   6.910   1.983
63955SOL    HW291890  12.389   6.936   2.074
63956SOL     OW91891  11.785   6.428   3.293
63956SOL    HW191892  11.841   6.509   3.276
63956SOL    HW291893  11.844   6.348   3.296
63957SOL     OW91894  12.665   7.353   2.821
63957SOL    HW191895  12.698   7.417   2.752
63957SOL    HW291896  12.731   7.347   2.896
63958SOL     OW91897  11.888   6.151   3.570
63958SOL    HW191898  11.907   6.216   3.644
63958SOL    HW291899  11.948   6.071   3.579
63959SOL     OW91900  12.622   6.806   3.495
63959SOL    HW191901  12.613   6.796   3.594
63959SOL    HW291902  12.718   6.799   3.469
63960SOL     OW91903  11.562   7.327   3.422
63960SOL    HW191904  11.471   7.368   3.420
63960SOL    HW291905  11.555   7.233   3.454
63961SOL     OW91906  12.397   5.911   2.311
63961SOL    HW191907  12.462   5.837   2.300
63961SOL    HW291908  12.417   5.961   2.395
63962SOL     OW91909  11.766   6.331   2.514
63962SOL    HW191910  11.816   6.416   2.495
63962SOL    HW291911  11.678   6.333   2.466
63963SOL     OW91912  12.031   6.960   1.878
63963SOL    HW191913  11.985   6.975   1.966
63963SOL    HW291914  12.075   7.045   1.848
63964SOL     OW91915  11.833   7.376   2.815
63964SOL    HW191916  11.787   7.464   2.802
63964SOL    HW291917  11.932   7.388   2.808
63965SOL     OW91918  12.031   6.542   2.723
63965SOL    HW191919  12.085   6.473   2.771
63965SOL    HW291920  11.999   6.611   2.789
63966SOL     OW91921  12.255   6.570   1.949
63966SOL    HW191922  12.232   6.623   1.867
63966SOL    HW291923  12.336   6.514   1.930
63967SOL     OW91924  13.033   7.155   2.713
63967SOL    HW191925  12.962   7.143   2.643
63967SOL    HW291926  13.034   7.076   2.773
63968SOL     OW91927  11.393   6.900   3.706
63968SOL    HW191928  11.328   6.827   3.685
63968SOL    HW291929  11.397   6.914   3.804
63969SOL     OW91930  11.251   6.826   2.515
63969SOL    HW191931  11.250   6.779   2.603
63969SOL    HW291932  11.333   6.798   2.464
63970SOL     OW91933  11.844   6.977   3.486
63970SOL    HW191934  11.766   6.927   3.524
63970SOL    HW291935  11.841   7.072   3.517
63971SOL     OW91936  11.600   6.010   2.382
63971SOL    HW191937  11.630   5.938   2.320
63971SOL    HW291938  11.561   5.970   2.465
63972SOL     OW91939  11.489   6.133   3.142
63972SOL    HW191940  11.527   6.074   3.214
63972SOL    HW291941  11.529   6.107   3.054
63973SOL     OW91942  11.984   7.172   2.549
63973SOL    HW191943  12.016   7.182   2.455
63973SOL    HW291944  11.905   7.110   2.551
63974SOL     OW91945  12.596   5.800   2.974
63974SOL    HW191946  12.648   5.735   3.029
63974SOL    HW291947  12.547   5.863   3.035
63975SOL     OW91948  12.173   5.620   3.016
63975SOL    HW191949  12.110   5.548   2.985
63975SOL    HW291950  12.266   5.584   3.016
63976SOL     OW91951  11.942   6.916   2.163
63976SOL    HW191952  11.896   6.829   2.180
63976SOL    HW291953  12.033   6.913   2.204
63977SOL     OW91954  11.790   7.153   3.146
63977SOL    HW191955  11.785   7.235   3.203
63977SOL    HW291956  11.879   7.150   3.101
63978SOL     OW91957  12.524   5.638   2.030
63978SOL    HW191958  12.559   5.597   1.946
63978SOL    HW291959  12.434   5.600   2.050
63979SOL     OW91960  12.472   6.039   2.553
63979SOL    HW191961  12.413   6.119   2.557
63979SOL    HW291962  12.487   6.004   2.646
63980SOL     OW91963  12.765   5.807   2.744
63980SOL    HW191964  12.681   5.806   2.798
63980SOL    HW291965  12.767   5.890   2.688
63981SOL     OW91966  11.211   6.663   2.162
63981SOL    HW191967  11.310   6.652   2.153
63981SOL    HW291968  11.171   6.577   2.194
63982SOL     OW91969  12.047   7.232   2.199
63982SOL    HW191970  11.970   7.197   2.145
63982SOL    HW291971  12.015   7.303   2.261
63983SOL     OW91972  11.402   6.214   3.837
63983SOL    HW191973  11.309   6.212   3.874
63983SOL    HW291974  11.403   6.175   3.745
63984SOL     OW91975  11.397   5.861   4.720
63984SOL    HW191976  11.432   5.844   4.812
63984SOL    HW291977  11.309   5.816   4.708
63985SOL     OW91978  11.191   5.954   4.371
63985SOL    HW191979  11.109   5.997   4.410
63985SOL    HW291980  11.163   5.881   4.308
63986SOL     OW91981  11.741   6.861   4.889
63986SOL    HW191982  11.648   6.854   4.852
63986SOL    HW291983  11.752   6.950   4.933
63987SOL     OW91984  12.727   7.097   4.427
63987SOL    HW191985  12.670   7.081   4.508
63987SOL    HW291986  12.668   7.107   4.347
63988SOL     OW91987  12.307   6.289   4.441
63988SOL    HW191988  12.364   6.367   4.416
63988SOL    HW291989  12.247   6.315   4.517
63989SOL     OW91990  11.940   6.730   4.747
63989SOL    HW191991  11.862   6.747   4.807
63989SOL    HW291992  11.974   6.817   4.711
63990SOL     OW91993  12.022   6.384   5.547
63990SOL    HW191994  12.018   6.460   5.612
63990SOL    HW291995  12.044   6.420   5.456
63991SOL     OW91996  11.857   6.598   4.389
63991SOL    HW191997  11.926   6.582   4.459
63991SOL    HW291998  11.784   6.655   4.427
63992SOL     OW91999  11.858   6.747   5.527
63992SOL    HW192000  11.918   6.826   5.541
63992SOL    HW292001  11.772   6.778   5.486
63993SOL     OW92002  11.507   7.021   4.785
63993SOL    HW192003  11.429   6.990   4.732
63993SOL    HW292004  11.565   7.079   4.728
63994SOL     OW92005  12.632   7.091   5.063
63994SOL    HW192006  12.656   7.185   5.089
63994SOL    HW292007  12.616   7.037   5.145
63995SOL     OW92008  11.610   5.978   5.223
63995SOL    HW192009  11.692   5.922   5.232
63995SOL    HW292010  11.529   5.920   5.227
63996SOL     OW92011  11.403   7.299   4.207
63996SOL    HW192012  11.437   7.376   4.261
63996SOL    HW292013  11.447   7.299   4.117
63997SOL     OW92014  12.299   6.927   5.414
63997SOL    HW192015  12.346   6.927   5.502
63997SOL    HW292016  12.251   6.840   5.403
63998SOL     OW92017  11.402   7.020   4.262
63998SOL    HW192018  11.376   7.116   4.262
63998SOL    HW292019  11.331   6.966   4.307
63999SOL     OW92020  11.412   6.677   4.610
63999SOL    HW192021  11.426   6.593   4.662
63999SOL    HW292022  11.357   6.741   4.665
64000SOL     OW92023  11.792   7.372   5.163
64000SOL    HW192024  11.700   7.355   5.198
64000SOL    HW292025  11.820   7.464   5.189
64001SOL     OW92026  11.778   6.550   3.847
64001SOL    HW192027  11.785   6.634   3.793
64001SOL    HW292028  11.824   6.563   3.935
64002SOL     OW92029  12.766   5.700   5.204
64002SOL    HW192030  12.748   5.767   5.132
64002SOL    HW292031  12.763   5.746   5.293
64003SOL     OW92032  11.294   6.229   4.287
64003SOL    HW192033  11.249   6.141   4.304
64003SOL    HW292034  11.293   6.283   4.371
64004SOL     OW92035  11.199   7.182   3.841
64004SOL    HW192036  11.180   7.086   3.862
64004SOL    HW292037  11.166   7.240   3.916
64005SOL     OW92038  12.861   6.508   4.336
64005SOL    HW192039  12.956   6.479   4.344
64005SOL    HW292040  12.853   6.573   4.261
64006SOL     OW92041  11.285   6.323   5.321
64006SOL    HW192042  11.373   6.310   5.366
64006SOL    HW292043  11.272   6.420   5.299
64007SOL     OW92044  11.785   6.951   4.450
64007SOL    HW192045  11.736   6.864   4.459
64007SOL    HW292046  11.762   6.994   4.363
64008SOL     OW92047  12.465   6.814   5.147
64008SOL    HW192048  12.502   6.741   5.089
64008SOL    HW292049  12.517   6.819   5.232
64009SOL     OW92050  11.981   5.590   4.226
64009SOL    HW192051  12.021   5.681   4.217
64009SOL    HW292052  11.881   5.598   4.232
64010SOL     OW92053  11.369   6.562   4.988
64010SOL    HW192054  11.458   6.517   4.974
64010SOL    HW292055  11.296   6.497   4.969
64011SOL     OW92056  12.359   7.378   5.340
64011SOL    HW192057  12.383   7.438   5.264
64011SOL    HW292058  12.366   7.283   5.310
64012SOL     OW92059  11.489   5.837   5.525
64012SOL    HW192060  11.560   5.908   5.531
64012SOL    HW292061  11.401   5.876   5.553
64013SOL     OW92062  12.638   7.003   4.677
64013SOL    HW192063  12.579   7.009   4.757
64013SOL    HW292064  12.623   6.915   4.631
64014SOL     OW92065  12.839   7.300   4.296
64014SOL    HW192066  12.798   7.277   4.208
64014SOL    HW292067  12.821   7.226   4.361
64015SOL     OW92068  11.770   6.315   3.994
64015SOL    HW192069  11.794   6.384   3.926
64015SOL    HW292070  11.692   6.348   4.048
64016SOL     OW92071  12.453   5.931   4.668
64016SOL    HW192072  12.367   5.881   4.655
64016SOL    HW292073  12.515   5.877   4.724
64017SOL     OW92074  11.979   6.191   5.189
64017SOL    HW192075  11.932   6.188   5.278
64017SOL    HW292076  11.928   6.136   5.123
64018SOL     OW92077  12.566   6.055   5.398
64018SOL    HW192078  12.546   6.098   5.486
64018SOL    HW292079  12.644   5.993   5.407
64019SOL     OW92080  12.145   6.476   5.296
64019SOL    HW192081  12.191   6.392   5.267
64019SOL    HW292082  12.089   6.510   5.221
64020SOL     OW92083  12.163   5.996   4.966
64020SOL    HW192084  12.086   6.030   5.020
64020SOL    HW292085  12.129   5.945   4.887
64021SOL     OW92086  12.213   6.287   4.153
64021SOL    HW192087  12.239   6.283   4.249
64021SOL    HW292088  12.128   6.236   4.139
64022SOL     OW92089  11.248   6.397   4.513
64022SOL    HW192090  11.347   6.385   4.522
64022SOL    HW292091  11.224   6.492   4.534
64023SOL     OW92092  11.302   7.407   5.295
64023SOL    HW192093  11.292   7.392   5.394
64023SOL    HW292094  11.216   7.443   5.259
64024SOL     OW92095  12.037   5.934   3.919
64024SOL    HW192096  12.096   5.997   3.870
64024SOL    HW292097  12.056   5.840   3.890
64025SOL     OW92098  12.534   6.730   4.269
64025SOL    HW192099  12.617   6.701   4.221
64025SOL    HW292100  12.485   6.797   4.213
64026SOL     OW92101  11.722   5.782   4.609
64026SOL    HW192102  11.717   5.777   4.709
64026SOL    HW292103  11.724   5.878   4.580
64027SOL     OW92104  12.180   7.042   4.201
64027SOL    HW192105  12.134   7.114   4.149
64027SOL    HW292106  12.176   7.062   4.299
64028SOL     OW92107  11.523   7.387   4.577
64028SOL    HW192108  11.573   7.301   4.583
64028SOL    HW292109  11.588   7.464   4.574
64029SOL     OW92110  12.399   7.136   5.230
64029SOL    HW192111  12.405   7.059   5.294
64029SOL    HW292112  12.347   7.110   5.150
64030SOL     OW92113  11.493   6.529   3.966
64030SOL    HW192114  11.575   6.568   3.924
64030SOL    HW292115  11.466   6.447   3.917
64031SOL     OW92116  12.630   6.321   4.452
64031SOL    HW192117  12.625   6.256   4.527
64031SOL    HW292118  12.710   6.380   4.465
64032SOL     OW92119  11.633   6.852   5.451
64032SOL    HW192120  11.583   6.853   5.365
64032SOL    HW292121  11.570   6.834   5.527
64033SOL     OW92122  12.283   7.362   3.961
64033SOL    HW192123  12.223   7.300   4.011
64033SOL    HW292124  12.314   7.318   3.876
64034SOL     OW92125  11.374   5.871   5.222
64034SOL    HW192126  11.294   5.931   5.209
64034SOL    HW292127  11.364   5.822   5.308
64035SOL     OW92128  11.636   7.329   4.047
64035SOL    HW192129  11.669   7.368   4.133
64035SOL    HW292130  11.712   7.322   3.982
64036SOL     OW92131  12.572   5.693   4.150
64036SOL    HW192132  12.548   5.656   4.060
64036SOL    HW292133  12.671   5.709   4.154
64037SOL     OW92134  11.421   7.371   4.965
64037SOL    HW192135  11.478   7.306   5.015
64037SOL    HW292136  11.405   7.338   4.872
64038SOL     OW92137  12.112   7.284   4.628
64038SOL    HW192138  12.192   7.227   4.649
64038SOL    HW292139  12.063   7.244   4.551
64039SOL     OW92140  11.554   6.286   4.204
64039SOL    HW192141  11.599   6.196   4.201
64039SOL    HW292142  11.460   6.275   4.237
64040SOL     OW92143  11.786   5.708   3.841
64040SOL    HW192144  11.884   5.686   3.848
64040SOL    HW292145  11.755   5.691   3.748
64041SOL     OW92146  11.953   5.850   5.473
64041SOL    HW192147  12.020   5.789   5.516
64041SOL    HW292148  11.880   5.869   5.538
64042SOL     OW92149  12.060   7.100   4.919
64042SOL    HW192150  12.037   7.075   4.825
64042SOL    HW292151  12.121   7.031   4.958
64043SOL     OW92152  12.523   6.176   5.157
64043SOL    HW192153  12.551   6.133   5.242
64043SOL    HW292154  12.548   6.272   5.158
64044SOL     OW92155  11.975   6.988   4.648
64044SOL    HW192156  12.065   7.002   4.606
64044SOL    HW292157  11.904   6.990   4.577
64045SOL     OW92158  12.094   6.089   4.623
64045SOL    HW192159  12.069   6.080   4.527
64045SOL    HW292160  12.142   6.007   4.654
64046SOL     OW92161  12.606   6.774   3.765
64046SOL    HW192162  12.638   6.698   3.822
64046SOL    HW292163  12.514   6.801   3.795
64047SOL     OW92164  11.469   5.621   3.895
64047SOL    HW192165  11.518   5.705   3.874
64047SOL    HW292166  11.531   5.556   3.940
64048SOL     OW92167  12.107   5.822   4.204
64048SOL    HW192168  12.059   5.863   4.126
64048SOL    HW292169  12.206   5.820   4.185
64049SOL     OW92170  12.248   6.269   5.188
64049SOL    HW192171  12.168   6.208   5.191
64049SOL    HW292172  12.329   6.216   5.164
64050SOL     OW92173  12.399   7.156   4.517
64050SOL    HW192174  12.420   7.230   4.452
64050SOL    HW292175  12.467   7.156   4.590
64051SOL     OW92176  11.631   6.738   4.465
64051SOL    HW192177  11.560   6.711   4.530
64051SOL    HW292178  11.605   6.710   4.372
64052SOL     OW92179  12.443   7.383   4.315
64052SOL    HW192180  12.487   7.447   4.251
64052SOL    HW292181  12.393   7.435   4.385
64053SOL     OW92182  12.204   6.135   3.740
64053SOL    HW192183  12.163   6.217   3.701
64053SOL    HW292184  12.268   6.161   3.813
64054SOL     OW92185  11.250   6.142   5.110
64054SOL    HW192186  11.342   6.141   5.069
64054SOL    HW292187  11.244   6.216   5.177
64055SOL     OW92188  11.733   5.808   4.871
64055SOL    HW192189  11.771   5.724   4.908
64055SOL    HW292190  11.645   5.827   4.915
64056SOL     OW92191  12.038   6.040   4.366
64056SOL    HW192192  12.006   6.112   4.304
64056SOL    HW292193  12.062   5.959   4.313
64057SOL     OW92194  12.189   5.625   4.477
64057SOL    HW192195  12.117   5.630   4.408
64057SOL    HW292196  12.165   5.556   4.546
64058SOL     OW92197  12.601   6.759   4.591
64058SOL    HW192198  12.546   6.675   4.584
64058SOL    HW292199  12.627   6.788   4.499
64059SOL     OW92200  12.638   6.176   4.716
64059SOL    HW192201  12.608   6.081   4.723
64059SOL    HW292202  12.711   6.192   4.782
64060SOL     OW92203  11.660   6.971   3.898
64060SOL    HW192204  11.573   6.956   3.945
64060SOL    HW292205  11.643   6.997   3.803
64061SOL     OW92206  12.562   6.161   3.802
64061SOL    HW192207  12.508   6.140   3.883
64061SOL    HW292208  12.653   6.120   3.811
64062SOL     OW92209  11.699   5.842   4.052
64062SOL    HW192210  11.726   5.783   3.977
64062SOL    HW292211  11.699   5.937   4.021
64063SOL     OW92212  12.236   6.933   5.064
64063SOL    HW192213  12.156   6.910   5.119
64063SOL    HW292214  12.319   6.907   5.113
64064SOL     OW92215  12.764   7.215   5.349
64064SOL    HW192216  12.791   7.249   5.259
64064SOL    HW292217  12.843   7.177   5.395
64065SOL     OW92218  12.283   6.781   4.824
64065SOL    HW192219  12.243   6.825   4.905
64065SOL    HW292220  12.242   6.818   4.741
64066SOL     OW92221  12.087   5.675   5.126
64066SOL    HW192222  12.112   5.655   5.031
64066SOL    HW292223  12.159   5.731   5.168
64067SOL     OW92224  12.152   6.702   5.443
64067SOL    HW192225  12.053   6.708   5.453
64067SOL    HW292226  12.175   6.622   5.387
64068SOL     OW92227  11.877   6.636   4.092
64068SOL    HW192228  11.863   6.643   4.191
64068SOL    HW292229  11.961   6.585   4.074
64069SOL     OW92230  11.582   6.399   4.975
64069SOL    HW192231  11.668   6.411   5.025
64069SOL    HW292232  11.540   6.312   5.002
64070SOL     OW92233  12.446   5.972   4.986
64070SOL    HW192234  12.467   6.046   5.050
64070SOL    HW292235  12.357   5.989   4.943
64071SOL     OW92236  11.236   7.150   5.055
64071SOL    HW192237  11.190   7.232   5.021
64071SOL    HW292238  11.334   7.169   5.064
64072SOL     OW92239  11.539   6.686   4.225
64072SOL    HW192240  11.532   6.769   4.169
64072SOL    HW292241  11.543   6.606   4.165
64073SOL     OW92242  11.738   6.123   4.589
64073SOL    HW192243  11.750   6.189   4.515
64073SOL    HW292244  11.784   6.157   4.672
64074SOL     OW92245  12.424   6.934   4.112
64074SOL    HW192246  12.474   7.011   4.152
64074SOL    HW292247  12.329   6.936   4.144
64075SOL     OW92248  12.444   7.031   4.866
64075SOL    HW192249  12.491   7.044   4.953
64075SOL    HW292250  12.378   6.957   4.875
64076SOL     OW92251  12.754   6.225   4.196
64076SOL    HW192252  12.723   6.286   4.269
64076SOL    HW292253  12.804   6.277   4.127
64077SOL     OW92254  11.526   7.096   5.053
64077SOL    HW192255  11.505   7.052   4.966
64077SOL    HW292256  11.623   7.122   5.056
64078SOL     OW92257  11.574   6.337   5.322
64078SOL    HW192258  11.642   6.392   5.275
64078SOL    HW292259  11.614   6.249   5.349
64079SOL     OW92260  12.185   5.691   5.494
64079SOL    HW192261  12.191   5.776   5.442
64079SOL    HW292262  12.217   5.615   5.437
64080SOL     OW92263  11.676   5.636   5.464
64080SOL    HW192264  11.634   5.579   5.394
64080SOL    HW292265  11.610   5.705   5.496
64081SOL     OW92266  11.745   6.456   4.753
64081SOL    HW192267  11.789   6.545   4.744
64081SOL    HW292268  11.682   6.456   4.830
64082SOL     OW92269  12.532   6.448   4.769
64082SOL    HW192270  12.457   6.448   4.703
64082SOL    HW292271  12.569   6.356   4.778
64083SOL     OW92272  12.381   6.111   3.999
64083SOL    HW192273  12.394   6.027   4.053
64083SOL    HW292274  12.352   6.185   4.059
64084SOL     OW92275  11.479   5.799   4.955
64084SOL    HW192276  11.456   5.836   5.045
64084SOL    HW292277  11.449   5.704   4.949
64085SOL     OW92278  11.209   6.896   5.006
64085SOL    HW192279  11.262   6.847   5.074
64085SOL    HW292280  11.231   6.994   5.011
64086SOL     OW92281  11.904   6.220   4.788
64086SOL    HW192282  11.963   6.194   4.712
64086SOL    HW292283  11.876   6.316   4.777
64087SOL     OW92284  11.479   5.649   4.342
64087SOL    HW192285  11.468   5.743   4.375
64087SOL    HW292286  11.474   5.586   4.419
64088SOL     OW92287  12.794   5.953   4.098
64088SOL    HW192288  12.796   5.877   4.162
64088SOL    HW292289  12.746   6.030   4.138
64089SOL     OW92290  12.195   6.352   4.690
64089SOL    HW192291  12.210   6.373   4.786
64089SOL    HW292292  12.165   6.257   4.681
64090SOL     OW92293  12.152   7.159   5.424
64090SOL    HW192294  12.132   7.203   5.336
64090SOL    HW292295  12.191   7.068   5.408
64091SOL     OW92296  11.522   6.484   5.528
64091SOL    HW192297  11.598   6.528   5.576
64091SOL    HW292298  11.557   6.437   5.446
64092SOL     OW92299  12.712   5.860   3.849
64092SOL    HW192300  12.651   5.785   3.872
64092SOL    HW292301  12.734   5.912   3.932
64093SOL     OW92302  12.475   6.424   3.766
64093SOL    HW192303  12.509   6.331   3.781
64093SOL    HW292304  12.493   6.451   3.671
64094SOL     OW92305  12.240   6.919   4.573
64094SOL    HW192306  12.247   6.835   4.518
64094SOL    HW292307  12.302   6.988   4.537
64095SOL     OW92308  11.491   6.396   4.673
64095SOL    HW192309  11.584   6.432   4.678
64095SOL    HW292310  11.485   6.311   4.725
64096SOL     OW92311  11.511   6.095   4.730
64096SOL    HW192312  11.459   6.012   4.713
64096SOL    HW292313  11.588   6.100   4.666
64097SOL     OW92314  12.310   5.966   5.402
64097SOL    HW192315  12.265   6.029   5.466
64097SOL    HW292316  12.403   5.997   5.385
64098SOL     OW92317  12.332   5.793   5.201
64098SOL    HW192318  12.332   5.857   5.278
64098SOL    HW292319  12.360   5.841   5.118
64099SOL     OW92320  11.180   6.912   3.924
64099SOL    HW192321  11.087   6.933   3.893
64099SOL    HW292322  11.190   6.813   3.937
64100SOL     OW92323  11.260   7.387   4.651
64100SOL    HW192324  11.218   7.301   4.624
64100SOL    HW292325  11.354   7.390   4.617
64101SOL     OW92326  11.676   7.154   4.634
64101SOL    HW192327  11.742   7.228   4.643
64101SOL    HW292328  11.720   7.075   4.592
64102SOL     OW92329  12.174   6.382   4.962
64102SOL    HW192330  12.215   6.350   5.048
64102SOL    HW292331  12.078   6.355   4.959
64103SOL     OW92332  11.212   6.130   4.838
64103SOL    HW192333  11.297   6.097   4.797
64103SOL    HW292334  11.225   6.145   4.936
64104SOL     OW92335  11.361   6.106   5.446
64104SOL    HW192336  11.420   6.066   5.376
64104SOL    HW292337  11.303   6.177   5.405
64105SOL     OW92338  12.541   6.536   5.384
64105SOL    HW192339  12.580   6.625   5.404
64105SOL    HW292340  12.551   6.516   5.287
64106SOL     OW92341  11.987   6.158   4.049
64106SOL    HW192342  11.994   6.069   4.003
64106SOL    HW292343  11.893   6.192   4.041
64107SOL     OW92344  11.424   7.150   5.468
64107SOL    HW192345  11.394   7.207   5.544
64107SOL    HW292346  11.417   7.053   5.494
64108SOL     OW92347  11.843   6.050   4.993
64108SOL    HW192348  11.809   5.961   4.963
64108SOL    HW292349  11.869   6.104   4.913
64109SOL     OW92350  12.102   7.264   5.189
64109SOL    HW192351  12.078   7.246   5.094
64109SOL    HW292352  12.132   7.358   5.199
64110SOL     OW92353  11.645   6.086   3.915
64110SOL    HW192354  11.706   6.166   3.919
64110SOL    HW292355  11.550   6.117   3.922
64111SOL     OW92356  11.331   6.723   5.190
64111SOL    HW192357  11.353   6.662   5.266
64111SOL    HW292358  11.341   6.674   5.104
64112SOL     OW92359  12.519   6.645   4.958
64112SOL    HW192360  12.543   6.582   4.884
64112SOL    HW292361  12.429   6.685   4.940
64113SOL     OW92362  12.474   6.441   4.033
64113SOL    HW192363  12.388   6.410   4.075
64113SOL    HW292364  12.470   6.427   3.934
64114SOL     OW92365  12.424   7.317   4.852
64114SOL    HW192366  12.508   7.322   4.798
64114SOL    HW292367  12.401   7.221   4.870
64115SOL     OW92368  11.255   6.844   4.746
64115SOL    HW192369  11.250   6.843   4.846
64115SOL    HW292370  11.172   6.803   4.708
64116SOL     OW92371  11.860   7.248   5.440
64116SOL    HW192372  11.804   7.329   5.449
64116SOL    HW292373  11.912   7.252   5.354
64117SOL     OW92374  12.898   5.721   4.247
64117SOL    HW192375  12.971   5.704   4.180
64117SOL    HW292376  12.867   5.634   4.285
64118SOL     OW92377  12.560   7.159   4.201
64118SOL    HW192378  12.627   7.171   4.127
64118SOL    HW292379  12.520   7.248   4.224
64119SOL     OW92380  11.302   7.380   5.575
64119SOL    HW192381  11.261   7.306   5.628
64119SOL    HW292382  11.366   7.431   5.633
64120SOL     OW92383  12.452   6.513   4.396
64120SOL    HW192384  12.512   6.432   4.398
64120SOL    HW292385  12.492   6.582   4.336
64121SOL     OW92386  12.002   6.859   5.146
64121SOL    HW192387  11.997   6.892   5.241
64121SOL    HW292388  11.916   6.878   5.100
64122SOL     OW92389  11.844   7.202   3.878
64122SOL    HW192390  11.853   7.212   3.779
64122SOL    HW292391  11.804   7.113   3.899
64123SOL     OW92392  11.435   5.912   4.444
64123SOL    HW192393  11.356   5.963   4.410
64123SOL    HW292394  11.426   5.897   4.542
64124SOL     OW92395  12.366   7.198   3.755
64124SOL    HW192396  12.372   7.105   3.792
64124SOL    HW292397  12.307   7.198   3.675
64125SOL     OW92398  11.994   6.588   5.096
64125SOL    HW192399  12.034   6.587   5.004
64125SOL    HW292400  12.004   6.680   5.136
64126SOL     OW92401  12.088   6.496   4.015
64126SOL    HW192402  12.151   6.534   3.947
64126SOL    HW292403  12.128   6.413   4.054
64127SOL     OW92404  12.676   7.193   3.768
64127SOL    HW192405  12.584   7.230   3.775
64127SOL    HW292406  12.714   7.213   3.678
64128SOL     OW92407  11.544   6.874   5.214
64128SOL    HW192408  11.531   6.967   5.180
64128SOL    HW292409  11.460   6.822   5.201
64129SOL     OW92410  12.211   6.684   4.420
64129SOL    HW192411  12.141   6.637   4.474
64129SOL    HW292412  12.270   6.616   4.377
64130SOL     OW92413  12.186   5.822   4.695
64130SOL    HW192414  12.178   5.786   4.602
64130SOL    HW292415  12.184   5.746   4.760
64131SOL     OW92416  11.762   7.073   4.215
64131SOL    HW192417  11.804   7.015   4.145
64131SOL    HW292418  11.718   7.152   4.171
64132SOL     OW92419  11.427   6.934   4.014
64132SOL    HW192420  11.331   6.935   3.987
64132SOL    HW292421  11.439   6.987   4.098
64133SOL     OW92422  11.277   6.599   5.450
64133SOL    HW192423  11.200   6.566   5.504
64133SOL    HW292424  11.362   6.569   5.492
64134SOL     OW92425  11.844   5.789   5.213
64134SOL    HW192426  11.934   5.773   5.173
64134SOL    HW292427  11.852   5.794   5.312
64135SOL     OW92428  11.247   5.931   3.757
64135SOL    HW192429  11.155   5.903   3.728
64135SOL    HW292430  11.278   6.008   3.701
64136SOL     OW92431  12.612   6.442   5.122
64136SOL    HW192432  12.555   6.494   5.059
64136SOL    HW292433  12.708   6.454   5.098
64137SOL     OW92434  11.244   5.752   4.042
64137SOL    HW192435  11.227   5.835   3.988
64137SOL    HW292436  11.334   5.715   4.020
64138SOL     OW92437  12.355   6.921   3.843
64138SOL    HW192438  12.256   6.910   3.845
64138SOL    HW292439  12.389   6.936   3.936
64139SOL     OW92440  11.785   6.428   5.155
64139SOL    HW192441  11.841   6.509   5.138
64139SOL    HW292442  11.844   6.348   5.158
64140SOL     OW92443  11.888   6.151   5.432
64140SOL    HW192444  11.907   6.216   5.506
64140SOL    HW292445  11.948   6.071   5.441
64141SOL     OW92446  12.622   6.806   5.357
64141SOL    HW192447  12.613   6.796   5.456
64141SOL    HW292448  12.718   6.799   5.331
64142SOL     OW92449  11.562   7.327   5.284
64142SOL    HW192450  11.471   7.368   5.282
64142SOL    HW292451  11.555   7.233   5.316
64143SOL     OW92452  12.397   5.911   4.173
64143SOL    HW192453  12.462   5.837   4.162
64143SOL    HW292454  12.417   5.961   4.257
64144SOL     OW92455  11.766   6.331   4.376
64144SOL    HW192456  11.816   6.416   4.357
64144SOL    HW292457  11.678   6.333   4.328
64145SOL     OW92458  12.031   6.960   3.740
64145SOL    HW192459  11.985   6.975   3.828
64145SOL    HW292460  12.075   7.045   3.710
64146SOL     OW92461  11.833   7.376   4.677
64146SOL    HW192462  11.787   7.464   4.664
64146SOL    HW292463  11.932   7.388   4.670
64147SOL     OW92464  12.031   6.542   4.585
64147SOL    HW192465  12.085   6.473   4.633
64147SOL    HW292466  11.999   6.611   4.651
64148SOL     OW92467  12.255   6.570   3.811
64148SOL    HW192468  12.232   6.623   3.729
64148SOL    HW292469  12.336   6.514   3.792
64149SOL     OW92470  13.033   7.155   4.575
64149SOL    HW192471  12.962   7.143   4.505
64149SOL    HW292472  13.034   7.076   4.635
64150SOL     OW92473  11.393   6.900   5.568
64150SOL    HW192474  11.328   6.827   5.547
64150SOL    HW292475  11.397   6.914   5.666
64151SOL     OW92476  11.251   6.826   4.377
64151SOL    HW192477  11.250   6.779   4.465
64151SOL    HW292478  11.333   6.798   4.326
64152SOL     OW92479  11.844   6.977   5.348
64152SOL    HW192480  11.766   6.927   5.386
64152SOL    HW292481  11.841   7.072   5.379
64153SOL     OW92482  11.600   6.010   4.244
64153SOL    HW192483  11.630   5.938   4.182
64153SOL    HW292484  11.561   5.970   4.327
64154SOL     OW92485  11.489   6.133   5.004
64154SOL    HW192486  11.527   6.074   5.076
64154SOL    HW292487  11.529   6.107   4.916
64155SOL     OW92488  12.596   5.800   4.836
64155SOL    HW192489  12.648   5.735   4.891
64155SOL    HW292490  12.547   5.863   4.897
64156SOL     OW92491  12.173   5.620   4.878
64156SOL    HW192492  12.110   5.548   4.847
64156SOL    HW292493  12.266   5.584   4.878
64157SOL     OW92494  11.942   6.916   4.025
64157SOL    HW192495  11.896   6.829   4.042
64157SOL    HW292496  12.033   6.913   4.066
64158SOL     OW92497  11.790   7.153   5.008
64158SOL    HW192498  11.785   7.235   5.065
64158SOL    HW292499  11.879   7.150   4.963
64159SOL     OW92500  12.524   5.638   3.892
64159SOL    HW192501  12.559   5.597   3.808
64159SOL    HW292502  12.434   5.600   3.912
64160SOL     OW92503  12.472   6.039   4.415
64160SOL    HW192504  12.413   6.119   4.419
64160SOL    HW292505  12.487   6.004   4.508
64161SOL     OW92506  12.765   5.807   4.606
64161SOL    HW192507  12.681   5.806   4.660
64161SOL    HW292508  12.767   5.890   4.550
64162SOL     OW92509  11.211   6.663   4.024
64162SOL    HW192510  11.310   6.652   4.015
64162SOL    HW292511  11.171   6.577   4.056
64163SOL     OW92512  12.047   7.232   4.061
64163SOL    HW192513  11.970   7.197   4.007
64163SOL    HW292514  12.015   7.303   4.123
64164SOL     OW92515  11.402   6.214   5.699
64164SOL    HW192516  11.309   6.212   5.736
64164SOL    HW292517  11.403   6.175   5.607
64165SOL     OW92518  11.397   5.861   6.582
64165SOL    HW192519  11.432   5.844   6.674
64165SOL    HW292520  11.309   5.816   6.570
64166SOL     OW92521  11.191   5.954   6.233
64166SOL    HW192522  11.109   5.997   6.272
64166SOL    HW292523  11.163   5.881   6.170
64167SOL     OW92524  11.741   6.861   6.751
64167SOL    HW192525  11.648   6.854   6.714
64167SOL    HW292526  11.752   6.950   6.795
64168SOL     OW92527  12.727   7.097   6.289
64168SOL    HW192528  12.670   7.081   6.370
64168SOL    HW292529  12.668   7.107   6.209
64169SOL     OW92530  12.307   6.289   6.303
64169SOL    HW192531  12.364   6.367   6.278
64169SOL    HW292532  12.247   6.315   6.379
64170SOL     OW92533  11.940   6.730   6.609
64170SOL    HW192534  11.862   6.747   6.669
64170SOL    HW292535  11.974   6.817   6.573
64171SOL     OW92536  12.022   6.384   7.409
64171SOL    HW192537  12.018   6.460   7.474
64171SOL    HW292538  12.044   6.420   7.318
64172SOL     OW92539  11.857   6.598   6.251
64172SOL    HW192540  11.926   6.582   6.321
64172SOL    HW292541  11.784   6.655   6.289
64173SOL     OW92542  11.858   6.747   7.389
64173SOL    HW192543  11.918   6.826   7.403
64173SOL    HW292544  11.772   6.778   7.348
64174SOL     OW92545  11.507   7.021   6.647
64174SOL    HW192546  11.429   6.990   6.594
64174SOL    HW292547  11.565   7.079   6.590
64175SOL     OW92548  12.632   7.091   6.925
64175SOL    HW192549  12.656   7.185   6.951
64175SOL    HW292550  12.616   7.037   7.007
64176SOL     OW92551  11.610   5.978   7.085
64176SOL    HW192552  11.692   5.922   7.094
64176SOL    HW292553  11.529   5.920   7.089
64177SOL     OW92554  11.403   7.299   6.069
64177SOL    HW192555  11.437   7.376   6.123
64177SOL    HW292556  11.447   7.299   5.979
64178SOL     OW92557  12.299   6.927   7.276
64178SOL    HW192558  12.346   6.927   7.364
64178SOL    HW292559  12.251   6.840   7.265
64179SOL     OW92560  11.402   7.020   6.124
64179SOL    HW192561  11.376   7.116   6.124
64179SOL    HW292562  11.331   6.966   6.169
64180SOL     OW92563  11.412   6.677   6.472
64180SOL    HW192564  11.426   6.593   6.524
64180SOL    HW292565  11.357   6.741   6.527
64181SOL     OW92566  11.792   7.372   7.025
64181SOL    HW192567  11.700   7.355   7.060
64181SOL    HW292568  11.820   7.464   7.051
64182SOL     OW92569  11.778   6.550   5.709
64182SOL    HW192570  11.785   6.634   5.655
64182SOL    HW292571  11.824   6.563   5.797
64183SOL     OW92572  12.766   5.700   7.066
64183SOL    HW192573  12.748   5.767   6.994
64183SOL    HW292574  12.763   5.746   7.155
64184SOL     OW92575  11.294   6.229   6.149
64184SOL    HW192576  11.249   6.141   6.166
64184SOL    HW292577  11.293   6.283   6.233
64185SOL     OW92578  11.199   7.182   5.703
64185SOL    HW192579  11.180   7.086   5.724
64185SOL    HW292580  11.166   7.240   5.778
64186SOL     OW92581  12.861   6.508   6.198
64186SOL    HW192582  12.956   6.479   6.206
64186SOL    HW292583  12.853   6.573   6.123
64187SOL     OW92584  11.285   6.323   7.183
64187SOL    HW192585  11.373   6.310   7.228
64187SOL    HW292586  11.272   6.420   7.161
64188SOL     OW92587  11.785   6.951   6.312
64188SOL    HW192588  11.736   6.864   6.321
64188SOL    HW292589  11.762   6.994   6.225
64189SOL     OW92590  12.465   6.814   7.009
64189SOL    HW192591  12.502   6.741   6.951
64189SOL    HW292592  12.517   6.819   7.094
64190SOL     OW92593  11.981   5.590   6.088
64190SOL    HW192594  12.021   5.681   6.079
64190SOL    HW292595  11.881   5.598   6.094
64191SOL     OW92596  11.369   6.562   6.850
64191SOL    HW192597  11.458   6.517   6.836
64191SOL    HW292598  11.296   6.497   6.831
64192SOL     OW92599  12.359   7.378   7.202
64192SOL    HW192600  12.383   7.438   7.126
64192SOL    HW292601  12.366   7.283   7.172
64193SOL     OW92602  11.489   5.837   7.387
64193SOL    HW192603  11.560   5.908   7.393
64193SOL    HW292604  11.401   5.876   7.415
64194SOL     OW92605  12.638   7.003   6.539
64194SOL    HW192606  12.579   7.009   6.619
64194SOL    HW292607  12.623   6.915   6.493
64195SOL     OW92608  12.839   7.300   6.158
64195SOL    HW192609  12.798   7.277   6.070
64195SOL    HW292610  12.821   7.226   6.223
64196SOL     OW92611  11.770   6.315   5.856
64196SOL    HW192612  11.794   6.384   5.788
64196SOL    HW292613  11.692   6.348   5.910
64197SOL     OW92614  12.453   5.931   6.530
64197SOL    HW192615  12.367   5.881   6.517
64197SOL    HW292616  12.515   5.877   6.586
64198SOL     OW92617  11.979   6.191   7.051
64198SOL    HW192618  11.932   6.188   7.140
64198SOL    HW292619  11.928   6.136   6.985
64199SOL     OW92620  12.566   6.055   7.260
64199SOL    HW192621  12.546   6.098   7.348
64199SOL    HW292622  12.644   5.993   7.269
64200SOL     OW92623  12.145   6.476   7.158
64200SOL    HW192624  12.191   6.392   7.129
64200SOL    HW292625  12.089   6.510   7.083
64201SOL     OW92626  12.163   5.996   6.828
64201SOL    HW192627  12.086   6.030   6.882
64201SOL    HW292628  12.129   5.945   6.749
64202SOL     OW92629  12.213   6.287   6.015
64202SOL    HW192630  12.239   6.283   6.111
64202SOL    HW292631  12.128   6.236   6.001
64203SOL     OW92632  11.248   6.397   6.375
64203SOL    HW192633  11.347   6.385   6.384
64203SOL    HW292634  11.224   6.492   6.396
64204SOL     OW92635  11.302   7.407   7.157
64204SOL    HW192636  11.292   7.392   7.256
64204SOL    HW292637  11.216   7.443   7.121
64205SOL     OW92638  12.037   5.934   5.781
64205SOL    HW192639  12.096   5.997   5.732
64205SOL    HW292640  12.056   5.840   5.752
64206SOL     OW92641  12.534   6.730   6.131
64206SOL    HW192642  12.617   6.701   6.083
64206SOL    HW292643  12.485   6.797   6.075
64207SOL     OW92644  11.722   5.782   6.471
64207SOL    HW192645  11.717   5.777   6.571
64207SOL    HW292646  11.724   5.878   6.442
64208SOL     OW92647  12.180   7.042   6.063
64208SOL    HW192648  12.134   7.114   6.011
64208SOL    HW292649  12.176   7.062   6.161
64209SOL     OW92650  11.523   7.387   6.439
64209SOL    HW192651  11.573   7.301   6.445
64209SOL    HW292652  11.588   7.464   6.436
64210SOL     OW92653  12.399   7.136   7.092
64210SOL    HW192654  12.405   7.059   7.156
64210SOL    HW292655  12.347   7.110   7.012
64211SOL     OW92656  11.493   6.529   5.828
64211SOL    HW192657  11.575   6.568   5.786
64211SOL    HW292658  11.466   6.447   5.779
64212SOL     OW92659  12.630   6.321   6.314
64212SOL    HW192660  12.625   6.256   6.389
64212SOL    HW292661  12.710   6.380   6.327
64213SOL     OW92662  11.633   6.852   7.313
64213SOL    HW192663  11.583   6.853   7.227
64213SOL    HW292664  11.570   6.834   7.389
64214SOL     OW92665  12.283   7.362   5.823
64214SOL    HW192666  12.223   7.300   5.873
64214SOL    HW292667  12.314   7.318   5.738
64215SOL     OW92668  11.374   5.871   7.084
64215SOL    HW192669  11.294   5.931   7.071
64215SOL    HW292670  11.364   5.822   7.170
64216SOL     OW92671  11.636   7.329   5.909
64216SOL    HW192672  11.669   7.368   5.995
64216SOL    HW292673  11.712   7.322   5.844
64217SOL     OW92674  12.572   5.693   6.012
64217SOL    HW192675  12.548   5.656   5.922
64217SOL    HW292676  12.671   5.709   6.016
64218SOL     OW92677  11.421   7.371   6.827
64218SOL    HW192678  11.478   7.306   6.877
64218SOL    HW292679  11.405   7.338   6.734
64219SOL     OW92680  12.112   7.284   6.490
64219SOL    HW192681  12.192   7.227   6.511
64219SOL    HW292682  12.063   7.244   6.413
64220SOL     OW92683  11.554   6.286   6.066
64220SOL    HW192684  11.599   6.196   6.063
64220SOL    HW292685  11.460   6.275   6.099
64221SOL     OW92686  11.786   5.708   5.703
64221SOL    HW192687  11.884   5.686   5.710
64221SOL    HW292688  11.755   5.691   5.610
64222SOL     OW92689  11.953   5.850   7.335
64222SOL    HW192690  12.020   5.789   7.378
64222SOL    HW292691  11.880   5.869   7.400
64223SOL     OW92692  12.060   7.100   6.781
64223SOL    HW192693  12.037   7.075   6.687
64223SOL    HW292694  12.121   7.031   6.820
64224SOL     OW92695  12.523   6.176   7.019
64224SOL    HW192696  12.551   6.133   7.104
64224SOL    HW292697  12.548   6.272   7.020
64225SOL     OW92698  11.975   6.988   6.510
64225SOL    HW192699  12.065   7.002   6.468
64225SOL    HW292700  11.904   6.990   6.439
64226SOL     OW92701  12.094   6.089   6.485
64226SOL    HW192702  12.069   6.080   6.389
64226SOL    HW292703  12.142   6.007   6.516
64227SOL     OW92704  11.711   5.650   6.098
64227SOL    HW192705  11.630   5.651   6.156
64227SOL    HW292706  11.714   5.733   6.043
64228SOL     OW92707  12.606   6.774   5.627
64228SOL    HW192708  12.638   6.698   5.684
64228SOL    HW292709  12.514   6.801   5.657
64229SOL     OW92710  11.469   5.621   5.757
64229SOL    HW192711  11.518   5.705   5.736
64229SOL    HW292712  11.531   5.556   5.802
64230SOL     OW92713  12.107   5.822   6.066
64230SOL    HW192714  12.059   5.863   5.988
64230SOL    HW292715  12.206   5.820   6.047
64231SOL     OW92716  12.248   6.269   7.050
64231SOL    HW192717  12.168   6.208   7.053
64231SOL    HW292718  12.329   6.216   7.026
64232SOL     OW92719  12.399   7.156   6.379
64232SOL    HW192720  12.420   7.230   6.314
64232SOL    HW292721  12.467   7.156   6.452
64233SOL     OW92722  11.631   6.738   6.327
64233SOL    HW192723  11.560   6.711   6.392
64233SOL    HW292724  11.605   6.710   6.234
64234SOL     OW92725  12.443   7.383   6.177
64234SOL    HW192726  12.487   7.447   6.113
64234SOL    HW292727  12.393   7.435   6.247
64235SOL     OW92728  12.204   6.135   5.602
64235SOL    HW192729  12.163   6.217   5.563
64235SOL    HW292730  12.268   6.161   5.675
64236SOL     OW92731  11.250   6.142   6.972
64236SOL    HW192732  11.342   6.141   6.931
64236SOL    HW292733  11.244   6.216   7.039
64237SOL     OW92734  11.733   5.808   6.733
64237SOL    HW192735  11.771   5.724   6.770
64237SOL    HW292736  11.645   5.827   6.777
64238SOL     OW92737  12.038   6.040   6.228
64238SOL    HW192738  12.006   6.112   6.166
64238SOL    HW292739  12.062   5.959   6.175
64239SOL     OW92740  12.189   5.625   6.339
64239SOL    HW192741  12.117   5.630   6.270
64239SOL    HW292742  12.165   5.556   6.408
64240SOL     OW92743  12.601   6.759   6.453
64240SOL    HW192744  12.546   6.675   6.446
64240SOL    HW292745  12.627   6.788   6.361
64241SOL     OW92746  12.638   6.176   6.578
64241SOL    HW192747  12.608   6.081   6.585
64241SOL    HW292748  12.711   6.192   6.644
64242SOL     OW92749  11.660   6.971   5.760
64242SOL    HW192750  11.573   6.956   5.807
64242SOL    HW292751  11.643   6.997   5.665
64243SOL     OW92752  12.562   6.161   5.664
64243SOL    HW192753  12.508   6.140   5.745
64243SOL    HW292754  12.653   6.120   5.673
64244SOL     OW92755  11.699   5.842   5.914
64244SOL    HW192756  11.726   5.783   5.839
64244SOL    HW292757  11.699   5.937   5.883
64245SOL     OW92758  12.236   6.933   6.926
64245SOL    HW192759  12.156   6.910   6.981
64245SOL    HW292760  12.319   6.907   6.975
64246SOL     OW92761  12.764   7.215   7.211
64246SOL    HW192762  12.791   7.249   7.121
64246SOL    HW292763  12.843   7.177   7.257
64247SOL     OW92764  12.283   6.781   6.686
64247SOL    HW192765  12.243   6.825   6.767
64247SOL    HW292766  12.242   6.818   6.603
64248SOL     OW92767  12.087   5.675   6.988
64248SOL    HW192768  12.112   5.655   6.893
64248SOL    HW292769  12.159   5.731   7.030
64249SOL     OW92770  12.152   6.702   7.305
64249SOL    HW192771  12.053   6.708   7.315
64249SOL    HW292772  12.175   6.622   7.249
64250SOL     OW92773  11.877   6.636   5.954
64250SOL    HW192774  11.863   6.643   6.053
64250SOL    HW292775  11.961   6.585   5.936
64251SOL     OW92776  11.582   6.399   6.837
64251SOL    HW192777  11.668   6.411   6.887
64251SOL    HW292778  11.540   6.312   6.864
64252SOL     OW92779  12.446   5.972   6.848
64252SOL    HW192780  12.467   6.046   6.912
64252SOL    HW292781  12.357   5.989   6.805
64253SOL     OW92782  11.236   7.150   6.917
64253SOL    HW192783  11.190   7.232   6.883
64253SOL    HW292784  11.334   7.169   6.926
64254SOL     OW92785  11.539   6.686   6.087
64254SOL    HW192786  11.532   6.769   6.031
64254SOL    HW292787  11.543   6.606   6.027
64255SOL     OW92788  11.738   6.123   6.451
64255SOL    HW192789  11.750   6.189   6.377
64255SOL    HW292790  11.784   6.157   6.534
64256SOL     OW92791  12.424   6.934   5.974
64256SOL    HW192792  12.474   7.011   6.014
64256SOL    HW292793  12.329   6.936   6.006
64257SOL     OW92794  12.444   7.031   6.728
64257SOL    HW192795  12.491   7.044   6.815
64257SOL    HW292796  12.378   6.957   6.737
64258SOL     OW92797  12.754   6.225   6.058
64258SOL    HW192798  12.723   6.286   6.131
64258SOL    HW292799  12.804   6.277   5.989
64259SOL     OW92800  11.526   7.096   6.915
64259SOL    HW192801  11.505   7.052   6.828
64259SOL    HW292802  11.623   7.122   6.918
64260SOL     OW92803  11.574   6.337   7.184
64260SOL    HW192804  11.642   6.392   7.137
64260SOL    HW292805  11.614   6.249   7.211
64261SOL     OW92806  12.185   5.691   7.356
64261SOL    HW192807  12.191   5.776   7.304
64261SOL    HW292808  12.217   5.615   7.299
64262SOL     OW92809  11.676   5.636   7.326
64262SOL    HW192810  11.634   5.579   7.256
64262SOL    HW292811  11.610   5.705   7.358
64263SOL     OW92812  11.745   6.456   6.615
64263SOL    HW192813  11.789   6.545   6.606
64263SOL    HW292814  11.682   6.456   6.692
64264SOL     OW92815  12.532   6.448   6.631
64264SOL    HW192816  12.457   6.448   6.565
64264SOL    HW292817  12.569   6.356   6.640
64265SOL     OW92818  12.381   6.111   5.861
64265SOL    HW192819  12.394   6.027   5.915
64265SOL    HW292820  12.352   6.185   5.921
64266SOL     OW92821  11.479   5.799   6.817
64266SOL    HW192822  11.456   5.836   6.907
64266SOL    HW292823  11.449   5.704   6.811
64267SOL     OW92824  11.209   6.896   6.868
64267SOL    HW192825  11.262   6.847   6.936
64267SOL    HW292826  11.231   6.994   6.873
64268SOL     OW92827  11.904   6.220   6.650
64268SOL    HW192828  11.963   6.194   6.574
64268SOL    HW292829  11.876   6.316   6.639
64269SOL     OW92830  11.479   5.649   6.204
64269SOL    HW192831  11.468   5.743   6.237
64269SOL    HW292832  11.474   5.586   6.281
64270SOL     OW92833  12.794   5.953   5.960
64270SOL    HW192834  12.796   5.877   6.024
64270SOL    HW292835  12.746   6.030   6.000
64271SOL     OW92836  12.195   6.352   6.552
64271SOL    HW192837  12.210   6.373   6.648
64271SOL    HW292838  12.165   6.257   6.543
64272SOL     OW92839  12.152   7.159   7.286
64272SOL    HW192840  12.132   7.203   7.198
64272SOL    HW292841  12.191   7.068   7.270
64273SOL     OW92842  11.522   6.484   7.390
64273SOL    HW192843  11.598   6.528   7.438
64273SOL    HW292844  11.557   6.437   7.308
64274SOL     OW92845  12.712   5.860   5.711
64274SOL    HW192846  12.651   5.785   5.734
64274SOL    HW292847  12.734   5.912   5.794
64275SOL     OW92848  12.475   6.424   5.628
64275SOL    HW192849  12.509   6.331   5.643
64275SOL    HW292850  12.493   6.451   5.533
64276SOL     OW92851  12.240   6.919   6.435
64276SOL    HW192852  12.247   6.835   6.380
64276SOL    HW292853  12.302   6.988   6.399
64277SOL     OW92854  11.491   6.396   6.535
64277SOL    HW192855  11.584   6.432   6.540
64277SOL    HW292856  11.485   6.311   6.587
64278SOL     OW92857  11.511   6.095   6.592
64278SOL    HW192858  11.459   6.012   6.575
64278SOL    HW292859  11.588   6.100   6.528
64279SOL     OW92860  12.310   5.966   7.264
64279SOL    HW192861  12.265   6.029   7.328
64279SOL    HW292862  12.403   5.997   7.247
64280SOL     OW92863  12.332   5.793   7.063
64280SOL    HW192864  12.332   5.857   7.140
64280SOL    HW292865  12.360   5.841   6.980
64281SOL     OW92866  11.180   6.912   5.786
64281SOL    HW192867  11.087   6.933   5.755
64281SOL    HW292868  11.190   6.813   5.799
64282SOL     OW92869  11.260   7.387   6.513
64282SOL    HW192870  11.218   7.301   6.486
64282SOL    HW292871  11.354   7.390   6.479
64283SOL     OW92872  11.676   7.154   6.496
64283SOL    HW192873  11.742   7.228   6.505
64283SOL    HW292874  11.720   7.075   6.454
64284SOL     OW92875  12.174   6.382   6.824
64284SOL    HW192876  12.215   6.350   6.910
64284SOL    HW292877  12.078   6.355   6.821
64285SOL     OW92878  11.212   6.130   6.700
64285SOL    HW192879  11.297   6.097   6.659
64285SOL    HW292880  11.225   6.145   6.798
64286SOL     OW92881  11.361   6.106   7.308
64286SOL    HW192882  11.420   6.066   7.238
64286SOL    HW292883  11.303   6.177   7.267
64287SOL     OW92884  12.541   6.536   7.246
64287SOL    HW192885  12.580   6.625   7.266
64287SOL    HW292886  12.551   6.516   7.149
64288SOL     OW92887  11.987   6.158   5.911
64288SOL    HW192888  11.994   6.069   5.865
64288SOL    HW292889  11.893   6.192   5.903
64289SOL     OW92890  11.424   7.150   7.330
64289SOL    HW192891  11.394   7.207   7.406
64289SOL    HW292892  11.417   7.053   7.356
64290SOL     OW92893  11.843   6.050   6.855
64290SOL    HW192894  11.809   5.961   6.825
64290SOL    HW292895  11.869   6.104   6.775
64291SOL     OW92896  12.102   7.264   7.051
64291SOL    HW192897  12.078   7.246   6.956
64291SOL    HW292898  12.132   7.358   7.061
64292SOL     OW92899  11.645   6.086   5.777
64292SOL    HW192900  11.706   6.166   5.781
64292SOL    HW292901  11.550   6.117   5.784
64293SOL     OW92902  11.331   6.723   7.052
64293SOL    HW192903  11.353   6.662   7.128
64293SOL    HW292904  11.341   6.674   6.966
64294SOL     OW92905  12.519   6.645   6.820
64294SOL    HW192906  12.543   6.582   6.746
64294SOL    HW292907  12.429   6.685   6.802
64295SOL     OW92908  12.474   6.441   5.895
64295SOL    HW192909  12.388   6.410   5.937
64295SOL    HW292910  12.470   6.427   5.796
64296SOL     OW92911  12.424   7.317   6.714
64296SOL    HW192912  12.508   7.322   6.660
64296SOL    HW292913  12.401   7.221   6.732
64297SOL     OW92914  11.255   6.844   6.608
64297SOL    HW192915  11.250   6.843   6.708
64297SOL    HW292916  11.172   6.803   6.570
64298SOL     OW92917  11.860   7.248   7.302
64298SOL    HW192918  11.804   7.329   7.311
64298SOL    HW292919  11.912   7.252   7.216
64299SOL     OW92920  12.898   5.721   6.109
64299SOL    HW192921  12.971   5.704   6.042
64299SOL    HW292922  12.867   5.634   6.147
64300SOL     OW92923  12.560   7.159   6.063
64300SOL    HW192924  12.627   7.171   5.989
64300SOL    HW292925  12.520   7.248   6.086
64301SOL     OW92926  11.302   7.380   7.437
64301SOL    HW192927  11.261   7.306   7.490
64301SOL    HW292928  11.366   7.431   7.495
64302SOL     OW92929  12.452   6.513   6.258
64302SOL    HW192930  12.512   6.432   6.260
64302SOL    HW292931  12.492   6.582   6.198
64303SOL     OW92932  12.002   6.859   7.008
64303SOL    HW192933  11.997   6.892   7.103
64303SOL    HW292934  11.916   6.878   6.962
64304SOL     OW92935  11.844   7.202   5.740
64304SOL    HW192936  11.853   7.212   5.641
64304SOL    HW292937  11.804   7.113   5.761
64305SOL     OW92938  11.435   5.912   6.306
64305SOL    HW192939  11.356   5.963   6.272
64305SOL    HW292940  11.426   5.897   6.404
64306SOL     OW92941  12.366   7.198   5.617
64306SOL    HW192942  12.372   7.105   5.654
64306SOL    HW292943  12.307   7.198   5.537
64307SOL     OW92944  11.994   6.588   6.958
64307SOL    HW192945  12.034   6.587   6.866
64307SOL    HW292946  12.004   6.680   6.998
64308SOL     OW92947  12.088   6.496   5.877
64308SOL    HW192948  12.151   6.534   5.809
64308SOL    HW292949  12.128   6.413   5.916
64309SOL     OW92950  12.676   7.193   5.630
64309SOL    HW192951  12.584   7.230   5.637
64309SOL    HW292952  12.714   7.213   5.540
64310SOL     OW92953  11.544   6.874   7.076
64310SOL    HW192954  11.531   6.967   7.042
64310SOL    HW292955  11.460   6.822   7.063
64311SOL     OW92956  12.211   6.684   6.282
64311SOL    HW192957  12.141   6.637   6.336
64311SOL    HW292958  12.270   6.616   6.239
64312SOL     OW92959  12.186   5.822   6.557
64312SOL    HW192960  12.178   5.786   6.464
64312SOL    HW292961  12.184   5.746   6.622
64313SOL     OW92962  11.762   7.073   6.077
64313SOL    HW192963  11.804   7.015   6.007
64313SOL    HW292964  11.718   7.152   6.033
64314SOL     OW92965  11.427   6.934   5.876
64314SOL    HW192966  11.331   6.935   5.849
64314SOL    HW292967  11.439   6.987   5.960
64315SOL     OW92968  11.277   6.599   7.312
64315SOL    HW192969  11.200   6.566   7.366
64315SOL    HW292970  11.362   6.569   7.354
64316SOL     OW92971  11.844   5.789   7.075
64316SOL    HW192972  11.934   5.773   7.035
64316SOL    HW292973  11.852   5.794   7.174
64317SOL     OW92974  11.247   5.931   5.619
64317SOL    HW192975  11.155   5.903   5.590
64317SOL    HW292976  11.278   6.008   5.563
64318SOL     OW92977  12.612   6.442   6.984
64318SOL    HW192978  12.555   6.494   6.921
64318SOL    HW292979  12.708   6.454   6.960
64319SOL     OW92980  11.244   5.752   5.904
64319SOL    HW192981  11.227   5.835   5.850
64319SOL    HW292982  11.334   5.715   5.882
64320SOL     OW92983  12.355   6.921   5.705
64320SOL    HW192984  12.256   6.910   5.707
64320SOL    HW292985  12.389   6.936   5.798
64321SOL     OW92986  11.785   6.428   7.017
64321SOL    HW192987  11.841   6.509   7.000
64321SOL    HW292988  11.844   6.348   7.020
64322SOL     OW92989  12.665   7.353   6.545
64322SOL    HW192990  12.698   7.417   6.476
64322SOL    HW292991  12.731   7.347   6.620
64323SOL     OW92992  11.888   6.151   7.294
64323SOL    HW192993  11.907   6.216   7.368
64323SOL    HW292994  11.948   6.071   7.303
64324SOL     OW92995  12.622   6.806   7.219
64324SOL    HW192996  12.613   6.796   7.318
64324SOL    HW292997  12.718   6.799   7.193
64325SOL     OW92998  11.562   7.327   7.146
64325SOL    HW192999  11.471   7.368   7.144
64325SOL    HW293000  11.555   7.233   7.178
64326SOL     OW93001  12.397   5.911   6.035
64326SOL    HW193002  12.462   5.837   6.024
64326SOL    HW293003  12.417   5.961   6.119
64327SOL     OW93004  11.766   6.331   6.238
64327SOL    HW193005  11.816   6.416   6.219
64327SOL    HW293006  11.678   6.333   6.190
64328SOL     OW93007  12.031   6.960   5.602
64328SOL    HW193008  11.985   6.975   5.690
64328SOL    HW293009  12.075   7.045   5.572
64329SOL     OW93010  11.833   7.376   6.539
64329SOL    HW193011  11.787   7.464   6.526
64329SOL    HW293012  11.932   7.388   6.532
64330SOL     OW93013  12.031   6.542   6.447
64330SOL    HW193014  12.085   6.473   6.495
64330SOL    HW293015  11.999   6.611   6.513
64331SOL     OW93016  12.255   6.570   5.673
64331SOL    HW193017  12.232   6.623   5.591
64331SOL    HW293018  12.336   6.514   5.654
64332SOL     OW93019  13.033   7.155   6.437
64332SOL    HW193020  12.962   7.143   6.367
64332SOL    HW293021  13.034   7.076   6.497
64333SOL     OW93022  11.393   6.900   7.430
64333SOL    HW193023  11.328   6.827   7.409
64333SOL    HW293024  11.397   6.914   7.528
64334SOL     OW93025  11.251   6.826   6.239
64334SOL    HW193026  11.250   6.779   6.327
64334SOL    HW293027  11.333   6.798   6.188
64335SOL     OW93028  11.844   6.977   7.210
64335SOL    HW193029  11.766   6.927   7.248
64335SOL    HW293030  11.841   7.072   7.241
64336SOL     OW93031  11.600   6.010   6.106
64336SOL    HW193032  11.630   5.938   6.044
64336SOL    HW293033  11.561   5.970   6.189
64337SOL     OW93034  11.489   6.133   6.866
64337SOL    HW193035  11.527   6.074   6.938
64337SOL    HW293036  11.529   6.107   6.778
64338SOL     OW93037  11.984   7.172   6.273
64338SOL    HW193038  12.016   7.182   6.179
64338SOL    HW293039  11.905   7.110   6.275
64339SOL     OW93040  12.596   5.800   6.698
64339SOL    HW193041  12.648   5.735   6.753
64339SOL    HW293042  12.547   5.863   6.759
64340SOL     OW93043  12.173   5.620   6.740
64340SOL    HW193044  12.110   5.548   6.709
64340SOL    HW293045  12.266   5.584   6.740
64341SOL     OW93046  11.942   6.916   5.887
64341SOL    HW193047  11.896   6.829   5.904
64341SOL    HW293048  12.033   6.913   5.928
64342SOL     OW93049  11.790   7.153   6.870
64342SOL    HW193050  11.785   7.235   6.927
64342SOL    HW293051  11.879   7.150   6.825
64343SOL     OW93052  12.524   5.638   5.754
64343SOL    HW193053  12.559   5.597   5.670
64343SOL    HW293054  12.434   5.600   5.774
64344SOL     OW93055  12.472   6.039   6.277
64344SOL    HW193056  12.413   6.119   6.281
64344SOL    HW293057  12.487   6.004   6.370
64345SOL     OW93058  12.765   5.807   6.468
64345SOL    HW193059  12.681   5.806   6.522
64345SOL    HW293060  12.767   5.890   6.412
64346SOL     OW93061  11.211   6.663   5.886
64346SOL    HW193062  11.310   6.652   5.877
64346SOL    HW293063  11.171   6.577   5.918
64347SOL     OW93064  12.047   7.232   5.923
64347SOL    HW193065  11.970   7.197   5.869
64347SOL    HW293066  12.015   7.303   5.985
64348SOL     OW93067  11.402   6.214   7.561
64348SOL    HW193068  11.309   6.212   7.598
64348SOL    HW293069  11.403   6.175   7.469
64349SOL     OW93070  11.397   5.861   8.444
64349SOL    HW193071  11.432   5.844   8.536
64349SOL    HW293072  11.309   5.816   8.432
64350SOL     OW93073  11.191   5.954   8.095
64350SOL    HW193074  11.109   5.997   8.134
64350SOL    HW293075  11.163   5.881   8.032
64351SOL     OW93076  11.741   6.861   8.613
64351SOL    HW193077  11.648   6.854   8.576
64351SOL    HW293078  11.752   6.950   8.657
64352SOL     OW93079  12.727   7.097   8.151
64352SOL    HW193080  12.670   7.081   8.232
64352SOL    HW293081  12.668   7.107   8.071
64353SOL     OW93082  12.307   6.289   8.165
64353SOL    HW193083  12.364   6.367   8.140
64353SOL    HW293084  12.247   6.315   8.241
64354SOL     OW93085  11.940   6.730   8.471
64354SOL    HW193086  11.862   6.747   8.531
64354SOL    HW293087  11.974   6.817   8.435
64355SOL     OW93088  12.022   6.384   9.271
64355SOL    HW193089  12.018   6.460   9.336
64355SOL    HW293090  12.044   6.420   9.180
64356SOL     OW93091  11.857   6.598   8.113
64356SOL    HW193092  11.926   6.582   8.183
64356SOL    HW293093  11.784   6.655   8.151
64357SOL     OW93094  11.858   6.747   9.251
64357SOL    HW193095  11.918   6.826   9.265
64357SOL    HW293096  11.772   6.778   9.210
64358SOL     OW93097  11.507   7.021   8.509
64358SOL    HW193098  11.429   6.990   8.456
64358SOL    HW293099  11.565   7.079   8.452
64359SOL     OW93100  12.632   7.091   8.787
64359SOL    HW193101  12.656   7.185   8.813
64359SOL    HW293102  12.616   7.037   8.869
64360SOL     OW93103  11.610   5.978   8.947
64360SOL    HW193104  11.692   5.922   8.956
64360SOL    HW293105  11.529   5.920   8.951
64361SOL     OW93106  11.403   7.299   7.931
64361SOL    HW193107  11.437   7.376   7.985
64361SOL    HW293108  11.447   7.299   7.841
64362SOL     OW93109  12.299   6.927   9.138
64362SOL    HW193110  12.346   6.927   9.226
64362SOL    HW293111  12.251   6.840   9.127
64363SOL     OW93112  11.402   7.020   7.986
64363SOL    HW193113  11.376   7.116   7.986
64363SOL    HW293114  11.331   6.966   8.031
64364SOL     OW93115  11.412   6.677   8.334
64364SOL    HW193116  11.426   6.593   8.386
64364SOL    HW293117  11.357   6.741   8.389
64365SOL     OW93118  11.792   7.372   8.887
64365SOL    HW193119  11.700   7.355   8.922
64365SOL    HW293120  11.820   7.464   8.913
64366SOL     OW93121  11.778   6.550   7.571
64366SOL    HW193122  11.785   6.634   7.517
64366SOL    HW293123  11.824   6.563   7.659
64367SOL     OW93124  12.766   5.700   8.928
64367SOL    HW193125  12.748   5.767   8.856
64367SOL    HW293126  12.763   5.746   9.017
64368SOL     OW93127  11.294   6.229   8.011
64368SOL    HW193128  11.249   6.141   8.028
64368SOL    HW293129  11.293   6.283   8.095
64369SOL     OW93130  11.199   7.182   7.565
64369SOL    HW193131  11.180   7.086   7.586
64369SOL    HW293132  11.166   7.240   7.640
64370SOL     OW93133  12.861   6.508   8.060
64370SOL    HW193134  12.956   6.479   8.068
64370SOL    HW293135  12.853   6.573   7.985
64371SOL     OW93136  11.285   6.323   9.045
64371SOL    HW193137  11.373   6.310   9.090
64371SOL    HW293138  11.272   6.420   9.023
64372SOL     OW93139  11.785   6.951   8.174
64372SOL    HW193140  11.736   6.864   8.183
64372SOL    HW293141  11.762   6.994   8.087
64373SOL     OW93142  12.465   6.814   8.871
64373SOL    HW193143  12.502   6.741   8.813
64373SOL    HW293144  12.517   6.819   8.956
64374SOL     OW93145  11.981   5.590   7.950
64374SOL    HW193146  12.021   5.681   7.941
64374SOL    HW293147  11.881   5.598   7.956
64375SOL     OW93148  11.369   6.562   8.712
64375SOL    HW193149  11.458   6.517   8.698
64375SOL    HW293150  11.296   6.497   8.693
64376SOL     OW93151  12.359   7.378   9.064
64376SOL    HW193152  12.383   7.438   8.988
64376SOL    HW293153  12.366   7.283   9.034
64377SOL     OW93154  11.489   5.837   9.249
64377SOL    HW193155  11.560   5.908   9.255
64377SOL    HW293156  11.401   5.876   9.277
64378SOL     OW93157  12.638   7.003   8.401
64378SOL    HW193158  12.579   7.009   8.481
64378SOL    HW293159  12.623   6.915   8.355
64379SOL     OW93160  12.839   7.300   8.020
64379SOL    HW193161  12.798   7.277   7.932
64379SOL    HW293162  12.821   7.226   8.085
64380SOL     OW93163  11.770   6.315   7.718
64380SOL    HW193164  11.794   6.384   7.650
64380SOL    HW293165  11.692   6.348   7.772
64381SOL     OW93166  12.453   5.931   8.392
64381SOL    HW193167  12.367   5.881   8.379
64381SOL    HW293168  12.515   5.877   8.448
64382SOL     OW93169  11.979   6.191   8.913
64382SOL    HW193170  11.932   6.188   9.002
64382SOL    HW293171  11.928   6.136   8.847
64383SOL     OW93172  12.566   6.055   9.122
64383SOL    HW193173  12.546   6.098   9.210
64383SOL    HW293174  12.644   5.993   9.131
64384SOL     OW93175  12.145   6.476   9.020
64384SOL    HW193176  12.191   6.392   8.991
64384SOL    HW293177  12.089   6.510   8.945
64385SOL     OW93178  12.163   5.996   8.690
64385SOL    HW193179  12.086   6.030   8.744
64385SOL    HW293180  12.129   5.945   8.611
64386SOL     OW93181  12.213   6.287   7.877
64386SOL    HW193182  12.239   6.283   7.973
64386SOL    HW293183  12.128   6.236   7.863
64387SOL     OW93184  11.248   6.397   8.237
64387SOL    HW193185  11.347   6.385   8.246
64387SOL    HW293186  11.224   6.492   8.258
64388SOL     OW93187  11.302   7.407   9.019
64388SOL    HW193188  11.292   7.392   9.118
64388SOL    HW293189  11.216   7.443   8.983
64389SOL     OW93190  12.037   5.934   7.643
64389SOL    HW193191  12.096   5.997   7.594
64389SOL    HW293192  12.056   5.840   7.614
64390SOL     OW93193  12.534   6.730   7.993
64390SOL    HW193194  12.617   6.701   7.945
64390SOL    HW293195  12.485   6.797   7.937
64391SOL     OW93196  11.722   5.782   8.333
64391SOL    HW193197  11.717   5.777   8.433
64391SOL    HW293198  11.724   5.878   8.304
64392SOL     OW93199  12.180   7.042   7.925
64392SOL    HW193200  12.134   7.114   7.873
64392SOL    HW293201  12.176   7.062   8.023
64393SOL     OW93202  11.523   7.387   8.301
64393SOL    HW193203  11.573   7.301   8.307
64393SOL    HW293204  11.588   7.464   8.298
64394SOL     OW93205  12.399   7.136   8.954
64394SOL    HW193206  12.405   7.059   9.018
64394SOL    HW293207  12.347   7.110   8.874
64395SOL     OW93208  11.493   6.529   7.690
64395SOL    HW193209  11.575   6.568   7.648
64395SOL    HW293210  11.466   6.447   7.641
64396SOL     OW93211  12.630   6.321   8.176
64396SOL    HW193212  12.625   6.256   8.251
64396SOL    HW293213  12.710   6.380   8.189
64397SOL     OW93214  11.633   6.852   9.175
64397SOL    HW193215  11.583   6.853   9.089
64397SOL    HW293216  11.570   6.834   9.251
64398SOL     OW93217  12.283   7.362   7.685
64398SOL    HW193218  12.223   7.300   7.735
64398SOL    HW293219  12.314   7.318   7.600
64399SOL     OW93220  11.374   5.871   8.946
64399SOL    HW193221  11.294   5.931   8.933
64399SOL    HW293222  11.364   5.822   9.032
64400SOL     OW93223  11.636   7.329   7.771
64400SOL    HW193224  11.669   7.368   7.857
64400SOL    HW293225  11.712   7.322   7.706
64401SOL     OW93226  12.572   5.693   7.874
64401SOL    HW193227  12.548   5.656   7.784
64401SOL    HW293228  12.671   5.709   7.878
64402SOL     OW93229  12.112   7.284   8.352
64402SOL    HW193230  12.192   7.227   8.373
64402SOL    HW293231  12.063   7.244   8.275
64403SOL     OW93232  11.554   6.286   7.928
64403SOL    HW193233  11.599   6.196   7.925
64403SOL    HW293234  11.460   6.275   7.961
64404SOL     OW93235  11.786   5.708   7.565
64404SOL    HW193236  11.884   5.686   7.572
64404SOL    HW293237  11.755   5.691   7.472
64405SOL     OW93238  11.953   5.850   9.197
64405SOL    HW193239  12.020   5.789   9.240
64405SOL    HW293240  11.880   5.869   9.262
64406SOL     OW93241  12.060   7.100   8.643
64406SOL    HW193242  12.037   7.075   8.549
64406SOL    HW293243  12.121   7.031   8.682
64407SOL     OW93244  12.523   6.176   8.881
64407SOL    HW193245  12.551   6.133   8.966
64407SOL    HW293246  12.548   6.272   8.882
64408SOL     OW93247  11.975   6.988   8.372
64408SOL    HW193248  12.065   7.002   8.330
64408SOL    HW293249  11.904   6.990   8.301
64409SOL     OW93250  12.094   6.089   8.347
64409SOL    HW193251  12.069   6.080   8.251
64409SOL    HW293252  12.142   6.007   8.378
64410SOL     OW93253  11.711   5.650   7.960
64410SOL    HW193254  11.630   5.651   8.018
64410SOL    HW293255  11.714   5.733   7.905
64411SOL     OW93256  12.606   6.774   7.489
64411SOL    HW193257  12.638   6.698   7.546
64411SOL    HW293258  12.514   6.801   7.519
64412SOL     OW93259  11.469   5.621   7.619
64412SOL    HW193260  11.518   5.705   7.598
64412SOL    HW293261  11.531   5.556   7.664
64413SOL     OW93262  12.107   5.822   7.928
64413SOL    HW193263  12.059   5.863   7.850
64413SOL    HW293264  12.206   5.820   7.909
64414SOL     OW93265  12.248   6.269   8.912
64414SOL    HW193266  12.168   6.208   8.915
64414SOL    HW293267  12.329   6.216   8.888
64415SOL     OW93268  12.399   7.156   8.241
64415SOL    HW193269  12.420   7.230   8.176
64415SOL    HW293270  12.467   7.156   8.314
64416SOL     OW93271  11.631   6.738   8.189
64416SOL    HW193272  11.560   6.711   8.254
64416SOL    HW293273  11.605   6.710   8.096
64417SOL     OW93274  12.443   7.383   8.039
64417SOL    HW193275  12.487   7.447   7.975
64417SOL    HW293276  12.393   7.435   8.109
64418SOL     OW93277  12.204   6.135   7.464
64418SOL    HW193278  12.163   6.217   7.425
64418SOL    HW293279  12.268   6.161   7.537
64419SOL     OW93280  11.250   6.142   8.834
64419SOL    HW193281  11.342   6.141   8.793
64419SOL    HW293282  11.244   6.216   8.901
64420SOL     OW93283  11.733   5.808   8.595
64420SOL    HW193284  11.771   5.724   8.632
64420SOL    HW293285  11.645   5.827   8.639
64421SOL     OW93286  12.038   6.040   8.090
64421SOL    HW193287  12.006   6.112   8.028
64421SOL    HW293288  12.062   5.959   8.037
64422SOL     OW93289  12.189   5.625   8.201
64422SOL    HW193290  12.117   5.630   8.132
64422SOL    HW293291  12.165   5.556   8.270
64423SOL     OW93292  12.601   6.759   8.315
64423SOL    HW193293  12.546   6.675   8.308
64423SOL    HW293294  12.627   6.788   8.223
64424SOL     OW93295  12.638   6.176   8.440
64424SOL    HW193296  12.608   6.081   8.447
64424SOL    HW293297  12.711   6.192   8.506
64425SOL     OW93298  11.660   6.971   7.622
64425SOL    HW193299  11.573   6.956   7.669
64425SOL    HW293300  11.643   6.997   7.527
64426SOL     OW93301  12.562   6.161   7.526
64426SOL    HW193302  12.508   6.140   7.607
64426SOL    HW293303  12.653   6.120   7.535
64427SOL     OW93304  11.699   5.842   7.776
64427SOL    HW193305  11.726   5.783   7.701
64427SOL    HW293306  11.699   5.937   7.745
64428SOL     OW93307  12.236   6.933   8.788
64428SOL    HW193308  12.156   6.910   8.843
64428SOL    HW293309  12.319   6.907   8.837
64429SOL     OW93310  12.764   7.215   9.073
64429SOL    HW193311  12.791   7.249   8.983
64429SOL    HW293312  12.843   7.177   9.119
64430SOL     OW93313  12.283   6.781   8.548
64430SOL    HW193314  12.243   6.825   8.629
64430SOL    HW293315  12.242   6.818   8.465
64431SOL     OW93316  12.087   5.675   8.850
64431SOL    HW193317  12.112   5.655   8.755
64431SOL    HW293318  12.159   5.731   8.892
64432SOL     OW93319  12.152   6.702   9.167
64432SOL    HW193320  12.053   6.708   9.177
64432SOL    HW293321  12.175   6.622   9.111
64433SOL     OW93322  11.877   6.636   7.816
64433SOL    HW193323  11.863   6.643   7.915
64433SOL    HW293324  11.961   6.585   7.798
64434SOL     OW93325  12.446   5.972   8.710
64434SOL    HW193326  12.467   6.046   8.774
64434SOL    HW293327  12.357   5.989   8.667
64435SOL     OW93328  11.236   7.150   8.779
64435SOL    HW193329  11.190   7.232   8.745
64435SOL    HW293330  11.334   7.169   8.788
64436SOL     OW93331  11.539   6.686   7.949
64436SOL    HW193332  11.532   6.769   7.893
64436SOL    HW293333  11.543   6.606   7.889
64437SOL     OW93334  11.738   6.123   8.313
64437SOL    HW193335  11.750   6.189   8.239
64437SOL    HW293336  11.784   6.157   8.396
64438SOL     OW93337  12.424   6.934   7.836
64438SOL    HW193338  12.474   7.011   7.876
64438SOL    HW293339  12.329   6.936   7.868
64439SOL     OW93340  12.444   7.031   8.590
64439SOL    HW193341  12.491   7.044   8.677
64439SOL    HW293342  12.378   6.957   8.599
64440SOL     OW93343  12.754   6.225   7.920
64440SOL    HW193344  12.723   6.286   7.993
64440SOL    HW293345  12.804   6.277   7.851
64441SOL     OW93346  11.526   7.096   8.777
64441SOL    HW193347  11.505   7.052   8.690
64441SOL    HW293348  11.623   7.122   8.780
64442SOL     OW93349  11.574   6.337   9.046
64442SOL    HW193350  11.642   6.392   8.999
64442SOL    HW293351  11.614   6.249   9.073
64443SOL     OW93352  12.185   5.691   9.218
64443SOL    HW193353  12.191   5.776   9.166
64443SOL    HW293354  12.217   5.615   9.161
64444SOL     OW93355  11.676   5.636   9.188
64444SOL    HW193356  11.634   5.579   9.118
64444SOL    HW293357  11.610   5.705   9.220
64445SOL     OW93358  11.745   6.456   8.477
64445SOL    HW193359  11.789   6.545   8.468
64445SOL    HW293360  11.682   6.456   8.554
64446SOL     OW93361  12.532   6.448   8.493
64446SOL    HW193362  12.457   6.448   8.427
64446SOL    HW293363  12.569   6.356   8.502
64447SOL     OW93364  12.381   6.111   7.723
64447SOL    HW193365  12.394   6.027   7.777
64447SOL    HW293366  12.352   6.185   7.783
64448SOL     OW93367  11.479   5.799   8.679
64448SOL    HW193368  11.456   5.836   8.769
64448SOL    HW293369  11.449   5.704   8.673
64449SOL     OW93370  11.209   6.896   8.730
64449SOL    HW193371  11.262   6.847   8.798
64449SOL    HW293372  11.231   6.994   8.735
64450SOL     OW93373  11.904   6.220   8.512
64450SOL    HW193374  11.963   6.194   8.436
64450SOL    HW293375  11.876   6.316   8.501
64451SOL     OW93376  11.479   5.649   8.066
64451SOL    HW193377  11.468   5.743   8.099
64451SOL    HW293378  11.474   5.586   8.143
64452SOL     OW93379  12.794   5.953   7.822
64452SOL    HW193380  12.796   5.877   7.886
64452SOL    HW293381  12.746   6.030   7.862
64453SOL     OW93382  12.195   6.352   8.414
64453SOL    HW193383  12.210   6.373   8.510
64453SOL    HW293384  12.165   6.257   8.405
64454SOL     OW93385  12.152   7.159   9.148
64454SOL    HW193386  12.132   7.203   9.060
64454SOL    HW293387  12.191   7.068   9.132
64455SOL     OW93388  11.522   6.484   9.252
64455SOL    HW193389  11.598   6.528   9.300
64455SOL    HW293390  11.557   6.437   9.170
64456SOL     OW93391  12.712   5.860   7.573
64456SOL    HW193392  12.651   5.785   7.596
64456SOL    HW293393  12.734   5.912   7.656
64457SOL     OW93394  12.475   6.424   7.490
64457SOL    HW193395  12.509   6.331   7.505
64457SOL    HW293396  12.493   6.451   7.395
64458SOL     OW93397  12.240   6.919   8.297
64458SOL    HW193398  12.247   6.835   8.242
64458SOL    HW293399  12.302   6.988   8.261
64459SOL     OW93400  11.491   6.396   8.397
64459SOL    HW193401  11.584   6.432   8.402
64459SOL    HW293402  11.485   6.311   8.449
64460SOL     OW93403  11.511   6.095   8.454
64460SOL    HW193404  11.459   6.012   8.437
64460SOL    HW293405  11.588   6.100   8.390
64461SOL     OW93406  12.310   5.966   9.126
64461SOL    HW193407  12.265   6.029   9.190
64461SOL    HW293408  12.403   5.997   9.109
64462SOL     OW93409  12.332   5.793   8.925
64462SOL    HW193410  12.332   5.857   9.002
64462SOL    HW293411  12.360   5.841   8.842
64463SOL     OW93412  11.180   6.912   7.648
64463SOL    HW193413  11.087   6.933   7.617
64463SOL    HW293414  11.190   6.813   7.661
64464SOL     OW93415  11.260   7.387   8.375
64464SOL    HW193416  11.218   7.301   8.348
64464SOL    HW293417  11.354   7.390   8.341
64465SOL     OW93418  11.676   7.154   8.358
64465SOL    HW193419  11.742   7.228   8.367
64465SOL    HW293420  11.720   7.075   8.316
64466SOL     OW93421  12.174   6.382   8.686
64466SOL    HW193422  12.215   6.350   8.772
64466SOL    HW293423  12.078   6.355   8.683
64467SOL     OW93424  11.212   6.130   8.562
64467SOL    HW193425  11.297   6.097   8.521
64467SOL    HW293426  11.225   6.145   8.660
64468SOL     OW93427  11.361   6.106   9.170
64468SOL    HW193428  11.420   6.066   9.100
64468SOL    HW293429  11.303   6.177   9.129
64469SOL     OW93430  12.541   6.536   9.108
64469SOL    HW193431  12.580   6.625   9.128
64469SOL    HW293432  12.551   6.516   9.011
64470SOL     OW93433  11.987   6.158   7.773
64470SOL    HW193434  11.994   6.069   7.727
64470SOL    HW293435  11.893   6.192   7.765
64471SOL     OW93436  11.424   7.150   9.192
64471SOL    HW193437  11.394   7.207   9.268
64471SOL    HW293438  11.417   7.053   9.218
64472SOL     OW93439  11.843   6.050   8.717
64472SOL    HW193440  11.809   5.961   8.687
64472SOL    HW293441  11.869   6.104   8.637
64473SOL     OW93442  12.102   7.264   8.913
64473SOL    HW193443  12.078   7.246   8.818
64473SOL    HW293444  12.132   7.358   8.923
64474SOL     OW93445  11.645   6.086   7.639
64474SOL    HW193446  11.706   6.166   7.643
64474SOL    HW293447  11.550   6.117   7.646
64475SOL     OW93448  11.331   6.723   8.914
64475SOL    HW193449  11.353   6.662   8.990
64475SOL    HW293450  11.341   6.674   8.828
64476SOL     OW93451  12.519   6.645   8.682
64476SOL    HW193452  12.543   6.582   8.608
64476SOL    HW293453  12.429   6.685   8.664
64477SOL     OW93454  12.474   6.441   7.757
64477SOL    HW193455  12.388   6.410   7.799
64477SOL    HW293456  12.470   6.427   7.658
64478SOL     OW93457  12.424   7.317   8.576
64478SOL    HW193458  12.508   7.322   8.522
64478SOL    HW293459  12.401   7.221   8.594
64479SOL     OW93460  11.255   6.844   8.470
64479SOL    HW193461  11.250   6.843   8.570
64479SOL    HW293462  11.172   6.803   8.432
64480SOL     OW93463  11.860   7.248   9.164
64480SOL    HW193464  11.804   7.329   9.173
64480SOL    HW293465  11.912   7.252   9.078
64481SOL     OW93466  12.898   5.721   7.971
64481SOL    HW193467  12.971   5.704   7.904
64481SOL    HW293468  12.867   5.634   8.009
64482SOL     OW93469  12.560   7.159   7.925
64482SOL    HW193470  12.627   7.171   7.851
64482SOL    HW293471  12.520   7.248   7.948
64483SOL     OW93472  11.302   7.380   9.299
64483SOL    HW193473  11.261   7.306   9.352
64483SOL    HW293474  11.366   7.431   9.357
64484SOL     OW93475  12.452   6.513   8.120
64484SOL    HW193476  12.512   6.432   8.122
64484SOL    HW293477  12.492   6.582   8.060
64485SOL     OW93478  12.002   6.859   8.870
64485SOL    HW193479  11.997   6.892   8.965
64485SOL    HW293480  11.916   6.878   8.824
64486SOL     OW93481  11.844   7.202   7.602
64486SOL    HW193482  11.853   7.212   7.503
64486SOL    HW293483  11.804   7.113   7.623
64487SOL     OW93484  11.435   5.912   8.168
64487SOL    HW193485  11.356   5.963   8.134
64487SOL    HW293486  11.426   5.897   8.266
64488SOL     OW93487  12.366   7.198   7.479
64488SOL    HW193488  12.372   7.105   7.516
64488SOL    HW293489  12.307   7.198   7.399
64489SOL     OW93490  11.994   6.588   8.820
64489SOL    HW193491  12.034   6.587   8.728
64489SOL    HW293492  12.004   6.680   8.860
64490SOL     OW93493  12.088   6.496   7.739
64490SOL    HW193494  12.151   6.534   7.671
64490SOL    HW293495  12.128   6.413   7.778
64491SOL     OW93496  12.676   7.193   7.492
64491SOL    HW193497  12.584   7.230   7.499
64491SOL    HW293498  12.714   7.213   7.402
64492SOL     OW93499  11.544   6.874   8.938
64492SOL    HW193500  11.531   6.967   8.904
64492SOL    HW293501  11.460   6.822   8.925
64493SOL     OW93502  12.211   6.684   8.144
64493SOL    HW193503  12.141   6.637   8.198
64493SOL    HW293504  12.270   6.616   8.101
64494SOL     OW93505  12.186   5.822   8.419
64494SOL    HW193506  12.178   5.786   8.326
64494SOL    HW293507  12.184   5.746   8.484
64495SOL     OW93508  11.762   7.073   7.939
64495SOL    HW193509  11.804   7.015   7.869
64495SOL    HW293510  11.718   7.152   7.895
64496SOL     OW93511  11.427   6.934   7.738
64496SOL    HW193512  11.331   6.935   7.711
64496SOL    HW293513  11.439   6.987   7.822
64497SOL     OW93514  11.277   6.599   9.174
64497SOL    HW193515  11.200   6.566   9.228
64497SOL    HW293516  11.362   6.569   9.216
64498SOL     OW93517  11.844   5.789   8.937
64498SOL    HW193518  11.934   5.773   8.897
64498SOL    HW293519  11.852   5.794   9.036
64499SOL     OW93520  11.247   5.931   7.481
64499SOL    HW193521  11.155   5.903   7.452
64499SOL    HW293522  11.278   6.008   7.425
64500SOL     OW93523  12.612   6.442   8.846
64500SOL    HW193524  12.555   6.494   8.783
64500SOL    HW293525  12.708   6.454   8.822
64501SOL     OW93526  11.244   5.752   7.766
64501SOL    HW193527  11.227   5.835   7.712
64501SOL    HW293528  11.334   5.715   7.744
64502SOL     OW93529  12.355   6.921   7.567
64502SOL    HW193530  12.256   6.910   7.569
64502SOL    HW293531  12.389   6.936   7.660
64503SOL     OW93532  11.785   6.428   8.879
64503SOL    HW193533  11.841   6.509   8.862
64503SOL    HW293534  11.844   6.348   8.882
64504SOL     OW93535  12.665   7.353   8.407
64504SOL    HW193536  12.698   7.417   8.338
64504SOL    HW293537  12.731   7.347   8.482
64505SOL     OW93538  11.888   6.151   9.156
64505SOL    HW193539  11.907   6.216   9.230
64505SOL    HW293540  11.948   6.071   9.165
64506SOL     OW93541  12.622   6.806   9.081
64506SOL    HW193542  12.613   6.796   9.180
64506SOL    HW293543  12.718   6.799   9.055
64507SOL     OW93544  11.562   7.327   9.008
64507SOL    HW193545  11.471   7.368   9.006
64507SOL    HW293546  11.555   7.233   9.040
64508SOL     OW93547  12.397   5.911   7.897
64508SOL    HW193548  12.462   5.837   7.886
64508SOL    HW293549  12.417   5.961   7.981
64509SOL     OW93550  11.766   6.331   8.100
64509SOL    HW193551  11.816   6.416   8.081
64509SOL    HW293552  11.678   6.333   8.052
64510SOL     OW93553  12.031   6.960   7.464
64510SOL    HW193554  11.985   6.975   7.552
64510SOL    HW293555  12.075   7.045   7.434
64511SOL     OW93556  11.833   7.376   8.401
64511SOL    HW193557  11.787   7.464   8.388
64511SOL    HW293558  11.932   7.388   8.394
64512SOL     OW93559  12.031   6.542   8.309
64512SOL    HW193560  12.085   6.473   8.357
64512SOL    HW293561  11.999   6.611   8.375
64513SOL     OW93562  12.255   6.570   7.535
64513SOL    HW193563  12.232   6.623   7.453
64513SOL    HW293564  12.336   6.514   7.516
64514SOL     OW93565  13.033   7.155   8.299
64514SOL    HW193566  12.962   7.143   8.229
64514SOL    HW293567  13.034   7.076   8.359
64515SOL     OW93568  11.393   6.900   9.292
64515SOL    HW193569  11.328   6.827   9.271
64515SOL    HW293570  11.397   6.914   9.390
64516SOL     OW93571  11.251   6.826   8.101
64516SOL    HW193572  11.250   6.779   8.189
64516SOL    HW293573  11.333   6.798   8.050
64517SOL     OW93574  11.844   6.977   9.072
64517SOL    HW193575  11.766   6.927   9.110
64517SOL    HW293576  11.841   7.072   9.103
64518SOL     OW93577  11.600   6.010   7.968
64518SOL    HW193578  11.630   5.938   7.906
64518SOL    HW293579  11.561   5.970   8.051
64519SOL     OW93580  11.489   6.133   8.728
64519SOL    HW193581  11.527   6.074   8.800
64519SOL    HW293582  11.529   6.107   8.640
64520SOL     OW93583  11.984   7.172   8.135
64520SOL    HW193584  12.016   7.182   8.041
64520SOL    HW293585  11.905   7.110   8.137
64521SOL     OW93586  12.596   5.800   8.560
64521SOL    HW193587  12.648   5.735   8.615
64521SOL    HW293588  12.547   5.863   8.621
64522SOL     OW93589  12.173   5.620   8.602
64522SOL    HW193590  12.110   5.548   8.571
64522SOL    HW293591  12.266   5.584   8.602
64523SOL     OW93592  11.942   6.916   7.749
64523SOL    HW193593  11.896   6.829   7.766
64523SOL    HW293594  12.033   6.913   7.790
64524SOL     OW93595  11.790   7.153   8.732
64524SOL    HW193596  11.785   7.235   8.789
64524SOL    HW293597  11.879   7.150   8.687
64525SOL     OW93598  12.524   5.638   7.616
64525SOL    HW193599  12.559   5.597   7.532
64525SOL    HW293600  12.434   5.600   7.636
64526SOL     OW93601  12.472   6.039   8.139
64526SOL    HW193602  12.413   6.119   8.143
64526SOL    HW293603  12.487   6.004   8.232
64527SOL     OW93604  12.765   5.807   8.330
64527SOL    HW193605  12.681   5.806   8.384
64527SOL    HW293606  12.767   5.890   8.274
64528SOL     OW93607  11.211   6.663   7.748
64528SOL    HW193608  11.310   6.652   7.739
64528SOL    HW293609  11.171   6.577   7.780
64529SOL     OW93610  12.047   7.232   7.785
64529SOL    HW193611  11.970   7.197   7.731
64529SOL    HW293612  12.015   7.303   7.847
64530SOL     OW93613  11.402   6.214   9.423
64530SOL    HW193614  11.309   6.212   9.460
64530SOL    HW293615  11.403   6.175   9.331
64531SOL     OW93616  11.397   5.861  10.306
64531SOL    HW193617  11.432   5.844  10.398
64531SOL    HW293618  11.309   5.816  10.294
64532SOL     OW93619  11.741   6.861  10.475
64532SOL    HW193620  11.648   6.854  10.438
64532SOL    HW293621  11.752   6.950  10.519
64533SOL     OW93622  12.727   7.097  10.013
64533SOL    HW193623  12.670   7.081  10.094
64533SOL    HW293624  12.668   7.107   9.933
64534SOL     OW93625  12.307   6.289  10.027
64534SOL    HW193626  12.364   6.367  10.002
64534SOL    HW293627  12.247   6.315  10.103
64535SOL     OW93628  11.940   6.730  10.333
64535SOL    HW193629  11.862   6.747  10.393
64535SOL    HW293630  11.974   6.817  10.297
64536SOL     OW93631  12.022   6.384  11.133
64536SOL    HW193632  12.018   6.460  11.198
64536SOL    HW293633  12.044   6.420  11.042
64537SOL     OW93634  11.857   6.598   9.975
64537SOL    HW193635  11.926   6.582  10.045
64537SOL    HW293636  11.784   6.655  10.013
64538SOL     OW93637  11.858   6.747  11.113
64538SOL    HW193638  11.918   6.826  11.127
64538SOL    HW293639  11.772   6.778  11.072
64539SOL     OW93640  11.507   7.021  10.371
64539SOL    HW193641  11.429   6.990  10.318
64539SOL    HW293642  11.565   7.079  10.314
64540SOL     OW93643  12.632   7.091  10.649
64540SOL    HW193644  12.656   7.185  10.675
64540SOL    HW293645  12.616   7.037  10.731
64541SOL     OW93646  11.610   5.978  10.809
64541SOL    HW193647  11.692   5.922  10.818
64541SOL    HW293648  11.529   5.920  10.813
64542SOL     OW93649  11.403   7.299   9.793
64542SOL    HW193650  11.437   7.376   9.847
64542SOL    HW293651  11.447   7.299   9.703
64543SOL     OW93652  12.299   6.927  11.000
64543SOL    HW193653  12.346   6.927  11.088
64543SOL    HW293654  12.251   6.840  10.989
64544SOL     OW93655  11.402   7.020   9.848
64544SOL    HW193656  11.376   7.116   9.848
64544SOL    HW293657  11.331   6.966   9.893
64545SOL     OW93658  11.412   6.677  10.196
64545SOL    HW193659  11.426   6.593  10.248
64545SOL    HW293660  11.357   6.741  10.251
64546SOL     OW93661  11.792   7.372  10.749
64546SOL    HW193662  11.700   7.355  10.784
64546SOL    HW293663  11.820   7.464  10.775
64547SOL     OW93664  11.778   6.550   9.433
64547SOL    HW193665  11.785   6.634   9.379
64547SOL    HW293666  11.824   6.563   9.521
64548SOL     OW93667  12.766   5.700  10.790
64548SOL    HW193668  12.748   5.767  10.718
64548SOL    HW293669  12.763   5.746  10.879
64549SOL     OW93670  11.294   6.229   9.873
64549SOL    HW193671  11.249   6.141   9.890
64549SOL    HW293672  11.293   6.283   9.957
64550SOL     OW93673  11.199   7.182   9.427
64550SOL    HW193674  11.180   7.086   9.448
64550SOL    HW293675  11.166   7.240   9.502
64551SOL     OW93676  12.861   6.508   9.922
64551SOL    HW193677  12.956   6.479   9.930
64551SOL    HW293678  12.853   6.573   9.847
64552SOL     OW93679  11.285   6.323  10.907
64552SOL    HW193680  11.373   6.310  10.952
64552SOL    HW293681  11.272   6.420  10.885
64553SOL     OW93682  11.785   6.951  10.036
64553SOL    HW193683  11.736   6.864  10.045
64553SOL    HW293684  11.762   6.994   9.949
64554SOL     OW93685  12.465   6.814  10.733
64554SOL    HW193686  12.502   6.741  10.675
64554SOL    HW293687  12.517   6.819  10.818
64555SOL     OW93688  11.981   5.590   9.812
64555SOL    HW193689  12.021   5.681   9.803
64555SOL    HW293690  11.881   5.598   9.818
64556SOL     OW93691  11.369   6.562  10.574
64556SOL    HW193692  11.458   6.517  10.560
64556SOL    HW293693  11.296   6.497  10.555
64557SOL     OW93694  12.359   7.378  10.926
64557SOL    HW193695  12.383   7.438  10.850
64557SOL    HW293696  12.366   7.283  10.896
64558SOL     OW93697  11.489   5.837  11.111
64558SOL    HW193698  11.560   5.908  11.117
64558SOL    HW293699  11.401   5.876  11.139
64559SOL     OW93700  12.638   7.003  10.263
64559SOL    HW193701  12.579   7.009  10.343
64559SOL    HW293702  12.623   6.915  10.217
64560SOL     OW93703  12.839   7.300   9.882
64560SOL    HW193704  12.798   7.277   9.794
64560SOL    HW293705  12.821   7.226   9.947
64561SOL     OW93706  11.770   6.315   9.580
64561SOL    HW193707  11.794   6.384   9.512
64561SOL    HW293708  11.692   6.348   9.634
64562SOL     OW93709  12.453   5.931  10.254
64562SOL    HW193710  12.367   5.881  10.241
64562SOL    HW293711  12.515   5.877  10.310
64563SOL     OW93712  11.979   6.191  10.775
64563SOL    HW193713  11.932   6.188  10.864
64563SOL    HW293714  11.928   6.136  10.709
64564SOL     OW93715  12.566   6.055  10.984
64564SOL    HW193716  12.546   6.098  11.072
64564SOL    HW293717  12.644   5.993  10.993
64565SOL     OW93718  12.145   6.476  10.882
64565SOL    HW193719  12.191   6.392  10.853
64565SOL    HW293720  12.089   6.510  10.807
64566SOL     OW93721  12.163   5.996  10.552
64566SOL    HW193722  12.086   6.030  10.606
64566SOL    HW293723  12.129   5.945  10.473
64567SOL     OW93724  12.213   6.287   9.739
64567SOL    HW193725  12.239   6.283   9.835
64567SOL    HW293726  12.128   6.236   9.725
64568SOL     OW93727  11.248   6.397  10.099
64568SOL    HW193728  11.347   6.385  10.108
64568SOL    HW293729  11.224   6.492  10.120
64569SOL     OW93730  11.302   7.407  10.881
64569SOL    HW193731  11.292   7.392  10.980
64569SOL    HW293732  11.216   7.443  10.845
64570SOL     OW93733  12.037   5.934   9.505
64570SOL    HW193734  12.096   5.997   9.456
64570SOL    HW293735  12.056   5.840   9.476
64571SOL     OW93736  12.534   6.730   9.855
64571SOL    HW193737  12.617   6.701   9.807
64571SOL    HW293738  12.485   6.797   9.799
64572SOL     OW93739  11.722   5.782  10.195
64572SOL    HW193740  11.717   5.777  10.295
64572SOL    HW293741  11.724   5.878  10.166
64573SOL     OW93742  12.180   7.042   9.787
64573SOL    HW193743  12.134   7.114   9.735
64573SOL    HW293744  12.176   7.062   9.885
64574SOL     OW93745  11.523   7.387  10.163
64574SOL    HW193746  11.573   7.301  10.169
64574SOL    HW293747  11.588   7.464  10.160
64575SOL     OW93748  12.399   7.136  10.816
64575SOL    HW193749  12.405   7.059  10.880
64575SOL    HW293750  12.347   7.110  10.736
64576SOL     OW93751  11.493   6.529   9.552
64576SOL    HW193752  11.575   6.568   9.510
64576SOL    HW293753  11.466   6.447   9.503
64577SOL     OW93754  12.630   6.321  10.038
64577SOL    HW193755  12.625   6.256  10.113
64577SOL    HW293756  12.710   6.380  10.051
64578SOL     OW93757  11.633   6.852  11.037
64578SOL    HW193758  11.583   6.853  10.951
64578SOL    HW293759  11.570   6.834  11.113
64579SOL     OW93760  12.283   7.362   9.547
64579SOL    HW193761  12.223   7.300   9.597
64579SOL    HW293762  12.314   7.318   9.462
64580SOL     OW93763  11.374   5.871  10.808
64580SOL    HW193764  11.294   5.931  10.795
64580SOL    HW293765  11.364   5.822  10.894
64581SOL     OW93766  11.636   7.329   9.633
64581SOL    HW193767  11.669   7.368   9.719
64581SOL    HW293768  11.712   7.322   9.568
64582SOL     OW93769  12.572   5.693   9.736
64582SOL    HW193770  12.548   5.656   9.646
64582SOL    HW293771  12.671   5.709   9.740
64583SOL     OW93772  11.421   7.371  10.551
64583SOL    HW193773  11.478   7.306  10.601
64583SOL    HW293774  11.405   7.338  10.458
64584SOL     OW93775  12.112   7.284  10.214
64584SOL    HW193776  12.192   7.227  10.235
64584SOL    HW293777  12.063   7.244  10.137
64585SOL     OW93778  11.554   6.286   9.790
64585SOL    HW193779  11.599   6.196   9.787
64585SOL    HW293780  11.460   6.275   9.823
64586SOL     OW93781  11.786   5.708   9.427
64586SOL    HW193782  11.884   5.686   9.434
64586SOL    HW293783  11.755   5.691   9.334
64587SOL     OW93784  11.953   5.850  11.059
64587SOL    HW193785  12.020   5.789  11.102
64587SOL    HW293786  11.880   5.869  11.124
64588SOL     OW93787  12.060   7.100  10.505
64588SOL    HW193788  12.037   7.075  10.411
64588SOL    HW293789  12.121   7.031  10.544
64589SOL     OW93790  12.523   6.176  10.743
64589SOL    HW193791  12.551   6.133  10.828
64589SOL    HW293792  12.548   6.272  10.744
64590SOL     OW93793  11.975   6.988  10.234
64590SOL    HW193794  12.065   7.002  10.192
64590SOL    HW293795  11.904   6.990  10.163
64591SOL     OW93796  12.094   6.089  10.209
64591SOL    HW193797  12.069   6.080  10.113
64591SOL    HW293798  12.142   6.007  10.240
64592SOL     OW93799  11.711   5.650   9.822
64592SOL    HW193800  11.630   5.651   9.880
64592SOL    HW293801  11.714   5.733   9.767
64593SOL     OW93802  12.606   6.774   9.351
64593SOL    HW193803  12.638   6.698   9.408
64593SOL    HW293804  12.514   6.801   9.381
64594SOL     OW93805  11.469   5.621   9.481
64594SOL    HW193806  11.518   5.705   9.460
64594SOL    HW293807  11.531   5.556   9.526
64595SOL     OW93808  12.107   5.822   9.790
64595SOL    HW193809  12.059   5.863   9.712
64595SOL    HW293810  12.206   5.820   9.771
64596SOL     OW93811  12.248   6.269  10.774
64596SOL    HW193812  12.168   6.208  10.777
64596SOL    HW293813  12.329   6.216  10.750
64597SOL     OW93814  12.399   7.156  10.103
64597SOL    HW193815  12.420   7.230  10.038
64597SOL    HW293816  12.467   7.156  10.176
64598SOL     OW93817  11.631   6.738  10.051
64598SOL    HW193818  11.560   6.711  10.116
64598SOL    HW293819  11.605   6.710   9.958
64599SOL     OW93820  12.443   7.383   9.901
64599SOL    HW193821  12.487   7.447   9.837
64599SOL    HW293822  12.393   7.435   9.971
64600SOL     OW93823  12.204   6.135   9.326
64600SOL    HW193824  12.163   6.217   9.287
64600SOL    HW293825  12.268   6.161   9.399
64601SOL     OW93826  11.250   6.142  10.696
64601SOL    HW193827  11.342   6.141  10.655
64601SOL    HW293828  11.244   6.216  10.763
64602SOL     OW93829  11.733   5.808  10.457
64602SOL    HW193830  11.771   5.724  10.494
64602SOL    HW293831  11.645   5.827  10.501
64603SOL     OW93832  12.038   6.040   9.952
64603SOL    HW193833  12.006   6.112   9.890
64603SOL    HW293834  12.062   5.959   9.899
64604SOL     OW93835  12.189   5.625  10.063
64604SOL    HW193836  12.117   5.630   9.994
64604SOL    HW293837  12.165   5.556  10.132
64605SOL     OW93838  12.601   6.759  10.177
64605SOL    HW193839  12.546   6.675  10.170
64605SOL    HW293840  12.627   6.788  10.085
64606SOL     OW93841  12.638   6.176  10.302
64606SOL    HW193842  12.608   6.081  10.309
64606SOL    HW293843  12.711   6.192  10.368
64607SOL     OW93844  11.660   6.971   9.484
64607SOL    HW193845  11.573   6.956   9.531
64607SOL    HW293846  11.643   6.997   9.389
64608SOL     OW93847  12.562   6.161   9.388
64608SOL    HW193848  12.508   6.140   9.469
64608SOL    HW293849  12.653   6.120   9.397
64609SOL     OW93850  11.699   5.842   9.638
64609SOL    HW193851  11.726   5.783   9.563
64609SOL    HW293852  11.699   5.937   9.607
64610SOL     OW93853  12.236   6.933  10.650
64610SOL    HW193854  12.156   6.910  10.705
64610SOL    HW293855  12.319   6.907  10.699
64611SOL     OW93856  12.764   7.215  10.935
64611SOL    HW193857  12.791   7.249  10.845
64611SOL    HW293858  12.843   7.177  10.981
64612SOL     OW93859  12.283   6.781  10.410
64612SOL    HW193860  12.243   6.825  10.491
64612SOL    HW293861  12.242   6.818  10.327
64613SOL     OW93862  12.087   5.675  10.712
64613SOL    HW193863  12.112   5.655  10.617
64613SOL    HW293864  12.159   5.731  10.754
64614SOL     OW93865  12.152   6.702  11.029
64614SOL    HW193866  12.053   6.708  11.039
64614SOL    HW293867  12.175   6.622  10.973
64615SOL     OW93868  11.877   6.636   9.678
64615SOL    HW193869  11.863   6.643   9.777
64615SOL    HW293870  11.961   6.585   9.660
64616SOL     OW93871  11.582   6.399  10.561
64616SOL    HW193872  11.668   6.411  10.611
64616SOL    HW293873  11.540   6.312  10.588
64617SOL     OW93874  12.446   5.972  10.572
64617SOL    HW193875  12.467   6.046  10.636
64617SOL    HW293876  12.357   5.989  10.529
64618SOL     OW93877  11.236   7.150  10.641
64618SOL    HW193878  11.190   7.232  10.607
64618SOL    HW293879  11.334   7.169  10.650
64619SOL     OW93880  11.539   6.686   9.811
64619SOL    HW193881  11.532   6.769   9.755
64619SOL    HW293882  11.543   6.606   9.751
64620SOL     OW93883  11.738   6.123  10.175
64620SOL    HW193884  11.750   6.189  10.101
64620SOL    HW293885  11.784   6.157  10.258
64621SOL     OW93886  12.424   6.934   9.698
64621SOL    HW193887  12.474   7.011   9.738
64621SOL    HW293888  12.329   6.936   9.730
64622SOL     OW93889  12.444   7.031  10.452
64622SOL    HW193890  12.491   7.044  10.539
64622SOL    HW293891  12.378   6.957  10.461
64623SOL     OW93892  12.754   6.225   9.782
64623SOL    HW193893  12.723   6.286   9.855
64623SOL    HW293894  12.804   6.277   9.713
64624SOL     OW93895  11.526   7.096  10.639
64624SOL    HW193896  11.505   7.052  10.552
64624SOL    HW293897  11.623   7.122  10.642
64625SOL     OW93898  11.574   6.337  10.908
64625SOL    HW193899  11.642   6.392  10.861
64625SOL    HW293900  11.614   6.249  10.935
64626SOL     OW93901  12.185   5.691  11.080
64626SOL    HW193902  12.191   5.776  11.028
64626SOL    HW293903  12.217   5.615  11.023
64627SOL     OW93904  11.676   5.636  11.050
64627SOL    HW193905  11.634   5.579  10.980
64627SOL    HW293906  11.610   5.705  11.082
64628SOL     OW93907  11.745   6.456  10.339
64628SOL    HW193908  11.789   6.545  10.330
64628SOL    HW293909  11.682   6.456  10.416
64629SOL     OW93910  12.532   6.448  10.355
64629SOL    HW193911  12.457   6.448  10.289
64629SOL    HW293912  12.569   6.356  10.364
64630SOL     OW93913  12.381   6.111   9.585
64630SOL    HW193914  12.394   6.027   9.639
64630SOL    HW293915  12.352   6.185   9.645
64631SOL     OW93916  11.479   5.799  10.541
64631SOL    HW193917  11.456   5.836  10.631
64631SOL    HW293918  11.449   5.704  10.535
64632SOL     OW93919  11.209   6.896  10.592
64632SOL    HW193920  11.262   6.847  10.660
64632SOL    HW293921  11.231   6.994  10.597
64633SOL     OW93922  11.904   6.220  10.374
64633SOL    HW193923  11.963   6.194  10.298
64633SOL    HW293924  11.876   6.316  10.363
64634SOL     OW93925  11.479   5.649   9.928
64634SOL    HW193926  11.468   5.743   9.961
64634SOL    HW293927  11.474   5.586  10.005
64635SOL     OW93928  12.794   5.953   9.684
64635SOL    HW193929  12.796   5.877   9.748
64635SOL    HW293930  12.746   6.030   9.724
64636SOL     OW93931  12.195   6.352  10.276
64636SOL    HW193932  12.210   6.373  10.372
64636SOL    HW293933  12.165   6.257  10.267
64637SOL     OW93934  12.152   7.159  11.010
64637SOL    HW193935  12.132   7.203  10.922
64637SOL    HW293936  12.191   7.068  10.994
64638SOL     OW93937  11.522   6.484  11.114
64638SOL    HW193938  11.598   6.528  11.162
64638SOL    HW293939  11.557   6.437  11.032
64639SOL     OW93940  12.712   5.860   9.435
64639SOL    HW193941  12.651   5.785   9.458
64639SOL    HW293942  12.734   5.912   9.518
64640SOL     OW93943  12.475   6.424   9.352
64640SOL    HW193944  12.509   6.331   9.367
64640SOL    HW293945  12.493   6.451   9.257
64641SOL     OW93946  12.240   6.919  10.159
64641SOL    HW193947  12.247   6.835  10.104
64641SOL    HW293948  12.302   6.988  10.123
64642SOL     OW93949  11.491   6.396  10.259
64642SOL    HW193950  11.584   6.432  10.264
64642SOL    HW293951  11.485   6.311  10.311
64643SOL     OW93952  11.511   6.095  10.316
64643SOL    HW193953  11.459   6.012  10.299
64643SOL    HW293954  11.588   6.100  10.252
64644SOL     OW93955  12.310   5.966  10.988
64644SOL    HW193956  12.265   6.029  11.052
64644SOL    HW293957  12.403   5.997  10.971
64645SOL     OW93958  12.332   5.793  10.787
64645SOL    HW193959  12.332   5.857  10.864
64645SOL    HW293960  12.360   5.841  10.704
64646SOL     OW93961  11.180   6.912   9.510
64646SOL    HW193962  11.087   6.933   9.479
64646SOL    HW293963  11.190   6.813   9.523
64647SOL     OW93964  11.260   7.387  10.237
64647SOL    HW193965  11.218   7.301  10.210
64647SOL    HW293966  11.354   7.390  10.203
64648SOL     OW93967  11.676   7.154  10.220
64648SOL    HW193968  11.742   7.228  10.229
64648SOL    HW293969  11.720   7.075  10.178
64649SOL     OW93970  12.174   6.382  10.548
64649SOL    HW193971  12.215   6.350  10.634
64649SOL    HW293972  12.078   6.355  10.545
64650SOL     OW93973  11.212   6.130  10.424
64650SOL    HW193974  11.297   6.097  10.383
64650SOL    HW293975  11.225   6.145  10.522
64651SOL     OW93976  11.361   6.106  11.032
64651SOL    HW193977  11.420   6.066  10.962
64651SOL    HW293978  11.303   6.177  10.991
64652SOL     OW93979  12.541   6.536  10.970
64652SOL    HW193980  12.580   6.625  10.990
64652SOL    HW293981  12.551   6.516  10.873
64653SOL     OW93982  11.987   6.158   9.635
64653SOL    HW193983  11.994   6.069   9.589
64653SOL    HW293984  11.893   6.192   9.627
64654SOL     OW93985  11.424   7.150  11.054
64654SOL    HW193986  11.394   7.207  11.130
64654SOL    HW293987  11.417   7.053  11.080
64655SOL     OW93988  11.843   6.050  10.579
64655SOL    HW193989  11.809   5.961  10.549
64655SOL    HW293990  11.869   6.104  10.499
64656SOL     OW93991  12.102   7.264  10.775
64656SOL    HW193992  12.078   7.246  10.680
64656SOL    HW293993  12.132   7.358  10.785
64657SOL     OW93994  11.645   6.086   9.501
64657SOL    HW193995  11.706   6.166   9.505
64657SOL    HW293996  11.550   6.117   9.508
64658SOL     OW93997  11.331   6.723  10.776
64658SOL    HW193998  11.353   6.662  10.852
64658SOL    HW293999  11.341   6.674  10.690
64659SOL     OW94000  12.519   6.645  10.544
64659SOL    HW194001  12.543   6.582  10.470
64659SOL    HW294002  12.429   6.685  10.526
64660SOL     OW94003  12.474   6.441   9.619
64660SOL    HW194004  12.388   6.410   9.661
64660SOL    HW294005  12.470   6.427   9.520
64661SOL     OW94006  12.424   7.317  10.438
64661SOL    HW194007  12.508   7.322  10.384
64661SOL    HW294008  12.401   7.221  10.456
64662SOL     OW94009  11.255   6.844  10.332
64662SOL    HW194010  11.250   6.843  10.432
64662SOL    HW294011  11.172   6.803  10.294
64663SOL     OW94012  11.860   7.248  11.026
64663SOL    HW194013  11.804   7.329  11.035
64663SOL    HW294014  11.912   7.252  10.940
64664SOL     OW94015  12.898   5.721   9.833
64664SOL    HW194016  12.971   5.704   9.766
64664SOL    HW294017  12.867   5.634   9.871
64665SOL     OW94018  12.560   7.159   9.787
64665SOL    HW194019  12.627   7.171   9.713
64665SOL    HW294020  12.520   7.248   9.810
64666SOL     OW94021  11.302   7.380  11.161
64666SOL    HW194022  11.261   7.306  11.214
64666SOL    HW294023  11.366   7.431  11.219
64667SOL     OW94024  12.452   6.513   9.982
64667SOL    HW194025  12.512   6.432   9.984
64667SOL    HW294026  12.492   6.582   9.922
64668SOL     OW94027  12.002   6.859  10.732
64668SOL    HW194028  11.997   6.892  10.827
64668SOL    HW294029  11.916   6.878  10.686
64669SOL     OW94030  11.844   7.202   9.464
64669SOL    HW194031  11.853   7.212   9.365
64669SOL    HW294032  11.804   7.113   9.485
64670SOL     OW94033  11.435   5.912  10.030
64670SOL    HW194034  11.356   5.963   9.996
64670SOL    HW294035  11.426   5.897  10.128
64671SOL     OW94036  12.366   7.198   9.341
64671SOL    HW194037  12.372   7.105   9.378
64671SOL    HW294038  12.307   7.198   9.261
64672SOL     OW94039  11.994   6.588  10.682
64672SOL    HW194040  12.034   6.587  10.590
64672SOL    HW294041  12.004   6.680  10.722
64673SOL     OW94042  12.676   7.193   9.354
64673SOL    HW194043  12.584   7.230   9.361
64673SOL    HW294044  12.714   7.213   9.264
64674SOL     OW94045  11.544   6.874  10.800
64674SOL    HW194046  11.531   6.967  10.766
64674SOL    HW294047  11.460   6.822  10.787
64675SOL     OW94048  12.211   6.684  10.006
64675SOL    HW194049  12.141   6.637  10.060
64675SOL    HW294050  12.270   6.616   9.963
64676SOL     OW94051  12.186   5.822  10.281
64676SOL    HW194052  12.178   5.786  10.188
64676SOL    HW294053  12.184   5.746  10.346
64677SOL     OW94054  11.762   7.073   9.801
64677SOL    HW194055  11.804   7.015   9.731
64677SOL    HW294056  11.718   7.152   9.757
64678SOL     OW94057  11.427   6.934   9.600
64678SOL    HW194058  11.331   6.935   9.573
64678SOL    HW294059  11.439   6.987   9.684
64679SOL     OW94060  11.277   6.599  11.036
64679SOL    HW194061  11.200   6.566  11.090
64679SOL    HW294062  11.362   6.569  11.078
64680SOL     OW94063  11.844   5.789  10.799
64680SOL    HW194064  11.934   5.773  10.759
64680SOL    HW294065  11.852   5.794  10.898
64681SOL     OW94066  11.247   5.931   9.343
64681SOL    HW194067  11.155   5.903   9.314
64681SOL    HW294068  11.278   6.008   9.287
64682SOL     OW94069  12.612   6.442  10.708
64682SOL    HW194070  12.555   6.494  10.645
64682SOL    HW294071  12.708   6.454  10.684
64683SOL     OW94072  11.244   5.752   9.628
64683SOL    HW194073  11.227   5.835   9.574
64683SOL    HW294074  11.334   5.715   9.606
64684SOL     OW94075  12.355   6.921   9.429
64684SOL    HW194076  12.256   6.910   9.431
64684SOL    HW294077  12.389   6.936   9.522
64685SOL     OW94078  11.785   6.428  10.741
64685SOL    HW194079  11.841   6.509  10.724
64685SOL    HW294080  11.844   6.348  10.744
64686SOL     OW94081  12.665   7.353  10.269
64686SOL    HW194082  12.698   7.417  10.200
64686SOL    HW294083  12.731   7.347  10.344
64687SOL     OW94084  11.888   6.151  11.018
64687SOL    HW194085  11.907   6.216  11.092
64687SOL    HW294086  11.948   6.071  11.027
64688SOL     OW94087  12.622   6.806  10.943
64688SOL    HW194088  12.613   6.796  11.042
64688SOL    HW294089  12.718   6.799  10.917
64689SOL     OW94090  11.562   7.327  10.870
64689SOL    HW194091  11.471   7.368  10.868
64689SOL    HW294092  11.555   7.233  10.902
64690SOL     OW94093  12.397   5.911   9.759
64690SOL    HW194094  12.462   5.837   9.748
64690SOL    HW294095  12.417   5.961   9.843
64691SOL     OW94096  11.766   6.331   9.962
64691SOL    HW194097  11.816   6.416   9.943
64691SOL    HW294098  11.678   6.333   9.914
64692SOL     OW94099  12.031   6.960   9.326
64692SOL    HW194100  11.985   6.975   9.414
64692SOL    HW294101  12.075   7.045   9.296
64693SOL     OW94102  11.833   7.376  10.263
64693SOL    HW194103  11.787   7.464  10.250
64693SOL    HW294104  11.932   7.388  10.256
64694SOL     OW94105  12.031   6.542  10.171
64694SOL    HW194106  12.085   6.473  10.219
64694SOL    HW294107  11.999   6.611  10.237
64695SOL     OW94108  12.255   6.570   9.397
64695SOL    HW194109  12.232   6.623   9.315
64695SOL    HW294110  12.336   6.514   9.378
64696SOL     OW94111  13.033   7.155  10.161
64696SOL    HW194112  12.962   7.143  10.091
64696SOL    HW294113  13.034   7.076  10.221
64697SOL     OW94114  11.393   6.900  11.154
64697SOL    HW194115  11.328   6.827  11.133
64697SOL    HW294116  11.397   6.914  11.252
64698SOL     OW94117  11.251   6.826   9.963
64698SOL    HW194118  11.250   6.779  10.051
64698SOL    HW294119  11.333   6.798   9.912
64699SOL     OW94120  11.844   6.977  10.934
64699SOL    HW194121  11.766   6.927  10.972
64699SOL    HW294122  11.841   7.072  10.965
64700SOL     OW94123  11.600   6.010   9.830
64700SOL    HW194124  11.630   5.938   9.768
64700SOL    HW294125  11.561   5.970   9.913
64701SOL     OW94126  11.489   6.133  10.590
64701SOL    HW194127  11.527   6.074  10.662
64701SOL    HW294128  11.529   6.107  10.502
64702SOL     OW94129  11.984   7.172   9.997
64702SOL    HW194130  12.016   7.182   9.903
64702SOL    HW294131  11.905   7.110   9.999
64703SOL     OW94132  12.596   5.800  10.422
64703SOL    HW194133  12.648   5.735  10.477
64703SOL    HW294134  12.547   5.863  10.483
64704SOL     OW94135  12.173   5.620  10.464
64704SOL    HW194136  12.110   5.548  10.433
64704SOL    HW294137  12.266   5.584  10.464
64705SOL     OW94138  11.942   6.916   9.611
64705SOL    HW194139  11.896   6.829   9.628
64705SOL    HW294140  12.033   6.913   9.652
64706SOL     OW94141  11.790   7.153  10.594
64706SOL    HW194142  11.785   7.235  10.651
64706SOL    HW294143  11.879   7.150  10.549
64707SOL     OW94144  12.524   5.638   9.478
64707SOL    HW194145  12.559   5.597   9.394
64707SOL    HW294146  12.434   5.600   9.498
64708SOL     OW94147  12.472   6.039  10.001
64708SOL    HW194148  12.413   6.119  10.005
64708SOL    HW294149  12.487   6.004  10.094
64709SOL     OW94150  12.765   5.807  10.192
64709SOL    HW194151  12.681   5.806  10.246
64709SOL    HW294152  12.767   5.890  10.136
64710SOL     OW94153  11.211   6.663   9.610
64710SOL    HW194154  11.310   6.652   9.601
64710SOL    HW294155  11.171   6.577   9.642
64711SOL     OW94156  12.047   7.232   9.647
64711SOL    HW194157  11.970   7.197   9.593
64711SOL    HW294158  12.015   7.303   9.709
64712SOL     OW94159  11.402   6.214  11.285
64712SOL    HW194160  11.309   6.212  11.322
64712SOL    HW294161  11.403   6.175  11.193
64713SOL     OW94162  11.397   5.861  12.168
64713SOL    HW194163  11.432   5.844  12.260
64713SOL    HW294164  11.309   5.816  12.156
64714SOL     OW94165  11.191   5.954  11.819
64714SOL    HW194166  11.109   5.997  11.858
64714SOL    HW294167  11.163   5.881  11.756
64715SOL     OW94168  11.741   6.861  12.337
64715SOL    HW194169  11.648   6.854  12.300
64715SOL    HW294170  11.752   6.950  12.381
64716SOL     OW94171  12.727   7.097  11.875
64716SOL    HW194172  12.670   7.081  11.956
64716SOL    HW294173  12.668   7.107  11.795
64717SOL     OW94174  12.307   6.289  11.889
64717SOL    HW194175  12.364   6.367  11.864
64717SOL    HW294176  12.247   6.315  11.965
64718SOL     OW94177  11.940   6.730  12.195
64718SOL    HW194178  11.862   6.747  12.255
64718SOL    HW294179  11.974   6.817  12.159
64719SOL     OW94180  11.857   6.598  11.837
64719SOL    HW194181  11.926   6.582  11.907
64719SOL    HW294182  11.784   6.655  11.875
64720SOL     OW94183  11.507   7.021  12.233
64720SOL    HW194184  11.429   6.990  12.180
64720SOL    HW294185  11.565   7.079  12.176
64721SOL     OW94186  12.632   7.091  12.511
64721SOL    HW194187  12.656   7.185  12.537
64721SOL    HW294188  12.616   7.037  12.593
64722SOL     OW94189  11.610   5.978  12.671
64722SOL    HW194190  11.692   5.922  12.680
64722SOL    HW294191  11.529   5.920  12.675
64723SOL     OW94192  11.403   7.299  11.655
64723SOL    HW194193  11.437   7.376  11.709
64723SOL    HW294194  11.447   7.299  11.565
64724SOL     OW94195  11.402   7.020  11.710
64724SOL    HW194196  11.376   7.116  11.710
64724SOL    HW294197  11.331   6.966  11.755
64725SOL     OW94198  11.412   6.677  12.058
64725SOL    HW194199  11.426   6.593  12.110
64725SOL    HW294200  11.357   6.741  12.113
64726SOL     OW94201  11.792   7.372  12.611
64726SOL    HW194202  11.700   7.355  12.646
64726SOL    HW294203  11.820   7.464  12.637
64727SOL     OW94204  11.778   6.550  11.295
64727SOL    HW194205  11.785   6.634  11.241
64727SOL    HW294206  11.824   6.563  11.383
64728SOL     OW94207  12.766   5.700  12.652
64728SOL    HW194208  12.748   5.767  12.580
64728SOL    HW294209  12.763   5.746  12.741
64729SOL     OW94210  11.294   6.229  11.735
64729SOL    HW194211  11.249   6.141  11.752
64729SOL    HW294212  11.293   6.283  11.819
64730SOL     OW94213  11.199   7.182  11.289
64730SOL    HW194214  11.180   7.086  11.310
64730SOL    HW294215  11.166   7.240  11.364
64731SOL     OW94216  12.861   6.508  11.784
64731SOL    HW194217  12.956   6.479  11.792
64731SOL    HW294218  12.853   6.573  11.709
64732SOL     OW94219  11.285   6.323  12.769
64732SOL    HW194220  11.373   6.310  12.814
64732SOL    HW294221  11.272   6.420  12.747
64733SOL     OW94222  11.785   6.951  11.898
64733SOL    HW194223  11.736   6.864  11.907
64733SOL    HW294224  11.762   6.994  11.811
64734SOL     OW94225  12.465   6.814  12.595
64734SOL    HW194226  12.502   6.741  12.537
64734SOL    HW294227  12.517   6.819  12.680
64735SOL     OW94228  11.981   5.590  11.674
64735SOL    HW194229  12.021   5.681  11.665
64735SOL    HW294230  11.881   5.598  11.680
64736SOL     OW94231  11.369   6.562  12.436
64736SOL    HW194232  11.458   6.517  12.422
64736SOL    HW294233  11.296   6.497  12.417
64737SOL     OW94234  12.638   7.003  12.125
64737SOL    HW194235  12.579   7.009  12.205
64737SOL    HW294236  12.623   6.915  12.079
64738SOL     OW94237  12.839   7.300  11.744
64738SOL    HW194238  12.798   7.277  11.656
64738SOL    HW294239  12.821   7.226  11.809
64739SOL     OW94240  11.770   6.315  11.442
64739SOL    HW194241  11.794   6.384  11.374
64739SOL    HW294242  11.692   6.348  11.496
64740SOL     OW94243  12.453   5.931  12.116
64740SOL    HW194244  12.367   5.881  12.103
64740SOL    HW294245  12.515   5.877  12.172
64741SOL     OW94246  11.979   6.191  12.637
64741SOL    HW194247  11.932   6.188  12.726
64741SOL    HW294248  11.928   6.136  12.571
64742SOL     OW94249  12.145   6.476  12.744
64742SOL    HW194250  12.191   6.392  12.715
64742SOL    HW294251  12.089   6.510  12.669
64743SOL     OW94252  12.163   5.996  12.414
64743SOL    HW194253  12.086   6.030  12.468
64743SOL    HW294254  12.129   5.945  12.335
64744SOL     OW94255  12.213   6.287  11.601
64744SOL    HW194256  12.239   6.283  11.697
64744SOL    HW294257  12.128   6.236  11.587
64745SOL     OW94258  11.248   6.397  11.961
64745SOL    HW194259  11.347   6.385  11.970
64745SOL    HW294260  11.224   6.492  11.982
64746SOL     OW94261  11.302   7.407  12.743
64746SOL    HW194262  11.292   7.392  12.842
64746SOL    HW294263  11.216   7.443  12.707
64747SOL     OW94264  12.037   5.934  11.367
64747SOL    HW194265  12.096   5.997  11.318
64747SOL    HW294266  12.056   5.840  11.338
64748SOL     OW94267  12.534   6.730  11.717
64748SOL    HW194268  12.617   6.701  11.669
64748SOL    HW294269  12.485   6.797  11.661
64749SOL     OW94270  11.722   5.782  12.057
64749SOL    HW194271  11.717   5.777  12.157
64749SOL    HW294272  11.724   5.878  12.028
64750SOL     OW94273  12.180   7.042  11.649
64750SOL    HW194274  12.134   7.114  11.597
64750SOL    HW294275  12.176   7.062  11.747
64751SOL     OW94276  11.523   7.387  12.025
64751SOL    HW194277  11.573   7.301  12.031
64751SOL    HW294278  11.588   7.464  12.022
64752SOL     OW94279  12.399   7.136  12.678
64752SOL    HW194280  12.405   7.059  12.742
64752SOL    HW294281  12.347   7.110  12.598
64753SOL     OW94282  11.493   6.529  11.414
64753SOL    HW194283  11.575   6.568  11.372
64753SOL    HW294284  11.466   6.447  11.365
64754SOL     OW94285  12.630   6.321  11.900
64754SOL    HW194286  12.625   6.256  11.975
64754SOL    HW294287  12.710   6.380  11.913
64755SOL     OW94288  12.283   7.362  11.409
64755SOL    HW194289  12.223   7.300  11.459
64755SOL    HW294290  12.314   7.318  11.324
64756SOL     OW94291  11.374   5.871  12.670
64756SOL    HW194292  11.294   5.931  12.657
64756SOL    HW294293  11.364   5.822  12.756
64757SOL     OW94294  11.636   7.329  11.495
64757SOL    HW194295  11.669   7.368  11.581
64757SOL    HW294296  11.712   7.322  11.430
64758SOL     OW94297  12.572   5.693  11.598
64758SOL    HW194298  12.548   5.656  11.508
64758SOL    HW294299  12.671   5.709  11.602
64759SOL     OW94300  11.421   7.371  12.413
64759SOL    HW194301  11.478   7.306  12.463
64759SOL    HW294302  11.405   7.338  12.320
64760SOL     OW94303  12.112   7.284  12.076
64760SOL    HW194304  12.192   7.227  12.097
64760SOL    HW294305  12.063   7.244  11.999
64761SOL     OW94306  11.554   6.286  11.652
64761SOL    HW194307  11.599   6.196  11.649
64761SOL    HW294308  11.460   6.275  11.685
64762SOL     OW94309  11.786   5.708  11.289
64762SOL    HW194310  11.884   5.686  11.296
64762SOL    HW294311  11.755   5.691  11.196
64763SOL     OW94312  12.060   7.100  12.367
64763SOL    HW194313  12.037   7.075  12.273
64763SOL    HW294314  12.121   7.031  12.406
64764SOL     OW94315  12.523   6.176  12.605
64764SOL    HW194316  12.551   6.133  12.690
64764SOL    HW294317  12.548   6.272  12.606
64765SOL     OW94318  11.975   6.988  12.096
64765SOL    HW194319  12.065   7.002  12.054
64765SOL    HW294320  11.904   6.990  12.025
64766SOL     OW94321  12.094   6.089  12.071
64766SOL    HW194322  12.069   6.080  11.975
64766SOL    HW294323  12.142   6.007  12.102
64767SOL     OW94324  11.711   5.650  11.684
64767SOL    HW194325  11.630   5.651  11.742
64767SOL    HW294326  11.714   5.733  11.629
64768SOL     OW94327  12.606   6.774  11.213
64768SOL    HW194328  12.638   6.698  11.270
64768SOL    HW294329  12.514   6.801  11.243
64769SOL     OW94330  11.469   5.621  11.343
64769SOL    HW194331  11.518   5.705  11.322
64769SOL    HW294332  11.531   5.556  11.388
64770SOL     OW94333  12.107   5.822  11.652
64770SOL    HW194334  12.059   5.863  11.574
64770SOL    HW294335  12.206   5.820  11.633
64771SOL     OW94336  12.248   6.269  12.636
64771SOL    HW194337  12.168   6.208  12.639
64771SOL    HW294338  12.329   6.216  12.612
64772SOL     OW94339  12.399   7.156  11.965
64772SOL    HW194340  12.420   7.230  11.900
64772SOL    HW294341  12.467   7.156  12.038
64773SOL     OW94342  11.631   6.738  11.913
64773SOL    HW194343  11.560   6.711  11.978
64773SOL    HW294344  11.605   6.710  11.820
64774SOL     OW94345  12.443   7.383  11.763
64774SOL    HW194346  12.487   7.447  11.699
64774SOL    HW294347  12.393   7.435  11.833
64775SOL     OW94348  12.204   6.135  11.188
64775SOL    HW194349  12.163   6.217  11.149
64775SOL    HW294350  12.268   6.161  11.261
64776SOL     OW94351  11.250   6.142  12.558
64776SOL    HW194352  11.342   6.141  12.517
64776SOL    HW294353  11.244   6.216  12.625
64777SOL     OW94354  11.733   5.808  12.319
64777SOL    HW194355  11.771   5.724  12.356
64777SOL    HW294356  11.645   5.827  12.363
64778SOL     OW94357  12.038   6.040  11.814
64778SOL    HW194358  12.006   6.112  11.752
64778SOL    HW294359  12.062   5.959  11.761
64779SOL     OW94360  12.189   5.625  11.925
64779SOL    HW194361  12.117   5.630  11.856
64779SOL    HW294362  12.165   5.556  11.994
64780SOL     OW94363  12.601   6.759  12.039
64780SOL    HW194364  12.546   6.675  12.032
64780SOL    HW294365  12.627   6.788  11.947
64781SOL     OW94366  12.638   6.176  12.164
64781SOL    HW194367  12.608   6.081  12.171
64781SOL    HW294368  12.711   6.192  12.230
64782SOL     OW94369  11.660   6.971  11.346
64782SOL    HW194370  11.573   6.956  11.393
64782SOL    HW294371  11.643   6.997  11.251
64783SOL     OW94372  12.562   6.161  11.250
64783SOL    HW194373  12.508   6.140  11.331
64783SOL    HW294374  12.653   6.120  11.259
64784SOL     OW94375  11.699   5.842  11.500
64784SOL    HW194376  11.726   5.783  11.425
64784SOL    HW294377  11.699   5.937  11.469
64785SOL     OW94378  12.236   6.933  12.512
64785SOL    HW194379  12.156   6.910  12.567
64785SOL    HW294380  12.319   6.907  12.561
64786SOL     OW94381  12.283   6.781  12.272
64786SOL    HW194382  12.243   6.825  12.353
64786SOL    HW294383  12.242   6.818  12.189
64787SOL     OW94384  12.087   5.675  12.574
64787SOL    HW194385  12.112   5.655  12.479
64787SOL    HW294386  12.159   5.731  12.616
64788SOL     OW94387  11.877   6.636  11.540
64788SOL    HW194388  11.863   6.643  11.639
64788SOL    HW294389  11.961   6.585  11.522
64789SOL     OW94390  11.582   6.399  12.423
64789SOL    HW194391  11.668   6.411  12.473
64789SOL    HW294392  11.540   6.312  12.450
64790SOL     OW94393  12.446   5.972  12.434
64790SOL    HW194394  12.467   6.046  12.498
64790SOL    HW294395  12.357   5.989  12.391
64791SOL     OW94396  11.236   7.150  12.503
64791SOL    HW194397  11.190   7.232  12.469
64791SOL    HW294398  11.334   7.169  12.512
64792SOL     OW94399  11.539   6.686  11.673
64792SOL    HW194400  11.532   6.769  11.617
64792SOL    HW294401  11.543   6.606  11.613
64793SOL     OW94402  11.738   6.123  12.037
64793SOL    HW194403  11.750   6.189  11.963
64793SOL    HW294404  11.784   6.157  12.120
64794SOL     OW94405  12.424   6.934  11.560
64794SOL    HW194406  12.474   7.011  11.600
64794SOL    HW294407  12.329   6.936  11.592
64795SOL     OW94408  12.444   7.031  12.314
64795SOL    HW194409  12.491   7.044  12.401
64795SOL    HW294410  12.378   6.957  12.323
64796SOL     OW94411  12.754   6.225  11.644
64796SOL    HW194412  12.723   6.286  11.717
64796SOL    HW294413  12.804   6.277  11.575
64797SOL     OW94414  11.526   7.096  12.501
64797SOL    HW194415  11.505   7.052  12.414
64797SOL    HW294416  11.623   7.122  12.504
64798SOL     OW94417  11.574   6.337  12.770
64798SOL    HW194418  11.642   6.392  12.723
64798SOL    HW294419  11.614   6.249  12.797
64799SOL     OW94420  11.745   6.456  12.201
64799SOL    HW194421  11.789   6.545  12.192
64799SOL    HW294422  11.682   6.456  12.278
64800SOL     OW94423  12.532   6.448  12.217
64800SOL    HW194424  12.457   6.448  12.151
64800SOL    HW294425  12.569   6.356  12.226
64801SOL     OW94426  12.381   6.111  11.447
64801SOL    HW194427  12.394   6.027  11.501
64801SOL    HW294428  12.352   6.185  11.507
64802SOL     OW94429  11.479   5.799  12.403
64802SOL    HW194430  11.456   5.836  12.493
64802SOL    HW294431  11.449   5.704  12.397
64803SOL     OW94432  11.209   6.896  12.454
64803SOL    HW194433  11.262   6.847  12.522
64803SOL    HW294434  11.231   6.994  12.459
64804SOL     OW94435  11.904   6.220  12.236
64804SOL    HW194436  11.963   6.194  12.160
64804SOL    HW294437  11.876   6.316  12.225
64805SOL     OW94438  11.479   5.649  11.790
64805SOL    HW194439  11.468   5.743  11.823
64805SOL    HW294440  11.474   5.586  11.867
64806SOL     OW94441  12.794   5.953  11.546
64806SOL    HW194442  12.796   5.877  11.610
64806SOL    HW294443  12.746   6.030  11.586
64807SOL     OW94444  12.195   6.352  12.138
64807SOL    HW194445  12.210   6.373  12.234
64807SOL    HW294446  12.165   6.257  12.129
64808SOL     OW94447  12.712   5.860  11.297
64808SOL    HW194448  12.651   5.785  11.320
64808SOL    HW294449  12.734   5.912  11.380
64809SOL     OW94450  12.475   6.424  11.214
64809SOL    HW194451  12.509   6.331  11.229
64809SOL    HW294452  12.493   6.451  11.119
64810SOL     OW94453  12.240   6.919  12.021
64810SOL    HW194454  12.247   6.835  11.966
64810SOL    HW294455  12.302   6.988  11.985
64811SOL     OW94456  11.491   6.396  12.121
64811SOL    HW194457  11.584   6.432  12.126
64811SOL    HW294458  11.485   6.311  12.173
64812SOL     OW94459  11.511   6.095  12.178
64812SOL    HW194460  11.459   6.012  12.161
64812SOL    HW294461  11.588   6.100  12.114
64813SOL     OW94462  12.332   5.793  12.649
64813SOL    HW194463  12.332   5.857  12.726
64813SOL    HW294464  12.360   5.841  12.566
64814SOL     OW94465  11.180   6.912  11.372
64814SOL    HW194466  11.087   6.933  11.341
64814SOL    HW294467  11.190   6.813  11.385
64815SOL     OW94468  11.260   7.387  12.099
64815SOL    HW194469  11.218   7.301  12.072
64815SOL    HW294470  11.354   7.390  12.065
64816SOL     OW94471  11.676   7.154  12.082
64816SOL    HW194472  11.742   7.228  12.091
64816SOL    HW294473  11.720   7.075  12.040
64817SOL     OW94474  12.174   6.382  12.410
64817SOL    HW194475  12.215   6.350  12.496
64817SOL    HW294476  12.078   6.355  12.407
64818SOL     OW94477  11.212   6.130  12.286
64818SOL    HW194478  11.297   6.097  12.245
64818SOL    HW294479  11.225   6.145  12.384
64819SOL     OW94480  11.987   6.158  11.497
64819SOL    HW194481  11.994   6.069  11.451
64819SOL    HW294482  11.893   6.192  11.489
64820SOL     OW94483  11.424   7.150  12.916
64820SOL    HW194484  11.394   7.207  12.992
64820SOL    HW294485  11.417   7.053  12.942
64821SOL     OW94486  11.843   6.050  12.441
64821SOL    HW194487  11.809   5.961  12.411
64821SOL    HW294488  11.869   6.104  12.361
64822SOL     OW94489  12.102   7.264  12.637
64822SOL    HW194490  12.078   7.246  12.542
64822SOL    HW294491  12.132   7.358  12.647
64823SOL     OW94492  11.645   6.086  11.363
64823SOL    HW194493  11.706   6.166  11.367
64823SOL    HW294494  11.550   6.117  11.370
64824SOL     OW94495  11.331   6.723  12.638
64824SOL    HW194496  11.353   6.662  12.714
64824SOL    HW294497  11.341   6.674  12.552
64825SOL     OW94498  12.519   6.645  12.406
64825SOL    HW194499  12.543   6.582  12.332
64825SOL    HW294500  12.429   6.685  12.388
64826SOL     OW94501  12.474   6.441  11.481
64826SOL    HW194502  12.388   6.410  11.523
64826SOL    HW294503  12.470   6.427  11.382
64827SOL     OW94504  12.424   7.317  12.300
64827SOL    HW194505  12.508   7.322  12.246
64827SOL    HW294506  12.401   7.221  12.318
64828SOL     OW94507  11.255   6.844  12.194
64828SOL    HW194508  11.250   6.843  12.294
64828SOL    HW294509  11.172   6.803  12.156
64829SOL     OW94510  12.898   5.721  11.695
64829SOL    HW194511  12.971   5.704  11.628
64829SOL    HW294512  12.867   5.634  11.733
64830SOL     OW94513  12.560   7.159  11.649
64830SOL    HW194514  12.627   7.171  11.575
64830SOL    HW294515  12.520   7.248  11.672
64831SOL     OW94516  12.452   6.513  11.844
64831SOL    HW194517  12.512   6.432  11.846
64831SOL    HW294518  12.492   6.582  11.784
64832SOL     OW94519  12.002   6.859  12.594
64832SOL    HW194520  11.997   6.892  12.689
64832SOL    HW294521  11.916   6.878  12.548
64833SOL     OW94522  11.844   7.202  11.326
64833SOL    HW194523  11.853   7.212  11.227
64833SOL    HW294524  11.804   7.113  11.347
64834SOL     OW94525  11.435   5.912  11.892
64834SOL    HW194526  11.356   5.963  11.858
64834SOL    HW294527  11.426   5.897  11.990
64835SOL     OW94528  12.366   7.198  11.203
64835SOL    HW194529  12.372   7.105  11.240
64835SOL    HW294530  12.307   7.198  11.123
64836SOL     OW94531  11.994   6.588  12.544
64836SOL    HW194532  12.034   6.587  12.452
64836SOL    HW294533  12.004   6.680  12.584
64837SOL     OW94534  12.088   6.496  11.463
64837SOL    HW194535  12.151   6.534  11.395
64837SOL    HW294536  12.128   6.413  11.502
64838SOL     OW94537  12.676   7.193  11.216
64838SOL    HW194538  12.584   7.230  11.223
64838SOL    HW294539  12.714   7.213  11.126
64839SOL     OW94540  11.544   6.874  12.662
64839SOL    HW194541  11.531   6.967  12.628
64839SOL    HW294542  11.460   6.822  12.649
64840SOL     OW94543  12.211   6.684  11.868
64840SOL    HW194544  12.141   6.637  11.922
64840SOL    HW294545  12.270   6.616  11.825
64841SOL     OW94546  12.186   5.822  12.143
64841SOL    HW194547  12.178   5.786  12.050
64841SOL    HW294548  12.184   5.746  12.208
64842SOL     OW94549  11.762   7.073  11.663
64842SOL    HW194550  11.804   7.015  11.593
64842SOL    HW294551  11.718   7.152  11.619
64843SOL     OW94552  11.427   6.934  11.462
64843SOL    HW194553  11.331   6.935  11.435
64843SOL    HW294554  11.439   6.987  11.546
64844SOL     OW94555  11.277   6.599  12.898
64844SOL    HW194556  11.200   6.566  12.952
64844SOL    HW294557  11.362   6.569  12.940
64845SOL     OW94558  11.844   5.789  12.661
64845SOL    HW194559  11.934   5.773  12.621
64845SOL    HW294560  11.852   5.794  12.760
64846SOL     OW94561  11.247   5.931  11.205
64846SOL    HW194562  11.155   5.903  11.176
64846SOL    HW294563  11.278   6.008  11.149
64847SOL     OW94564  12.612   6.442  12.570
64847SOL    HW194565  12.555   6.494  12.507
64847SOL    HW294566  12.708   6.454  12.546
64848SOL     OW94567  11.244   5.752  11.490
64848SOL    HW194568  11.227   5.835  11.436
64848SOL    HW294569  11.334   5.715  11.468
64849SOL     OW94570  12.355   6.921  11.291
64849SOL    HW194571  12.256   6.910  11.293
64849SOL    HW294572  12.389   6.936  11.384
64850SOL     OW94573  11.785   6.428  12.603
64850SOL    HW194574  11.841   6.509  12.586
64850SOL    HW294575  11.844   6.348  12.606
64851SOL     OW94576  12.665   7.353  12.131
64851SOL    HW194577  12.698   7.417  12.062
64851SOL    HW294578  12.731   7.347  12.206
64852SOL     OW94579  11.888   6.151  12.880
64852SOL    HW194580  11.907   6.216  12.954
64852SOL    HW294581  11.948   6.071  12.889
64853SOL     OW94582  11.562   7.327  12.732
64853SOL    HW194583  11.471   7.368  12.730
64853SOL    HW294584  11.555   7.233  12.764
64854SOL     OW94585  12.397   5.911  11.621
64854SOL    HW194586  12.462   5.837  11.610
64854SOL    HW294587  12.417   5.961  11.705
64855SOL     OW94588  11.766   6.331  11.824
64855SOL    HW194589  11.816   6.416  11.805
64855SOL    HW294590  11.678   6.333  11.776
64856SOL     OW94591  12.031   6.960  11.188
64856SOL    HW194592  11.985   6.975  11.276
64856SOL    HW294593  12.075   7.045  11.158
64857SOL     OW94594  11.833   7.376  12.125
64857SOL    HW194595  11.787   7.464  12.112
64857SOL    HW294596  11.932   7.388  12.118
64858SOL     OW94597  12.031   6.542  12.033
64858SOL    HW194598  12.085   6.473  12.081
64858SOL    HW294599  11.999   6.611  12.099
64859SOL     OW94600  12.255   6.570  11.259
64859SOL    HW194601  12.232   6.623  11.177
64859SOL    HW294602  12.336   6.514  11.240
64860SOL     OW94603  13.033   7.155  12.023
64860SOL    HW194604  12.962   7.143  11.953
64860SOL    HW294605  13.034   7.076  12.083
64861SOL     OW94606  11.251   6.826  11.825
64861SOL    HW194607  11.250   6.779  11.913
64861SOL    HW294608  11.333   6.798  11.774
64862SOL     OW94609  11.844   6.977  12.796
64862SOL    HW194610  11.766   6.927  12.834
64862SOL    HW294611  11.841   7.072  12.827
64863SOL     OW94612  11.600   6.010  11.692
64863SOL    HW194613  11.630   5.938  11.630
64863SOL    HW294614  11.561   5.970  11.775
64864SOL     OW94615  11.489   6.133  12.452
64864SOL    HW194616  11.527   6.074  12.524
64864SOL    HW294617  11.529   6.107  12.364
64865SOL     OW94618  11.984   7.172  11.859
64865SOL    HW194619  12.016   7.182  11.765
64865SOL    HW294620  11.905   7.110  11.861
64866SOL     OW94621  12.596   5.800  12.284
64866SOL    HW194622  12.648   5.735  12.339
64866SOL    HW294623  12.547   5.863  12.345
64867SOL     OW94624  12.173   5.620  12.326
64867SOL    HW194625  12.110   5.548  12.295
64867SOL    HW294626  12.266   5.584  12.326
64868SOL     OW94627  11.942   6.916  11.473
64868SOL    HW194628  11.896   6.829  11.490
64868SOL    HW294629  12.033   6.913  11.514
64869SOL     OW94630  11.790   7.153  12.456
64869SOL    HW194631  11.785   7.235  12.513
64869SOL    HW294632  11.879   7.150  12.411
64870SOL     OW94633  12.524   5.638  11.340
64870SOL    HW194634  12.559   5.597  11.256
64870SOL    HW294635  12.434   5.600  11.360
64871SOL     OW94636  12.472   6.039  11.863
64871SOL    HW194637  12.413   6.119  11.867
64871SOL    HW294638  12.487   6.004  11.956
64872SOL     OW94639  12.765   5.807  12.054
64872SOL    HW194640  12.681   5.806  12.108
64872SOL    HW294641  12.767   5.890  11.998
64873SOL     OW94642  11.211   6.663  11.472
64873SOL    HW194643  11.310   6.652  11.463
64873SOL    HW294644  11.171   6.577  11.504
64874SOL     OW94645  12.047   7.232  11.509
64874SOL    HW194646  11.970   7.197  11.455
64874SOL    HW294647  12.015   7.303  11.571
64875SOL     OW94648  11.402   8.076   0.113
64875SOL    HW194649  11.309   8.074   0.150
64875SOL    HW294650  11.403   8.037   0.021
64876SOL     OW94651  11.397   7.723   0.996
64876SOL    HW194652  11.432   7.706   1.088
64876SOL    HW294653  11.309   7.678   0.984
64877SOL     OW94654  11.191   7.816   0.647
64877SOL    HW194655  11.109   7.859   0.686
64877SOL    HW294656  11.163   7.743   0.584
64878SOL     OW94657  11.741   8.723   1.165
64878SOL    HW194658  11.648   8.716   1.128
64878SOL    HW294659  11.752   8.812   1.209
64879SOL     OW94660  12.727   8.959   0.703
64879SOL    HW194661  12.670   8.943   0.784
64879SOL    HW294662  12.668   8.969   0.623
64880SOL     OW94663  12.307   8.151   0.717
64880SOL    HW194664  12.364   8.229   0.692
64880SOL    HW294665  12.247   8.177   0.793
64881SOL     OW94666  11.940   8.592   1.023
64881SOL    HW194667  11.862   8.609   1.083
64881SOL    HW294668  11.974   8.679   0.987
64882SOL     OW94669  12.022   8.246   1.823
64882SOL    HW194670  12.018   8.322   1.888
64882SOL    HW294671  12.044   8.282   1.732
64883SOL     OW94672  11.857   8.460   0.665
64883SOL    HW194673  11.926   8.444   0.735
64883SOL    HW294674  11.784   8.517   0.703
64884SOL     OW94675  11.858   8.609   1.803
64884SOL    HW194676  11.918   8.688   1.817
64884SOL    HW294677  11.772   8.640   1.762
64885SOL     OW94678  11.507   8.883   1.061
64885SOL    HW194679  11.429   8.852   1.008
64885SOL    HW294680  11.565   8.941   1.004
64886SOL     OW94681  12.632   8.953   1.339
64886SOL    HW194682  12.656   9.047   1.365
64886SOL    HW294683  12.616   8.899   1.421
64887SOL     OW94684  11.610   7.840   1.499
64887SOL    HW194685  11.692   7.784   1.508
64887SOL    HW294686  11.529   7.782   1.503
64888SOL     OW94687  11.403   9.161   0.483
64888SOL    HW194688  11.437   9.238   0.537
64888SOL    HW294689  11.447   9.161   0.393
64889SOL     OW94690  12.299   8.789   1.690
64889SOL    HW194691  12.346   8.789   1.778
64889SOL    HW294692  12.251   8.702   1.679
64890SOL     OW94693  11.402   8.882   0.538
64890SOL    HW194694  11.376   8.978   0.538
64890SOL    HW294695  11.331   8.828   0.583
64891SOL     OW94696  11.412   8.539   0.886
64891SOL    HW194697  11.426   8.455   0.938
64891SOL    HW294698  11.357   8.603   0.941
64892SOL     OW94699  11.792   9.234   1.439
64892SOL    HW194700  11.700   9.217   1.474
64892SOL    HW294701  11.820   9.326   1.465
64893SOL     OW94702  11.778   8.412   0.123
64893SOL    HW194703  11.785   8.496   0.069
64893SOL    HW294704  11.824   8.425   0.211
64894SOL     OW94705  12.766   7.562   1.480
64894SOL    HW194706  12.748   7.629   1.408
64894SOL    HW294707  12.763   7.608   1.569
64895SOL     OW94708  11.294   8.091   0.563
64895SOL    HW194709  11.249   8.003   0.580
64895SOL    HW294710  11.293   8.145   0.647
64896SOL     OW94711  11.199   9.044   0.117
64896SOL    HW194712  11.180   8.948   0.138
64896SOL    HW294713  11.166   9.102   0.192
64897SOL     OW94714  12.861   8.370   0.612
64897SOL    HW194715  12.956   8.341   0.620
64897SOL    HW294716  12.853   8.435   0.537
64898SOL     OW94717  11.285   8.185   1.597
64898SOL    HW194718  11.373   8.172   1.642
64898SOL    HW294719  11.272   8.282   1.575
64899SOL     OW94720  11.785   8.813   0.726
64899SOL    HW194721  11.736   8.726   0.735
64899SOL    HW294722  11.762   8.856   0.639
64900SOL     OW94723  12.465   8.676   1.423
64900SOL    HW194724  12.502   8.603   1.365
64900SOL    HW294725  12.517   8.681   1.508
64901SOL     OW94726  11.981   7.452   0.502
64901SOL    HW194727  12.021   7.543   0.493
64901SOL    HW294728  11.881   7.460   0.508
64902SOL     OW94729  11.369   8.424   1.264
64902SOL    HW194730  11.458   8.379   1.250
64902SOL    HW294731  11.296   8.359   1.245
64903SOL     OW94732  12.359   9.240   1.616
64903SOL    HW194733  12.383   9.300   1.540
64903SOL    HW294734  12.366   9.145   1.586
64904SOL     OW94735  11.489   7.699   1.801
64904SOL    HW194736  11.560   7.770   1.807
64904SOL    HW294737  11.401   7.738   1.829
64905SOL     OW94738  12.638   8.865   0.953
64905SOL    HW194739  12.579   8.871   1.033
64905SOL    HW294740  12.623   8.777   0.907
64906SOL     OW94741  12.839   9.162   0.572
64906SOL    HW194742  12.798   9.139   0.484
64906SOL    HW294743  12.821   9.088   0.637
64907SOL     OW94744  11.770   8.177   0.270
64907SOL    HW194745  11.794   8.246   0.202
64907SOL    HW294746  11.692   8.210   0.324
64908SOL     OW94747  12.453   7.793   0.944
64908SOL    HW194748  12.367   7.743   0.931
64908SOL    HW294749  12.515   7.739   1.000
64909SOL     OW94750  11.979   8.053   1.465
64909SOL    HW194751  11.932   8.050   1.554
64909SOL    HW294752  11.928   7.998   1.399
64910SOL     OW94753  12.566   7.917   1.674
64910SOL    HW194754  12.546   7.960   1.762
64910SOL    HW294755  12.644   7.855   1.683
64911SOL     OW94756  12.145   8.338   1.572
64911SOL    HW194757  12.191   8.254   1.543
64911SOL    HW294758  12.089   8.372   1.497
64912SOL     OW94759  12.163   7.858   1.242
64912SOL    HW194760  12.086   7.892   1.296
64912SOL    HW294761  12.129   7.807   1.163
64913SOL     OW94762  12.213   8.149   0.429
64913SOL    HW194763  12.239   8.145   0.525
64913SOL    HW294764  12.128   8.098   0.415
64914SOL     OW94765  11.248   8.259   0.789
64914SOL    HW194766  11.347   8.247   0.798
64914SOL    HW294767  11.224   8.354   0.810
64915SOL     OW94768  11.302   9.269   1.571
64915SOL    HW194769  11.292   9.254   1.670
64915SOL    HW294770  11.216   9.305   1.535
64916SOL     OW94771  12.037   7.796   0.195
64916SOL    HW194772  12.096   7.859   0.146
64916SOL    HW294773  12.056   7.702   0.166
64917SOL     OW94774  12.534   8.592   0.545
64917SOL    HW194775  12.617   8.563   0.497
64917SOL    HW294776  12.485   8.659   0.489
64918SOL     OW94777  11.722   7.644   0.885
64918SOL    HW194778  11.717   7.639   0.985
64918SOL    HW294779  11.724   7.740   0.856
64919SOL     OW94780  12.180   8.904   0.477
64919SOL    HW194781  12.134   8.976   0.425
64919SOL    HW294782  12.176   8.924   0.575
64920SOL     OW94783  11.523   9.249   0.853
64920SOL    HW194784  11.573   9.163   0.859
64920SOL    HW294785  11.588   9.326   0.850
64921SOL     OW94786  12.399   8.998   1.506
64921SOL    HW194787  12.405   8.921   1.570
64921SOL    HW294788  12.347   8.972   1.426
64922SOL     OW94789  11.493   8.391   0.242
64922SOL    HW194790  11.575   8.430   0.200
64922SOL    HW294791  11.466   8.309   0.193
64923SOL     OW94792  12.630   8.183   0.728
64923SOL    HW194793  12.625   8.118   0.803
64923SOL    HW294794  12.710   8.242   0.741
64924SOL     OW94795  11.633   8.714   1.727
64924SOL    HW194796  11.583   8.715   1.641
64924SOL    HW294797  11.570   8.696   1.803
64925SOL     OW94798  12.283   9.224   0.237
64925SOL    HW194799  12.223   9.162   0.287
64925SOL    HW294800  12.314   9.180   0.152
64926SOL     OW94801  11.374   7.733   1.498
64926SOL    HW194802  11.294   7.793   1.485
64926SOL    HW294803  11.364   7.684   1.584
64927SOL     OW94804  11.636   9.191   0.323
64927SOL    HW194805  11.669   9.230   0.409
64927SOL    HW294806  11.712   9.184   0.258
64928SOL     OW94807  12.572   7.555   0.426
64928SOL    HW194808  12.548   7.518   0.336
64928SOL    HW294809  12.671   7.571   0.430
64929SOL     OW94810  11.421   9.233   1.241
64929SOL    HW194811  11.478   9.168   1.291
64929SOL    HW294812  11.405   9.200   1.148
64930SOL     OW94813  12.112   9.146   0.904
64930SOL    HW194814  12.192   9.089   0.925
64930SOL    HW294815  12.063   9.106   0.827
64931SOL     OW94816  11.554   8.148   0.480
64931SOL    HW194817  11.599   8.058   0.477
64931SOL    HW294818  11.460   8.137   0.513
64932SOL     OW94819  11.786   7.570   0.117
64932SOL    HW194820  11.884   7.548   0.124
64932SOL    HW294821  11.755   7.553   0.024
64933SOL     OW94822  11.953   7.712   1.749
64933SOL    HW194823  12.020   7.651   1.792
64933SOL    HW294824  11.880   7.731   1.814
64934SOL     OW94825  12.060   8.962   1.195
64934SOL    HW194826  12.037   8.937   1.101
64934SOL    HW294827  12.121   8.893   1.234
64935SOL     OW94828  12.523   8.038   1.433
64935SOL    HW194829  12.551   7.995   1.518
64935SOL    HW294830  12.548   8.134   1.434
64936SOL     OW94831  11.975   8.850   0.924
64936SOL    HW194832  12.065   8.864   0.882
64936SOL    HW294833  11.904   8.852   0.853
64937SOL     OW94834  12.094   7.951   0.899
64937SOL    HW194835  12.069   7.942   0.803
64937SOL    HW294836  12.142   7.869   0.930
64938SOL     OW94837  11.711   7.512   0.512
64938SOL    HW194838  11.630   7.513   0.570
64938SOL    HW294839  11.714   7.595   0.457
64939SOL     OW94840  12.606   8.636   0.041
64939SOL    HW194841  12.638   8.560   0.098
64939SOL    HW294842  12.514   8.663   0.071
64940SOL     OW94843  11.469   7.483   0.171
64940SOL    HW194844  11.518   7.567   0.150
64940SOL    HW294845  11.531   7.418   0.216
64941SOL     OW94846  12.107   7.684   0.480
64941SOL    HW194847  12.059   7.725   0.402
64941SOL    HW294848  12.206   7.682   0.461
64942SOL     OW94849  12.248   8.131   1.464
64942SOL    HW194850  12.168   8.070   1.467
64942SOL    HW294851  12.329   8.078   1.440
64943SOL     OW94852  12.399   9.018   0.793
64943SOL    HW194853  12.420   9.092   0.728
64943SOL    HW294854  12.467   9.018   0.866
64944SOL     OW94855  11.631   8.600   0.741
64944SOL    HW194856  11.560   8.573   0.806
64944SOL    HW294857  11.605   8.572   0.648
64945SOL     OW94858  12.443   9.245   0.591
64945SOL    HW194859  12.487   9.309   0.527
64945SOL    HW294860  12.393   9.297   0.661
64946SOL     OW94861  12.204   7.997   0.016
64946SOL    HW194862  12.163   8.079  -0.023
64946SOL    HW294863  12.268   8.023   0.089
64947SOL     OW94864  11.250   8.004   1.386
64947SOL    HW194865  11.342   8.003   1.345
64947SOL    HW294866  11.244   8.078   1.453
64948SOL     OW94867  11.733   7.670   1.147
64948SOL    HW194868  11.771   7.586   1.184
64948SOL    HW294869  11.645   7.689   1.191
64949SOL     OW94870  12.038   7.902   0.642
64949SOL    HW194871  12.006   7.974   0.580
64949SOL    HW294872  12.062   7.821   0.589
64950SOL     OW94873  12.189   7.487   0.753
64950SOL    HW194874  12.117   7.492   0.684
64950SOL    HW294875  12.165   7.418   0.822
64951SOL     OW94876  12.601   8.621   0.867
64951SOL    HW194877  12.546   8.537   0.860
64951SOL    HW294878  12.627   8.650   0.775
64952SOL     OW94879  12.638   8.038   0.992
64952SOL    HW194880  12.608   7.943   0.999
64952SOL    HW294881  12.711   8.054   1.058
64953SOL     OW94882  11.660   8.833   0.174
64953SOL    HW194883  11.573   8.818   0.221
64953SOL    HW294884  11.643   8.859   0.079
64954SOL     OW94885  12.562   8.023   0.078
64954SOL    HW194886  12.508   8.002   0.159
64954SOL    HW294887  12.653   7.982   0.087
64955SOL     OW94888  11.699   7.704   0.328
64955SOL    HW194889  11.726   7.645   0.253
64955SOL    HW294890  11.699   7.799   0.297
64956SOL     OW94891  12.236   8.795   1.340
64956SOL    HW194892  12.156   8.772   1.395
64956SOL    HW294893  12.319   8.769   1.389
64957SOL     OW94894  12.764   9.077   1.625
64957SOL    HW194895  12.791   9.111   1.535
64957SOL    HW294896  12.843   9.039   1.671
64958SOL     OW94897  12.283   8.643   1.100
64958SOL    HW194898  12.243   8.687   1.181
64958SOL    HW294899  12.242   8.680   1.017
64959SOL     OW94900  12.087   7.537   1.402
64959SOL    HW194901  12.112   7.517   1.307
64959SOL    HW294902  12.159   7.593   1.444
64960SOL     OW94903  12.152   8.564   1.719
64960SOL    HW194904  12.053   8.570   1.729
64960SOL    HW294905  12.175   8.484   1.663
64961SOL     OW94906  11.877   8.498   0.368
64961SOL    HW194907  11.863   8.505   0.467
64961SOL    HW294908  11.961   8.447   0.350
64962SOL     OW94909  11.582   8.261   1.251
64962SOL    HW194910  11.668   8.273   1.301
64962SOL    HW294911  11.540   8.174   1.278
64963SOL     OW94912  12.446   7.834   1.262
64963SOL    HW194913  12.467   7.908   1.326
64963SOL    HW294914  12.357   7.851   1.219
64964SOL     OW94915  11.236   9.012   1.331
64964SOL    HW194916  11.190   9.094   1.297
64964SOL    HW294917  11.334   9.031   1.340
64965SOL     OW94918  11.539   8.548   0.501
64965SOL    HW194919  11.532   8.631   0.445
64965SOL    HW294920  11.543   8.468   0.441
64966SOL     OW94921  11.738   7.985   0.865
64966SOL    HW194922  11.750   8.051   0.791
64966SOL    HW294923  11.784   8.019   0.948
64967SOL     OW94924  12.424   8.796   0.388
64967SOL    HW194925  12.474   8.873   0.428
64967SOL    HW294926  12.329   8.798   0.420
64968SOL     OW94927  12.444   8.893   1.142
64968SOL    HW194928  12.491   8.906   1.229
64968SOL    HW294929  12.378   8.819   1.151
64969SOL     OW94930  12.754   8.087   0.472
64969SOL    HW194931  12.723   8.148   0.545
64969SOL    HW294932  12.804   8.139   0.403
64970SOL     OW94933  11.526   8.958   1.329
64970SOL    HW194934  11.505   8.914   1.242
64970SOL    HW294935  11.623   8.984   1.332
64971SOL     OW94936  11.574   8.199   1.598
64971SOL    HW194937  11.642   8.254   1.551
64971SOL    HW294938  11.614   8.111   1.625
64972SOL     OW94939  12.185   7.553   1.770
64972SOL    HW194940  12.191   7.638   1.718
64972SOL    HW294941  12.217   7.477   1.713
64973SOL     OW94942  11.676   7.498   1.740
64973SOL    HW194943  11.634   7.441   1.670
64973SOL    HW294944  11.610   7.567   1.772
64974SOL     OW94945  11.745   8.318   1.029
64974SOL    HW194946  11.789   8.407   1.020
64974SOL    HW294947  11.682   8.318   1.106
64975SOL     OW94948  12.532   8.310   1.045
64975SOL    HW194949  12.457   8.310   0.979
64975SOL    HW294950  12.569   8.218   1.054
64976SOL     OW94951  12.381   7.973   0.275
64976SOL    HW194952  12.394   7.889   0.329
64976SOL    HW294953  12.352   8.047   0.335
64977SOL     OW94954  11.479   7.661   1.231
64977SOL    HW194955  11.456   7.698   1.321
64977SOL    HW294956  11.449   7.566   1.225
64978SOL     OW94957  11.209   8.758   1.282
64978SOL    HW194958  11.262   8.709   1.350
64978SOL    HW294959  11.231   8.856   1.287
64979SOL     OW94960  11.904   8.082   1.064
64979SOL    HW194961  11.963   8.056   0.988
64979SOL    HW294962  11.876   8.178   1.053
64980SOL     OW94963  11.479   7.511   0.618
64980SOL    HW194964  11.468   7.605   0.651
64980SOL    HW294965  11.474   7.448   0.695
64981SOL     OW94966  12.794   7.815   0.374
64981SOL    HW194967  12.796   7.739   0.438
64981SOL    HW294968  12.746   7.892   0.414
64982SOL     OW94969  12.195   8.214   0.966
64982SOL    HW194970  12.210   8.235   1.062
64982SOL    HW294971  12.165   8.119   0.957
64983SOL     OW94972  12.152   9.021   1.700
64983SOL    HW194973  12.132   9.065   1.612
64983SOL    HW294974  12.191   8.930   1.684
64984SOL     OW94975  11.522   8.346   1.804
64984SOL    HW194976  11.598   8.390   1.852
64984SOL    HW294977  11.557   8.299   1.722
64985SOL     OW94978  12.712   7.722   0.125
64985SOL    HW194979  12.651   7.647   0.148
64985SOL    HW294980  12.734   7.774   0.208
64986SOL     OW94981  12.475   8.286   0.042
64986SOL    HW194982  12.509   8.193   0.057
64986SOL    HW294983  12.493   8.313  -0.053
64987SOL     OW94984  12.240   8.781   0.849
64987SOL    HW194985  12.247   8.697   0.794
64987SOL    HW294986  12.302   8.850   0.813
64988SOL     OW94987  11.491   8.258   0.949
64988SOL    HW194988  11.584   8.294   0.954
64988SOL    HW294989  11.485   8.173   1.001
64989SOL     OW94990  11.511   7.957   1.006
64989SOL    HW194991  11.459   7.874   0.989
64989SOL    HW294992  11.588   7.962   0.942
64990SOL     OW94993  12.310   7.828   1.678
64990SOL    HW194994  12.265   7.891   1.742
64990SOL    HW294995  12.403   7.859   1.661
64991SOL     OW94996  12.332   7.655   1.477
64991SOL    HW194997  12.332   7.719   1.554
64991SOL    HW294998  12.360   7.703   1.394
64992SOL     OW94999  11.180   8.774   0.200
64992SOL    HW195000  11.087   8.795   0.169
64992SOL    HW295001  11.190   8.675   0.213
64993SOL     OW95002  11.260   9.249   0.927
64993SOL    HW195003  11.218   9.163   0.900
64993SOL    HW295004  11.354   9.252   0.893
64994SOL     OW95005  11.676   9.016   0.910
64994SOL    HW195006  11.742   9.090   0.919
64994SOL    HW295007  11.720   8.937   0.868
64995SOL     OW95008  12.174   8.244   1.238
64995SOL    HW195009  12.215   8.212   1.324
64995SOL    HW295010  12.078   8.217   1.235
64996SOL     OW95011  11.212   7.992   1.114
64996SOL    HW195012  11.297   7.959   1.073
64996SOL    HW295013  11.225   8.007   1.212
64997SOL     OW95014  11.361   7.968   1.722
64997SOL    HW195015  11.420   7.928   1.652
64997SOL    HW295016  11.303   8.039   1.681
64998SOL     OW95017  12.541   8.398   1.660
64998SOL    HW195018  12.580   8.487   1.680
64998SOL    HW295019  12.551   8.378   1.563
64999SOL     OW95020  11.987   8.020   0.325
64999SOL    HW195021  11.994   7.931   0.279
64999SOL    HW295022  11.893   8.054   0.317
65000SOL     OW95023  11.424   9.012   1.744
65000SOL    HW195024  11.394   9.069   1.820
65000SOL    HW295025  11.417   8.915   1.770
65001SOL     OW95026  11.843   7.912   1.269
65001SOL    HW195027  11.809   7.823   1.239
65001SOL    HW295028  11.869   7.966   1.189
65002SOL     OW95029  12.102   9.126   1.465
65002SOL    HW195030  12.078   9.108   1.370
65002SOL    HW295031  12.132   9.220   1.475
65003SOL     OW95032  11.645   7.948   0.191
65003SOL    HW195033  11.706   8.028   0.195
65003SOL    HW295034  11.550   7.979   0.198
65004SOL     OW95035  11.331   8.585   1.466
65004SOL    HW195036  11.353   8.524   1.542
65004SOL    HW295037  11.341   8.536   1.380
65005SOL     OW95038  12.519   8.507   1.234
65005SOL    HW195039  12.543   8.444   1.160
65005SOL    HW295040  12.429   8.547   1.216
65006SOL     OW95041  12.474   8.303   0.309
65006SOL    HW195042  12.388   8.272   0.351
65006SOL    HW295043  12.470   8.289   0.210
65007SOL     OW95044  12.424   9.179   1.128
65007SOL    HW195045  12.508   9.184   1.074
65007SOL    HW295046  12.401   9.083   1.146
65008SOL     OW95047  11.255   8.706   1.022
65008SOL    HW195048  11.250   8.705   1.122
65008SOL    HW295049  11.172   8.665   0.984
65009SOL     OW95050  11.860   9.110   1.716
65009SOL    HW195051  11.804   9.191   1.725
65009SOL    HW295052  11.912   9.114   1.630
65010SOL     OW95053  12.075   7.534   0.133
65010SOL    HW195054  12.126   7.535   0.047
65010SOL    HW295055  12.131   7.492   0.204
65011SOL     OW95056  12.898   7.583   0.523
65011SOL    HW195057  12.971   7.566   0.456
65011SOL    HW295058  12.867   7.496   0.561
65012SOL     OW95059  12.560   9.021   0.477
65012SOL    HW195060  12.627   9.033   0.403
65012SOL    HW295061  12.520   9.110   0.500
65013SOL     OW95062  11.302   9.242   1.851
65013SOL    HW195063  11.261   9.168   1.904
65013SOL    HW295064  11.366   9.293   1.909
65014SOL     OW95065  12.452   8.375   0.672
65014SOL    HW195066  12.512   8.294   0.674
65014SOL    HW295067  12.492   8.444   0.612
65015SOL     OW95068  12.002   8.721   1.422
65015SOL    HW195069  11.997   8.754   1.517
65015SOL    HW295070  11.916   8.740   1.376
65016SOL     OW95071  11.844   9.064   0.154
65016SOL    HW195072  11.853   9.074   0.055
65016SOL    HW295073  11.804   8.975   0.175
65017SOL     OW95074  11.435   7.774   0.720
65017SOL    HW195075  11.356   7.825   0.686
65017SOL    HW295076  11.426   7.759   0.818
65018SOL     OW95077  12.366   9.060   0.031
65018SOL    HW195078  12.372   8.967   0.068
65018SOL    HW295079  12.307   9.060  -0.049
65019SOL     OW95080  11.994   8.450   1.372
65019SOL    HW195081  12.034   8.449   1.280
65019SOL    HW295082  12.004   8.542   1.412
65020SOL     OW95083  12.088   8.358   0.291
65020SOL    HW195084  12.151   8.396   0.223
65020SOL    HW295085  12.128   8.275   0.330
65021SOL     OW95086  12.676   9.055   0.044
65021SOL    HW195087  12.584   9.092   0.051
65021SOL    HW295088  12.714   9.075  -0.046
65022SOL     OW95089  11.544   8.736   1.490
65022SOL    HW195090  11.531   8.829   1.456
65022SOL    HW295091  11.460   8.684   1.477
65023SOL     OW95092  12.211   8.546   0.696
65023SOL    HW195093  12.141   8.499   0.750
65023SOL    HW295094  12.270   8.478   0.653
65024SOL     OW95095  12.186   7.684   0.971
65024SOL    HW195096  12.178   7.648   0.878
65024SOL    HW295097  12.184   7.608   1.036
65025SOL     OW95098  11.762   8.935   0.491
65025SOL    HW195099  11.804   8.877   0.421
65025SOL    HW295100  11.718   9.014   0.447
65026SOL     OW95101  11.427   8.796   0.290
65026SOL    HW195102  11.331   8.797   0.263
65026SOL    HW295103  11.439   8.849   0.374
65027SOL     OW95104  11.277   8.461   1.726
65027SOL    HW195105  11.200   8.428   1.780
65027SOL    HW295106  11.362   8.431   1.768
65028SOL     OW95107  11.844   7.651   1.489
65028SOL    HW195108  11.934   7.635   1.449
65028SOL    HW295109  11.852   7.656   1.588
65029SOL     OW95110  12.612   8.304   1.398
65029SOL    HW195111  12.555   8.356   1.335
65029SOL    HW295112  12.708   8.316   1.374
65030SOL     OW95113  11.244   7.614   0.318
65030SOL    HW195114  11.227   7.697   0.264
65030SOL    HW295115  11.334   7.577   0.296
65031SOL     OW95116  12.355   8.783   0.119
65031SOL    HW195117  12.256   8.772   0.121
65031SOL    HW295118  12.389   8.798   0.212
65032SOL     OW95119  11.785   8.290   1.431
65032SOL    HW195120  11.841   8.371   1.414
65032SOL    HW295121  11.844   8.210   1.434
65033SOL     OW95122  12.665   9.215   0.959
65033SOL    HW195123  12.698   9.279   0.890
65033SOL    HW295124  12.731   9.209   1.034
65034SOL     OW95125  11.888   8.013   1.708
65034SOL    HW195126  11.907   8.078   1.782
65034SOL    HW295127  11.948   7.933   1.717
65035SOL     OW95128  12.622   8.668   1.633
65035SOL    HW195129  12.613   8.658   1.732
65035SOL    HW295130  12.718   8.661   1.607
65036SOL     OW95131  11.562   9.189   1.560
65036SOL    HW195132  11.471   9.230   1.558
65036SOL    HW295133  11.555   9.095   1.592
65037SOL     OW95134  12.397   7.773   0.449
65037SOL    HW195135  12.462   7.699   0.438
65037SOL    HW295136  12.417   7.823   0.533
65038SOL     OW95137  11.766   8.193   0.652
65038SOL    HW195138  11.816   8.278   0.633
65038SOL    HW295139  11.678   8.195   0.604
65039SOL     OW95140  12.031   8.822   0.016
65039SOL    HW195141  11.985   8.837   0.104
65039SOL    HW295142  12.075   8.907  -0.014
65040SOL     OW95143  11.833   9.238   0.953
65040SOL    HW195144  11.787   9.326   0.940
65040SOL    HW295145  11.932   9.250   0.946
65041SOL     OW95146  12.031   8.404   0.861
65041SOL    HW195147  12.085   8.335   0.909
65041SOL    HW295148  11.999   8.473   0.927
65042SOL     OW95149  12.255   8.432   0.087
65042SOL    HW195150  12.232   8.485   0.005
65042SOL    HW295151  12.336   8.376   0.068
65043SOL     OW95152  13.033   9.017   0.851
65043SOL    HW195153  12.962   9.005   0.781
65043SOL    HW295154  13.034   8.938   0.911
65044SOL     OW95155  11.393   8.762   1.844
65044SOL    HW195156  11.328   8.689   1.823
65044SOL    HW295157  11.397   8.776   1.942
65045SOL     OW95158  11.251   8.688   0.653
65045SOL    HW195159  11.250   8.641   0.741
65045SOL    HW295160  11.333   8.660   0.602
65046SOL     OW95161  11.844   8.839   1.624
65046SOL    HW195162  11.766   8.789   1.662
65046SOL    HW295163  11.841   8.934   1.655
65047SOL     OW95164  11.600   7.872   0.520
65047SOL    HW195165  11.630   7.800   0.458
65047SOL    HW295166  11.561   7.832   0.603
65048SOL     OW95167  11.489   7.995   1.280
65048SOL    HW195168  11.527   7.936   1.352
65048SOL    HW295169  11.529   7.969   1.192
65049SOL     OW95170  11.984   9.034   0.687
65049SOL    HW195171  12.016   9.044   0.593
65049SOL    HW295172  11.905   8.972   0.689
65050SOL     OW95173  12.596   7.662   1.112
65050SOL    HW195174  12.648   7.597   1.167
65050SOL    HW295175  12.547   7.725   1.173
65051SOL     OW95176  12.173   7.482   1.154
65051SOL    HW195177  12.110   7.410   1.123
65051SOL    HW295178  12.266   7.446   1.154
65052SOL     OW95179  11.942   8.778   0.301
65052SOL    HW195180  11.896   8.691   0.318
65052SOL    HW295181  12.033   8.775   0.342
65053SOL     OW95182  11.790   9.015   1.284
65053SOL    HW195183  11.785   9.097   1.341
65053SOL    HW295184  11.879   9.012   1.239
65054SOL     OW95185  12.524   7.500   0.168
65054SOL    HW195186  12.559   7.459   0.084
65054SOL    HW295187  12.434   7.462   0.188
65055SOL     OW95188  12.472   7.901   0.691
65055SOL    HW195189  12.413   7.981   0.695
65055SOL    HW295190  12.487   7.866   0.784
65056SOL     OW95191  12.765   7.669   0.882
65056SOL    HW195192  12.681   7.668   0.936
65056SOL    HW295193  12.767   7.752   0.826
65057SOL     OW95194  11.211   8.525   0.300
65057SOL    HW195195  11.310   8.514   0.291
65057SOL    HW295196  11.171   8.439   0.332
65058SOL     OW95197  12.047   9.094   0.337
65058SOL    HW195198  11.970   9.059   0.283
65058SOL    HW295199  12.015   9.165   0.399
65059SOL     OW95200  11.402   8.076   1.975
65059SOL    HW195201  11.309   8.074   2.012
65059SOL    HW295202  11.403   8.037   1.883
65060SOL     OW95203  11.397   7.723   2.858
65060SOL    HW195204  11.432   7.706   2.950
65060SOL    HW295205  11.309   7.678   2.846
65061SOL     OW95206  11.191   7.816   2.509
65061SOL    HW195207  11.109   7.859   2.548
65061SOL    HW295208  11.163   7.743   2.446
65062SOL     OW95209  11.741   8.723   3.027
65062SOL    HW195210  11.648   8.716   2.990
65062SOL    HW295211  11.752   8.812   3.071
65063SOL     OW95212  12.727   8.959   2.565
65063SOL    HW195213  12.670   8.943   2.646
65063SOL    HW295214  12.668   8.969   2.485
65064SOL     OW95215  12.307   8.151   2.579
65064SOL    HW195216  12.364   8.229   2.554
65064SOL    HW295217  12.247   8.177   2.655
65065SOL     OW95218  11.940   8.592   2.885
65065SOL    HW195219  11.862   8.609   2.945
65065SOL    HW295220  11.974   8.679   2.849
65066SOL     OW95221  12.022   8.246   3.685
65066SOL    HW195222  12.018   8.322   3.750
65066SOL    HW295223  12.044   8.282   3.594
65067SOL     OW95224  11.857   8.460   2.527
65067SOL    HW195225  11.926   8.444   2.597
65067SOL    HW295226  11.784   8.517   2.565
65068SOL     OW95227  11.858   8.609   3.665
65068SOL    HW195228  11.918   8.688   3.679
65068SOL    HW295229  11.772   8.640   3.624
65069SOL     OW95230  11.507   8.883   2.923
65069SOL    HW195231  11.429   8.852   2.870
65069SOL    HW295232  11.565   8.941   2.866
65070SOL     OW95233  12.632   8.953   3.201
65070SOL    HW195234  12.656   9.047   3.227
65070SOL    HW295235  12.616   8.899   3.283
65071SOL     OW95236  11.610   7.840   3.361
65071SOL    HW195237  11.692   7.784   3.370
65071SOL    HW295238  11.529   7.782   3.365
65072SOL     OW95239  11.403   9.161   2.345
65072SOL    HW195240  11.437   9.238   2.399
65072SOL    HW295241  11.447   9.161   2.255
65073SOL     OW95242  12.299   8.789   3.552
65073SOL    HW195243  12.346   8.789   3.640
65073SOL    HW295244  12.251   8.702   3.541
65074SOL     OW95245  11.402   8.882   2.400
65074SOL    HW195246  11.376   8.978   2.400
65074SOL    HW295247  11.331   8.828   2.445
65075SOL     OW95248  11.412   8.539   2.748
65075SOL    HW195249  11.426   8.455   2.800
65075SOL    HW295250  11.357   8.603   2.803
65076SOL     OW95251  11.792   9.234   3.301
65076SOL    HW195252  11.700   9.217   3.336
65076SOL    HW295253  11.820   9.326   3.327
65077SOL     OW95254  11.778   8.412   1.985
65077SOL    HW195255  11.785   8.496   1.931
65077SOL    HW295256  11.824   8.425   2.073
65078SOL     OW95257  12.766   7.562   3.342
65078SOL    HW195258  12.748   7.629   3.270
65078SOL    HW295259  12.763   7.608   3.431
65079SOL     OW95260  11.294   8.091   2.425
65079SOL    HW195261  11.249   8.003   2.442
65079SOL    HW295262  11.293   8.145   2.509
65080SOL     OW95263  11.199   9.044   1.979
65080SOL    HW195264  11.180   8.948   2.000
65080SOL    HW295265  11.166   9.102   2.054
65081SOL     OW95266  12.861   8.370   2.474
65081SOL    HW195267  12.956   8.341   2.482
65081SOL    HW295268  12.853   8.435   2.399
65082SOL     OW95269  11.285   8.185   3.459
65082SOL    HW195270  11.373   8.172   3.504
65082SOL    HW295271  11.272   8.282   3.437
65083SOL     OW95272  11.785   8.813   2.588
65083SOL    HW195273  11.736   8.726   2.597
65083SOL    HW295274  11.762   8.856   2.501
65084SOL     OW95275  12.465   8.676   3.285
65084SOL    HW195276  12.502   8.603   3.227
65084SOL    HW295277  12.517   8.681   3.370
65085SOL     OW95278  11.981   7.452   2.364
65085SOL    HW195279  12.021   7.543   2.355
65085SOL    HW295280  11.881   7.460   2.370
65086SOL     OW95281  11.369   8.424   3.126
65086SOL    HW195282  11.458   8.379   3.112
65086SOL    HW295283  11.296   8.359   3.107
65087SOL     OW95284  12.359   9.240   3.478
65087SOL    HW195285  12.383   9.300   3.402
65087SOL    HW295286  12.366   9.145   3.448
65088SOL     OW95287  11.489   7.699   3.663
65088SOL    HW195288  11.560   7.770   3.669
65088SOL    HW295289  11.401   7.738   3.691
65089SOL     OW95290  12.638   8.865   2.815
65089SOL    HW195291  12.579   8.871   2.895
65089SOL    HW295292  12.623   8.777   2.769
65090SOL     OW95293  12.839   9.162   2.434
65090SOL    HW195294  12.798   9.139   2.346
65090SOL    HW295295  12.821   9.088   2.499
65091SOL     OW95296  11.770   8.177   2.132
65091SOL    HW195297  11.794   8.246   2.064
65091SOL    HW295298  11.692   8.210   2.186
65092SOL     OW95299  12.453   7.793   2.806
65092SOL    HW195300  12.367   7.743   2.793
65092SOL    HW295301  12.515   7.739   2.862
65093SOL     OW95302  11.979   8.053   3.327
65093SOL    HW195303  11.932   8.050   3.416
65093SOL    HW295304  11.928   7.998   3.261
65094SOL     OW95305  12.566   7.917   3.536
65094SOL    HW195306  12.546   7.960   3.624
65094SOL    HW295307  12.644   7.855   3.545
65095SOL     OW95308  12.145   8.338   3.434
65095SOL    HW195309  12.191   8.254   3.405
65095SOL    HW295310  12.089   8.372   3.359
65096SOL     OW95311  12.163   7.858   3.104
65096SOL    HW195312  12.086   7.892   3.158
65096SOL    HW295313  12.129   7.807   3.025
65097SOL     OW95314  12.213   8.149   2.291
65097SOL    HW195315  12.239   8.145   2.387
65097SOL    HW295316  12.128   8.098   2.277
65098SOL     OW95317  11.248   8.259   2.651
65098SOL    HW195318  11.347   8.247   2.660
65098SOL    HW295319  11.224   8.354   2.672
65099SOL     OW95320  11.302   9.269   3.433
65099SOL    HW195321  11.292   9.254   3.532
65099SOL    HW295322  11.216   9.305   3.397
65100SOL     OW95323  12.037   7.796   2.057
65100SOL    HW195324  12.096   7.859   2.008
65100SOL    HW295325  12.056   7.702   2.028
65101SOL     OW95326  12.534   8.592   2.407
65101SOL    HW195327  12.617   8.563   2.359
65101SOL    HW295328  12.485   8.659   2.351
65102SOL     OW95329  11.722   7.644   2.747
65102SOL    HW195330  11.717   7.639   2.847
65102SOL    HW295331  11.724   7.740   2.718
65103SOL     OW95332  12.180   8.904   2.339
65103SOL    HW195333  12.134   8.976   2.287
65103SOL    HW295334  12.176   8.924   2.437
65104SOL     OW95335  11.523   9.249   2.715
65104SOL    HW195336  11.573   9.163   2.721
65104SOL    HW295337  11.588   9.326   2.712
65105SOL     OW95338  12.399   8.998   3.368
65105SOL    HW195339  12.405   8.921   3.432
65105SOL    HW295340  12.347   8.972   3.288
65106SOL     OW95341  11.493   8.391   2.104
65106SOL    HW195342  11.575   8.430   2.062
65106SOL    HW295343  11.466   8.309   2.055
65107SOL     OW95344  12.630   8.183   2.590
65107SOL    HW195345  12.625   8.118   2.665
65107SOL    HW295346  12.710   8.242   2.603
65108SOL     OW95347  11.633   8.714   3.589
65108SOL    HW195348  11.583   8.715   3.503
65108SOL    HW295349  11.570   8.696   3.665
65109SOL     OW95350  12.283   9.224   2.099
65109SOL    HW195351  12.223   9.162   2.149
65109SOL    HW295352  12.314   9.180   2.014
65110SOL     OW95353  11.374   7.733   3.360
65110SOL    HW195354  11.294   7.793   3.347
65110SOL    HW295355  11.364   7.684   3.446
65111SOL     OW95356  11.636   9.191   2.185
65111SOL    HW195357  11.669   9.230   2.271
65111SOL    HW295358  11.712   9.184   2.120
65112SOL     OW95359  12.572   7.555   2.288
65112SOL    HW195360  12.548   7.518   2.198
65112SOL    HW295361  12.671   7.571   2.292
65113SOL     OW95362  11.421   9.233   3.103
65113SOL    HW195363  11.478   9.168   3.153
65113SOL    HW295364  11.405   9.200   3.010
65114SOL     OW95365  12.112   9.146   2.766
65114SOL    HW195366  12.192   9.089   2.787
65114SOL    HW295367  12.063   9.106   2.689
65115SOL     OW95368  11.554   8.148   2.342
65115SOL    HW195369  11.599   8.058   2.339
65115SOL    HW295370  11.460   8.137   2.375
65116SOL     OW95371  11.786   7.570   1.979
65116SOL    HW195372  11.884   7.548   1.986
65116SOL    HW295373  11.755   7.553   1.886
65117SOL     OW95374  11.953   7.712   3.611
65117SOL    HW195375  12.020   7.651   3.654
65117SOL    HW295376  11.880   7.731   3.676
65118SOL     OW95377  12.060   8.962   3.057
65118SOL    HW195378  12.037   8.937   2.963
65118SOL    HW295379  12.121   8.893   3.096
65119SOL     OW95380  12.523   8.038   3.295
65119SOL    HW195381  12.551   7.995   3.380
65119SOL    HW295382  12.548   8.134   3.296
65120SOL     OW95383  11.975   8.850   2.786
65120SOL    HW195384  12.065   8.864   2.744
65120SOL    HW295385  11.904   8.852   2.715
65121SOL     OW95386  12.094   7.951   2.761
65121SOL    HW195387  12.069   7.942   2.665
65121SOL    HW295388  12.142   7.869   2.792
65122SOL     OW95389  11.711   7.512   2.374
65122SOL    HW195390  11.630   7.513   2.432
65122SOL    HW295391  11.714   7.595   2.319
65123SOL     OW95392  12.606   8.636   1.903
65123SOL    HW195393  12.638   8.560   1.960
65123SOL    HW295394  12.514   8.663   1.933
65124SOL     OW95395  11.469   7.483   2.033
65124SOL    HW195396  11.518   7.567   2.012
65124SOL    HW295397  11.531   7.418   2.078
65125SOL     OW95398  12.107   7.684   2.342
65125SOL    HW195399  12.059   7.725   2.264
65125SOL    HW295400  12.206   7.682   2.323
65126SOL     OW95401  12.248   8.131   3.326
65126SOL    HW195402  12.168   8.070   3.329
65126SOL    HW295403  12.329   8.078   3.302
65127SOL     OW95404  12.399   9.018   2.655
65127SOL    HW195405  12.420   9.092   2.590
65127SOL    HW295406  12.467   9.018   2.728
65128SOL     OW95407  11.631   8.600   2.603
65128SOL    HW195408  11.560   8.573   2.668
65128SOL    HW295409  11.605   8.572   2.510
65129SOL     OW95410  12.443   9.245   2.453
65129SOL    HW195411  12.487   9.309   2.389
65129SOL    HW295412  12.393   9.297   2.523
65130SOL     OW95413  12.204   7.997   1.878
65130SOL    HW195414  12.163   8.079   1.839
65130SOL    HW295415  12.268   8.023   1.951
65131SOL     OW95416  11.250   8.004   3.248
65131SOL    HW195417  11.342   8.003   3.207
65131SOL    HW295418  11.244   8.078   3.315
65132SOL     OW95419  11.733   7.670   3.009
65132SOL    HW195420  11.771   7.586   3.046
65132SOL    HW295421  11.645   7.689   3.053
65133SOL     OW95422  12.038   7.902   2.504
65133SOL    HW195423  12.006   7.974   2.442
65133SOL    HW295424  12.062   7.821   2.451
65134SOL     OW95425  12.189   7.487   2.615
65134SOL    HW195426  12.117   7.492   2.546
65134SOL    HW295427  12.165   7.418   2.684
65135SOL     OW95428  12.601   8.621   2.729
65135SOL    HW195429  12.546   8.537   2.722
65135SOL    HW295430  12.627   8.650   2.637
65136SOL     OW95431  12.638   8.038   2.854
65136SOL    HW195432  12.608   7.943   2.861
65136SOL    HW295433  12.711   8.054   2.920
65137SOL     OW95434  11.660   8.833   2.036
65137SOL    HW195435  11.573   8.818   2.083
65137SOL    HW295436  11.643   8.859   1.941
65138SOL     OW95437  12.562   8.023   1.940
65138SOL    HW195438  12.508   8.002   2.021
65138SOL    HW295439  12.653   7.982   1.949
65139SOL     OW95440  11.699   7.704   2.190
65139SOL    HW195441  11.726   7.645   2.115
65139SOL    HW295442  11.699   7.799   2.159
65140SOL     OW95443  12.236   8.795   3.202
65140SOL    HW195444  12.156   8.772   3.257
65140SOL    HW295445  12.319   8.769   3.251
65141SOL     OW95446  12.764   9.077   3.487
65141SOL    HW195447  12.791   9.111   3.397
65141SOL    HW295448  12.843   9.039   3.533
65142SOL     OW95449  12.283   8.643   2.962
65142SOL    HW195450  12.243   8.687   3.043
65142SOL    HW295451  12.242   8.680   2.879
65143SOL     OW95452  12.087   7.537   3.264
65143SOL    HW195453  12.112   7.517   3.169
65143SOL    HW295454  12.159   7.593   3.306
65144SOL     OW95455  12.152   8.564   3.581
65144SOL    HW195456  12.053   8.570   3.591
65144SOL    HW295457  12.175   8.484   3.525
65145SOL     OW95458  11.877   8.498   2.230
65145SOL    HW195459  11.863   8.505   2.329
65145SOL    HW295460  11.961   8.447   2.212
65146SOL     OW95461  11.582   8.261   3.113
65146SOL    HW195462  11.668   8.273   3.163
65146SOL    HW295463  11.540   8.174   3.140
65147SOL     OW95464  12.446   7.834   3.124
65147SOL    HW195465  12.467   7.908   3.188
65147SOL    HW295466  12.357   7.851   3.081
65148SOL     OW95467  11.236   9.012   3.193
65148SOL    HW195468  11.190   9.094   3.159
65148SOL    HW295469  11.334   9.031   3.202
65149SOL     OW95470  11.738   7.985   2.727
65149SOL    HW195471  11.750   8.051   2.653
65149SOL    HW295472  11.784   8.019   2.810
65150SOL     OW95473  12.424   8.796   2.250
65150SOL    HW195474  12.474   8.873   2.290
65150SOL    HW295475  12.329   8.798   2.282
65151SOL     OW95476  12.444   8.893   3.004
65151SOL    HW195477  12.491   8.906   3.091
65151SOL    HW295478  12.378   8.819   3.013
65152SOL     OW95479  12.754   8.087   2.334
65152SOL    HW195480  12.723   8.148   2.407
65152SOL    HW295481  12.804   8.139   2.265
65153SOL     OW95482  11.526   8.958   3.191
65153SOL    HW195483  11.505   8.914   3.104
65153SOL    HW295484  11.623   8.984   3.194
65154SOL     OW95485  11.574   8.199   3.460
65154SOL    HW195486  11.642   8.254   3.413
65154SOL    HW295487  11.614   8.111   3.487
65155SOL     OW95488  12.185   7.553   3.632
65155SOL    HW195489  12.191   7.638   3.580
65155SOL    HW295490  12.217   7.477   3.575
65156SOL     OW95491  11.676   7.498   3.602
65156SOL    HW195492  11.634   7.441   3.532
65156SOL    HW295493  11.610   7.567   3.634
65157SOL     OW95494  11.745   8.318   2.891
65157SOL    HW195495  11.789   8.407   2.882
65157SOL    HW295496  11.682   8.318   2.968
65158SOL     OW95497  12.532   8.310   2.907
65158SOL    HW195498  12.457   8.310   2.841
65158SOL    HW295499  12.569   8.218   2.916
65159SOL     OW95500  12.381   7.973   2.137
65159SOL    HW195501  12.394   7.889   2.191
65159SOL    HW295502  12.352   8.047   2.197
65160SOL     OW95503  11.479   7.661   3.093
65160SOL    HW195504  11.456   7.698   3.183
65160SOL    HW295505  11.449   7.566   3.087
65161SOL     OW95506  11.209   8.758   3.144
65161SOL    HW195507  11.262   8.709   3.212
65161SOL    HW295508  11.231   8.856   3.149
65162SOL     OW95509  11.904   8.082   2.926
65162SOL    HW195510  11.963   8.056   2.850
65162SOL    HW295511  11.876   8.178   2.915
65163SOL     OW95512  11.479   7.511   2.480
65163SOL    HW195513  11.468   7.605   2.513
65163SOL    HW295514  11.474   7.448   2.557
65164SOL     OW95515  12.794   7.815   2.236
65164SOL    HW195516  12.796   7.739   2.300
65164SOL    HW295517  12.746   7.892   2.276
65165SOL     OW95518  12.195   8.214   2.828
65165SOL    HW195519  12.210   8.235   2.924
65165SOL    HW295520  12.165   8.119   2.819
65166SOL     OW95521  12.152   9.021   3.562
65166SOL    HW195522  12.132   9.065   3.474
65166SOL    HW295523  12.191   8.930   3.546
65167SOL     OW95524  11.522   8.346   3.666
65167SOL    HW195525  11.598   8.390   3.714
65167SOL    HW295526  11.557   8.299   3.584
65168SOL     OW95527  12.712   7.722   1.987
65168SOL    HW195528  12.651   7.647   2.010
65168SOL    HW295529  12.734   7.774   2.070
65169SOL     OW95530  12.475   8.286   1.904
65169SOL    HW195531  12.509   8.193   1.919
65169SOL    HW295532  12.493   8.313   1.809
65170SOL     OW95533  12.240   8.781   2.711
65170SOL    HW195534  12.247   8.697   2.656
65170SOL    HW295535  12.302   8.850   2.675
65171SOL     OW95536  11.491   8.258   2.811
65171SOL    HW195537  11.584   8.294   2.816
65171SOL    HW295538  11.485   8.173   2.863
65172SOL     OW95539  11.511   7.957   2.868
65172SOL    HW195540  11.459   7.874   2.851
65172SOL    HW295541  11.588   7.962   2.804
65173SOL     OW95542  12.310   7.828   3.540
65173SOL    HW195543  12.265   7.891   3.604
65173SOL    HW295544  12.403   7.859   3.523
65174SOL     OW95545  12.332   7.655   3.339
65174SOL    HW195546  12.332   7.719   3.416
65174SOL    HW295547  12.360   7.703   3.256
65175SOL     OW95548  11.180   8.774   2.062
65175SOL    HW195549  11.087   8.795   2.031
65175SOL    HW295550  11.190   8.675   2.075
65176SOL     OW95551  11.260   9.249   2.789
65176SOL    HW195552  11.218   9.163   2.762
65176SOL    HW295553  11.354   9.252   2.755
65177SOL     OW95554  11.676   9.016   2.772
65177SOL    HW195555  11.742   9.090   2.781
65177SOL    HW295556  11.720   8.937   2.730
65178SOL     OW95557  12.174   8.244   3.100
65178SOL    HW195558  12.215   8.212   3.186
65178SOL    HW295559  12.078   8.217   3.097
65179SOL     OW95560  11.212   7.992   2.976
65179SOL    HW195561  11.297   7.959   2.935
65179SOL    HW295562  11.225   8.007   3.074
65180SOL     OW95563  11.361   7.968   3.584
65180SOL    HW195564  11.420   7.928   3.514
65180SOL    HW295565  11.303   8.039   3.543
65181SOL     OW95566  12.541   8.398   3.522
65181SOL    HW195567  12.580   8.487   3.542
65181SOL    HW295568  12.551   8.378   3.425
65182SOL     OW95569  11.987   8.020   2.187
65182SOL    HW195570  11.994   7.931   2.141
65182SOL    HW295571  11.893   8.054   2.179
65183SOL     OW95572  11.424   9.012   3.606
65183SOL    HW195573  11.394   9.069   3.682
65183SOL    HW295574  11.417   8.915   3.632
65184SOL     OW95575  11.843   7.912   3.131
65184SOL    HW195576  11.809   7.823   3.101
65184SOL    HW295577  11.869   7.966   3.051
65185SOL     OW95578  12.102   9.126   3.327
65185SOL    HW195579  12.078   9.108   3.232
65185SOL    HW295580  12.132   9.220   3.337
65186SOL     OW95581  11.645   7.948   2.053
65186SOL    HW195582  11.706   8.028   2.057
65186SOL    HW295583  11.550   7.979   2.060
65187SOL     OW95584  11.331   8.585   3.328
65187SOL    HW195585  11.353   8.524   3.404
65187SOL    HW295586  11.341   8.536   3.242
65188SOL     OW95587  12.519   8.507   3.096
65188SOL    HW195588  12.543   8.444   3.022
65188SOL    HW295589  12.429   8.547   3.078
65189SOL     OW95590  12.474   8.303   2.171
65189SOL    HW195591  12.388   8.272   2.213
65189SOL    HW295592  12.470   8.289   2.072
65190SOL     OW95593  12.424   9.179   2.990
65190SOL    HW195594  12.508   9.184   2.936
65190SOL    HW295595  12.401   9.083   3.008
65191SOL     OW95596  11.255   8.706   2.884
65191SOL    HW195597  11.250   8.705   2.984
65191SOL    HW295598  11.172   8.665   2.846
65192SOL     OW95599  11.860   9.110   3.578
65192SOL    HW195600  11.804   9.191   3.587
65192SOL    HW295601  11.912   9.114   3.492
65193SOL     OW95602  12.898   7.583   2.385
65193SOL    HW195603  12.971   7.566   2.318
65193SOL    HW295604  12.867   7.496   2.423
65194SOL     OW95605  12.560   9.021   2.339
65194SOL    HW195606  12.627   9.033   2.265
65194SOL    HW295607  12.520   9.110   2.362
65195SOL     OW95608  11.302   9.242   3.713
65195SOL    HW195609  11.261   9.168   3.766
65195SOL    HW295610  11.366   9.293   3.771
65196SOL     OW95611  12.452   8.375   2.534
65196SOL    HW195612  12.512   8.294   2.536
65196SOL    HW295613  12.492   8.444   2.474
65197SOL     OW95614  12.002   8.721   3.284
65197SOL    HW195615  11.997   8.754   3.379
65197SOL    HW295616  11.916   8.740   3.238
65198SOL     OW95617  11.844   9.064   2.016
65198SOL    HW195618  11.853   9.074   1.917
65198SOL    HW295619  11.804   8.975   2.037
65199SOL     OW95620  11.435   7.774   2.582
65199SOL    HW195621  11.356   7.825   2.548
65199SOL    HW295622  11.426   7.759   2.680
65200SOL     OW95623  12.366   9.060   1.893
65200SOL    HW195624  12.372   8.967   1.930
65200SOL    HW295625  12.307   9.060   1.813
65201SOL     OW95626  11.994   8.450   3.234
65201SOL    HW195627  12.034   8.449   3.142
65201SOL    HW295628  12.004   8.542   3.274
65202SOL     OW95629  12.088   8.358   2.153
65202SOL    HW195630  12.151   8.396   2.085
65202SOL    HW295631  12.128   8.275   2.192
65203SOL     OW95632  12.676   9.055   1.906
65203SOL    HW195633  12.584   9.092   1.913
65203SOL    HW295634  12.714   9.075   1.816
65204SOL     OW95635  11.544   8.736   3.352
65204SOL    HW195636  11.531   8.829   3.318
65204SOL    HW295637  11.460   8.684   3.339
65205SOL     OW95638  12.211   8.546   2.558
65205SOL    HW195639  12.141   8.499   2.612
65205SOL    HW295640  12.270   8.478   2.515
65206SOL     OW95641  12.186   7.684   2.833
65206SOL    HW195642  12.178   7.648   2.740
65206SOL    HW295643  12.184   7.608   2.898
65207SOL     OW95644  11.762   8.935   2.353
65207SOL    HW195645  11.804   8.877   2.283
65207SOL    HW295646  11.718   9.014   2.309
65208SOL     OW95647  11.427   8.796   2.152
65208SOL    HW195648  11.331   8.797   2.125
65208SOL    HW295649  11.439   8.849   2.236
65209SOL     OW95650  11.277   8.461   3.588
65209SOL    HW195651  11.200   8.428   3.642
65209SOL    HW295652  11.362   8.431   3.630
65210SOL     OW95653  11.844   7.651   3.351
65210SOL    HW195654  11.934   7.635   3.311
65210SOL    HW295655  11.852   7.656   3.450
65211SOL     OW95656  11.247   7.793   1.895
65211SOL    HW195657  11.155   7.765   1.866
65211SOL    HW295658  11.278   7.870   1.839
65212SOL     OW95659  12.612   8.304   3.260
65212SOL    HW195660  12.555   8.356   3.197
65212SOL    HW295661  12.708   8.316   3.236
65213SOL     OW95662  11.244   7.614   2.180
65213SOL    HW195663  11.227   7.697   2.126
65213SOL    HW295664  11.334   7.577   2.158
65214SOL     OW95665  12.355   8.783   1.981
65214SOL    HW195666  12.256   8.772   1.983
65214SOL    HW295667  12.389   8.798   2.074
65215SOL     OW95668  11.785   8.290   3.293
65215SOL    HW195669  11.841   8.371   3.276
65215SOL    HW295670  11.844   8.210   3.296
65216SOL     OW95671  12.665   9.215   2.821
65216SOL    HW195672  12.698   9.279   2.752
65216SOL    HW295673  12.731   9.209   2.896
65217SOL     OW95674  11.888   8.013   3.570
65217SOL    HW195675  11.907   8.078   3.644
65217SOL    HW295676  11.948   7.933   3.579
65218SOL     OW95677  12.622   8.668   3.495
65218SOL    HW195678  12.613   8.658   3.594
65218SOL    HW295679  12.718   8.661   3.469
65219SOL     OW95680  11.562   9.189   3.422
65219SOL    HW195681  11.471   9.230   3.420
65219SOL    HW295682  11.555   9.095   3.454
65220SOL     OW95683  12.397   7.773   2.311
65220SOL    HW195684  12.462   7.699   2.300
65220SOL    HW295685  12.417   7.823   2.395
65221SOL     OW95686  11.766   8.193   2.514
65221SOL    HW195687  11.816   8.278   2.495
65221SOL    HW295688  11.678   8.195   2.466
65222SOL     OW95689  12.031   8.822   1.878
65222SOL    HW195690  11.985   8.837   1.966
65222SOL    HW295691  12.075   8.907   1.848
65223SOL     OW95692  11.833   9.238   2.815
65223SOL    HW195693  11.787   9.326   2.802
65223SOL    HW295694  11.932   9.250   2.808
65224SOL     OW95695  12.031   8.404   2.723
65224SOL    HW195696  12.085   8.335   2.771
65224SOL    HW295697  11.999   8.473   2.789
65225SOL     OW95698  12.255   8.432   1.949
65225SOL    HW195699  12.232   8.485   1.867
65225SOL    HW295700  12.336   8.376   1.930
65226SOL     OW95701  13.033   9.017   2.713
65226SOL    HW195702  12.962   9.005   2.643
65226SOL    HW295703  13.034   8.938   2.773
65227SOL     OW95704  11.393   8.762   3.706
65227SOL    HW195705  11.328   8.689   3.685
65227SOL    HW295706  11.397   8.776   3.804
65228SOL     OW95707  11.251   8.688   2.515
65228SOL    HW195708  11.250   8.641   2.603
65228SOL    HW295709  11.333   8.660   2.464
65229SOL     OW95710  11.844   8.839   3.486
65229SOL    HW195711  11.766   8.789   3.524
65229SOL    HW295712  11.841   8.934   3.517
65230SOL     OW95713  11.600   7.872   2.382
65230SOL    HW195714  11.630   7.800   2.320
65230SOL    HW295715  11.561   7.832   2.465
65231SOL     OW95716  11.489   7.995   3.142
65231SOL    HW195717  11.527   7.936   3.214
65231SOL    HW295718  11.529   7.969   3.054
65232SOL     OW95719  11.984   9.034   2.549
65232SOL    HW195720  12.016   9.044   2.455
65232SOL    HW295721  11.905   8.972   2.551
65233SOL     OW95722  12.596   7.662   2.974
65233SOL    HW195723  12.648   7.597   3.029
65233SOL    HW295724  12.547   7.725   3.035
65234SOL     OW95725  12.173   7.482   3.016
65234SOL    HW195726  12.110   7.410   2.985
65234SOL    HW295727  12.266   7.446   3.016
65235SOL     OW95728  11.942   8.778   2.163
65235SOL    HW195729  11.896   8.691   2.180
65235SOL    HW295730  12.033   8.775   2.204
65236SOL     OW95731  11.790   9.015   3.146
65236SOL    HW195732  11.785   9.097   3.203
65236SOL    HW295733  11.879   9.012   3.101
65237SOL     OW95734  12.524   7.500   2.030
65237SOL    HW195735  12.559   7.459   1.946
65237SOL    HW295736  12.434   7.462   2.050
65238SOL     OW95737  12.472   7.901   2.553
65238SOL    HW195738  12.413   7.981   2.557
65238SOL    HW295739  12.487   7.866   2.646
65239SOL     OW95740  12.765   7.669   2.744
65239SOL    HW195741  12.681   7.668   2.798
65239SOL    HW295742  12.767   7.752   2.688
65240SOL     OW95743  11.211   8.525   2.162
65240SOL    HW195744  11.310   8.514   2.153
65240SOL    HW295745  11.171   8.439   2.194
65241SOL     OW95746  12.047   9.094   2.199
65241SOL    HW195747  11.970   9.059   2.145
65241SOL    HW295748  12.015   9.165   2.261
65242SOL     OW95749  11.402   8.076   3.837
65242SOL    HW195750  11.309   8.074   3.874
65242SOL    HW295751  11.403   8.037   3.745
65243SOL     OW95752  11.397   7.723   4.720
65243SOL    HW195753  11.432   7.706   4.812
65243SOL    HW295754  11.309   7.678   4.708
65244SOL     OW95755  11.191   7.816   4.371
65244SOL    HW195756  11.109   7.859   4.410
65244SOL    HW295757  11.163   7.743   4.308
65245SOL     OW95758  11.741   8.723   4.889
65245SOL    HW195759  11.648   8.716   4.852
65245SOL    HW295760  11.752   8.812   4.933
65246SOL     OW95761  12.727   8.959   4.427
65246SOL    HW195762  12.670   8.943   4.508
65246SOL    HW295763  12.668   8.969   4.347
65247SOL     OW95764  12.307   8.151   4.441
65247SOL    HW195765  12.364   8.229   4.416
65247SOL    HW295766  12.247   8.177   4.517
65248SOL     OW95767  11.940   8.592   4.747
65248SOL    HW195768  11.862   8.609   4.807
65248SOL    HW295769  11.974   8.679   4.711
65249SOL     OW95770  12.022   8.246   5.547
65249SOL    HW195771  12.018   8.322   5.612
65249SOL    HW295772  12.044   8.282   5.456
65250SOL     OW95773  11.857   8.460   4.389
65250SOL    HW195774  11.926   8.444   4.459
65250SOL    HW295775  11.784   8.517   4.427
65251SOL     OW95776  11.858   8.609   5.527
65251SOL    HW195777  11.918   8.688   5.541
65251SOL    HW295778  11.772   8.640   5.486
65252SOL     OW95779  11.507   8.883   4.785
65252SOL    HW195780  11.429   8.852   4.732
65252SOL    HW295781  11.565   8.941   4.728
65253SOL     OW95782  12.632   8.953   5.063
65253SOL    HW195783  12.656   9.047   5.089
65253SOL    HW295784  12.616   8.899   5.145
65254SOL     OW95785  11.610   7.840   5.223
65254SOL    HW195786  11.692   7.784   5.232
65254SOL    HW295787  11.529   7.782   5.227
65255SOL     OW95788  11.403   9.161   4.207
65255SOL    HW195789  11.437   9.238   4.261
65255SOL    HW295790  11.447   9.161   4.117
65256SOL     OW95791  12.299   8.789   5.414
65256SOL    HW195792  12.346   8.789   5.502
65256SOL    HW295793  12.251   8.702   5.403
65257SOL     OW95794  11.402   8.882   4.262
65257SOL    HW195795  11.376   8.978   4.262
65257SOL    HW295796  11.331   8.828   4.307
65258SOL     OW95797  11.412   8.539   4.610
65258SOL    HW195798  11.426   8.455   4.662
65258SOL    HW295799  11.357   8.603   4.665
65259SOL     OW95800  11.792   9.234   5.163
65259SOL    HW195801  11.700   9.217   5.198
65259SOL    HW295802  11.820   9.326   5.189
65260SOL     OW95803  11.778   8.412   3.847
65260SOL    HW195804  11.785   8.496   3.793
65260SOL    HW295805  11.824   8.425   3.935
65261SOL     OW95806  12.766   7.562   5.204
65261SOL    HW195807  12.748   7.629   5.132
65261SOL    HW295808  12.763   7.608   5.293
65262SOL     OW95809  11.294   8.091   4.287
65262SOL    HW195810  11.249   8.003   4.304
65262SOL    HW295811  11.293   8.145   4.371
65263SOL     OW95812  11.199   9.044   3.841
65263SOL    HW195813  11.180   8.948   3.862
65263SOL    HW295814  11.166   9.102   3.916
65264SOL     OW95815  12.861   8.370   4.336
65264SOL    HW195816  12.956   8.341   4.344
65264SOL    HW295817  12.853   8.435   4.261
65265SOL     OW95818  11.285   8.185   5.321
65265SOL    HW195819  11.373   8.172   5.366
65265SOL    HW295820  11.272   8.282   5.299
65266SOL     OW95821  11.785   8.813   4.450
65266SOL    HW195822  11.736   8.726   4.459
65266SOL    HW295823  11.762   8.856   4.363
65267SOL     OW95824  12.465   8.676   5.147
65267SOL    HW195825  12.502   8.603   5.089
65267SOL    HW295826  12.517   8.681   5.232
65268SOL     OW95827  11.981   7.452   4.226
65268SOL    HW195828  12.021   7.543   4.217
65268SOL    HW295829  11.881   7.460   4.232
65269SOL     OW95830  11.369   8.424   4.988
65269SOL    HW195831  11.458   8.379   4.974
65269SOL    HW295832  11.296   8.359   4.969
65270SOL     OW95833  12.359   9.240   5.340
65270SOL    HW195834  12.383   9.300   5.264
65270SOL    HW295835  12.366   9.145   5.310
65271SOL     OW95836  11.489   7.699   5.525
65271SOL    HW195837  11.560   7.770   5.531
65271SOL    HW295838  11.401   7.738   5.553
65272SOL     OW95839  12.638   8.865   4.677
65272SOL    HW195840  12.579   8.871   4.757
65272SOL    HW295841  12.623   8.777   4.631
65273SOL     OW95842  12.839   9.162   4.296
65273SOL    HW195843  12.798   9.139   4.208
65273SOL    HW295844  12.821   9.088   4.361
65274SOL     OW95845  11.770   8.177   3.994
65274SOL    HW195846  11.794   8.246   3.926
65274SOL    HW295847  11.692   8.210   4.048
65275SOL     OW95848  12.453   7.793   4.668
65275SOL    HW195849  12.367   7.743   4.655
65275SOL    HW295850  12.515   7.739   4.724
65276SOL     OW95851  11.979   8.053   5.189
65276SOL    HW195852  11.932   8.050   5.278
65276SOL    HW295853  11.928   7.998   5.123
65277SOL     OW95854  12.566   7.917   5.398
65277SOL    HW195855  12.546   7.960   5.486
65277SOL    HW295856  12.644   7.855   5.407
65278SOL     OW95857  12.145   8.338   5.296
65278SOL    HW195858  12.191   8.254   5.267
65278SOL    HW295859  12.089   8.372   5.221
65279SOL     OW95860  12.163   7.858   4.966
65279SOL    HW195861  12.086   7.892   5.020
65279SOL    HW295862  12.129   7.807   4.887
65280SOL     OW95863  12.213   8.149   4.153
65280SOL    HW195864  12.239   8.145   4.249
65280SOL    HW295865  12.128   8.098   4.139
65281SOL     OW95866  11.248   8.259   4.513
65281SOL    HW195867  11.347   8.247   4.522
65281SOL    HW295868  11.224   8.354   4.534
65282SOL     OW95869  11.302   9.269   5.295
65282SOL    HW195870  11.292   9.254   5.394
65282SOL    HW295871  11.216   9.305   5.259
65283SOL     OW95872  12.037   7.796   3.919
65283SOL    HW195873  12.096   7.859   3.870
65283SOL    HW295874  12.056   7.702   3.890
65284SOL     OW95875  12.534   8.592   4.269
65284SOL    HW195876  12.617   8.563   4.221
65284SOL    HW295877  12.485   8.659   4.213
65285SOL     OW95878  11.722   7.644   4.609
65285SOL    HW195879  11.717   7.639   4.709
65285SOL    HW295880  11.724   7.740   4.580
65286SOL     OW95881  12.180   8.904   4.201
65286SOL    HW195882  12.134   8.976   4.149
65286SOL    HW295883  12.176   8.924   4.299
65287SOL     OW95884  11.523   9.249   4.577
65287SOL    HW195885  11.573   9.163   4.583
65287SOL    HW295886  11.588   9.326   4.574
65288SOL     OW95887  12.399   8.998   5.230
65288SOL    HW195888  12.405   8.921   5.294
65288SOL    HW295889  12.347   8.972   5.150
65289SOL     OW95890  11.493   8.391   3.966
65289SOL    HW195891  11.575   8.430   3.924
65289SOL    HW295892  11.466   8.309   3.917
65290SOL     OW95893  12.630   8.183   4.452
65290SOL    HW195894  12.625   8.118   4.527
65290SOL    HW295895  12.710   8.242   4.465
65291SOL     OW95896  11.633   8.714   5.451
65291SOL    HW195897  11.583   8.715   5.365
65291SOL    HW295898  11.570   8.696   5.527
65292SOL     OW95899  12.283   9.224   3.961
65292SOL    HW195900  12.223   9.162   4.011
65292SOL    HW295901  12.314   9.180   3.876
65293SOL     OW95902  11.374   7.733   5.222
65293SOL    HW195903  11.294   7.793   5.209
65293SOL    HW295904  11.364   7.684   5.308
65294SOL     OW95905  11.636   9.191   4.047
65294SOL    HW195906  11.669   9.230   4.133
65294SOL    HW295907  11.712   9.184   3.982
65295SOL     OW95908  12.572   7.555   4.150
65295SOL    HW195909  12.548   7.518   4.060
65295SOL    HW295910  12.671   7.571   4.154
65296SOL     OW95911  12.112   9.146   4.628
65296SOL    HW195912  12.192   9.089   4.649
65296SOL    HW295913  12.063   9.106   4.551
65297SOL     OW95914  11.554   8.148   4.204
65297SOL    HW195915  11.599   8.058   4.201
65297SOL    HW295916  11.460   8.137   4.237
65298SOL     OW95917  11.786   7.570   3.841
65298SOL    HW195918  11.884   7.548   3.848
65298SOL    HW295919  11.755   7.553   3.748
65299SOL     OW95920  11.953   7.712   5.473
65299SOL    HW195921  12.020   7.651   5.516
65299SOL    HW295922  11.880   7.731   5.538
65300SOL     OW95923  12.060   8.962   4.919
65300SOL    HW195924  12.037   8.937   4.825
65300SOL    HW295925  12.121   8.893   4.958
65301SOL     OW95926  12.523   8.038   5.157
65301SOL    HW195927  12.551   7.995   5.242
65301SOL    HW295928  12.548   8.134   5.158
65302SOL     OW95929  11.975   8.850   4.648
65302SOL    HW195930  12.065   8.864   4.606
65302SOL    HW295931  11.904   8.852   4.577
65303SOL     OW95932  12.094   7.951   4.623
65303SOL    HW195933  12.069   7.942   4.527
65303SOL    HW295934  12.142   7.869   4.654
65304SOL     OW95935  11.711   7.512   4.236
65304SOL    HW195936  11.630   7.513   4.294
65304SOL    HW295937  11.714   7.595   4.181
65305SOL     OW95938  12.606   8.636   3.765
65305SOL    HW195939  12.638   8.560   3.822
65305SOL    HW295940  12.514   8.663   3.795
65306SOL     OW95941  11.469   7.483   3.895
65306SOL    HW195942  11.518   7.567   3.874
65306SOL    HW295943  11.531   7.418   3.940
65307SOL     OW95944  12.107   7.684   4.204
65307SOL    HW195945  12.059   7.725   4.126
65307SOL    HW295946  12.206   7.682   4.185
65308SOL     OW95947  12.248   8.131   5.188
65308SOL    HW195948  12.168   8.070   5.191
65308SOL    HW295949  12.329   8.078   5.164
65309SOL     OW95950  12.399   9.018   4.517
65309SOL    HW195951  12.420   9.092   4.452
65309SOL    HW295952  12.467   9.018   4.590
65310SOL     OW95953  11.631   8.600   4.465
65310SOL    HW195954  11.560   8.573   4.530
65310SOL    HW295955  11.605   8.572   4.372
65311SOL     OW95956  12.443   9.245   4.315
65311SOL    HW195957  12.487   9.309   4.251
65311SOL    HW295958  12.393   9.297   4.385
65312SOL     OW95959  12.204   7.997   3.740
65312SOL    HW195960  12.163   8.079   3.701
65312SOL    HW295961  12.268   8.023   3.813
65313SOL     OW95962  11.250   8.004   5.110
65313SOL    HW195963  11.342   8.003   5.069
65313SOL    HW295964  11.244   8.078   5.177
65314SOL     OW95965  11.733   7.670   4.871
65314SOL    HW195966  11.771   7.586   4.908
65314SOL    HW295967  11.645   7.689   4.915
65315SOL     OW95968  12.038   7.902   4.366
65315SOL    HW195969  12.006   7.974   4.304
65315SOL    HW295970  12.062   7.821   4.313
65316SOL     OW95971  12.189   7.487   4.477
65316SOL    HW195972  12.117   7.492   4.408
65316SOL    HW295973  12.165   7.418   4.546
65317SOL     OW95974  12.601   8.621   4.591
65317SOL    HW195975  12.546   8.537   4.584
65317SOL    HW295976  12.627   8.650   4.499
65318SOL     OW95977  12.638   8.038   4.716
65318SOL    HW195978  12.608   7.943   4.723
65318SOL    HW295979  12.711   8.054   4.782
65319SOL     OW95980  11.660   8.833   3.898
65319SOL    HW195981  11.573   8.818   3.945
65319SOL    HW295982  11.643   8.859   3.803
65320SOL     OW95983  12.562   8.023   3.802
65320SOL    HW195984  12.508   8.002   3.883
65320SOL    HW295985  12.653   7.982   3.811
65321SOL     OW95986  11.699   7.704   4.052
65321SOL    HW195987  11.726   7.645   3.977
65321SOL    HW295988  11.699   7.799   4.021
65322SOL     OW95989  12.236   8.795   5.064
65322SOL    HW195990  12.156   8.772   5.119
65322SOL    HW295991  12.319   8.769   5.113
65323SOL     OW95992  12.764   9.077   5.349
65323SOL    HW195993  12.791   9.111   5.259
65323SOL    HW295994  12.843   9.039   5.395
65324SOL     OW95995  12.283   8.643   4.824
65324SOL    HW195996  12.243   8.687   4.905
65324SOL    HW295997  12.242   8.680   4.741
65325SOL     OW95998  12.087   7.537   5.126
65325SOL    HW195999  12.112   7.517   5.031
65325SOL    HW296000  12.159   7.593   5.168
65326SOL     OW96001  12.152   8.564   5.443
65326SOL    HW196002  12.053   8.570   5.453
65326SOL    HW296003  12.175   8.484   5.387
65327SOL     OW96004  11.877   8.498   4.092
65327SOL    HW196005  11.863   8.505   4.191
65327SOL    HW296006  11.961   8.447   4.074
65328SOL     OW96007  11.582   8.261   4.975
65328SOL    HW196008  11.668   8.273   5.025
65328SOL    HW296009  11.540   8.174   5.002
65329SOL     OW96010  12.446   7.834   4.986
65329SOL    HW196011  12.467   7.908   5.050
65329SOL    HW296012  12.357   7.851   4.943
65330SOL     OW96013  11.236   9.012   5.055
65330SOL    HW196014  11.190   9.094   5.021
65330SOL    HW296015  11.334   9.031   5.064
65331SOL     OW96016  11.539   8.548   4.225
65331SOL    HW196017  11.532   8.631   4.169
65331SOL    HW296018  11.543   8.468   4.165
65332SOL     OW96019  11.738   7.985   4.589
65332SOL    HW196020  11.750   8.051   4.515
65332SOL    HW296021  11.784   8.019   4.672
65333SOL     OW96022  12.424   8.796   4.112
65333SOL    HW196023  12.474   8.873   4.152
65333SOL    HW296024  12.329   8.798   4.144
65334SOL     OW96025  12.444   8.893   4.866
65334SOL    HW196026  12.491   8.906   4.953
65334SOL    HW296027  12.378   8.819   4.875
65335SOL     OW96028  12.754   8.087   4.196
65335SOL    HW196029  12.723   8.148   4.269
65335SOL    HW296030  12.804   8.139   4.127
65336SOL     OW96031  11.526   8.958   5.053
65336SOL    HW196032  11.505   8.914   4.966
65336SOL    HW296033  11.623   8.984   5.056
65337SOL     OW96034  11.574   8.199   5.322
65337SOL    HW196035  11.642   8.254   5.275
65337SOL    HW296036  11.614   8.111   5.349
65338SOL     OW96037  12.185   7.553   5.494
65338SOL    HW196038  12.191   7.638   5.442
65338SOL    HW296039  12.217   7.477   5.437
65339SOL     OW96040  11.676   7.498   5.464
65339SOL    HW196041  11.634   7.441   5.394
65339SOL    HW296042  11.610   7.567   5.496
65340SOL     OW96043  11.745   8.318   4.753
65340SOL    HW196044  11.789   8.407   4.744
65340SOL    HW296045  11.682   8.318   4.830
65341SOL     OW96046  12.532   8.310   4.769
65341SOL    HW196047  12.457   8.310   4.703
65341SOL    HW296048  12.569   8.218   4.778
65342SOL     OW96049  12.381   7.973   3.999
65342SOL    HW196050  12.394   7.889   4.053
65342SOL    HW296051  12.352   8.047   4.059
65343SOL     OW96052  11.479   7.661   4.955
65343SOL    HW196053  11.456   7.698   5.045
65343SOL    HW296054  11.449   7.566   4.949
65344SOL     OW96055  11.209   8.758   5.006
65344SOL    HW196056  11.262   8.709   5.074
65344SOL    HW296057  11.231   8.856   5.011
65345SOL     OW96058  11.904   8.082   4.788
65345SOL    HW196059  11.963   8.056   4.712
65345SOL    HW296060  11.876   8.178   4.777
65346SOL     OW96061  11.479   7.511   4.342
65346SOL    HW196062  11.468   7.605   4.375
65346SOL    HW296063  11.474   7.448   4.419
65347SOL     OW96064  12.794   7.815   4.098
65347SOL    HW196065  12.796   7.739   4.162
65347SOL    HW296066  12.746   7.892   4.138
65348SOL     OW96067  12.195   8.214   4.690
65348SOL    HW196068  12.210   8.235   4.786
65348SOL    HW296069  12.165   8.119   4.681
65349SOL     OW96070  12.152   9.021   5.424
65349SOL    HW196071  12.132   9.065   5.336
65349SOL    HW296072  12.191   8.930   5.408
65350SOL     OW96073  11.522   8.346   5.528
65350SOL    HW196074  11.598   8.390   5.576
65350SOL    HW296075  11.557   8.299   5.446
65351SOL     OW96076  12.712   7.722   3.849
65351SOL    HW196077  12.651   7.647   3.872
65351SOL    HW296078  12.734   7.774   3.932
65352SOL     OW96079  12.475   8.286   3.766
65352SOL    HW196080  12.509   8.193   3.781
65352SOL    HW296081  12.493   8.313   3.671
65353SOL     OW96082  12.240   8.781   4.573
65353SOL    HW196083  12.247   8.697   4.518
65353SOL    HW296084  12.302   8.850   4.537
65354SOL     OW96085  11.491   8.258   4.673
65354SOL    HW196086  11.584   8.294   4.678
65354SOL    HW296087  11.485   8.173   4.725
65355SOL     OW96088  11.511   7.957   4.730
65355SOL    HW196089  11.459   7.874   4.713
65355SOL    HW296090  11.588   7.962   4.666
65356SOL     OW96091  12.310   7.828   5.402
65356SOL    HW196092  12.265   7.891   5.466
65356SOL    HW296093  12.403   7.859   5.385
65357SOL     OW96094  12.332   7.655   5.201
65357SOL    HW196095  12.332   7.719   5.278
65357SOL    HW296096  12.360   7.703   5.118
65358SOL     OW96097  11.180   8.774   3.924
65358SOL    HW196098  11.087   8.795   3.893
65358SOL    HW296099  11.190   8.675   3.937
65359SOL     OW96100  11.260   9.249   4.651
65359SOL    HW196101  11.218   9.163   4.624
65359SOL    HW296102  11.354   9.252   4.617
65360SOL     OW96103  11.676   9.016   4.634
65360SOL    HW196104  11.742   9.090   4.643
65360SOL    HW296105  11.720   8.937   4.592
65361SOL     OW96106  12.174   8.244   4.962
65361SOL    HW196107  12.215   8.212   5.048
65361SOL    HW296108  12.078   8.217   4.959
65362SOL     OW96109  11.212   7.992   4.838
65362SOL    HW196110  11.297   7.959   4.797
65362SOL    HW296111  11.225   8.007   4.936
65363SOL     OW96112  11.361   7.968   5.446
65363SOL    HW196113  11.420   7.928   5.376
65363SOL    HW296114  11.303   8.039   5.405
65364SOL     OW96115  12.541   8.398   5.384
65364SOL    HW196116  12.580   8.487   5.404
65364SOL    HW296117  12.551   8.378   5.287
65365SOL     OW96118  11.987   8.020   4.049
65365SOL    HW196119  11.994   7.931   4.003
65365SOL    HW296120  11.893   8.054   4.041
65366SOL     OW96121  11.424   9.012   5.468
65366SOL    HW196122  11.394   9.069   5.544
65366SOL    HW296123  11.417   8.915   5.494
65367SOL     OW96124  11.843   7.912   4.993
65367SOL    HW196125  11.809   7.823   4.963
65367SOL    HW296126  11.869   7.966   4.913
65368SOL     OW96127  12.102   9.126   5.189
65368SOL    HW196128  12.078   9.108   5.094
65368SOL    HW296129  12.132   9.220   5.199
65369SOL     OW96130  11.645   7.948   3.915
65369SOL    HW196131  11.706   8.028   3.919
65369SOL    HW296132  11.550   7.979   3.922
65370SOL     OW96133  11.331   8.585   5.190
65370SOL    HW196134  11.353   8.524   5.266
65370SOL    HW296135  11.341   8.536   5.104
65371SOL     OW96136  12.519   8.507   4.958
65371SOL    HW196137  12.543   8.444   4.884
65371SOL    HW296138  12.429   8.547   4.940
65372SOL     OW96139  12.474   8.303   4.033
65372SOL    HW196140  12.388   8.272   4.075
65372SOL    HW296141  12.470   8.289   3.934
65373SOL     OW96142  12.424   9.179   4.852
65373SOL    HW196143  12.508   9.184   4.798
65373SOL    HW296144  12.401   9.083   4.870
65374SOL     OW96145  11.255   8.706   4.746
65374SOL    HW196146  11.250   8.705   4.846
65374SOL    HW296147  11.172   8.665   4.708
65375SOL     OW96148  11.860   9.110   5.440
65375SOL    HW196149  11.804   9.191   5.449
65375SOL    HW296150  11.912   9.114   5.354
65376SOL     OW96151  12.898   7.583   4.247
65376SOL    HW196152  12.971   7.566   4.180
65376SOL    HW296153  12.867   7.496   4.285
65377SOL     OW96154  12.560   9.021   4.201
65377SOL    HW196155  12.627   9.033   4.127
65377SOL    HW296156  12.520   9.110   4.224
65378SOL     OW96157  11.302   9.242   5.575
65378SOL    HW196158  11.261   9.168   5.628
65378SOL    HW296159  11.366   9.293   5.633
65379SOL     OW96160  12.452   8.375   4.396
65379SOL    HW196161  12.512   8.294   4.398
65379SOL    HW296162  12.492   8.444   4.336
65380SOL     OW96163  12.002   8.721   5.146
65380SOL    HW196164  11.997   8.754   5.241
65380SOL    HW296165  11.916   8.740   5.100
65381SOL     OW96166  11.844   9.064   3.878
65381SOL    HW196167  11.853   9.074   3.779
65381SOL    HW296168  11.804   8.975   3.899
65382SOL     OW96169  11.435   7.774   4.444
65382SOL    HW196170  11.356   7.825   4.410
65382SOL    HW296171  11.426   7.759   4.542
65383SOL     OW96172  12.366   9.060   3.755
65383SOL    HW196173  12.372   8.967   3.792
65383SOL    HW296174  12.307   9.060   3.675
65384SOL     OW96175  11.994   8.450   5.096
65384SOL    HW196176  12.034   8.449   5.004
65384SOL    HW296177  12.004   8.542   5.136
65385SOL     OW96178  12.088   8.358   4.015
65385SOL    HW196179  12.151   8.396   3.947
65385SOL    HW296180  12.128   8.275   4.054
65386SOL     OW96181  12.676   9.055   3.768
65386SOL    HW196182  12.584   9.092   3.775
65386SOL    HW296183  12.714   9.075   3.678
65387SOL     OW96184  11.544   8.736   5.214
65387SOL    HW196185  11.531   8.829   5.180
65387SOL    HW296186  11.460   8.684   5.201
65388SOL     OW96187  12.211   8.546   4.420
65388SOL    HW196188  12.141   8.499   4.474
65388SOL    HW296189  12.270   8.478   4.377
65389SOL     OW96190  12.186   7.684   4.695
65389SOL    HW196191  12.178   7.648   4.602
65389SOL    HW296192  12.184   7.608   4.760
65390SOL     OW96193  11.762   8.935   4.215
65390SOL    HW196194  11.804   8.877   4.145
65390SOL    HW296195  11.718   9.014   4.171
65391SOL     OW96196  11.427   8.796   4.014
65391SOL    HW196197  11.331   8.797   3.987
65391SOL    HW296198  11.439   8.849   4.098
65392SOL     OW96199  11.277   8.461   5.450
65392SOL    HW196200  11.200   8.428   5.504
65392SOL    HW296201  11.362   8.431   5.492
65393SOL     OW96202  11.844   7.651   5.213
65393SOL    HW196203  11.934   7.635   5.173
65393SOL    HW296204  11.852   7.656   5.312
65394SOL     OW96205  11.247   7.793   3.757
65394SOL    HW196206  11.155   7.765   3.728
65394SOL    HW296207  11.278   7.870   3.701
65395SOL     OW96208  12.612   8.304   5.122
65395SOL    HW196209  12.555   8.356   5.059
65395SOL    HW296210  12.708   8.316   5.098
65396SOL     OW96211  12.355   8.783   3.843
65396SOL    HW196212  12.256   8.772   3.845
65396SOL    HW296213  12.389   8.798   3.936
65397SOL     OW96214  11.785   8.290   5.155
65397SOL    HW196215  11.841   8.371   5.138
65397SOL    HW296216  11.844   8.210   5.158
65398SOL     OW96217  12.665   9.215   4.683
65398SOL    HW196218  12.698   9.279   4.614
65398SOL    HW296219  12.731   9.209   4.758
65399SOL     OW96220  11.888   8.013   5.432
65399SOL    HW196221  11.907   8.078   5.506
65399SOL    HW296222  11.948   7.933   5.441
65400SOL     OW96223  12.622   8.668   5.357
65400SOL    HW196224  12.613   8.658   5.456
65400SOL    HW296225  12.718   8.661   5.331
65401SOL     OW96226  11.562   9.189   5.284
65401SOL    HW196227  11.471   9.230   5.282
65401SOL    HW296228  11.555   9.095   5.316
65402SOL     OW96229  12.397   7.773   4.173
65402SOL    HW196230  12.462   7.699   4.162
65402SOL    HW296231  12.417   7.823   4.257
65403SOL     OW96232  11.766   8.193   4.376
65403SOL    HW196233  11.816   8.278   4.357
65403SOL    HW296234  11.678   8.195   4.328
65404SOL     OW96235  12.031   8.822   3.740
65404SOL    HW196236  11.985   8.837   3.828
65404SOL    HW296237  12.075   8.907   3.710
65405SOL     OW96238  11.833   9.238   4.677
65405SOL    HW196239  11.787   9.326   4.664
65405SOL    HW296240  11.932   9.250   4.670
65406SOL     OW96241  12.031   8.404   4.585
65406SOL    HW196242  12.085   8.335   4.633
65406SOL    HW296243  11.999   8.473   4.651
65407SOL     OW96244  12.255   8.432   3.811
65407SOL    HW196245  12.232   8.485   3.729
65407SOL    HW296246  12.336   8.376   3.792
65408SOL     OW96247  13.033   9.017   4.575
65408SOL    HW196248  12.962   9.005   4.505
65408SOL    HW296249  13.034   8.938   4.635
65409SOL     OW96250  11.393   8.762   5.568
65409SOL    HW196251  11.328   8.689   5.547
65409SOL    HW296252  11.397   8.776   5.666
65410SOL     OW96253  11.251   8.688   4.377
65410SOL    HW196254  11.250   8.641   4.465
65410SOL    HW296255  11.333   8.660   4.326
65411SOL     OW96256  11.844   8.839   5.348
65411SOL    HW196257  11.766   8.789   5.386
65411SOL    HW296258  11.841   8.934   5.379
65412SOL     OW96259  11.600   7.872   4.244
65412SOL    HW196260  11.630   7.800   4.182
65412SOL    HW296261  11.561   7.832   4.327
65413SOL     OW96262  11.489   7.995   5.004
65413SOL    HW196263  11.527   7.936   5.076
65413SOL    HW296264  11.529   7.969   4.916
65414SOL     OW96265  11.984   9.034   4.411
65414SOL    HW196266  12.016   9.044   4.317
65414SOL    HW296267  11.905   8.972   4.413
65415SOL     OW96268  12.596   7.662   4.836
65415SOL    HW196269  12.648   7.597   4.891
65415SOL    HW296270  12.547   7.725   4.897
65416SOL     OW96271  12.173   7.482   4.878
65416SOL    HW196272  12.110   7.410   4.847
65416SOL    HW296273  12.266   7.446   4.878
65417SOL     OW96274  11.942   8.778   4.025
65417SOL    HW196275  11.896   8.691   4.042
65417SOL    HW296276  12.033   8.775   4.066
65418SOL     OW96277  11.790   9.015   5.008
65418SOL    HW196278  11.785   9.097   5.065
65418SOL    HW296279  11.879   9.012   4.963
65419SOL     OW96280  12.524   7.500   3.892
65419SOL    HW196281  12.559   7.459   3.808
65419SOL    HW296282  12.434   7.462   3.912
65420SOL     OW96283  12.472   7.901   4.415
65420SOL    HW196284  12.413   7.981   4.419
65420SOL    HW296285  12.487   7.866   4.508
65421SOL     OW96286  12.765   7.669   4.606
65421SOL    HW196287  12.681   7.668   4.660
65421SOL    HW296288  12.767   7.752   4.550
65422SOL     OW96289  11.211   8.525   4.024
65422SOL    HW196290  11.310   8.514   4.015
65422SOL    HW296291  11.171   8.439   4.056
65423SOL     OW96292  12.047   9.094   4.061
65423SOL    HW196293  11.970   9.059   4.007
65423SOL    HW296294  12.015   9.165   4.123
65424SOL     OW96295  11.402   8.076   5.699
65424SOL    HW196296  11.309   8.074   5.736
65424SOL    HW296297  11.403   8.037   5.607
65425SOL     OW96298  11.397   7.723   6.582
65425SOL    HW196299  11.432   7.706   6.674
65425SOL    HW296300  11.309   7.678   6.570
65426SOL     OW96301  11.191   7.816   6.233
65426SOL    HW196302  11.109   7.859   6.272
65426SOL    HW296303  11.163   7.743   6.170
65427SOL     OW96304  11.741   8.723   6.751
65427SOL    HW196305  11.648   8.716   6.714
65427SOL    HW296306  11.752   8.812   6.795
65428SOL     OW96307  12.727   8.959   6.289
65428SOL    HW196308  12.670   8.943   6.370
65428SOL    HW296309  12.668   8.969   6.209
65429SOL     OW96310  12.307   8.151   6.303
65429SOL    HW196311  12.364   8.229   6.278
65429SOL    HW296312  12.247   8.177   6.379
65430SOL     OW96313  11.940   8.592   6.609
65430SOL    HW196314  11.862   8.609   6.669
65430SOL    HW296315  11.974   8.679   6.573
65431SOL     OW96316  12.022   8.246   7.409
65431SOL    HW196317  12.018   8.322   7.474
65431SOL    HW296318  12.044   8.282   7.318
65432SOL     OW96319  11.857   8.460   6.251
65432SOL    HW196320  11.926   8.444   6.321
65432SOL    HW296321  11.784   8.517   6.289
65433SOL     OW96322  11.858   8.609   7.389
65433SOL    HW196323  11.918   8.688   7.403
65433SOL    HW296324  11.772   8.640   7.348
65434SOL     OW96325  11.507   8.883   6.647
65434SOL    HW196326  11.429   8.852   6.594
65434SOL    HW296327  11.565   8.941   6.590
65435SOL     OW96328  12.632   8.953   6.925
65435SOL    HW196329  12.656   9.047   6.951
65435SOL    HW296330  12.616   8.899   7.007
65436SOL     OW96331  11.610   7.840   7.085
65436SOL    HW196332  11.692   7.784   7.094
65436SOL    HW296333  11.529   7.782   7.089
65437SOL     OW96334  11.403   9.161   6.069
65437SOL    HW196335  11.437   9.238   6.123
65437SOL    HW296336  11.447   9.161   5.979
65438SOL     OW96337  12.299   8.789   7.276
65438SOL    HW196338  12.346   8.789   7.364
65438SOL    HW296339  12.251   8.702   7.265
65439SOL     OW96340  11.402   8.882   6.124
65439SOL    HW196341  11.376   8.978   6.124
65439SOL    HW296342  11.331   8.828   6.169
65440SOL     OW96343  11.412   8.539   6.472
65440SOL    HW196344  11.426   8.455   6.524
65440SOL    HW296345  11.357   8.603   6.527
65441SOL     OW96346  11.792   9.234   7.025
65441SOL    HW196347  11.700   9.217   7.060
65441SOL    HW296348  11.820   9.326   7.051
65442SOL     OW96349  11.778   8.412   5.709
65442SOL    HW196350  11.785   8.496   5.655
65442SOL    HW296351  11.824   8.425   5.797
65443SOL     OW96352  12.766   7.562   7.066
65443SOL    HW196353  12.748   7.629   6.994
65443SOL    HW296354  12.763   7.608   7.155
65444SOL     OW96355  11.294   8.091   6.149
65444SOL    HW196356  11.249   8.003   6.166
65444SOL    HW296357  11.293   8.145   6.233
65445SOL     OW96358  11.199   9.044   5.703
65445SOL    HW196359  11.180   8.948   5.724
65445SOL    HW296360  11.166   9.102   5.778
65446SOL     OW96361  12.861   8.370   6.198
65446SOL    HW196362  12.956   8.341   6.206
65446SOL    HW296363  12.853   8.435   6.123
65447SOL     OW96364  11.285   8.185   7.183
65447SOL    HW196365  11.373   8.172   7.228
65447SOL    HW296366  11.272   8.282   7.161
65448SOL     OW96367  12.465   8.676   7.009
65448SOL    HW196368  12.502   8.603   6.951
65448SOL    HW296369  12.517   8.681   7.094
65449SOL     OW96370  11.981   7.452   6.088
65449SOL    HW196371  12.021   7.543   6.079
65449SOL    HW296372  11.881   7.460   6.094
65450SOL     OW96373  11.369   8.424   6.850
65450SOL    HW196374  11.458   8.379   6.836
65450SOL    HW296375  11.296   8.359   6.831
65451SOL     OW96376  12.359   9.240   7.202
65451SOL    HW196377  12.383   9.300   7.126
65451SOL    HW296378  12.366   9.145   7.172
65452SOL     OW96379  11.489   7.699   7.387
65452SOL    HW196380  11.560   7.770   7.393
65452SOL    HW296381  11.401   7.738   7.415
65453SOL     OW96382  12.638   8.865   6.539
65453SOL    HW196383  12.579   8.871   6.619
65453SOL    HW296384  12.623   8.777   6.493
65454SOL     OW96385  12.839   9.162   6.158
65454SOL    HW196386  12.798   9.139   6.070
65454SOL    HW296387  12.821   9.088   6.223
65455SOL     OW96388  11.770   8.177   5.856
65455SOL    HW196389  11.794   8.246   5.788
65455SOL    HW296390  11.692   8.210   5.910
65456SOL     OW96391  12.453   7.793   6.530
65456SOL    HW196392  12.367   7.743   6.517
65456SOL    HW296393  12.515   7.739   6.586
65457SOL     OW96394  11.979   8.053   7.051
65457SOL    HW196395  11.932   8.050   7.140
65457SOL    HW296396  11.928   7.998   6.985
65458SOL     OW96397  12.566   7.917   7.260
65458SOL    HW196398  12.546   7.960   7.348
65458SOL    HW296399  12.644   7.855   7.269
65459SOL     OW96400  12.145   8.338   7.158
65459SOL    HW196401  12.191   8.254   7.129
65459SOL    HW296402  12.089   8.372   7.083
65460SOL     OW96403  12.163   7.858   6.828
65460SOL    HW196404  12.086   7.892   6.882
65460SOL    HW296405  12.129   7.807   6.749
65461SOL     OW96406  12.213   8.149   6.015
65461SOL    HW196407  12.239   8.145   6.111
65461SOL    HW296408  12.128   8.098   6.001
65462SOL     OW96409  11.248   8.259   6.375
65462SOL    HW196410  11.347   8.247   6.384
65462SOL    HW296411  11.224   8.354   6.396
65463SOL     OW96412  11.302   9.269   7.157
65463SOL    HW196413  11.292   9.254   7.256
65463SOL    HW296414  11.216   9.305   7.121
65464SOL     OW96415  12.037   7.796   5.781
65464SOL    HW196416  12.096   7.859   5.732
65464SOL    HW296417  12.056   7.702   5.752
65465SOL     OW96418  11.722   7.644   6.471
65465SOL    HW196419  11.717   7.639   6.571
65465SOL    HW296420  11.724   7.740   6.442
65466SOL     OW96421  12.180   8.904   6.063
65466SOL    HW196422  12.134   8.976   6.011
65466SOL    HW296423  12.176   8.924   6.161
65467SOL     OW96424  11.523   9.249   6.439
65467SOL    HW196425  11.573   9.163   6.445
65467SOL    HW296426  11.588   9.326   6.436
65468SOL     OW96427  12.399   8.998   7.092
65468SOL    HW196428  12.405   8.921   7.156
65468SOL    HW296429  12.347   8.972   7.012
65469SOL     OW96430  11.493   8.391   5.828
65469SOL    HW196431  11.575   8.430   5.786
65469SOL    HW296432  11.466   8.309   5.779
65470SOL     OW96433  12.630   8.183   6.314
65470SOL    HW196434  12.625   8.118   6.389
65470SOL    HW296435  12.710   8.242   6.327
65471SOL     OW96436  11.633   8.714   7.313
65471SOL    HW196437  11.583   8.715   7.227
65471SOL    HW296438  11.570   8.696   7.389
65472SOL     OW96439  12.283   9.224   5.823
65472SOL    HW196440  12.223   9.162   5.873
65472SOL    HW296441  12.314   9.180   5.738
65473SOL     OW96442  11.374   7.733   7.084
65473SOL    HW196443  11.294   7.793   7.071
65473SOL    HW296444  11.364   7.684   7.170
65474SOL     OW96445  11.636   9.191   5.909
65474SOL    HW196446  11.669   9.230   5.995
65474SOL    HW296447  11.712   9.184   5.844
65475SOL     OW96448  12.572   7.555   6.012
65475SOL    HW196449  12.548   7.518   5.922
65475SOL    HW296450  12.671   7.571   6.016
65476SOL     OW96451  11.421   9.233   6.827
65476SOL    HW196452  11.478   9.168   6.877
65476SOL    HW296453  11.405   9.200   6.734
65477SOL     OW96454  12.112   9.146   6.490
65477SOL    HW196455  12.192   9.089   6.511
65477SOL    HW296456  12.063   9.106   6.413
65478SOL     OW96457  11.554   8.148   6.066
65478SOL    HW196458  11.599   8.058   6.063
65478SOL    HW296459  11.460   8.137   6.099
65479SOL     OW96460  11.786   7.570   5.703
65479SOL    HW196461  11.884   7.548   5.710
65479SOL    HW296462  11.755   7.553   5.610
65480SOL     OW96463  11.953   7.712   7.335
65480SOL    HW196464  12.020   7.651   7.378
65480SOL    HW296465  11.880   7.731   7.400
65481SOL     OW96466  12.060   8.962   6.781
65481SOL    HW196467  12.037   8.937   6.687
65481SOL    HW296468  12.121   8.893   6.820
65482SOL     OW96469  12.523   8.038   7.019
65482SOL    HW196470  12.551   7.995   7.104
65482SOL    HW296471  12.548   8.134   7.020
65483SOL     OW96472  11.975   8.850   6.510
65483SOL    HW196473  12.065   8.864   6.468
65483SOL    HW296474  11.904   8.852   6.439
65484SOL     OW96475  12.094   7.951   6.485
65484SOL    HW196476  12.069   7.942   6.389
65484SOL    HW296477  12.142   7.869   6.516
65485SOL     OW96478  11.711   7.512   6.098
65485SOL    HW196479  11.630   7.513   6.156
65485SOL    HW296480  11.714   7.595   6.043
65486SOL     OW96481  12.606   8.636   5.627
65486SOL    HW196482  12.638   8.560   5.684
65486SOL    HW296483  12.514   8.663   5.657
65487SOL     OW96484  11.469   7.483   5.757
65487SOL    HW196485  11.518   7.567   5.736
65487SOL    HW296486  11.531   7.418   5.802
65488SOL     OW96487  12.107   7.684   6.066
65488SOL    HW196488  12.059   7.725   5.988
65488SOL    HW296489  12.206   7.682   6.047
65489SOL     OW96490  12.248   8.131   7.050
65489SOL    HW196491  12.168   8.070   7.053
65489SOL    HW296492  12.329   8.078   7.026
65490SOL     OW96493  12.399   9.018   6.379
65490SOL    HW196494  12.420   9.092   6.314
65490SOL    HW296495  12.467   9.018   6.452
65491SOL     OW96496  11.631   8.600   6.327
65491SOL    HW196497  11.560   8.573   6.392
65491SOL    HW296498  11.605   8.572   6.234
65492SOL     OW96499  12.443   9.245   6.177
65492SOL    HW196500  12.487   9.309   6.113
65492SOL    HW296501  12.393   9.297   6.247
65493SOL     OW96502  12.204   7.997   5.602
65493SOL    HW196503  12.163   8.079   5.563
65493SOL    HW296504  12.268   8.023   5.675
65494SOL     OW96505  11.250   8.004   6.972
65494SOL    HW196506  11.342   8.003   6.931
65494SOL    HW296507  11.244   8.078   7.039
65495SOL     OW96508  11.733   7.670   6.733
65495SOL    HW196509  11.771   7.586   6.770
65495SOL    HW296510  11.645   7.689   6.777
65496SOL     OW96511  12.038   7.902   6.228
65496SOL    HW196512  12.006   7.974   6.166
65496SOL    HW296513  12.062   7.821   6.175
65497SOL     OW96514  12.189   7.487   6.339
65497SOL    HW196515  12.117   7.492   6.270
65497SOL    HW296516  12.165   7.418   6.408
65498SOL     OW96517  12.601   8.621   6.453
65498SOL    HW196518  12.546   8.537   6.446
65498SOL    HW296519  12.627   8.650   6.361
65499SOL     OW96520  12.638   8.038   6.578
65499SOL    HW196521  12.608   7.943   6.585
65499SOL    HW296522  12.711   8.054   6.644
65500SOL     OW96523  11.660   8.833   5.760
65500SOL    HW196524  11.573   8.818   5.807
65500SOL    HW296525  11.643   8.859   5.665
65501SOL     OW96526  12.562   8.023   5.664
65501SOL    HW196527  12.508   8.002   5.745
65501SOL    HW296528  12.653   7.982   5.673
65502SOL     OW96529  11.699   7.704   5.914
65502SOL    HW196530  11.726   7.645   5.839
65502SOL    HW296531  11.699   7.799   5.883
65503SOL     OW96532  12.236   8.795   6.926
65503SOL    HW196533  12.156   8.772   6.981
65503SOL    HW296534  12.319   8.769   6.975
65504SOL     OW96535  12.764   9.077   7.211
65504SOL    HW196536  12.791   9.111   7.121
65504SOL    HW296537  12.843   9.039   7.257
65505SOL     OW96538  12.283   8.643   6.686
65505SOL    HW196539  12.243   8.687   6.767
65505SOL    HW296540  12.242   8.680   6.603
65506SOL     OW96541  12.087   7.537   6.988
65506SOL    HW196542  12.112   7.517   6.893
65506SOL    HW296543  12.159   7.593   7.030
65507SOL     OW96544  12.152   8.564   7.305
65507SOL    HW196545  12.053   8.570   7.315
65507SOL    HW296546  12.175   8.484   7.249
65508SOL     OW96547  11.877   8.498   5.954
65508SOL    HW196548  11.863   8.505   6.053
65508SOL    HW296549  11.961   8.447   5.936
65509SOL     OW96550  11.582   8.261   6.837
65509SOL    HW196551  11.668   8.273   6.887
65509SOL    HW296552  11.540   8.174   6.864
65510SOL     OW96553  12.446   7.834   6.848
65510SOL    HW196554  12.467   7.908   6.912
65510SOL    HW296555  12.357   7.851   6.805
65511SOL     OW96556  11.236   9.012   6.917
65511SOL    HW196557  11.190   9.094   6.883
65511SOL    HW296558  11.334   9.031   6.926
65512SOL     OW96559  11.539   8.548   6.087
65512SOL    HW196560  11.532   8.631   6.031
65512SOL    HW296561  11.543   8.468   6.027
65513SOL     OW96562  11.738   7.985   6.451
65513SOL    HW196563  11.750   8.051   6.377
65513SOL    HW296564  11.784   8.019   6.534
65514SOL     OW96565  12.424   8.796   5.974
65514SOL    HW196566  12.474   8.873   6.014
65514SOL    HW296567  12.329   8.798   6.006
65515SOL     OW96568  12.444   8.893   6.728
65515SOL    HW196569  12.491   8.906   6.815
65515SOL    HW296570  12.378   8.819   6.737
65516SOL     OW96571  12.754   8.087   6.058
65516SOL    HW196572  12.723   8.148   6.131
65516SOL    HW296573  12.804   8.139   5.989
65517SOL     OW96574  11.526   8.958   6.915
65517SOL    HW196575  11.505   8.914   6.828
65517SOL    HW296576  11.623   8.984   6.918
65518SOL     OW96577  11.574   8.199   7.184
65518SOL    HW196578  11.642   8.254   7.137
65518SOL    HW296579  11.614   8.111   7.211
65519SOL     OW96580  12.185   7.553   7.356
65519SOL    HW196581  12.191   7.638   7.304
65519SOL    HW296582  12.217   7.477   7.299
65520SOL     OW96583  11.676   7.498   7.326
65520SOL    HW196584  11.634   7.441   7.256
65520SOL    HW296585  11.610   7.567   7.358
65521SOL     OW96586  11.745   8.318   6.615
65521SOL    HW196587  11.789   8.407   6.606
65521SOL    HW296588  11.682   8.318   6.692
65522SOL     OW96589  12.532   8.310   6.631
65522SOL    HW196590  12.457   8.310   6.565
65522SOL    HW296591  12.569   8.218   6.640
65523SOL     OW96592  12.381   7.973   5.861
65523SOL    HW196593  12.394   7.889   5.915
65523SOL    HW296594  12.352   8.047   5.921
65524SOL     OW96595  11.479   7.661   6.817
65524SOL    HW196596  11.456   7.698   6.907
65524SOL    HW296597  11.449   7.566   6.811
65525SOL     OW96598  11.209   8.758   6.868
65525SOL    HW196599  11.262   8.709   6.936
65525SOL    HW296600  11.231   8.856   6.873
65526SOL     OW96601  11.904   8.082   6.650
65526SOL    HW196602  11.963   8.056   6.574
65526SOL    HW296603  11.876   8.178   6.639
65527SOL     OW96604  11.479   7.511   6.204
65527SOL    HW196605  11.468   7.605   6.237
65527SOL    HW296606  11.474   7.448   6.281
65528SOL     OW96607  12.794   7.815   5.960
65528SOL    HW196608  12.796   7.739   6.024
65528SOL    HW296609  12.746   7.892   6.000
65529SOL     OW96610  12.195   8.214   6.552
65529SOL    HW196611  12.210   8.235   6.648
65529SOL    HW296612  12.165   8.119   6.543
65530SOL     OW96613  12.152   9.021   7.286
65530SOL    HW196614  12.132   9.065   7.198
65530SOL    HW296615  12.191   8.930   7.270
65531SOL     OW96616  11.522   8.346   7.390
65531SOL    HW196617  11.598   8.390   7.438
65531SOL    HW296618  11.557   8.299   7.308
65532SOL     OW96619  12.712   7.722   5.711
65532SOL    HW196620  12.651   7.647   5.734
65532SOL    HW296621  12.734   7.774   5.794
65533SOL     OW96622  12.475   8.286   5.628
65533SOL    HW196623  12.509   8.193   5.643
65533SOL    HW296624  12.493   8.313   5.533
65534SOL     OW96625  12.240   8.781   6.435
65534SOL    HW196626  12.247   8.697   6.380
65534SOL    HW296627  12.302   8.850   6.399
65535SOL     OW96628  11.491   8.258   6.535
65535SOL    HW196629  11.584   8.294   6.540
65535SOL    HW296630  11.485   8.173   6.587
65536SOL     OW96631  11.511   7.957   6.592
65536SOL    HW196632  11.459   7.874   6.575
65536SOL    HW296633  11.588   7.962   6.528
65537SOL     OW96634  12.310   7.828   7.264
65537SOL    HW196635  12.265   7.891   7.328
65537SOL    HW296636  12.403   7.859   7.247
65538SOL     OW96637  12.332   7.655   7.063
65538SOL    HW196638  12.332   7.719   7.140
65538SOL    HW296639  12.360   7.703   6.980
65539SOL     OW96640  11.180   8.774   5.786
65539SOL    HW196641  11.087   8.795   5.755
65539SOL    HW296642  11.190   8.675   5.799
65540SOL     OW96643  11.260   9.249   6.513
65540SOL    HW196644  11.218   9.163   6.486
65540SOL    HW296645  11.354   9.252   6.479
65541SOL     OW96646  11.676   9.016   6.496
65541SOL    HW196647  11.742   9.090   6.505
65541SOL    HW296648  11.720   8.937   6.454
65542SOL     OW96649  12.174   8.244   6.824
65542SOL    HW196650  12.215   8.212   6.910
65542SOL    HW296651  12.078   8.217   6.821
65543SOL     OW96652  11.212   7.992   6.700
65543SOL    HW196653  11.297   7.959   6.659
65543SOL    HW296654  11.225   8.007   6.798
65544SOL     OW96655  11.361   7.968   7.308
65544SOL    HW196656  11.420   7.928   7.238
65544SOL    HW296657  11.303   8.039   7.267
65545SOL     OW96658  12.541   8.398   7.246
65545SOL    HW196659  12.580   8.487   7.266
65545SOL    HW296660  12.551   8.378   7.149
65546SOL     OW96661  11.987   8.020   5.911
65546SOL    HW196662  11.994   7.931   5.865
65546SOL    HW296663  11.893   8.054   5.903
65547SOL     OW96664  11.424   9.012   7.330
65547SOL    HW196665  11.394   9.069   7.406
65547SOL    HW296666  11.417   8.915   7.356
65548SOL     OW96667  11.843   7.912   6.855
65548SOL    HW196668  11.809   7.823   6.825
65548SOL    HW296669  11.869   7.966   6.775
65549SOL     OW96670  12.102   9.126   7.051
65549SOL    HW196671  12.078   9.108   6.956
65549SOL    HW296672  12.132   9.220   7.061
65550SOL     OW96673  11.645   7.948   5.777
65550SOL    HW196674  11.706   8.028   5.781
65550SOL    HW296675  11.550   7.979   5.784
65551SOL     OW96676  11.331   8.585   7.052
65551SOL    HW196677  11.353   8.524   7.128
65551SOL    HW296678  11.341   8.536   6.966
65552SOL     OW96679  12.519   8.507   6.820
65552SOL    HW196680  12.543   8.444   6.746
65552SOL    HW296681  12.429   8.547   6.802
65553SOL     OW96682  12.474   8.303   5.895
65553SOL    HW196683  12.388   8.272   5.937
65553SOL    HW296684  12.470   8.289   5.796
65554SOL     OW96685  12.424   9.179   6.714
65554SOL    HW196686  12.508   9.184   6.660
65554SOL    HW296687  12.401   9.083   6.732
65555SOL     OW96688  11.255   8.706   6.608
65555SOL    HW196689  11.250   8.705   6.708
65555SOL    HW296690  11.172   8.665   6.570
65556SOL     OW96691  11.860   9.110   7.302
65556SOL    HW196692  11.804   9.191   7.311
65556SOL    HW296693  11.912   9.114   7.216
65557SOL     OW96694  12.898   7.583   6.109
65557SOL    HW196695  12.971   7.566   6.042
65557SOL    HW296696  12.867   7.496   6.147
65558SOL     OW96697  12.560   9.021   6.063
65558SOL    HW196698  12.627   9.033   5.989
65558SOL    HW296699  12.520   9.110   6.086
65559SOL     OW96700  11.302   9.242   7.437
65559SOL    HW196701  11.261   9.168   7.490
65559SOL    HW296702  11.366   9.293   7.495
65560SOL     OW96703  12.452   8.375   6.258
65560SOL    HW196704  12.512   8.294   6.260
65560SOL    HW296705  12.492   8.444   6.198
65561SOL     OW96706  12.002   8.721   7.008
65561SOL    HW196707  11.997   8.754   7.103
65561SOL    HW296708  11.916   8.740   6.962
65562SOL     OW96709  11.844   9.064   5.740
65562SOL    HW196710  11.853   9.074   5.641
65562SOL    HW296711  11.804   8.975   5.761
65563SOL     OW96712  11.435   7.774   6.306
65563SOL    HW196713  11.356   7.825   6.272
65563SOL    HW296714  11.426   7.759   6.404
65564SOL     OW96715  12.366   9.060   5.617
65564SOL    HW196716  12.372   8.967   5.654
65564SOL    HW296717  12.307   9.060   5.537
65565SOL     OW96718  11.994   8.450   6.958
65565SOL    HW196719  12.034   8.449   6.866
65565SOL    HW296720  12.004   8.542   6.998
65566SOL     OW96721  12.088   8.358   5.877
65566SOL    HW196722  12.151   8.396   5.809
65566SOL    HW296723  12.128   8.275   5.916
65567SOL     OW96724  12.676   9.055   5.630
65567SOL    HW196725  12.584   9.092   5.637
65567SOL    HW296726  12.714   9.075   5.540
65568SOL     OW96727  11.544   8.736   7.076
65568SOL    HW196728  11.531   8.829   7.042
65568SOL    HW296729  11.460   8.684   7.063
65569SOL     OW96730  12.211   8.546   6.282
65569SOL    HW196731  12.141   8.499   6.336
65569SOL    HW296732  12.270   8.478   6.239
65570SOL     OW96733  12.186   7.684   6.557
65570SOL    HW196734  12.178   7.648   6.464
65570SOL    HW296735  12.184   7.608   6.622
65571SOL     OW96736  11.762   8.935   6.077
65571SOL    HW196737  11.804   8.877   6.007
65571SOL    HW296738  11.718   9.014   6.033
65572SOL     OW96739  11.427   8.796   5.876
65572SOL    HW196740  11.331   8.797   5.849
65572SOL    HW296741  11.439   8.849   5.960
65573SOL     OW96742  11.277   8.461   7.312
65573SOL    HW196743  11.200   8.428   7.366
65573SOL    HW296744  11.362   8.431   7.354
65574SOL     OW96745  11.844   7.651   7.075
65574SOL    HW196746  11.934   7.635   7.035
65574SOL    HW296747  11.852   7.656   7.174
65575SOL     OW96748  11.247   7.793   5.619
65575SOL    HW196749  11.155   7.765   5.590
65575SOL    HW296750  11.278   7.870   5.563
65576SOL     OW96751  12.612   8.304   6.984
65576SOL    HW196752  12.555   8.356   6.921
65576SOL    HW296753  12.708   8.316   6.960
65577SOL     OW96754  11.244   7.614   5.904
65577SOL    HW196755  11.227   7.697   5.850
65577SOL    HW296756  11.334   7.577   5.882
65578SOL     OW96757  12.355   8.783   5.705
65578SOL    HW196758  12.256   8.772   5.707
65578SOL    HW296759  12.389   8.798   5.798
65579SOL     OW96760  11.785   8.290   7.017
65579SOL    HW196761  11.841   8.371   7.000
65579SOL    HW296762  11.844   8.210   7.020
65580SOL     OW96763  12.665   9.215   6.545
65580SOL    HW196764  12.698   9.279   6.476
65580SOL    HW296765  12.731   9.209   6.620
65581SOL     OW96766  11.888   8.013   7.294
65581SOL    HW196767  11.907   8.078   7.368
65581SOL    HW296768  11.948   7.933   7.303
65582SOL     OW96769  12.622   8.668   7.219
65582SOL    HW196770  12.613   8.658   7.318
65582SOL    HW296771  12.718   8.661   7.193
65583SOL     OW96772  11.562   9.189   7.146
65583SOL    HW196773  11.471   9.230   7.144
65583SOL    HW296774  11.555   9.095   7.178
65584SOL     OW96775  12.397   7.773   6.035
65584SOL    HW196776  12.462   7.699   6.024
65584SOL    HW296777  12.417   7.823   6.119
65585SOL     OW96778  11.766   8.193   6.238
65585SOL    HW196779  11.816   8.278   6.219
65585SOL    HW296780  11.678   8.195   6.190
65586SOL     OW96781  12.031   8.822   5.602
65586SOL    HW196782  11.985   8.837   5.690
65586SOL    HW296783  12.075   8.907   5.572
65587SOL     OW96784  11.833   9.238   6.539
65587SOL    HW196785  11.787   9.326   6.526
65587SOL    HW296786  11.932   9.250   6.532
65588SOL     OW96787  12.031   8.404   6.447
65588SOL    HW196788  12.085   8.335   6.495
65588SOL    HW296789  11.999   8.473   6.513
65589SOL     OW96790  12.255   8.432   5.673
65589SOL    HW196791  12.232   8.485   5.591
65589SOL    HW296792  12.336   8.376   5.654
65590SOL     OW96793  13.033   9.017   6.437
65590SOL    HW196794  12.962   9.005   6.367
65590SOL    HW296795  13.034   8.938   6.497
65591SOL     OW96796  11.393   8.762   7.430
65591SOL    HW196797  11.328   8.689   7.409
65591SOL    HW296798  11.397   8.776   7.528
65592SOL     OW96799  11.251   8.688   6.239
65592SOL    HW196800  11.250   8.641   6.327
65592SOL    HW296801  11.333   8.660   6.188
65593SOL     OW96802  11.844   8.839   7.210
65593SOL    HW196803  11.766   8.789   7.248
65593SOL    HW296804  11.841   8.934   7.241
65594SOL     OW96805  11.600   7.872   6.106
65594SOL    HW196806  11.630   7.800   6.044
65594SOL    HW296807  11.561   7.832   6.189
65595SOL     OW96808  11.489   7.995   6.866
65595SOL    HW196809  11.527   7.936   6.938
65595SOL    HW296810  11.529   7.969   6.778
65596SOL     OW96811  11.984   9.034   6.273
65596SOL    HW196812  12.016   9.044   6.179
65596SOL    HW296813  11.905   8.972   6.275
65597SOL     OW96814  12.596   7.662   6.698
65597SOL    HW196815  12.648   7.597   6.753
65597SOL    HW296816  12.547   7.725   6.759
65598SOL     OW96817  12.173   7.482   6.740
65598SOL    HW196818  12.110   7.410   6.709
65598SOL    HW296819  12.266   7.446   6.740
65599SOL     OW96820  11.942   8.778   5.887
65599SOL    HW196821  11.896   8.691   5.904
65599SOL    HW296822  12.033   8.775   5.928
65600SOL     OW96823  11.790   9.015   6.870
65600SOL    HW196824  11.785   9.097   6.927
65600SOL    HW296825  11.879   9.012   6.825
65601SOL     OW96826  12.524   7.500   5.754
65601SOL    HW196827  12.559   7.459   5.670
65601SOL    HW296828  12.434   7.462   5.774
65602SOL     OW96829  12.472   7.901   6.277
65602SOL    HW196830  12.413   7.981   6.281
65602SOL    HW296831  12.487   7.866   6.370
65603SOL     OW96832  12.765   7.669   6.468
65603SOL    HW196833  12.681   7.668   6.522
65603SOL    HW296834  12.767   7.752   6.412
65604SOL     OW96835  11.211   8.525   5.886
65604SOL    HW196836  11.310   8.514   5.877
65604SOL    HW296837  11.171   8.439   5.918
65605SOL     OW96838  12.047   9.094   5.923
65605SOL    HW196839  11.970   9.059   5.869
65605SOL    HW296840  12.015   9.165   5.985
65606SOL     OW96841  11.402   8.076   7.561
65606SOL    HW196842  11.309   8.074   7.598
65606SOL    HW296843  11.403   8.037   7.469
65607SOL     OW96844  11.397   7.723   8.444
65607SOL    HW196845  11.432   7.706   8.536
65607SOL    HW296846  11.309   7.678   8.432
65608SOL     OW96847  11.191   7.816   8.095
65608SOL    HW196848  11.109   7.859   8.134
65608SOL    HW296849  11.163   7.743   8.032
65609SOL     OW96850  11.741   8.723   8.613
65609SOL    HW196851  11.648   8.716   8.576
65609SOL    HW296852  11.752   8.812   8.657
65610SOL     OW96853  12.727   8.959   8.151
65610SOL    HW196854  12.670   8.943   8.232
65610SOL    HW296855  12.668   8.969   8.071
65611SOL     OW96856  12.307   8.151   8.165
65611SOL    HW196857  12.364   8.229   8.140
65611SOL    HW296858  12.247   8.177   8.241
65612SOL     OW96859  11.940   8.592   8.471
65612SOL    HW196860  11.862   8.609   8.531
65612SOL    HW296861  11.974   8.679   8.435
65613SOL     OW96862  12.022   8.246   9.271
65613SOL    HW196863  12.018   8.322   9.336
65613SOL    HW296864  12.044   8.282   9.180
65614SOL     OW96865  11.857   8.460   8.113
65614SOL    HW196866  11.926   8.444   8.183
65614SOL    HW296867  11.784   8.517   8.151
65615SOL     OW96868  11.858   8.609   9.251
65615SOL    HW196869  11.918   8.688   9.265
65615SOL    HW296870  11.772   8.640   9.210
65616SOL     OW96871  11.507   8.883   8.509
65616SOL    HW196872  11.429   8.852   8.456
65616SOL    HW296873  11.565   8.941   8.452
65617SOL     OW96874  12.632   8.953   8.787
65617SOL    HW196875  12.656   9.047   8.813
65617SOL    HW296876  12.616   8.899   8.869
65618SOL     OW96877  11.610   7.840   8.947
65618SOL    HW196878  11.692   7.784   8.956
65618SOL    HW296879  11.529   7.782   8.951
65619SOL     OW96880  11.403   9.161   7.931
65619SOL    HW196881  11.437   9.238   7.985
65619SOL    HW296882  11.447   9.161   7.841
65620SOL     OW96883  12.299   8.789   9.138
65620SOL    HW196884  12.346   8.789   9.226
65620SOL    HW296885  12.251   8.702   9.127
65621SOL     OW96886  11.402   8.882   7.986
65621SOL    HW196887  11.376   8.978   7.986
65621SOL    HW296888  11.331   8.828   8.031
65622SOL     OW96889  11.412   8.539   8.334
65622SOL    HW196890  11.426   8.455   8.386
65622SOL    HW296891  11.357   8.603   8.389
65623SOL     OW96892  11.792   9.234   8.887
65623SOL    HW196893  11.700   9.217   8.922
65623SOL    HW296894  11.820   9.326   8.913
65624SOL     OW96895  11.778   8.412   7.571
65624SOL    HW196896  11.785   8.496   7.517
65624SOL    HW296897  11.824   8.425   7.659
65625SOL     OW96898  12.766   7.562   8.928
65625SOL    HW196899  12.748   7.629   8.856
65625SOL    HW296900  12.763   7.608   9.017
65626SOL     OW96901  11.294   8.091   8.011
65626SOL    HW196902  11.249   8.003   8.028
65626SOL    HW296903  11.293   8.145   8.095
65627SOL     OW96904  11.199   9.044   7.565
65627SOL    HW196905  11.180   8.948   7.586
65627SOL    HW296906  11.166   9.102   7.640
65628SOL     OW96907  12.861   8.370   8.060
65628SOL    HW196908  12.956   8.341   8.068
65628SOL    HW296909  12.853   8.435   7.985
65629SOL     OW96910  11.285   8.185   9.045
65629SOL    HW196911  11.373   8.172   9.090
65629SOL    HW296912  11.272   8.282   9.023
65630SOL     OW96913  11.785   8.813   8.174
65630SOL    HW196914  11.736   8.726   8.183
65630SOL    HW296915  11.762   8.856   8.087
65631SOL     OW96916  12.465   8.676   8.871
65631SOL    HW196917  12.502   8.603   8.813
65631SOL    HW296918  12.517   8.681   8.956
65632SOL     OW96919  11.981   7.452   7.950
65632SOL    HW196920  12.021   7.543   7.941
65632SOL    HW296921  11.881   7.460   7.956
65633SOL     OW96922  11.369   8.424   8.712
65633SOL    HW196923  11.458   8.379   8.698
65633SOL    HW296924  11.296   8.359   8.693
65634SOL     OW96925  12.359   9.240   9.064
65634SOL    HW196926  12.383   9.300   8.988
65634SOL    HW296927  12.366   9.145   9.034
65635SOL     OW96928  11.489   7.699   9.249
65635SOL    HW196929  11.560   7.770   9.255
65635SOL    HW296930  11.401   7.738   9.277
65636SOL     OW96931  12.638   8.865   8.401
65636SOL    HW196932  12.579   8.871   8.481
65636SOL    HW296933  12.623   8.777   8.355
65637SOL     OW96934  12.839   9.162   8.020
65637SOL    HW196935  12.798   9.139   7.932
65637SOL    HW296936  12.821   9.088   8.085
65638SOL     OW96937  11.770   8.177   7.718
65638SOL    HW196938  11.794   8.246   7.650
65638SOL    HW296939  11.692   8.210   7.772
65639SOL     OW96940  12.453   7.793   8.392
65639SOL    HW196941  12.367   7.743   8.379
65639SOL    HW296942  12.515   7.739   8.448
65640SOL     OW96943  11.979   8.053   8.913
65640SOL    HW196944  11.932   8.050   9.002
65640SOL    HW296945  11.928   7.998   8.847
65641SOL     OW96946  12.566   7.917   9.122
65641SOL    HW196947  12.546   7.960   9.210
65641SOL    HW296948  12.644   7.855   9.131
65642SOL     OW96949  12.145   8.338   9.020
65642SOL    HW196950  12.191   8.254   8.991
65642SOL    HW296951  12.089   8.372   8.945
65643SOL     OW96952  12.163   7.858   8.690
65643SOL    HW196953  12.086   7.892   8.744
65643SOL    HW296954  12.129   7.807   8.611
65644SOL     OW96955  12.213   8.149   7.877
65644SOL    HW196956  12.239   8.145   7.973
65644SOL    HW296957  12.128   8.098   7.863
65645SOL     OW96958  11.248   8.259   8.237
65645SOL    HW196959  11.347   8.247   8.246
65645SOL    HW296960  11.224   8.354   8.258
65646SOL     OW96961  11.302   9.269   9.019
65646SOL    HW196962  11.292   9.254   9.118
65646SOL    HW296963  11.216   9.305   8.983
65647SOL     OW96964  12.037   7.796   7.643
65647SOL    HW196965  12.096   7.859   7.594
65647SOL    HW296966  12.056   7.702   7.614
65648SOL     OW96967  12.534   8.592   7.993
65648SOL    HW196968  12.617   8.563   7.945
65648SOL    HW296969  12.485   8.659   7.937
65649SOL     OW96970  11.722   7.644   8.333
65649SOL    HW196971  11.717   7.639   8.433
65649SOL    HW296972  11.724   7.740   8.304
65650SOL     OW96973  12.180   8.904   7.925
65650SOL    HW196974  12.134   8.976   7.873
65650SOL    HW296975  12.176   8.924   8.023
65651SOL     OW96976  11.523   9.249   8.301
65651SOL    HW196977  11.573   9.163   8.307
65651SOL    HW296978  11.588   9.326   8.298
65652SOL     OW96979  12.399   8.998   8.954
65652SOL    HW196980  12.405   8.921   9.018
65652SOL    HW296981  12.347   8.972   8.874
65653SOL     OW96982  11.493   8.391   7.690
65653SOL    HW196983  11.575   8.430   7.648
65653SOL    HW296984  11.466   8.309   7.641
65654SOL     OW96985  12.630   8.183   8.176
65654SOL    HW196986  12.625   8.118   8.251
65654SOL    HW296987  12.710   8.242   8.189
65655SOL     OW96988  11.633   8.714   9.175
65655SOL    HW196989  11.583   8.715   9.089
65655SOL    HW296990  11.570   8.696   9.251
65656SOL     OW96991  12.283   9.224   7.685
65656SOL    HW196992  12.223   9.162   7.735
65656SOL    HW296993  12.314   9.180   7.600
65657SOL     OW96994  11.374   7.733   8.946
65657SOL    HW196995  11.294   7.793   8.933
65657SOL    HW296996  11.364   7.684   9.032
65658SOL     OW96997  11.636   9.191   7.771
65658SOL    HW196998  11.669   9.230   7.857
65658SOL    HW296999  11.712   9.184   7.706
65659SOL     OW97000  12.572   7.555   7.874
65659SOL    HW197001  12.548   7.518   7.784
65659SOL    HW297002  12.671   7.571   7.878
65660SOL     OW97003  11.421   9.233   8.689
65660SOL    HW197004  11.478   9.168   8.739
65660SOL    HW297005  11.405   9.200   8.596
65661SOL     OW97006  12.112   9.146   8.352
65661SOL    HW197007  12.192   9.089   8.373
65661SOL    HW297008  12.063   9.106   8.275
65662SOL     OW97009  11.554   8.148   7.928
65662SOL    HW197010  11.599   8.058   7.925
65662SOL    HW297011  11.460   8.137   7.961
65663SOL     OW97012  11.786   7.570   7.565
65663SOL    HW197013  11.884   7.548   7.572
65663SOL    HW297014  11.755   7.553   7.472
65664SOL     OW97015  11.953   7.712   9.197
65664SOL    HW197016  12.020   7.651   9.240
65664SOL    HW297017  11.880   7.731   9.262
65665SOL     OW97018  12.060   8.962   8.643
65665SOL    HW197019  12.037   8.937   8.549
65665SOL    HW297020  12.121   8.893   8.682
65666SOL     OW97021  12.523   8.038   8.881
65666SOL    HW197022  12.551   7.995   8.966
65666SOL    HW297023  12.548   8.134   8.882
65667SOL     OW97024  11.975   8.850   8.372
65667SOL    HW197025  12.065   8.864   8.330
65667SOL    HW297026  11.904   8.852   8.301
65668SOL     OW97027  12.094   7.951   8.347
65668SOL    HW197028  12.069   7.942   8.251
65668SOL    HW297029  12.142   7.869   8.378
65669SOL     OW97030  11.711   7.512   7.960
65669SOL    HW197031  11.630   7.513   8.018
65669SOL    HW297032  11.714   7.595   7.905
65670SOL     OW97033  12.606   8.636   7.489
65670SOL    HW197034  12.638   8.560   7.546
65670SOL    HW297035  12.514   8.663   7.519
65671SOL     OW97036  11.469   7.483   7.619
65671SOL    HW197037  11.518   7.567   7.598
65671SOL    HW297038  11.531   7.418   7.664
65672SOL     OW97039  12.107   7.684   7.928
65672SOL    HW197040  12.059   7.725   7.850
65672SOL    HW297041  12.206   7.682   7.909
65673SOL     OW97042  12.248   8.131   8.912
65673SOL    HW197043  12.168   8.070   8.915
65673SOL    HW297044  12.329   8.078   8.888
65674SOL     OW97045  12.399   9.018   8.241
65674SOL    HW197046  12.420   9.092   8.176
65674SOL    HW297047  12.467   9.018   8.314
65675SOL     OW97048  11.631   8.600   8.189
65675SOL    HW197049  11.560   8.573   8.254
65675SOL    HW297050  11.605   8.572   8.096
65676SOL     OW97051  12.443   9.245   8.039
65676SOL    HW197052  12.487   9.309   7.975
65676SOL    HW297053  12.393   9.297   8.109
65677SOL     OW97054  12.204   7.997   7.464
65677SOL    HW197055  12.163   8.079   7.425
65677SOL    HW297056  12.268   8.023   7.537
65678SOL     OW97057  11.250   8.004   8.834
65678SOL    HW197058  11.342   8.003   8.793
65678SOL    HW297059  11.244   8.078   8.901
65679SOL     OW97060  11.733   7.670   8.595
65679SOL    HW197061  11.771   7.586   8.632
65679SOL    HW297062  11.645   7.689   8.639
65680SOL     OW97063  12.038   7.902   8.090
65680SOL    HW197064  12.006   7.974   8.028
65680SOL    HW297065  12.062   7.821   8.037
65681SOL     OW97066  12.189   7.487   8.201
65681SOL    HW197067  12.117   7.492   8.132
65681SOL    HW297068  12.165   7.418   8.270
65682SOL     OW97069  12.601   8.621   8.315
65682SOL    HW197070  12.546   8.537   8.308
65682SOL    HW297071  12.627   8.650   8.223
65683SOL     OW97072  12.638   8.038   8.440
65683SOL    HW197073  12.608   7.943   8.447
65683SOL    HW297074  12.711   8.054   8.506
65684SOL     OW97075  11.660   8.833   7.622
65684SOL    HW197076  11.573   8.818   7.669
65684SOL    HW297077  11.643   8.859   7.527
65685SOL     OW97078  12.562   8.023   7.526
65685SOL    HW197079  12.508   8.002   7.607
65685SOL    HW297080  12.653   7.982   7.535
65686SOL     OW97081  11.699   7.704   7.776
65686SOL    HW197082  11.726   7.645   7.701
65686SOL    HW297083  11.699   7.799   7.745
65687SOL     OW97084  12.236   8.795   8.788
65687SOL    HW197085  12.156   8.772   8.843
65687SOL    HW297086  12.319   8.769   8.837
65688SOL     OW97087  12.764   9.077   9.073
65688SOL    HW197088  12.791   9.111   8.983
65688SOL    HW297089  12.843   9.039   9.119
65689SOL     OW97090  12.283   8.643   8.548
65689SOL    HW197091  12.243   8.687   8.629
65689SOL    HW297092  12.242   8.680   8.465
65690SOL     OW97093  12.087   7.537   8.850
65690SOL    HW197094  12.112   7.517   8.755
65690SOL    HW297095  12.159   7.593   8.892
65691SOL     OW97096  12.152   8.564   9.167
65691SOL    HW197097  12.053   8.570   9.177
65691SOL    HW297098  12.175   8.484   9.111
65692SOL     OW97099  11.877   8.498   7.816
65692SOL    HW197100  11.863   8.505   7.915
65692SOL    HW297101  11.961   8.447   7.798
65693SOL     OW97102  12.446   7.834   8.710
65693SOL    HW197103  12.467   7.908   8.774
65693SOL    HW297104  12.357   7.851   8.667
65694SOL     OW97105  11.236   9.012   8.779
65694SOL    HW197106  11.190   9.094   8.745
65694SOL    HW297107  11.334   9.031   8.788
65695SOL     OW97108  11.539   8.548   7.949
65695SOL    HW197109  11.532   8.631   7.893
65695SOL    HW297110  11.543   8.468   7.889
65696SOL     OW97111  11.738   7.985   8.313
65696SOL    HW197112  11.750   8.051   8.239
65696SOL    HW297113  11.784   8.019   8.396
65697SOL     OW97114  12.424   8.796   7.836
65697SOL    HW197115  12.474   8.873   7.876
65697SOL    HW297116  12.329   8.798   7.868
65698SOL     OW97117  12.444   8.893   8.590
65698SOL    HW197118  12.491   8.906   8.677
65698SOL    HW297119  12.378   8.819   8.599
65699SOL     OW97120  12.754   8.087   7.920
65699SOL    HW197121  12.723   8.148   7.993
65699SOL    HW297122  12.804   8.139   7.851
65700SOL     OW97123  11.526   8.958   8.777
65700SOL    HW197124  11.505   8.914   8.690
65700SOL    HW297125  11.623   8.984   8.780
65701SOL     OW97126  11.574   8.199   9.046
65701SOL    HW197127  11.642   8.254   8.999
65701SOL    HW297128  11.614   8.111   9.073
65702SOL     OW97129  12.185   7.553   9.218
65702SOL    HW197130  12.191   7.638   9.166
65702SOL    HW297131  12.217   7.477   9.161
65703SOL     OW97132  11.676   7.498   9.188
65703SOL    HW197133  11.634   7.441   9.118
65703SOL    HW297134  11.610   7.567   9.220
65704SOL     OW97135  11.745   8.318   8.477
65704SOL    HW197136  11.789   8.407   8.468
65704SOL    HW297137  11.682   8.318   8.554
65705SOL     OW97138  12.532   8.310   8.493
65705SOL    HW197139  12.457   8.310   8.427
65705SOL    HW297140  12.569   8.218   8.502
65706SOL     OW97141  12.381   7.973   7.723
65706SOL    HW197142  12.394   7.889   7.777
65706SOL    HW297143  12.352   8.047   7.783
65707SOL     OW97144  11.479   7.661   8.679
65707SOL    HW197145  11.456   7.698   8.769
65707SOL    HW297146  11.449   7.566   8.673
65708SOL     OW97147  11.209   8.758   8.730
65708SOL    HW197148  11.262   8.709   8.798
65708SOL    HW297149  11.231   8.856   8.735
65709SOL     OW97150  11.904   8.082   8.512
65709SOL    HW197151  11.963   8.056   8.436
65709SOL    HW297152  11.876   8.178   8.501
65710SOL     OW97153  11.479   7.511   8.066
65710SOL    HW197154  11.468   7.605   8.099
65710SOL    HW297155  11.474   7.448   8.143
65711SOL     OW97156  12.794   7.815   7.822
65711SOL    HW197157  12.796   7.739   7.886
65711SOL    HW297158  12.746   7.892   7.862
65712SOL     OW97159  12.195   8.214   8.414
65712SOL    HW197160  12.210   8.235   8.510
65712SOL    HW297161  12.165   8.119   8.405
65713SOL     OW97162  12.152   9.021   9.148
65713SOL    HW197163  12.132   9.065   9.060
65713SOL    HW297164  12.191   8.930   9.132
65714SOL     OW97165  11.522   8.346   9.252
65714SOL    HW197166  11.598   8.390   9.300
65714SOL    HW297167  11.557   8.299   9.170
65715SOL     OW97168  12.712   7.722   7.573
65715SOL    HW197169  12.651   7.647   7.596
65715SOL    HW297170  12.734   7.774   7.656
65716SOL     OW97171  12.475   8.286   7.490
65716SOL    HW197172  12.509   8.193   7.505
65716SOL    HW297173  12.493   8.313   7.395
65717SOL     OW97174  12.240   8.781   8.297
65717SOL    HW197175  12.247   8.697   8.242
65717SOL    HW297176  12.302   8.850   8.261
65718SOL     OW97177  11.491   8.258   8.397
65718SOL    HW197178  11.584   8.294   8.402
65718SOL    HW297179  11.485   8.173   8.449
65719SOL     OW97180  11.511   7.957   8.454
65719SOL    HW197181  11.459   7.874   8.437
65719SOL    HW297182  11.588   7.962   8.390
65720SOL     OW97183  12.310   7.828   9.126
65720SOL    HW197184  12.265   7.891   9.190
65720SOL    HW297185  12.403   7.859   9.109
65721SOL     OW97186  12.332   7.655   8.925
65721SOL    HW197187  12.332   7.719   9.002
65721SOL    HW297188  12.360   7.703   8.842
65722SOL     OW97189  11.180   8.774   7.648
65722SOL    HW197190  11.087   8.795   7.617
65722SOL    HW297191  11.190   8.675   7.661
65723SOL     OW97192  11.260   9.249   8.375
65723SOL    HW197193  11.218   9.163   8.348
65723SOL    HW297194  11.354   9.252   8.341
65724SOL     OW97195  11.676   9.016   8.358
65724SOL    HW197196  11.742   9.090   8.367
65724SOL    HW297197  11.720   8.937   8.316
65725SOL     OW97198  12.174   8.244   8.686
65725SOL    HW197199  12.215   8.212   8.772
65725SOL    HW297200  12.078   8.217   8.683
65726SOL     OW97201  11.212   7.992   8.562
65726SOL    HW197202  11.297   7.959   8.521
65726SOL    HW297203  11.225   8.007   8.660
65727SOL     OW97204  11.361   7.968   9.170
65727SOL    HW197205  11.420   7.928   9.100
65727SOL    HW297206  11.303   8.039   9.129
65728SOL     OW97207  12.541   8.398   9.108
65728SOL    HW197208  12.580   8.487   9.128
65728SOL    HW297209  12.551   8.378   9.011
65729SOL     OW97210  11.987   8.020   7.773
65729SOL    HW197211  11.994   7.931   7.727
65729SOL    HW297212  11.893   8.054   7.765
65730SOL     OW97213  11.424   9.012   9.192
65730SOL    HW197214  11.394   9.069   9.268
65730SOL    HW297215  11.417   8.915   9.218
65731SOL     OW97216  11.843   7.912   8.717
65731SOL    HW197217  11.809   7.823   8.687
65731SOL    HW297218  11.869   7.966   8.637
65732SOL     OW97219  12.102   9.126   8.913
65732SOL    HW197220  12.078   9.108   8.818
65732SOL    HW297221  12.132   9.220   8.923
65733SOL     OW97222  11.645   7.948   7.639
65733SOL    HW197223  11.706   8.028   7.643
65733SOL    HW297224  11.550   7.979   7.646
65734SOL     OW97225  11.331   8.585   8.914
65734SOL    HW197226  11.353   8.524   8.990
65734SOL    HW297227  11.341   8.536   8.828
65735SOL     OW97228  12.519   8.507   8.682
65735SOL    HW197229  12.543   8.444   8.608
65735SOL    HW297230  12.429   8.547   8.664
65736SOL     OW97231  12.474   8.303   7.757
65736SOL    HW197232  12.388   8.272   7.799
65736SOL    HW297233  12.470   8.289   7.658
65737SOL     OW97234  12.424   9.179   8.576
65737SOL    HW197235  12.508   9.184   8.522
65737SOL    HW297236  12.401   9.083   8.594
65738SOL     OW97237  11.255   8.706   8.470
65738SOL    HW197238  11.250   8.705   8.570
65738SOL    HW297239  11.172   8.665   8.432
65739SOL     OW97240  11.860   9.110   9.164
65739SOL    HW197241  11.804   9.191   9.173
65739SOL    HW297242  11.912   9.114   9.078
65740SOL     OW97243  12.898   7.583   7.971
65740SOL    HW197244  12.971   7.566   7.904
65740SOL    HW297245  12.867   7.496   8.009
65741SOL     OW97246  12.560   9.021   7.925
65741SOL    HW197247  12.627   9.033   7.851
65741SOL    HW297248  12.520   9.110   7.948
65742SOL     OW97249  11.302   9.242   9.299
65742SOL    HW197250  11.261   9.168   9.352
65742SOL    HW297251  11.366   9.293   9.357
65743SOL     OW97252  12.452   8.375   8.120
65743SOL    HW197253  12.512   8.294   8.122
65743SOL    HW297254  12.492   8.444   8.060
65744SOL     OW97255  12.002   8.721   8.870
65744SOL    HW197256  11.997   8.754   8.965
65744SOL    HW297257  11.916   8.740   8.824
65745SOL     OW97258  11.844   9.064   7.602
65745SOL    HW197259  11.853   9.074   7.503
65745SOL    HW297260  11.804   8.975   7.623
65746SOL     OW97261  11.435   7.774   8.168
65746SOL    HW197262  11.356   7.825   8.134
65746SOL    HW297263  11.426   7.759   8.266
65747SOL     OW97264  12.366   9.060   7.479
65747SOL    HW197265  12.372   8.967   7.516
65747SOL    HW297266  12.307   9.060   7.399
65748SOL     OW97267  11.994   8.450   8.820
65748SOL    HW197268  12.034   8.449   8.728
65748SOL    HW297269  12.004   8.542   8.860
65749SOL     OW97270  12.088   8.358   7.739
65749SOL    HW197271  12.151   8.396   7.671
65749SOL    HW297272  12.128   8.275   7.778
65750SOL     OW97273  12.676   9.055   7.492
65750SOL    HW197274  12.584   9.092   7.499
65750SOL    HW297275  12.714   9.075   7.402
65751SOL     OW97276  11.544   8.736   8.938
65751SOL    HW197277  11.531   8.829   8.904
65751SOL    HW297278  11.460   8.684   8.925
65752SOL     OW97279  12.211   8.546   8.144
65752SOL    HW197280  12.141   8.499   8.198
65752SOL    HW297281  12.270   8.478   8.101
65753SOL     OW97282  12.186   7.684   8.419
65753SOL    HW197283  12.178   7.648   8.326
65753SOL    HW297284  12.184   7.608   8.484
65754SOL     OW97285  11.762   8.935   7.939
65754SOL    HW197286  11.804   8.877   7.869
65754SOL    HW297287  11.718   9.014   7.895
65755SOL     OW97288  11.427   8.796   7.738
65755SOL    HW197289  11.331   8.797   7.711
65755SOL    HW297290  11.439   8.849   7.822
65756SOL     OW97291  11.277   8.461   9.174
65756SOL    HW197292  11.200   8.428   9.228
65756SOL    HW297293  11.362   8.431   9.216
65757SOL     OW97294  11.844   7.651   8.937
65757SOL    HW197295  11.934   7.635   8.897
65757SOL    HW297296  11.852   7.656   9.036
65758SOL     OW97297  11.247   7.793   7.481
65758SOL    HW197298  11.155   7.765   7.452
65758SOL    HW297299  11.278   7.870   7.425
65759SOL     OW97300  12.612   8.304   8.846
65759SOL    HW197301  12.555   8.356   8.783
65759SOL    HW297302  12.708   8.316   8.822
65760SOL     OW97303  11.244   7.614   7.766
65760SOL    HW197304  11.227   7.697   7.712
65760SOL    HW297305  11.334   7.577   7.744
65761SOL     OW97306  12.355   8.783   7.567
65761SOL    HW197307  12.256   8.772   7.569
65761SOL    HW297308  12.389   8.798   7.660
65762SOL     OW97309  11.785   8.290   8.879
65762SOL    HW197310  11.841   8.371   8.862
65762SOL    HW297311  11.844   8.210   8.882
65763SOL     OW97312  12.665   9.215   8.407
65763SOL    HW197313  12.698   9.279   8.338
65763SOL    HW297314  12.731   9.209   8.482
65764SOL     OW97315  11.888   8.013   9.156
65764SOL    HW197316  11.907   8.078   9.230
65764SOL    HW297317  11.948   7.933   9.165
65765SOL     OW97318  12.622   8.668   9.081
65765SOL    HW197319  12.613   8.658   9.180
65765SOL    HW297320  12.718   8.661   9.055
65766SOL     OW97321  11.562   9.189   9.008
65766SOL    HW197322  11.471   9.230   9.006
65766SOL    HW297323  11.555   9.095   9.040
65767SOL     OW97324  11.766   8.193   8.100
65767SOL    HW197325  11.816   8.278   8.081
65767SOL    HW297326  11.678   8.195   8.052
65768SOL     OW97327  12.031   8.822   7.464
65768SOL    HW197328  11.985   8.837   7.552
65768SOL    HW297329  12.075   8.907   7.434
65769SOL     OW97330  11.833   9.238   8.401
65769SOL    HW197331  11.787   9.326   8.388
65769SOL    HW297332  11.932   9.250   8.394
65770SOL     OW97333  12.031   8.404   8.309
65770SOL    HW197334  12.085   8.335   8.357
65770SOL    HW297335  11.999   8.473   8.375
65771SOL     OW97336  12.255   8.432   7.535
65771SOL    HW197337  12.232   8.485   7.453
65771SOL    HW297338  12.336   8.376   7.516
65772SOL     OW97339  13.033   9.017   8.299
65772SOL    HW197340  12.962   9.005   8.229
65772SOL    HW297341  13.034   8.938   8.359
65773SOL     OW97342  11.393   8.762   9.292
65773SOL    HW197343  11.328   8.689   9.271
65773SOL    HW297344  11.397   8.776   9.390
65774SOL     OW97345  11.251   8.688   8.101
65774SOL    HW197346  11.250   8.641   8.189
65774SOL    HW297347  11.333   8.660   8.050
65775SOL     OW97348  11.844   8.839   9.072
65775SOL    HW197349  11.766   8.789   9.110
65775SOL    HW297350  11.841   8.934   9.103
65776SOL     OW97351  11.600   7.872   7.968
65776SOL    HW197352  11.630   7.800   7.906
65776SOL    HW297353  11.561   7.832   8.051
65777SOL     OW97354  11.489   7.995   8.728
65777SOL    HW197355  11.527   7.936   8.800
65777SOL    HW297356  11.529   7.969   8.640
65778SOL     OW97357  11.984   9.034   8.135
65778SOL    HW197358  12.016   9.044   8.041
65778SOL    HW297359  11.905   8.972   8.137
65779SOL     OW97360  12.596   7.662   8.560
65779SOL    HW197361  12.648   7.597   8.615
65779SOL    HW297362  12.547   7.725   8.621
65780SOL     OW97363  12.173   7.482   8.602
65780SOL    HW197364  12.110   7.410   8.571
65780SOL    HW297365  12.266   7.446   8.602
65781SOL     OW97366  11.942   8.778   7.749
65781SOL    HW197367  11.896   8.691   7.766
65781SOL    HW297368  12.033   8.775   7.790
65782SOL     OW97369  11.790   9.015   8.732
65782SOL    HW197370  11.785   9.097   8.789
65782SOL    HW297371  11.879   9.012   8.687
65783SOL     OW97372  12.524   7.500   7.616
65783SOL    HW197373  12.559   7.459   7.532
65783SOL    HW297374  12.434   7.462   7.636
65784SOL     OW97375  12.472   7.901   8.139
65784SOL    HW197376  12.413   7.981   8.143
65784SOL    HW297377  12.487   7.866   8.232
65785SOL     OW97378  12.765   7.669   8.330
65785SOL    HW197379  12.681   7.668   8.384
65785SOL    HW297380  12.767   7.752   8.274
65786SOL     OW97381  11.211   8.525   7.748
65786SOL    HW197382  11.310   8.514   7.739
65786SOL    HW297383  11.171   8.439   7.780
65787SOL     OW97384  12.047   9.094   7.785
65787SOL    HW197385  11.970   9.059   7.731
65787SOL    HW297386  12.015   9.165   7.847
65788SOL     OW97387  11.402   8.076   9.423
65788SOL    HW197388  11.309   8.074   9.460
65788SOL    HW297389  11.403   8.037   9.331
65789SOL     OW97390  11.397   7.723  10.306
65789SOL    HW197391  11.432   7.706  10.398
65789SOL    HW297392  11.309   7.678  10.294
65790SOL     OW97393  11.191   7.816   9.957
65790SOL    HW197394  11.109   7.859   9.996
65790SOL    HW297395  11.163   7.743   9.894
65791SOL     OW97396  11.741   8.723  10.475
65791SOL    HW197397  11.648   8.716  10.438
65791SOL    HW297398  11.752   8.812  10.519
65792SOL     OW97399  12.727   8.959  10.013
65792SOL    HW197400  12.670   8.943  10.094
65792SOL    HW297401  12.668   8.969   9.933
65793SOL     OW97402  12.307   8.151  10.027
65793SOL    HW197403  12.364   8.229  10.002
65793SOL    HW297404  12.247   8.177  10.103
65794SOL     OW97405  11.940   8.592  10.333
65794SOL    HW197406  11.862   8.609  10.393
65794SOL    HW297407  11.974   8.679  10.297
65795SOL     OW97408  12.022   8.246  11.133
65795SOL    HW197409  12.018   8.322  11.198
65795SOL    HW297410  12.044   8.282  11.042
65796SOL     OW97411  11.857   8.460   9.975
65796SOL    HW197412  11.926   8.444  10.045
65796SOL    HW297413  11.784   8.517  10.013
65797SOL     OW97414  11.858   8.609  11.113
65797SOL    HW197415  11.918   8.688  11.127
65797SOL    HW297416  11.772   8.640  11.072
65798SOL     OW97417  11.507   8.883  10.371
65798SOL    HW197418  11.429   8.852  10.318
65798SOL    HW297419  11.565   8.941  10.314
65799SOL     OW97420  12.632   8.953  10.649
65799SOL    HW197421  12.656   9.047  10.675
65799SOL    HW297422  12.616   8.899  10.731
65800SOL     OW97423  11.610   7.840  10.809
65800SOL    HW197424  11.692   7.784  10.818
65800SOL    HW297425  11.529   7.782  10.813
65801SOL     OW97426  11.403   9.161   9.793
65801SOL    HW197427  11.437   9.238   9.847
65801SOL    HW297428  11.447   9.161   9.703
65802SOL     OW97429  12.299   8.789  11.000
65802SOL    HW197430  12.346   8.789  11.088
65802SOL    HW297431  12.251   8.702  10.989
65803SOL     OW97432  11.402   8.882   9.848
65803SOL    HW197433  11.376   8.978   9.848
65803SOL    HW297434  11.331   8.828   9.893
65804SOL     OW97435  11.412   8.539  10.196
65804SOL    HW197436  11.426   8.455  10.248
65804SOL    HW297437  11.357   8.603  10.251
65805SOL     OW97438  11.792   9.234  10.749
65805SOL    HW197439  11.700   9.217  10.784
65805SOL    HW297440  11.820   9.326  10.775
65806SOL     OW97441  11.778   8.412   9.433
65806SOL    HW197442  11.785   8.496   9.379
65806SOL    HW297443  11.824   8.425   9.521
65807SOL     OW97444  12.766   7.562  10.790
65807SOL    HW197445  12.748   7.629  10.718
65807SOL    HW297446  12.763   7.608  10.879
65808SOL     OW97447  11.294   8.091   9.873
65808SOL    HW197448  11.249   8.003   9.890
65808SOL    HW297449  11.293   8.145   9.957
65809SOL     OW97450  11.199   9.044   9.427
65809SOL    HW197451  11.180   8.948   9.448
65809SOL    HW297452  11.166   9.102   9.502
65810SOL     OW97453  12.861   8.370   9.922
65810SOL    HW197454  12.956   8.341   9.930
65810SOL    HW297455  12.853   8.435   9.847
65811SOL     OW97456  11.285   8.185  10.907
65811SOL    HW197457  11.373   8.172  10.952
65811SOL    HW297458  11.272   8.282  10.885
65812SOL     OW97459  11.785   8.813  10.036
65812SOL    HW197460  11.736   8.726  10.045
65812SOL    HW297461  11.762   8.856   9.949
65813SOL     OW97462  12.465   8.676  10.733
65813SOL    HW197463  12.502   8.603  10.675
65813SOL    HW297464  12.517   8.681  10.818
65814SOL     OW97465  11.981   7.452   9.812
65814SOL    HW197466  12.021   7.543   9.803
65814SOL    HW297467  11.881   7.460   9.818
65815SOL     OW97468  11.369   8.424  10.574
65815SOL    HW197469  11.458   8.379  10.560
65815SOL    HW297470  11.296   8.359  10.555
65816SOL     OW97471  12.359   9.240  10.926
65816SOL    HW197472  12.383   9.300  10.850
65816SOL    HW297473  12.366   9.145  10.896
65817SOL     OW97474  11.489   7.699  11.111
65817SOL    HW197475  11.560   7.770  11.117
65817SOL    HW297476  11.401   7.738  11.139
65818SOL     OW97477  12.638   8.865  10.263
65818SOL    HW197478  12.579   8.871  10.343
65818SOL    HW297479  12.623   8.777  10.217
65819SOL     OW97480  12.839   9.162   9.882
65819SOL    HW197481  12.798   9.139   9.794
65819SOL    HW297482  12.821   9.088   9.947
65820SOL     OW97483  11.770   8.177   9.580
65820SOL    HW197484  11.794   8.246   9.512
65820SOL    HW297485  11.692   8.210   9.634
65821SOL     OW97486  12.453   7.793  10.254
65821SOL    HW197487  12.367   7.743  10.241
65821SOL    HW297488  12.515   7.739  10.310
65822SOL     OW97489  11.979   8.053  10.775
65822SOL    HW197490  11.932   8.050  10.864
65822SOL    HW297491  11.928   7.998  10.709
65823SOL     OW97492  12.566   7.917  10.984
65823SOL    HW197493  12.546   7.960  11.072
65823SOL    HW297494  12.644   7.855  10.993
65824SOL     OW97495  12.145   8.338  10.882
65824SOL    HW197496  12.191   8.254  10.853
65824SOL    HW297497  12.089   8.372  10.807
65825SOL     OW97498  12.163   7.858  10.552
65825SOL    HW197499  12.086   7.892  10.606
65825SOL    HW297500  12.129   7.807  10.473
65826SOL     OW97501  12.213   8.149   9.739
65826SOL    HW197502  12.239   8.145   9.835
65826SOL    HW297503  12.128   8.098   9.725
65827SOL     OW97504  11.248   8.259  10.099
65827SOL    HW197505  11.347   8.247  10.108
65827SOL    HW297506  11.224   8.354  10.120
65828SOL     OW97507  11.302   9.269  10.881
65828SOL    HW197508  11.292   9.254  10.980
65828SOL    HW297509  11.216   9.305  10.845
65829SOL     OW97510  12.037   7.796   9.505
65829SOL    HW197511  12.096   7.859   9.456
65829SOL    HW297512  12.056   7.702   9.476
65830SOL     OW97513  12.534   8.592   9.855
65830SOL    HW197514  12.617   8.563   9.807
65830SOL    HW297515  12.485   8.659   9.799
65831SOL     OW97516  11.722   7.644  10.195
65831SOL    HW197517  11.717   7.639  10.295
65831SOL    HW297518  11.724   7.740  10.166
65832SOL     OW97519  12.180   8.904   9.787
65832SOL    HW197520  12.134   8.976   9.735
65832SOL    HW297521  12.176   8.924   9.885
65833SOL     OW97522  11.523   9.249  10.163
65833SOL    HW197523  11.573   9.163  10.169
65833SOL    HW297524  11.588   9.326  10.160
65834SOL     OW97525  12.399   8.998  10.816
65834SOL    HW197526  12.405   8.921  10.880
65834SOL    HW297527  12.347   8.972  10.736
65835SOL     OW97528  11.493   8.391   9.552
65835SOL    HW197529  11.575   8.430   9.510
65835SOL    HW297530  11.466   8.309   9.503
65836SOL     OW97531  12.630   8.183  10.038
65836SOL    HW197532  12.625   8.118  10.113
65836SOL    HW297533  12.710   8.242  10.051
65837SOL     OW97534  11.633   8.714  11.037
65837SOL    HW197535  11.583   8.715  10.951
65837SOL    HW297536  11.570   8.696  11.113
65838SOL     OW97537  12.283   9.224   9.547
65838SOL    HW197538  12.223   9.162   9.597
65838SOL    HW297539  12.314   9.180   9.462
65839SOL     OW97540  11.374   7.733  10.808
65839SOL    HW197541  11.294   7.793  10.795
65839SOL    HW297542  11.364   7.684  10.894
65840SOL     OW97543  11.636   9.191   9.633
65840SOL    HW197544  11.669   9.230   9.719
65840SOL    HW297545  11.712   9.184   9.568
65841SOL     OW97546  12.572   7.555   9.736
65841SOL    HW197547  12.548   7.518   9.646
65841SOL    HW297548  12.671   7.571   9.740
65842SOL     OW97549  11.421   9.233  10.551
65842SOL    HW197550  11.478   9.168  10.601
65842SOL    HW297551  11.405   9.200  10.458
65843SOL     OW97552  12.112   9.146  10.214
65843SOL    HW197553  12.192   9.089  10.235
65843SOL    HW297554  12.063   9.106  10.137
65844SOL     OW97555  11.554   8.148   9.790
65844SOL    HW197556  11.599   8.058   9.787
65844SOL    HW297557  11.460   8.137   9.823
65845SOL     OW97558  11.786   7.570   9.427
65845SOL    HW197559  11.884   7.548   9.434
65845SOL    HW297560  11.755   7.553   9.334
65846SOL     OW97561  11.953   7.712  11.059
65846SOL    HW197562  12.020   7.651  11.102
65846SOL    HW297563  11.880   7.731  11.124
65847SOL     OW97564  12.060   8.962  10.505
65847SOL    HW197565  12.037   8.937  10.411
65847SOL    HW297566  12.121   8.893  10.544
65848SOL     OW97567  12.523   8.038  10.743
65848SOL    HW197568  12.551   7.995  10.828
65848SOL    HW297569  12.548   8.134  10.744
65849SOL     OW97570  11.975   8.850  10.234
65849SOL    HW197571  12.065   8.864  10.192
65849SOL    HW297572  11.904   8.852  10.163
65850SOL     OW97573  12.094   7.951  10.209
65850SOL    HW197574  12.069   7.942  10.113
65850SOL    HW297575  12.142   7.869  10.240
65851SOL     OW97576  11.711   7.512   9.822
65851SOL    HW197577  11.630   7.513   9.880
65851SOL    HW297578  11.714   7.595   9.767
65852SOL     OW97579  12.606   8.636   9.351
65852SOL    HW197580  12.638   8.560   9.408
65852SOL    HW297581  12.514   8.663   9.381
65853SOL     OW97582  11.469   7.483   9.481
65853SOL    HW197583  11.518   7.567   9.460
65853SOL    HW297584  11.531   7.418   9.526
65854SOL     OW97585  12.107   7.684   9.790
65854SOL    HW197586  12.059   7.725   9.712
65854SOL    HW297587  12.206   7.682   9.771
65855SOL     OW97588  12.248   8.131  10.774
65855SOL    HW197589  12.168   8.070  10.777
65855SOL    HW297590  12.329   8.078  10.750
65856SOL     OW97591  12.399   9.018  10.103
65856SOL    HW197592  12.420   9.092  10.038
65856SOL    HW297593  12.467   9.018  10.176
65857SOL     OW97594  11.631   8.600  10.051
65857SOL    HW197595  11.560   8.573  10.116
65857SOL    HW297596  11.605   8.572   9.958
65858SOL     OW97597  12.443   9.245   9.901
65858SOL    HW197598  12.487   9.309   9.837
65858SOL    HW297599  12.393   9.297   9.971
65859SOL     OW97600  12.204   7.997   9.326
65859SOL    HW197601  12.163   8.079   9.287
65859SOL    HW297602  12.268   8.023   9.399
65860SOL     OW97603  11.250   8.004  10.696
65860SOL    HW197604  11.342   8.003  10.655
65860SOL    HW297605  11.244   8.078  10.763
65861SOL     OW97606  11.733   7.670  10.457
65861SOL    HW197607  11.771   7.586  10.494
65861SOL    HW297608  11.645   7.689  10.501
65862SOL     OW97609  12.038   7.902   9.952
65862SOL    HW197610  12.006   7.974   9.890
65862SOL    HW297611  12.062   7.821   9.899
65863SOL     OW97612  12.189   7.487  10.063
65863SOL    HW197613  12.117   7.492   9.994
65863SOL    HW297614  12.165   7.418  10.132
65864SOL     OW97615  12.601   8.621  10.177
65864SOL    HW197616  12.546   8.537  10.170
65864SOL    HW297617  12.627   8.650  10.085
65865SOL     OW97618  12.638   8.038  10.302
65865SOL    HW197619  12.608   7.943  10.309
65865SOL    HW297620  12.711   8.054  10.368
65866SOL     OW97621  11.660   8.833   9.484
65866SOL    HW197622  11.573   8.818   9.531
65866SOL    HW297623  11.643   8.859   9.389
65867SOL     OW97624  12.562   8.023   9.388
65867SOL    HW197625  12.508   8.002   9.469
65867SOL    HW297626  12.653   7.982   9.397
65868SOL     OW97627  11.699   7.704   9.638
65868SOL    HW197628  11.726   7.645   9.563
65868SOL    HW297629  11.699   7.799   9.607
65869SOL     OW97630  12.236   8.795  10.650
65869SOL    HW197631  12.156   8.772  10.705
65869SOL    HW297632  12.319   8.769  10.699
65870SOL     OW97633  12.764   9.077  10.935
65870SOL    HW197634  12.791   9.111  10.845
65870SOL    HW297635  12.843   9.039  10.981
65871SOL     OW97636  12.283   8.643  10.410
65871SOL    HW197637  12.243   8.687  10.491
65871SOL    HW297638  12.242   8.680  10.327
65872SOL     OW97639  12.087   7.537  10.712
65872SOL    HW197640  12.112   7.517  10.617
65872SOL    HW297641  12.159   7.593  10.754
65873SOL     OW97642  12.152   8.564  11.029
65873SOL    HW197643  12.053   8.570  11.039
65873SOL    HW297644  12.175   8.484  10.973
65874SOL     OW97645  11.877   8.498   9.678
65874SOL    HW197646  11.863   8.505   9.777
65874SOL    HW297647  11.961   8.447   9.660
65875SOL     OW97648  11.582   8.261  10.561
65875SOL    HW197649  11.668   8.273  10.611
65875SOL    HW297650  11.540   8.174  10.588
65876SOL     OW97651  12.446   7.834  10.572
65876SOL    HW197652  12.467   7.908  10.636
65876SOL    HW297653  12.357   7.851  10.529
65877SOL     OW97654  11.236   9.012  10.641
65877SOL    HW197655  11.190   9.094  10.607
65877SOL    HW297656  11.334   9.031  10.650
65878SOL     OW97657  11.539   8.548   9.811
65878SOL    HW197658  11.532   8.631   9.755
65878SOL    HW297659  11.543   8.468   9.751
65879SOL     OW97660  11.738   7.985  10.175
65879SOL    HW197661  11.750   8.051  10.101
65879SOL    HW297662  11.784   8.019  10.258
65880SOL     OW97663  12.424   8.796   9.698
65880SOL    HW197664  12.474   8.873   9.738
65880SOL    HW297665  12.329   8.798   9.730
65881SOL     OW97666  12.444   8.893  10.452
65881SOL    HW197667  12.491   8.906  10.539
65881SOL    HW297668  12.378   8.819  10.461
65882SOL     OW97669  12.754   8.087   9.782
65882SOL    HW197670  12.723   8.148   9.855
65882SOL    HW297671  12.804   8.139   9.713
65883SOL     OW97672  11.526   8.958  10.639
65883SOL    HW197673  11.505   8.914  10.552
65883SOL    HW297674  11.623   8.984  10.642
65884SOL     OW97675  11.574   8.199  10.908
65884SOL    HW197676  11.642   8.254  10.861
65884SOL    HW297677  11.614   8.111  10.935
65885SOL     OW97678  12.185   7.553  11.080
65885SOL    HW197679  12.191   7.638  11.028
65885SOL    HW297680  12.217   7.477  11.023
65886SOL     OW97681  11.676   7.498  11.050
65886SOL    HW197682  11.634   7.441  10.980
65886SOL    HW297683  11.610   7.567  11.082
65887SOL     OW97684  11.745   8.318  10.339
65887SOL    HW197685  11.789   8.407  10.330
65887SOL    HW297686  11.682   8.318  10.416
65888SOL     OW97687  12.532   8.310  10.355
65888SOL    HW197688  12.457   8.310  10.289
65888SOL    HW297689  12.569   8.218  10.364
65889SOL     OW97690  12.381   7.973   9.585
65889SOL    HW197691  12.394   7.889   9.639
65889SOL    HW297692  12.352   8.047   9.645
65890SOL     OW97693  11.479   7.661  10.541
65890SOL    HW197694  11.456   7.698  10.631
65890SOL    HW297695  11.449   7.566  10.535
65891SOL     OW97696  11.209   8.758  10.592
65891SOL    HW197697  11.262   8.709  10.660
65891SOL    HW297698  11.231   8.856  10.597
65892SOL     OW97699  11.904   8.082  10.374
65892SOL    HW197700  11.963   8.056  10.298
65892SOL    HW297701  11.876   8.178  10.363
65893SOL     OW97702  11.479   7.511   9.928
65893SOL    HW197703  11.468   7.605   9.961
65893SOL    HW297704  11.474   7.448  10.005
65894SOL     OW97705  12.794   7.815   9.684
65894SOL    HW197706  12.796   7.739   9.748
65894SOL    HW297707  12.746   7.892   9.724
65895SOL     OW97708  12.195   8.214  10.276
65895SOL    HW197709  12.210   8.235  10.372
65895SOL    HW297710  12.165   8.119  10.267
65896SOL     OW97711  12.152   9.021  11.010
65896SOL    HW197712  12.132   9.065  10.922
65896SOL    HW297713  12.191   8.930  10.994
65897SOL     OW97714  11.522   8.346  11.114
65897SOL    HW197715  11.598   8.390  11.162
65897SOL    HW297716  11.557   8.299  11.032
65898SOL     OW97717  12.712   7.722   9.435
65898SOL    HW197718  12.651   7.647   9.458
65898SOL    HW297719  12.734   7.774   9.518
65899SOL     OW97720  12.475   8.286   9.352
65899SOL    HW197721  12.509   8.193   9.367
65899SOL    HW297722  12.493   8.313   9.257
65900SOL     OW97723  12.240   8.781  10.159
65900SOL    HW197724  12.247   8.697  10.104
65900SOL    HW297725  12.302   8.850  10.123
65901SOL     OW97726  11.491   8.258  10.259
65901SOL    HW197727  11.584   8.294  10.264
65901SOL    HW297728  11.485   8.173  10.311
65902SOL     OW97729  11.511   7.957  10.316
65902SOL    HW197730  11.459   7.874  10.299
65902SOL    HW297731  11.588   7.962  10.252
65903SOL     OW97732  12.310   7.828  10.988
65903SOL    HW197733  12.265   7.891  11.052
65903SOL    HW297734  12.403   7.859  10.971
65904SOL     OW97735  12.332   7.655  10.787
65904SOL    HW197736  12.332   7.719  10.864
65904SOL    HW297737  12.360   7.703  10.704
65905SOL     OW97738  11.180   8.774   9.510
65905SOL    HW197739  11.087   8.795   9.479
65905SOL    HW297740  11.190   8.675   9.523
65906SOL     OW97741  11.260   9.249  10.237
65906SOL    HW197742  11.218   9.163  10.210
65906SOL    HW297743  11.354   9.252  10.203
65907SOL     OW97744  11.676   9.016  10.220
65907SOL    HW197745  11.742   9.090  10.229
65907SOL    HW297746  11.720   8.937  10.178
65908SOL     OW97747  12.174   8.244  10.548
65908SOL    HW197748  12.215   8.212  10.634
65908SOL    HW297749  12.078   8.217  10.545
65909SOL     OW97750  11.212   7.992  10.424
65909SOL    HW197751  11.297   7.959  10.383
65909SOL    HW297752  11.225   8.007  10.522
65910SOL     OW97753  11.361   7.968  11.032
65910SOL    HW197754  11.420   7.928  10.962
65910SOL    HW297755  11.303   8.039  10.991
65911SOL     OW97756  12.541   8.398  10.970
65911SOL    HW197757  12.580   8.487  10.990
65911SOL    HW297758  12.551   8.378  10.873
65912SOL     OW97759  11.987   8.020   9.635
65912SOL    HW197760  11.994   7.931   9.589
65912SOL    HW297761  11.893   8.054   9.627
65913SOL     OW97762  11.424   9.012  11.054
65913SOL    HW197763  11.394   9.069  11.130
65913SOL    HW297764  11.417   8.915  11.080
65914SOL     OW97765  11.843   7.912  10.579
65914SOL    HW197766  11.809   7.823  10.549
65914SOL    HW297767  11.869   7.966  10.499
65915SOL     OW97768  12.102   9.126  10.775
65915SOL    HW197769  12.078   9.108  10.680
65915SOL    HW297770  12.132   9.220  10.785
65916SOL     OW97771  11.645   7.948   9.501
65916SOL    HW197772  11.706   8.028   9.505
65916SOL    HW297773  11.550   7.979   9.508
65917SOL     OW97774  11.331   8.585  10.776
65917SOL    HW197775  11.353   8.524  10.852
65917SOL    HW297776  11.341   8.536  10.690
65918SOL     OW97777  12.519   8.507  10.544
65918SOL    HW197778  12.543   8.444  10.470
65918SOL    HW297779  12.429   8.547  10.526
65919SOL     OW97780  12.474   8.303   9.619
65919SOL    HW197781  12.388   8.272   9.661
65919SOL    HW297782  12.470   8.289   9.520
65920SOL     OW97783  12.424   9.179  10.438
65920SOL    HW197784  12.508   9.184  10.384
65920SOL    HW297785  12.401   9.083  10.456
65921SOL     OW97786  11.255   8.706  10.332
65921SOL    HW197787  11.250   8.705  10.432
65921SOL    HW297788  11.172   8.665  10.294
65922SOL     OW97789  11.860   9.110  11.026
65922SOL    HW197790  11.804   9.191  11.035
65922SOL    HW297791  11.912   9.114  10.940
65923SOL     OW97792  12.898   7.583   9.833
65923SOL    HW197793  12.971   7.566   9.766
65923SOL    HW297794  12.867   7.496   9.871
65924SOL     OW97795  12.560   9.021   9.787
65924SOL    HW197796  12.627   9.033   9.713
65924SOL    HW297797  12.520   9.110   9.810
65925SOL     OW97798  11.302   9.242  11.161
65925SOL    HW197799  11.261   9.168  11.214
65925SOL    HW297800  11.366   9.293  11.219
65926SOL     OW97801  12.452   8.375   9.982
65926SOL    HW197802  12.512   8.294   9.984
65926SOL    HW297803  12.492   8.444   9.922
65927SOL     OW97804  12.002   8.721  10.732
65927SOL    HW197805  11.997   8.754  10.827
65927SOL    HW297806  11.916   8.740  10.686
65928SOL     OW97807  11.844   9.064   9.464
65928SOL    HW197808  11.853   9.074   9.365
65928SOL    HW297809  11.804   8.975   9.485
65929SOL     OW97810  11.435   7.774  10.030
65929SOL    HW197811  11.356   7.825   9.996
65929SOL    HW297812  11.426   7.759  10.128
65930SOL     OW97813  12.366   9.060   9.341
65930SOL    HW197814  12.372   8.967   9.378
65930SOL    HW297815  12.307   9.060   9.261
65931SOL     OW97816  11.994   8.450  10.682
65931SOL    HW197817  12.034   8.449  10.590
65931SOL    HW297818  12.004   8.542  10.722
65932SOL     OW97819  12.088   8.358   9.601
65932SOL    HW197820  12.151   8.396   9.533
65932SOL    HW297821  12.128   8.275   9.640
65933SOL     OW97822  12.676   9.055   9.354
65933SOL    HW197823  12.584   9.092   9.361
65933SOL    HW297824  12.714   9.075   9.264
65934SOL     OW97825  11.544   8.736  10.800
65934SOL    HW197826  11.531   8.829  10.766
65934SOL    HW297827  11.460   8.684  10.787
65935SOL     OW97828  12.211   8.546  10.006
65935SOL    HW197829  12.141   8.499  10.060
65935SOL    HW297830  12.270   8.478   9.963
65936SOL     OW97831  12.186   7.684  10.281
65936SOL    HW197832  12.178   7.648  10.188
65936SOL    HW297833  12.184   7.608  10.346
65937SOL     OW97834  11.762   8.935   9.801
65937SOL    HW197835  11.804   8.877   9.731
65937SOL    HW297836  11.718   9.014   9.757
65938SOL     OW97837  11.427   8.796   9.600
65938SOL    HW197838  11.331   8.797   9.573
65938SOL    HW297839  11.439   8.849   9.684
65939SOL     OW97840  11.277   8.461  11.036
65939SOL    HW197841  11.200   8.428  11.090
65939SOL    HW297842  11.362   8.431  11.078
65940SOL     OW97843  11.844   7.651  10.799
65940SOL    HW197844  11.934   7.635  10.759
65940SOL    HW297845  11.852   7.656  10.898
65941SOL     OW97846  11.247   7.793   9.343
65941SOL    HW197847  11.155   7.765   9.314
65941SOL    HW297848  11.278   7.870   9.287
65942SOL     OW97849  12.612   8.304  10.708
65942SOL    HW197850  12.555   8.356  10.645
65942SOL    HW297851  12.708   8.316  10.684
65943SOL     OW97852  11.244   7.614   9.628
65943SOL    HW197853  11.227   7.697   9.574
65943SOL    HW297854  11.334   7.577   9.606
65944SOL     OW97855  12.355   8.783   9.429
65944SOL    HW197856  12.256   8.772   9.431
65944SOL    HW297857  12.389   8.798   9.522
65945SOL     OW97858  11.785   8.290  10.741
65945SOL    HW197859  11.841   8.371  10.724
65945SOL    HW297860  11.844   8.210  10.744
65946SOL     OW97861  12.665   9.215  10.269
65946SOL    HW197862  12.698   9.279  10.200
65946SOL    HW297863  12.731   9.209  10.344
65947SOL     OW97864  11.888   8.013  11.018
65947SOL    HW197865  11.907   8.078  11.092
65947SOL    HW297866  11.948   7.933  11.027
65948SOL     OW97867  12.622   8.668  10.943
65948SOL    HW197868  12.613   8.658  11.042
65948SOL    HW297869  12.718   8.661  10.917
65949SOL     OW97870  11.562   9.189  10.870
65949SOL    HW197871  11.471   9.230  10.868
65949SOL    HW297872  11.555   9.095  10.902
65950SOL     OW97873  12.397   7.773   9.759
65950SOL    HW197874  12.462   7.699   9.748
65950SOL    HW297875  12.417   7.823   9.843
65951SOL     OW97876  11.766   8.193   9.962
65951SOL    HW197877  11.816   8.278   9.943
65951SOL    HW297878  11.678   8.195   9.914
65952SOL     OW97879  12.031   8.822   9.326
65952SOL    HW197880  11.985   8.837   9.414
65952SOL    HW297881  12.075   8.907   9.296
65953SOL     OW97882  11.833   9.238  10.263
65953SOL    HW197883  11.787   9.326  10.250
65953SOL    HW297884  11.932   9.250  10.256
65954SOL     OW97885  12.031   8.404  10.171
65954SOL    HW197886  12.085   8.335  10.219
65954SOL    HW297887  11.999   8.473  10.237
65955SOL     OW97888  12.255   8.432   9.397
65955SOL    HW197889  12.232   8.485   9.315
65955SOL    HW297890  12.336   8.376   9.378
65956SOL     OW97891  13.033   9.017  10.161
65956SOL    HW197892  12.962   9.005  10.091
65956SOL    HW297893  13.034   8.938  10.221
65957SOL     OW97894  11.393   8.762  11.154
65957SOL    HW197895  11.328   8.689  11.133
65957SOL    HW297896  11.397   8.776  11.252
65958SOL     OW97897  11.251   8.688   9.963
65958SOL    HW197898  11.250   8.641  10.051
65958SOL    HW297899  11.333   8.660   9.912
65959SOL     OW97900  11.844   8.839  10.934
65959SOL    HW197901  11.766   8.789  10.972
65959SOL    HW297902  11.841   8.934  10.965
65960SOL     OW97903  11.600   7.872   9.830
65960SOL    HW197904  11.630   7.800   9.768
65960SOL    HW297905  11.561   7.832   9.913
65961SOL     OW97906  11.489   7.995  10.590
65961SOL    HW197907  11.527   7.936  10.662
65961SOL    HW297908  11.529   7.969  10.502
65962SOL     OW97909  11.984   9.034   9.997
65962SOL    HW197910  12.016   9.044   9.903
65962SOL    HW297911  11.905   8.972   9.999
65963SOL     OW97912  12.596   7.662  10.422
65963SOL    HW197913  12.648   7.597  10.477
65963SOL    HW297914  12.547   7.725  10.483
65964SOL     OW97915  12.173   7.482  10.464
65964SOL    HW197916  12.110   7.410  10.433
65964SOL    HW297917  12.266   7.446  10.464
65965SOL     OW97918  11.942   8.778   9.611
65965SOL    HW197919  11.896   8.691   9.628
65965SOL    HW297920  12.033   8.775   9.652
65966SOL     OW97921  11.790   9.015  10.594
65966SOL    HW197922  11.785   9.097  10.651
65966SOL    HW297923  11.879   9.012  10.549
65967SOL     OW97924  12.524   7.500   9.478
65967SOL    HW197925  12.559   7.459   9.394
65967SOL    HW297926  12.434   7.462   9.498
65968SOL     OW97927  12.472   7.901  10.001
65968SOL    HW197928  12.413   7.981  10.005
65968SOL    HW297929  12.487   7.866  10.094
65969SOL     OW97930  12.765   7.669  10.192
65969SOL    HW197931  12.681   7.668  10.246
65969SOL    HW297932  12.767   7.752  10.136
65970SOL     OW97933  11.211   8.525   9.610
65970SOL    HW197934  11.310   8.514   9.601
65970SOL    HW297935  11.171   8.439   9.642
65971SOL     OW97936  12.047   9.094   9.647
65971SOL    HW197937  11.970   9.059   9.593
65971SOL    HW297938  12.015   9.165   9.709
65972SOL     OW97939  11.402   8.076  11.285
65972SOL    HW197940  11.309   8.074  11.322
65972SOL    HW297941  11.403   8.037  11.193
65973SOL     OW97942  11.397   7.723  12.168
65973SOL    HW197943  11.432   7.706  12.260
65973SOL    HW297944  11.309   7.678  12.156
65974SOL     OW97945  11.191   7.816  11.819
65974SOL    HW197946  11.109   7.859  11.858
65974SOL    HW297947  11.163   7.743  11.756
65975SOL     OW97948  11.741   8.723  12.337
65975SOL    HW197949  11.648   8.716  12.300
65975SOL    HW297950  11.752   8.812  12.381
65976SOL     OW97951  12.727   8.959  11.875
65976SOL    HW197952  12.670   8.943  11.956
65976SOL    HW297953  12.668   8.969  11.795
65977SOL     OW97954  12.307   8.151  11.889
65977SOL    HW197955  12.364   8.229  11.864
65977SOL    HW297956  12.247   8.177  11.965
65978SOL     OW97957  11.940   8.592  12.195
65978SOL    HW197958  11.862   8.609  12.255
65978SOL    HW297959  11.974   8.679  12.159
65979SOL     OW97960  11.857   8.460  11.837
65979SOL    HW197961  11.926   8.444  11.907
65979SOL    HW297962  11.784   8.517  11.875
65980SOL     OW97963  11.507   8.883  12.233
65980SOL    HW197964  11.429   8.852  12.180
65980SOL    HW297965  11.565   8.941  12.176
65981SOL     OW97966  12.632   8.953  12.511
65981SOL    HW197967  12.656   9.047  12.537
65981SOL    HW297968  12.616   8.899  12.593
65982SOL     OW97969  11.610   7.840  12.671
65982SOL    HW197970  11.692   7.784  12.680
65982SOL    HW297971  11.529   7.782  12.675
65983SOL     OW97972  11.403   9.161  11.655
65983SOL    HW197973  11.437   9.238  11.709
65983SOL    HW297974  11.447   9.161  11.565
65984SOL     OW97975  11.402   8.882  11.710
65984SOL    HW197976  11.376   8.978  11.710
65984SOL    HW297977  11.331   8.828  11.755
65985SOL     OW97978  11.412   8.539  12.058
65985SOL    HW197979  11.426   8.455  12.110
65985SOL    HW297980  11.357   8.603  12.113
65986SOL     OW97981  11.792   9.234  12.611
65986SOL    HW197982  11.700   9.217  12.646
65986SOL    HW297983  11.820   9.326  12.637
65987SOL     OW97984  11.778   8.412  11.295
65987SOL    HW197985  11.785   8.496  11.241
65987SOL    HW297986  11.824   8.425  11.383
65988SOL     OW97987  12.766   7.562  12.652
65988SOL    HW197988  12.748   7.629  12.580
65988SOL    HW297989  12.763   7.608  12.741
65989SOL     OW97990  11.294   8.091  11.735
65989SOL    HW197991  11.249   8.003  11.752
65989SOL    HW297992  11.293   8.145  11.819
65990SOL     OW97993  11.199   9.044  11.289
65990SOL    HW197994  11.180   8.948  11.310
65990SOL    HW297995  11.166   9.102  11.364
65991SOL     OW97996  12.861   8.370  11.784
65991SOL    HW197997  12.956   8.341  11.792
65991SOL    HW297998  12.853   8.435  11.709
65992SOL     OW97999  11.285   8.185  12.769
65992SOL    HW198000  11.373   8.172  12.814
65992SOL    HW298001  11.272   8.282  12.747
65993SOL     OW98002  11.785   8.813  11.898
65993SOL    HW198003  11.736   8.726  11.907
65993SOL    HW298004  11.762   8.856  11.811
65994SOL     OW98005  12.465   8.676  12.595
65994SOL    HW198006  12.502   8.603  12.537
65994SOL    HW298007  12.517   8.681  12.680
65995SOL     OW98008  11.981   7.452  11.674
65995SOL    HW198009  12.021   7.543  11.665
65995SOL    HW298010  11.881   7.460  11.680
65996SOL     OW98011  11.369   8.424  12.436
65996SOL    HW198012  11.458   8.379  12.422
65996SOL    HW298013  11.296   8.359  12.417
65997SOL     OW98014  12.638   8.865  12.125
65997SOL    HW198015  12.579   8.871  12.205
65997SOL    HW298016  12.623   8.777  12.079
65998SOL     OW98017  12.839   9.162  11.744
65998SOL    HW198018  12.798   9.139  11.656
65998SOL    HW298019  12.821   9.088  11.809
65999SOL     OW98020  11.770   8.177  11.442
65999SOL    HW198021  11.794   8.246  11.374
65999SOL    HW298022  11.692   8.210  11.496
66000SOL     OW98023  12.453   7.793  12.116
66000SOL    HW198024  12.367   7.743  12.103
66000SOL    HW298025  12.515   7.739  12.172
66001SOL     OW98026  11.979   8.053  12.637
66001SOL    HW198027  11.932   8.050  12.726
66001SOL    HW298028  11.928   7.998  12.571
66002SOL     OW98029  12.145   8.338  12.744
66002SOL    HW198030  12.191   8.254  12.715
66002SOL    HW298031  12.089   8.372  12.669
66003SOL     OW98032  12.163   7.858  12.414
66003SOL    HW198033  12.086   7.892  12.468
66003SOL    HW298034  12.129   7.807  12.335
66004SOL     OW98035  12.213   8.149  11.601
66004SOL    HW198036  12.239   8.145  11.697
66004SOL    HW298037  12.128   8.098  11.587
66005SOL     OW98038  11.248   8.259  11.961
66005SOL    HW198039  11.347   8.247  11.970
66005SOL    HW298040  11.224   8.354  11.982
66006SOL     OW98041  11.302   9.269  12.743
66006SOL    HW198042  11.292   9.254  12.842
66006SOL    HW298043  11.216   9.305  12.707
66007SOL     OW98044  12.037   7.796  11.367
66007SOL    HW198045  12.096   7.859  11.318
66007SOL    HW298046  12.056   7.702  11.338
66008SOL     OW98047  12.534   8.592  11.717
66008SOL    HW198048  12.617   8.563  11.669
66008SOL    HW298049  12.485   8.659  11.661
66009SOL     OW98050  11.722   7.644  12.057
66009SOL    HW198051  11.717   7.639  12.157
66009SOL    HW298052  11.724   7.740  12.028
66010SOL     OW98053  12.180   8.904  11.649
66010SOL    HW198054  12.134   8.976  11.597
66010SOL    HW298055  12.176   8.924  11.747
66011SOL     OW98056  11.523   9.249  12.025
66011SOL    HW198057  11.573   9.163  12.031
66011SOL    HW298058  11.588   9.326  12.022
66012SOL     OW98059  12.399   8.998  12.678
66012SOL    HW198060  12.405   8.921  12.742
66012SOL    HW298061  12.347   8.972  12.598
66013SOL     OW98062  11.493   8.391  11.414
66013SOL    HW198063  11.575   8.430  11.372
66013SOL    HW298064  11.466   8.309  11.365
66014SOL     OW98065  12.630   8.183  11.900
66014SOL    HW198066  12.625   8.118  11.975
66014SOL    HW298067  12.710   8.242  11.913
66015SOL     OW98068  12.283   9.224  11.409
66015SOL    HW198069  12.223   9.162  11.459
66015SOL    HW298070  12.314   9.180  11.324
66016SOL     OW98071  11.374   7.733  12.670
66016SOL    HW198072  11.294   7.793  12.657
66016SOL    HW298073  11.364   7.684  12.756
66017SOL     OW98074  11.636   9.191  11.495
66017SOL    HW198075  11.669   9.230  11.581
66017SOL    HW298076  11.712   9.184  11.430
66018SOL     OW98077  12.572   7.555  11.598
66018SOL    HW198078  12.548   7.518  11.508
66018SOL    HW298079  12.671   7.571  11.602
66019SOL     OW98080  11.421   9.233  12.413
66019SOL    HW198081  11.478   9.168  12.463
66019SOL    HW298082  11.405   9.200  12.320
66020SOL     OW98083  12.112   9.146  12.076
66020SOL    HW198084  12.192   9.089  12.097
66020SOL    HW298085  12.063   9.106  11.999
66021SOL     OW98086  11.554   8.148  11.652
66021SOL    HW198087  11.599   8.058  11.649
66021SOL    HW298088  11.460   8.137  11.685
66022SOL     OW98089  11.786   7.570  11.289
66022SOL    HW198090  11.884   7.548  11.296
66022SOL    HW298091  11.755   7.553  11.196
66023SOL     OW98092  12.060   8.962  12.367
66023SOL    HW198093  12.037   8.937  12.273
66023SOL    HW298094  12.121   8.893  12.406
66024SOL     OW98095  12.523   8.038  12.605
66024SOL    HW198096  12.551   7.995  12.690
66024SOL    HW298097  12.548   8.134  12.606
66025SOL     OW98098  11.975   8.850  12.096
66025SOL    HW198099  12.065   8.864  12.054
66025SOL    HW298100  11.904   8.852  12.025
66026SOL     OW98101  12.094   7.951  12.071
66026SOL    HW198102  12.069   7.942  11.975
66026SOL    HW298103  12.142   7.869  12.102
66027SOL     OW98104  11.711   7.512  11.684
66027SOL    HW198105  11.630   7.513  11.742
66027SOL    HW298106  11.714   7.595  11.629
66028SOL     OW98107  12.606   8.636  11.213
66028SOL    HW198108  12.638   8.560  11.270
66028SOL    HW298109  12.514   8.663  11.243
66029SOL     OW98110  11.469   7.483  11.343
66029SOL    HW198111  11.518   7.567  11.322
66029SOL    HW298112  11.531   7.418  11.388
66030SOL     OW98113  12.107   7.684  11.652
66030SOL    HW198114  12.059   7.725  11.574
66030SOL    HW298115  12.206   7.682  11.633
66031SOL     OW98116  12.248   8.131  12.636
66031SOL    HW198117  12.168   8.070  12.639
66031SOL    HW298118  12.329   8.078  12.612
66032SOL     OW98119  12.399   9.018  11.965
66032SOL    HW198120  12.420   9.092  11.900
66032SOL    HW298121  12.467   9.018  12.038
66033SOL     OW98122  11.631   8.600  11.913
66033SOL    HW198123  11.560   8.573  11.978
66033SOL    HW298124  11.605   8.572  11.820
66034SOL     OW98125  12.443   9.245  11.763
66034SOL    HW198126  12.487   9.309  11.699
66034SOL    HW298127  12.393   9.297  11.833
66035SOL     OW98128  12.204   7.997  11.188
66035SOL    HW198129  12.163   8.079  11.149
66035SOL    HW298130  12.268   8.023  11.261
66036SOL     OW98131  11.250   8.004  12.558
66036SOL    HW198132  11.342   8.003  12.517
66036SOL    HW298133  11.244   8.078  12.625
66037SOL     OW98134  11.733   7.670  12.319
66037SOL    HW198135  11.771   7.586  12.356
66037SOL    HW298136  11.645   7.689  12.363
66038SOL     OW98137  12.038   7.902  11.814
66038SOL    HW198138  12.006   7.974  11.752
66038SOL    HW298139  12.062   7.821  11.761
66039SOL     OW98140  12.189   7.487  11.925
66039SOL    HW198141  12.117   7.492  11.856
66039SOL    HW298142  12.165   7.418  11.994
66040SOL     OW98143  12.601   8.621  12.039
66040SOL    HW198144  12.546   8.537  12.032
66040SOL    HW298145  12.627   8.650  11.947
66041SOL     OW98146  12.638   8.038  12.164
66041SOL    HW198147  12.608   7.943  12.171
66041SOL    HW298148  12.711   8.054  12.230
66042SOL     OW98149  11.660   8.833  11.346
66042SOL    HW198150  11.573   8.818  11.393
66042SOL    HW298151  11.643   8.859  11.251
66043SOL     OW98152  12.562   8.023  11.250
66043SOL    HW198153  12.508   8.002  11.331
66043SOL    HW298154  12.653   7.982  11.259
66044SOL     OW98155  11.699   7.704  11.500
66044SOL    HW198156  11.726   7.645  11.425
66044SOL    HW298157  11.699   7.799  11.469
66045SOL     OW98158  12.236   8.795  12.512
66045SOL    HW198159  12.156   8.772  12.567
66045SOL    HW298160  12.319   8.769  12.561
66046SOL     OW98161  12.283   8.643  12.272
66046SOL    HW198162  12.243   8.687  12.353
66046SOL    HW298163  12.242   8.680  12.189
66047SOL     OW98164  12.087   7.537  12.574
66047SOL    HW198165  12.112   7.517  12.479
66047SOL    HW298166  12.159   7.593  12.616
66048SOL     OW98167  11.877   8.498  11.540
66048SOL    HW198168  11.863   8.505  11.639
66048SOL    HW298169  11.961   8.447  11.522
66049SOL     OW98170  11.582   8.261  12.423
66049SOL    HW198171  11.668   8.273  12.473
66049SOL    HW298172  11.540   8.174  12.450
66050SOL     OW98173  12.446   7.834  12.434
66050SOL    HW198174  12.467   7.908  12.498
66050SOL    HW298175  12.357   7.851  12.391
66051SOL     OW98176  11.236   9.012  12.503
66051SOL    HW198177  11.190   9.094  12.469
66051SOL    HW298178  11.334   9.031  12.512
66052SOL     OW98179  11.539   8.548  11.673
66052SOL    HW198180  11.532   8.631  11.617
66052SOL    HW298181  11.543   8.468  11.613
66053SOL     OW98182  11.738   7.985  12.037
66053SOL    HW198183  11.750   8.051  11.963
66053SOL    HW298184  11.784   8.019  12.120
66054SOL     OW98185  12.424   8.796  11.560
66054SOL    HW198186  12.474   8.873  11.600
66054SOL    HW298187  12.329   8.798  11.592
66055SOL     OW98188  12.444   8.893  12.314
66055SOL    HW198189  12.491   8.906  12.401
66055SOL    HW298190  12.378   8.819  12.323
66056SOL     OW98191  12.754   8.087  11.644
66056SOL    HW198192  12.723   8.148  11.717
66056SOL    HW298193  12.804   8.139  11.575
66057SOL     OW98194  11.526   8.958  12.501
66057SOL    HW198195  11.505   8.914  12.414
66057SOL    HW298196  11.623   8.984  12.504
66058SOL     OW98197  11.574   8.199  12.770
66058SOL    HW198198  11.642   8.254  12.723
66058SOL    HW298199  11.614   8.111  12.797
66059SOL     OW98200  11.745   8.318  12.201
66059SOL    HW198201  11.789   8.407  12.192
66059SOL    HW298202  11.682   8.318  12.278
66060SOL     OW98203  12.532   8.310  12.217
66060SOL    HW198204  12.457   8.310  12.151
66060SOL    HW298205  12.569   8.218  12.226
66061SOL     OW98206  12.381   7.973  11.447
66061SOL    HW198207  12.394   7.889  11.501
66061SOL    HW298208  12.352   8.047  11.507
66062SOL     OW98209  11.479   7.661  12.403
66062SOL    HW198210  11.456   7.698  12.493
66062SOL    HW298211  11.449   7.566  12.397
66063SOL     OW98212  11.209   8.758  12.454
66063SOL    HW198213  11.262   8.709  12.522
66063SOL    HW298214  11.231   8.856  12.459
66064SOL     OW98215  11.904   8.082  12.236
66064SOL    HW198216  11.963   8.056  12.160
66064SOL    HW298217  11.876   8.178  12.225
66065SOL     OW98218  11.479   7.511  11.790
66065SOL    HW198219  11.468   7.605  11.823
66065SOL    HW298220  11.474   7.448  11.867
66066SOL     OW98221  12.794   7.815  11.546
66066SOL    HW198222  12.796   7.739  11.610
66066SOL    HW298223  12.746   7.892  11.586
66067SOL     OW98224  12.195   8.214  12.138
66067SOL    HW198225  12.210   8.235  12.234
66067SOL    HW298226  12.165   8.119  12.129
66068SOL     OW98227  12.475   8.286  11.214
66068SOL    HW198228  12.509   8.193  11.229
66068SOL    HW298229  12.493   8.313  11.119
66069SOL     OW98230  12.240   8.781  12.021
66069SOL    HW198231  12.247   8.697  11.966
66069SOL    HW298232  12.302   8.850  11.985
66070SOL     OW98233  11.491   8.258  12.121
66070SOL    HW198234  11.584   8.294  12.126
66070SOL    HW298235  11.485   8.173  12.173
66071SOL     OW98236  11.511   7.957  12.178
66071SOL    HW198237  11.459   7.874  12.161
66071SOL    HW298238  11.588   7.962  12.114
66072SOL     OW98239  12.332   7.655  12.649
66072SOL    HW198240  12.332   7.719  12.726
66072SOL    HW298241  12.360   7.703  12.566
66073SOL     OW98242  11.180   8.774  11.372
66073SOL    HW198243  11.087   8.795  11.341
66073SOL    HW298244  11.190   8.675  11.385
66074SOL     OW98245  11.260   9.249  12.099
66074SOL    HW198246  11.218   9.163  12.072
66074SOL    HW298247  11.354   9.252  12.065
66075SOL     OW98248  11.676   9.016  12.082
66075SOL    HW198249  11.742   9.090  12.091
66075SOL    HW298250  11.720   8.937  12.040
66076SOL     OW98251  12.174   8.244  12.410
66076SOL    HW198252  12.215   8.212  12.496
66076SOL    HW298253  12.078   8.217  12.407
66077SOL     OW98254  11.212   7.992  12.286
66077SOL    HW198255  11.297   7.959  12.245
66077SOL    HW298256  11.225   8.007  12.384
66078SOL     OW98257  11.987   8.020  11.497
66078SOL    HW198258  11.994   7.931  11.451
66078SOL    HW298259  11.893   8.054  11.489
66079SOL     OW98260  11.424   9.012  12.916
66079SOL    HW198261  11.394   9.069  12.992
66079SOL    HW298262  11.417   8.915  12.942
66080SOL     OW98263  11.843   7.912  12.441
66080SOL    HW198264  11.809   7.823  12.411
66080SOL    HW298265  11.869   7.966  12.361
66081SOL     OW98266  12.102   9.126  12.637
66081SOL    HW198267  12.078   9.108  12.542
66081SOL    HW298268  12.132   9.220  12.647
66082SOL     OW98269  11.645   7.948  11.363
66082SOL    HW198270  11.706   8.028  11.367
66082SOL    HW298271  11.550   7.979  11.370
66083SOL     OW98272  11.331   8.585  12.638
66083SOL    HW198273  11.353   8.524  12.714
66083SOL    HW298274  11.341   8.536  12.552
66084SOL     OW98275  12.519   8.507  12.406
66084SOL    HW198276  12.543   8.444  12.332
66084SOL    HW298277  12.429   8.547  12.388
66085SOL     OW98278  12.474   8.303  11.481
66085SOL    HW198279  12.388   8.272  11.523
66085SOL    HW298280  12.470   8.289  11.382
66086SOL     OW98281  12.424   9.179  12.300
66086SOL    HW198282  12.508   9.184  12.246
66086SOL    HW298283  12.401   9.083  12.318
66087SOL     OW98284  11.255   8.706  12.194
66087SOL    HW198285  11.250   8.705  12.294
66087SOL    HW298286  11.172   8.665  12.156
66088SOL     OW98287  12.898   7.583  11.695
66088SOL    HW198288  12.971   7.566  11.628
66088SOL    HW298289  12.867   7.496  11.733
66089SOL     OW98290  12.560   9.021  11.649
66089SOL    HW198291  12.627   9.033  11.575
66089SOL    HW298292  12.520   9.110  11.672
66090SOL     OW98293  12.452   8.375  11.844
66090SOL    HW198294  12.512   8.294  11.846
66090SOL    HW298295  12.492   8.444  11.784
66091SOL     OW98296  12.002   8.721  12.594
66091SOL    HW198297  11.997   8.754  12.689
66091SOL    HW298298  11.916   8.740  12.548
66092SOL     OW98299  11.844   9.064  11.326
66092SOL    HW198300  11.853   9.074  11.227
66092SOL    HW298301  11.804   8.975  11.347
66093SOL     OW98302  11.435   7.774  11.892
66093SOL    HW198303  11.356   7.825  11.858
66093SOL    HW298304  11.426   7.759  11.990
66094SOL     OW98305  12.366   9.060  11.203
66094SOL    HW198306  12.372   8.967  11.240
66094SOL    HW298307  12.307   9.060  11.123
66095SOL     OW98308  11.994   8.450  12.544
66095SOL    HW198309  12.034   8.449  12.452
66095SOL    HW298310  12.004   8.542  12.584
66096SOL     OW98311  12.088   8.358  11.463
66096SOL    HW198312  12.151   8.396  11.395
66096SOL    HW298313  12.128   8.275  11.502
66097SOL     OW98314  12.676   9.055  11.216
66097SOL    HW198315  12.584   9.092  11.223
66097SOL    HW298316  12.714   9.075  11.126
66098SOL     OW98317  11.544   8.736  12.662
66098SOL    HW198318  11.531   8.829  12.628
66098SOL    HW298319  11.460   8.684  12.649
66099SOL     OW98320  12.211   8.546  11.868
66099SOL    HW198321  12.141   8.499  11.922
66099SOL    HW298322  12.270   8.478  11.825
66100SOL     OW98323  12.186   7.684  12.143
66100SOL    HW198324  12.178   7.648  12.050
66100SOL    HW298325  12.184   7.608  12.208
66101SOL     OW98326  11.762   8.935  11.663
66101SOL    HW198327  11.804   8.877  11.593
66101SOL    HW298328  11.718   9.014  11.619
66102SOL     OW98329  11.427   8.796  11.462
66102SOL    HW198330  11.331   8.797  11.435
66102SOL    HW298331  11.439   8.849  11.546
66103SOL     OW98332  11.277   8.461  12.898
66103SOL    HW198333  11.200   8.428  12.952
66103SOL    HW298334  11.362   8.431  12.940
66104SOL     OW98335  11.844   7.651  12.661
66104SOL    HW198336  11.934   7.635  12.621
66104SOL    HW298337  11.852   7.656  12.760
66105SOL     OW98338  11.247   7.793  11.205
66105SOL    HW198339  11.155   7.765  11.176
66105SOL    HW298340  11.278   7.870  11.149
66106SOL     OW98341  12.612   8.304  12.570
66106SOL    HW198342  12.555   8.356  12.507
66106SOL    HW298343  12.708   8.316  12.546
66107SOL     OW98344  11.244   7.614  11.490
66107SOL    HW198345  11.227   7.697  11.436
66107SOL    HW298346  11.334   7.577  11.468
66108SOL     OW98347  12.355   8.783  11.291
66108SOL    HW198348  12.256   8.772  11.293
66108SOL    HW298349  12.389   8.798  11.384
66109SOL     OW98350  11.785   8.290  12.603
66109SOL    HW198351  11.841   8.371  12.586
66109SOL    HW298352  11.844   8.210  12.606
66110SOL     OW98353  12.665   9.215  12.131
66110SOL    HW198354  12.698   9.279  12.062
66110SOL    HW298355  12.731   9.209  12.206
66111SOL     OW98356  11.888   8.013  12.880
66111SOL    HW198357  11.907   8.078  12.954
66111SOL    HW298358  11.948   7.933  12.889
66112SOL     OW98359  11.562   9.189  12.732
66112SOL    HW198360  11.471   9.230  12.730
66112SOL    HW298361  11.555   9.095  12.764
66113SOL     OW98362  12.397   7.773  11.621
66113SOL    HW198363  12.462   7.699  11.610
66113SOL    HW298364  12.417   7.823  11.705
66114SOL     OW98365  11.766   8.193  11.824
66114SOL    HW198366  11.816   8.278  11.805
66114SOL    HW298367  11.678   8.195  11.776
66115SOL     OW98368  12.031   8.822  11.188
66115SOL    HW198369  11.985   8.837  11.276
66115SOL    HW298370  12.075   8.907  11.158
66116SOL     OW98371  11.833   9.238  12.125
66116SOL    HW198372  11.787   9.326  12.112
66116SOL    HW298373  11.932   9.250  12.118
66117SOL     OW98374  12.031   8.404  12.033
66117SOL    HW198375  12.085   8.335  12.081
66117SOL    HW298376  11.999   8.473  12.099
66118SOL     OW98377  12.255   8.432  11.259
66118SOL    HW198378  12.232   8.485  11.177
66118SOL    HW298379  12.336   8.376  11.240
66119SOL     OW98380  13.033   9.017  12.023
66119SOL    HW198381  12.962   9.005  11.953
66119SOL    HW298382  13.034   8.938  12.083
66120SOL     OW98383  11.251   8.688  11.825
66120SOL    HW198384  11.250   8.641  11.913
66120SOL    HW298385  11.333   8.660  11.774
66121SOL     OW98386  11.844   8.839  12.796
66121SOL    HW198387  11.766   8.789  12.834
66121SOL    HW298388  11.841   8.934  12.827
66122SOL     OW98389  11.600   7.872  11.692
66122SOL    HW198390  11.630   7.800  11.630
66122SOL    HW298391  11.561   7.832  11.775
66123SOL     OW98392  11.489   7.995  12.452
66123SOL    HW198393  11.527   7.936  12.524
66123SOL    HW298394  11.529   7.969  12.364
66124SOL     OW98395  11.984   9.034  11.859
66124SOL    HW198396  12.016   9.044  11.765
66124SOL    HW298397  11.905   8.972  11.861
66125SOL     OW98398  12.596   7.662  12.284
66125SOL    HW198399  12.648   7.597  12.339
66125SOL    HW298400  12.547   7.725  12.345
66126SOL     OW98401  12.173   7.482  12.326
66126SOL    HW198402  12.110   7.410  12.295
66126SOL    HW298403  12.266   7.446  12.326
66127SOL     OW98404  11.942   8.778  11.473
66127SOL    HW198405  11.896   8.691  11.490
66127SOL    HW298406  12.033   8.775  11.514
66128SOL     OW98407  11.790   9.015  12.456
66128SOL    HW198408  11.785   9.097  12.513
66128SOL    HW298409  11.879   9.012  12.411
66129SOL     OW98410  12.524   7.500  11.340
66129SOL    HW198411  12.559   7.459  11.256
66129SOL    HW298412  12.434   7.462  11.360
66130SOL     OW98413  12.472   7.901  11.863
66130SOL    HW198414  12.413   7.981  11.867
66130SOL    HW298415  12.487   7.866  11.956
66131SOL     OW98416  12.765   7.669  12.054
66131SOL    HW198417  12.681   7.668  12.108
66131SOL    HW298418  12.767   7.752  11.998
66132SOL     OW98419  11.211   8.525  11.472
66132SOL    HW198420  11.310   8.514  11.463
66132SOL    HW298421  11.171   8.439  11.504
66133SOL     OW98422  12.047   9.094  11.509
66133SOL    HW198423  11.970   9.059  11.455
66133SOL    HW298424  12.015   9.165  11.571
66134SOL     OW98425  11.402   9.938   0.113
66134SOL    HW198426  11.309   9.936   0.150
66134SOL    HW298427  11.403   9.899   0.021
66135SOL     OW98428  11.397   9.585   0.996
66135SOL    HW198429  11.432   9.568   1.088
66135SOL    HW298430  11.309   9.540   0.984
66136SOL     OW98431  11.191   9.678   0.647
66136SOL    HW198432  11.109   9.721   0.686
66136SOL    HW298433  11.163   9.605   0.584
66137SOL     OW98434  11.741  10.585   1.165
66137SOL    HW198435  11.648  10.578   1.128
66137SOL    HW298436  11.752  10.674   1.209
66138SOL     OW98437  12.727  10.821   0.703
66138SOL    HW198438  12.670  10.805   0.784
66138SOL    HW298439  12.668  10.831   0.623
66139SOL     OW98440  12.307  10.013   0.717
66139SOL    HW198441  12.364  10.091   0.692
66139SOL    HW298442  12.247  10.039   0.793
66140SOL     OW98443  11.940  10.454   1.023
66140SOL    HW198444  11.862  10.471   1.083
66140SOL    HW298445  11.974  10.541   0.987
66141SOL     OW98446  12.022  10.108   1.823
66141SOL    HW198447  12.018  10.184   1.888
66141SOL    HW298448  12.044  10.144   1.732
66142SOL     OW98449  11.857  10.322   0.665
66142SOL    HW198450  11.926  10.306   0.735
66142SOL    HW298451  11.784  10.379   0.703
66143SOL     OW98452  11.858  10.471   1.803
66143SOL    HW198453  11.918  10.550   1.817
66143SOL    HW298454  11.772  10.502   1.762
66144SOL     OW98455  11.507  10.745   1.061
66144SOL    HW198456  11.429  10.714   1.008
66144SOL    HW298457  11.565  10.803   1.004
66145SOL     OW98458  12.632  10.815   1.339
66145SOL    HW198459  12.656  10.909   1.365
66145SOL    HW298460  12.616  10.761   1.421
66146SOL     OW98461  11.610   9.702   1.499
66146SOL    HW198462  11.692   9.646   1.508
66146SOL    HW298463  11.529   9.644   1.503
66147SOL     OW98464  11.403  11.023   0.483
66147SOL    HW198465  11.437  11.100   0.537
66147SOL    HW298466  11.447  11.023   0.393
66148SOL     OW98467  12.299  10.651   1.690
66148SOL    HW198468  12.346  10.651   1.778
66148SOL    HW298469  12.251  10.564   1.679
66149SOL     OW98470  11.402  10.744   0.538
66149SOL    HW198471  11.376  10.840   0.538
66149SOL    HW298472  11.331  10.690   0.583
66150SOL     OW98473  11.412  10.401   0.886
66150SOL    HW198474  11.426  10.317   0.938
66150SOL    HW298475  11.357  10.465   0.941
66151SOL     OW98476  11.792  11.096   1.439
66151SOL    HW198477  11.700  11.079   1.474
66151SOL    HW298478  11.820  11.188   1.465
66152SOL     OW98479  11.778  10.274   0.123
66152SOL    HW198480  11.785  10.358   0.069
66152SOL    HW298481  11.824  10.287   0.211
66153SOL     OW98482  12.766   9.424   1.480
66153SOL    HW198483  12.748   9.491   1.408
66153SOL    HW298484  12.763   9.470   1.569
66154SOL     OW98485  11.294   9.953   0.563
66154SOL    HW198486  11.249   9.865   0.580
66154SOL    HW298487  11.293  10.007   0.647
66155SOL     OW98488  11.199  10.906   0.117
66155SOL    HW198489  11.180  10.810   0.138
66155SOL    HW298490  11.166  10.964   0.192
66156SOL     OW98491  12.861  10.232   0.612
66156SOL    HW198492  12.956  10.203   0.620
66156SOL    HW298493  12.853  10.297   0.537
66157SOL     OW98494  11.285  10.047   1.597
66157SOL    HW198495  11.373  10.034   1.642
66157SOL    HW298496  11.272  10.144   1.575
66158SOL     OW98497  11.785  10.675   0.726
66158SOL    HW198498  11.736  10.588   0.735
66158SOL    HW298499  11.762  10.718   0.639
66159SOL     OW98500  12.465  10.538   1.423
66159SOL    HW198501  12.502  10.465   1.365
66159SOL    HW298502  12.517  10.543   1.508
66160SOL     OW98503  11.981   9.314   0.502
66160SOL    HW198504  12.021   9.405   0.493
66160SOL    HW298505  11.881   9.322   0.508
66161SOL     OW98506  11.369  10.286   1.264
66161SOL    HW198507  11.458  10.241   1.250
66161SOL    HW298508  11.296  10.221   1.245
66162SOL     OW98509  12.359  11.102   1.616
66162SOL    HW198510  12.383  11.162   1.540
66162SOL    HW298511  12.366  11.007   1.586
66163SOL     OW98512  11.489   9.561   1.801
66163SOL    HW198513  11.560   9.632   1.807
66163SOL    HW298514  11.401   9.600   1.829
66164SOL     OW98515  12.638  10.727   0.953
66164SOL    HW198516  12.579  10.733   1.033
66164SOL    HW298517  12.623  10.639   0.907
66165SOL     OW98518  12.839  11.024   0.572
66165SOL    HW198519  12.798  11.001   0.484
66165SOL    HW298520  12.821  10.950   0.637
66166SOL     OW98521  11.770  10.039   0.270
66166SOL    HW198522  11.794  10.108   0.202
66166SOL    HW298523  11.692  10.072   0.324
66167SOL     OW98524  12.453   9.655   0.944
66167SOL    HW198525  12.367   9.605   0.931
66167SOL    HW298526  12.515   9.601   1.000
66168SOL     OW98527  11.979   9.915   1.465
66168SOL    HW198528  11.932   9.912   1.554
66168SOL    HW298529  11.928   9.860   1.399
66169SOL     OW98530  12.566   9.779   1.674
66169SOL    HW198531  12.546   9.822   1.762
66169SOL    HW298532  12.644   9.717   1.683
66170SOL     OW98533  12.145  10.200   1.572
66170SOL    HW198534  12.191  10.116   1.543
66170SOL    HW298535  12.089  10.234   1.497
66171SOL     OW98536  12.163   9.720   1.242
66171SOL    HW198537  12.086   9.754   1.296
66171SOL    HW298538  12.129   9.669   1.163
66172SOL     OW98539  12.213  10.011   0.429
66172SOL    HW198540  12.239  10.007   0.525
66172SOL    HW298541  12.128   9.960   0.415
66173SOL     OW98542  11.248  10.121   0.789
66173SOL    HW198543  11.347  10.109   0.798
66173SOL    HW298544  11.224  10.216   0.810
66174SOL     OW98545  11.302  11.131   1.571
66174SOL    HW198546  11.292  11.116   1.670
66174SOL    HW298547  11.216  11.167   1.535
66175SOL     OW98548  12.037   9.658   0.195
66175SOL    HW198549  12.096   9.721   0.146
66175SOL    HW298550  12.056   9.564   0.166
66176SOL     OW98551  12.534  10.454   0.545
66176SOL    HW198552  12.617  10.425   0.497
66176SOL    HW298553  12.485  10.521   0.489
66177SOL     OW98554  11.722   9.506   0.885
66177SOL    HW198555  11.717   9.501   0.985
66177SOL    HW298556  11.724   9.602   0.856
66178SOL     OW98557  12.180  10.766   0.477
66178SOL    HW198558  12.134  10.838   0.425
66178SOL    HW298559  12.176  10.786   0.575
66179SOL     OW98560  11.523  11.111   0.853
66179SOL    HW198561  11.573  11.025   0.859
66179SOL    HW298562  11.588  11.188   0.850
66180SOL     OW98563  12.399  10.860   1.506
66180SOL    HW198564  12.405  10.783   1.570
66180SOL    HW298565  12.347  10.834   1.426
66181SOL     OW98566  11.493  10.253   0.242
66181SOL    HW198567  11.575  10.292   0.200
66181SOL    HW298568  11.466  10.171   0.193
66182SOL     OW98569  12.630  10.045   0.728
66182SOL    HW198570  12.625   9.980   0.803
66182SOL    HW298571  12.710  10.104   0.741
66183SOL     OW98572  11.633  10.576   1.727
66183SOL    HW198573  11.583  10.577   1.641
66183SOL    HW298574  11.570  10.558   1.803
66184SOL     OW98575  12.283  11.086   0.237
66184SOL    HW198576  12.223  11.024   0.287
66184SOL    HW298577  12.314  11.042   0.152
66185SOL     OW98578  11.374   9.595   1.498
66185SOL    HW198579  11.294   9.655   1.485
66185SOL    HW298580  11.364   9.546   1.584
66186SOL     OW98581  11.636  11.053   0.323
66186SOL    HW198582  11.669  11.092   0.409
66186SOL    HW298583  11.712  11.046   0.258
66187SOL     OW98584  12.572   9.417   0.426
66187SOL    HW198585  12.548   9.380   0.336
66187SOL    HW298586  12.671   9.433   0.430
66188SOL     OW98587  11.421  11.095   1.241
66188SOL    HW198588  11.478  11.030   1.291
66188SOL    HW298589  11.405  11.062   1.148
66189SOL     OW98590  12.112  11.008   0.904
66189SOL    HW198591  12.192  10.951   0.925
66189SOL    HW298592  12.063  10.968   0.827
66190SOL     OW98593  11.554  10.010   0.480
66190SOL    HW198594  11.599   9.920   0.477
66190SOL    HW298595  11.460   9.999   0.513
66191SOL     OW98596  11.786   9.432   0.117
66191SOL    HW198597  11.884   9.410   0.124
66191SOL    HW298598  11.755   9.415   0.024
66192SOL     OW98599  11.953   9.574   1.749
66192SOL    HW198600  12.020   9.513   1.792
66192SOL    HW298601  11.880   9.593   1.814
66193SOL     OW98602  12.060  10.824   1.195
66193SOL    HW198603  12.037  10.799   1.101
66193SOL    HW298604  12.121  10.755   1.234
66194SOL     OW98605  12.523   9.900   1.433
66194SOL    HW198606  12.551   9.857   1.518
66194SOL    HW298607  12.548   9.996   1.434
66195SOL     OW98608  11.975  10.712   0.924
66195SOL    HW198609  12.065  10.726   0.882
66195SOL    HW298610  11.904  10.714   0.853
66196SOL     OW98611  12.094   9.813   0.899
66196SOL    HW198612  12.069   9.804   0.803
66196SOL    HW298613  12.142   9.731   0.930
66197SOL     OW98614  11.711   9.374   0.512
66197SOL    HW198615  11.630   9.375   0.570
66197SOL    HW298616  11.714   9.457   0.457
66198SOL     OW98617  12.606  10.498   0.041
66198SOL    HW198618  12.638  10.422   0.098
66198SOL    HW298619  12.514  10.525   0.071
66199SOL     OW98620  11.469   9.345   0.171
66199SOL    HW198621  11.518   9.429   0.150
66199SOL    HW298622  11.531   9.280   0.216
66200SOL     OW98623  12.107   9.546   0.480
66200SOL    HW198624  12.059   9.587   0.402
66200SOL    HW298625  12.206   9.544   0.461
66201SOL     OW98626  12.248   9.993   1.464
66201SOL    HW198627  12.168   9.932   1.467
66201SOL    HW298628  12.329   9.940   1.440
66202SOL     OW98629  12.399  10.880   0.793
66202SOL    HW198630  12.420  10.954   0.728
66202SOL    HW298631  12.467  10.880   0.866
66203SOL     OW98632  11.631  10.462   0.741
66203SOL    HW198633  11.560  10.435   0.806
66203SOL    HW298634  11.605  10.434   0.648
66204SOL     OW98635  12.443  11.107   0.591
66204SOL    HW198636  12.487  11.171   0.527
66204SOL    HW298637  12.393  11.159   0.661
66205SOL     OW98638  12.204   9.859   0.016
66205SOL    HW198639  12.163   9.941  -0.023
66205SOL    HW298640  12.268   9.885   0.089
66206SOL     OW98641  11.250   9.866   1.386
66206SOL    HW198642  11.342   9.865   1.345
66206SOL    HW298643  11.244   9.940   1.453
66207SOL     OW98644  11.733   9.532   1.147
66207SOL    HW198645  11.771   9.448   1.184
66207SOL    HW298646  11.645   9.551   1.191
66208SOL     OW98647  12.038   9.764   0.642
66208SOL    HW198648  12.006   9.836   0.580
66208SOL    HW298649  12.062   9.683   0.589
66209SOL     OW98650  12.189   9.349   0.753
66209SOL    HW198651  12.117   9.354   0.684
66209SOL    HW298652  12.165   9.280   0.822
66210SOL     OW98653  12.601  10.483   0.867
66210SOL    HW198654  12.546  10.399   0.860
66210SOL    HW298655  12.627  10.512   0.775
66211SOL     OW98656  12.638   9.900   0.992
66211SOL    HW198657  12.608   9.805   0.999
66211SOL    HW298658  12.711   9.916   1.058
66212SOL     OW98659  11.660  10.695   0.174
66212SOL    HW198660  11.573  10.680   0.221
66212SOL    HW298661  11.643  10.721   0.079
66213SOL     OW98662  12.562   9.885   0.078
66213SOL    HW198663  12.508   9.864   0.159
66213SOL    HW298664  12.653   9.844   0.087
66214SOL     OW98665  11.699   9.566   0.328
66214SOL    HW198666  11.726   9.507   0.253
66214SOL    HW298667  11.699   9.661   0.297
66215SOL     OW98668  12.236  10.657   1.340
66215SOL    HW198669  12.156  10.634   1.395
66215SOL    HW298670  12.319  10.631   1.389
66216SOL     OW98671  12.764  10.939   1.625
66216SOL    HW198672  12.791  10.973   1.535
66216SOL    HW298673  12.843  10.901   1.671
66217SOL     OW98674  12.283  10.505   1.100
66217SOL    HW198675  12.243  10.549   1.181
66217SOL    HW298676  12.242  10.542   1.017
66218SOL     OW98677  12.087   9.399   1.402
66218SOL    HW198678  12.112   9.379   1.307
66218SOL    HW298679  12.159   9.455   1.444
66219SOL     OW98680  12.152  10.426   1.719
66219SOL    HW198681  12.053  10.432   1.729
66219SOL    HW298682  12.175  10.346   1.663
66220SOL     OW98683  11.877  10.360   0.368
66220SOL    HW198684  11.863  10.367   0.467
66220SOL    HW298685  11.961  10.309   0.350
66221SOL     OW98686  11.582  10.123   1.251
66221SOL    HW198687  11.668  10.135   1.301
66221SOL    HW298688  11.540  10.036   1.278
66222SOL     OW98689  12.446   9.696   1.262
66222SOL    HW198690  12.467   9.770   1.326
66222SOL    HW298691  12.357   9.713   1.219
66223SOL     OW98692  11.236  10.874   1.331
66223SOL    HW198693  11.190  10.956   1.297
66223SOL    HW298694  11.334  10.893   1.340
66224SOL     OW98695  11.539  10.410   0.501
66224SOL    HW198696  11.532  10.493   0.445
66224SOL    HW298697  11.543  10.330   0.441
66225SOL     OW98698  11.738   9.847   0.865
66225SOL    HW198699  11.750   9.913   0.791
66225SOL    HW298700  11.784   9.881   0.948
66226SOL     OW98701  12.424  10.658   0.388
66226SOL    HW198702  12.474  10.735   0.428
66226SOL    HW298703  12.329  10.660   0.420
66227SOL     OW98704  12.444  10.755   1.142
66227SOL    HW198705  12.491  10.768   1.229
66227SOL    HW298706  12.378  10.681   1.151
66228SOL     OW98707  12.754   9.949   0.472
66228SOL    HW198708  12.723  10.010   0.545
66228SOL    HW298709  12.804  10.001   0.403
66229SOL     OW98710  11.526  10.820   1.329
66229SOL    HW198711  11.505  10.776   1.242
66229SOL    HW298712  11.623  10.846   1.332
66230SOL     OW98713  11.574  10.061   1.598
66230SOL    HW198714  11.642  10.116   1.551
66230SOL    HW298715  11.614   9.973   1.625
66231SOL     OW98716  12.185   9.415   1.770
66231SOL    HW198717  12.191   9.500   1.718
66231SOL    HW298718  12.217   9.339   1.713
66232SOL     OW98719  11.676   9.360   1.740
66232SOL    HW198720  11.634   9.303   1.670
66232SOL    HW298721  11.610   9.429   1.772
66233SOL     OW98722  11.745  10.180   1.029
66233SOL    HW198723  11.789  10.269   1.020
66233SOL    HW298724  11.682  10.180   1.106
66234SOL     OW98725  12.532  10.172   1.045
66234SOL    HW198726  12.457  10.172   0.979
66234SOL    HW298727  12.569  10.080   1.054
66235SOL     OW98728  12.381   9.835   0.275
66235SOL    HW198729  12.394   9.751   0.329
66235SOL    HW298730  12.352   9.909   0.335
66236SOL     OW98731  11.479   9.523   1.231
66236SOL    HW198732  11.456   9.560   1.321
66236SOL    HW298733  11.449   9.428   1.225
66237SOL     OW98734  11.209  10.620   1.282
66237SOL    HW198735  11.262  10.571   1.350
66237SOL    HW298736  11.231  10.718   1.287
66238SOL     OW98737  11.904   9.944   1.064
66238SOL    HW198738  11.963   9.918   0.988
66238SOL    HW298739  11.876  10.040   1.053
66239SOL     OW98740  11.479   9.373   0.618
66239SOL    HW198741  11.468   9.467   0.651
66239SOL    HW298742  11.474   9.310   0.695
66240SOL     OW98743  12.794   9.677   0.374
66240SOL    HW198744  12.796   9.601   0.438
66240SOL    HW298745  12.746   9.754   0.414
66241SOL     OW98746  12.195  10.076   0.966
66241SOL    HW198747  12.210  10.097   1.062
66241SOL    HW298748  12.165   9.981   0.957
66242SOL     OW98749  12.152  10.883   1.700
66242SOL    HW198750  12.132  10.927   1.612
66242SOL    HW298751  12.191  10.792   1.684
66243SOL     OW98752  11.522  10.208   1.804
66243SOL    HW198753  11.598  10.252   1.852
66243SOL    HW298754  11.557  10.161   1.722
66244SOL     OW98755  12.712   9.584   0.125
66244SOL    HW198756  12.651   9.509   0.148
66244SOL    HW298757  12.734   9.636   0.208
66245SOL     OW98758  12.475  10.148   0.042
66245SOL    HW198759  12.509  10.055   0.057
66245SOL    HW298760  12.493  10.175  -0.053
66246SOL     OW98761  12.240  10.643   0.849
66246SOL    HW198762  12.247  10.559   0.794
66246SOL    HW298763  12.302  10.712   0.813
66247SOL     OW98764  11.491  10.120   0.949
66247SOL    HW198765  11.584  10.156   0.954
66247SOL    HW298766  11.485  10.035   1.001
66248SOL     OW98767  11.511   9.819   1.006
66248SOL    HW198768  11.459   9.736   0.989
66248SOL    HW298769  11.588   9.824   0.942
66249SOL     OW98770  12.310   9.690   1.678
66249SOL    HW198771  12.265   9.753   1.742
66249SOL    HW298772  12.403   9.721   1.661
66250SOL     OW98773  12.332   9.517   1.477
66250SOL    HW198774  12.332   9.581   1.554
66250SOL    HW298775  12.360   9.565   1.394
66251SOL     OW98776  11.180  10.636   0.200
66251SOL    HW198777  11.087  10.657   0.169
66251SOL    HW298778  11.190  10.537   0.213
66252SOL     OW98779  11.260  11.111   0.927
66252SOL    HW198780  11.218  11.025   0.900
66252SOL    HW298781  11.354  11.114   0.893
66253SOL     OW98782  11.676  10.878   0.910
66253SOL    HW198783  11.742  10.952   0.919
66253SOL    HW298784  11.720  10.799   0.868
66254SOL     OW98785  12.174  10.106   1.238
66254SOL    HW198786  12.215  10.074   1.324
66254SOL    HW298787  12.078  10.079   1.235
66255SOL     OW98788  11.212   9.854   1.114
66255SOL    HW198789  11.297   9.821   1.073
66255SOL    HW298790  11.225   9.869   1.212
66256SOL     OW98791  11.361   9.830   1.722
66256SOL    HW198792  11.420   9.790   1.652
66256SOL    HW298793  11.303   9.901   1.681
66257SOL     OW98794  12.541  10.260   1.660
66257SOL    HW198795  12.580  10.349   1.680
66257SOL    HW298796  12.551  10.240   1.563
66258SOL     OW98797  11.987   9.882   0.325
66258SOL    HW198798  11.994   9.793   0.279
66258SOL    HW298799  11.893   9.916   0.317
66259SOL     OW98800  11.424  10.874   1.744
66259SOL    HW198801  11.394  10.931   1.820
66259SOL    HW298802  11.417  10.777   1.770
66260SOL     OW98803  11.843   9.774   1.269
66260SOL    HW198804  11.809   9.685   1.239
66260SOL    HW298805  11.869   9.828   1.189
66261SOL     OW98806  12.102  10.988   1.465
66261SOL    HW198807  12.078  10.970   1.370
66261SOL    HW298808  12.132  11.082   1.475
66262SOL     OW98809  11.645   9.810   0.191
66262SOL    HW198810  11.706   9.890   0.195
66262SOL    HW298811  11.550   9.841   0.198
66263SOL     OW98812  11.331  10.447   1.466
66263SOL    HW198813  11.353  10.386   1.542
66263SOL    HW298814  11.341  10.398   1.380
66264SOL     OW98815  12.519  10.369   1.234
66264SOL    HW198816  12.543  10.306   1.160
66264SOL    HW298817  12.429  10.409   1.216
66265SOL     OW98818  12.474  10.165   0.309
66265SOL    HW198819  12.388  10.134   0.351
66265SOL    HW298820  12.470  10.151   0.210
66266SOL     OW98821  12.424  11.041   1.128
66266SOL    HW198822  12.508  11.046   1.074
66266SOL    HW298823  12.401  10.945   1.146
66267SOL     OW98824  11.255  10.568   1.022
66267SOL    HW198825  11.250  10.567   1.122
66267SOL    HW298826  11.172  10.527   0.984
66268SOL     OW98827  11.860  10.972   1.716
66268SOL    HW198828  11.804  11.053   1.725
66268SOL    HW298829  11.912  10.976   1.630
66269SOL     OW98830  12.075   9.396   0.133
66269SOL    HW198831  12.126   9.397   0.047
66269SOL    HW298832  12.131   9.354   0.204
66270SOL     OW98833  12.898   9.445   0.523
66270SOL    HW198834  12.971   9.428   0.456
66270SOL    HW298835  12.867   9.358   0.561
66271SOL     OW98836  12.560  10.883   0.477
66271SOL    HW198837  12.627  10.895   0.403
66271SOL    HW298838  12.520  10.972   0.500
66272SOL     OW98839  11.302  11.104   1.851
66272SOL    HW198840  11.261  11.030   1.904
66272SOL    HW298841  11.366  11.155   1.909
66273SOL     OW98842  12.452  10.237   0.672
66273SOL    HW198843  12.512  10.156   0.674
66273SOL    HW298844  12.492  10.306   0.612
66274SOL     OW98845  12.002  10.583   1.422
66274SOL    HW198846  11.997  10.616   1.517
66274SOL    HW298847  11.916  10.602   1.376
66275SOL     OW98848  11.844  10.926   0.154
66275SOL    HW198849  11.853  10.936   0.055
66275SOL    HW298850  11.804  10.837   0.175
66276SOL     OW98851  11.435   9.636   0.720
66276SOL    HW198852  11.356   9.687   0.686
66276SOL    HW298853  11.426   9.621   0.818
66277SOL     OW98854  12.366  10.922   0.031
66277SOL    HW198855  12.372  10.829   0.068
66277SOL    HW298856  12.307  10.922  -0.049
66278SOL     OW98857  11.994  10.312   1.372
66278SOL    HW198858  12.034  10.311   1.280
66278SOL    HW298859  12.004  10.404   1.412
66279SOL     OW98860  12.088  10.220   0.291
66279SOL    HW198861  12.151  10.258   0.223
66279SOL    HW298862  12.128  10.137   0.330
66280SOL     OW98863  12.676  10.917   0.044
66280SOL    HW198864  12.584  10.954   0.051
66280SOL    HW298865  12.714  10.937  -0.046
66281SOL     OW98866  11.544  10.598   1.490
66281SOL    HW198867  11.531  10.691   1.456
66281SOL    HW298868  11.460  10.546   1.477
66282SOL     OW98869  12.211  10.408   0.696
66282SOL    HW198870  12.141  10.361   0.750
66282SOL    HW298871  12.270  10.340   0.653
66283SOL     OW98872  12.186   9.546   0.971
66283SOL    HW198873  12.178   9.510   0.878
66283SOL    HW298874  12.184   9.470   1.036
66284SOL     OW98875  11.762  10.797   0.491
66284SOL    HW198876  11.804  10.739   0.421
66284SOL    HW298877  11.718  10.876   0.447
66285SOL     OW98878  11.427  10.658   0.290
66285SOL    HW198879  11.331  10.659   0.263
66285SOL    HW298880  11.439  10.711   0.374
66286SOL     OW98881  11.277  10.323   1.726
66286SOL    HW198882  11.200  10.290   1.780
66286SOL    HW298883  11.362  10.293   1.768
66287SOL     OW98884  11.844   9.513   1.489
66287SOL    HW198885  11.934   9.497   1.449
66287SOL    HW298886  11.852   9.518   1.588
66288SOL     OW98887  11.247   9.655   0.033
66288SOL    HW198888  11.155   9.627   0.004
66288SOL    HW298889  11.278   9.732  -0.023
66289SOL     OW98890  12.612  10.166   1.398
66289SOL    HW198891  12.555  10.218   1.335
66289SOL    HW298892  12.708  10.178   1.374
66290SOL     OW98893  11.244   9.476   0.318
66290SOL    HW198894  11.227   9.559   0.264
66290SOL    HW298895  11.334   9.439   0.296
66291SOL     OW98896  12.355  10.645   0.119
66291SOL    HW198897  12.256  10.634   0.121
66291SOL    HW298898  12.389  10.660   0.212
66292SOL     OW98899  12.665  11.077   0.959
66292SOL    HW198900  12.698  11.141   0.890
66292SOL    HW298901  12.731  11.071   1.034
66293SOL     OW98902  11.888   9.875   1.708
66293SOL    HW198903  11.907   9.940   1.782
66293SOL    HW298904  11.948   9.795   1.717
66294SOL     OW98905  12.622  10.530   1.633
66294SOL    HW198906  12.613  10.520   1.732
66294SOL    HW298907  12.718  10.523   1.607
66295SOL     OW98908  11.562  11.051   1.560
66295SOL    HW198909  11.471  11.092   1.558
66295SOL    HW298910  11.555  10.957   1.592
66296SOL     OW98911  12.397   9.635   0.449
66296SOL    HW198912  12.462   9.561   0.438
66296SOL    HW298913  12.417   9.685   0.533
66297SOL     OW98914  11.766  10.055   0.652
66297SOL    HW198915  11.816  10.140   0.633
66297SOL    HW298916  11.678  10.057   0.604
66298SOL     OW98917  12.031  10.684   0.016
66298SOL    HW198918  11.985  10.699   0.104
66298SOL    HW298919  12.075  10.769  -0.014
66299SOL     OW98920  11.833  11.100   0.953
66299SOL    HW198921  11.787  11.188   0.940
66299SOL    HW298922  11.932  11.112   0.946
66300SOL     OW98923  12.031  10.266   0.861
66300SOL    HW198924  12.085  10.197   0.909
66300SOL    HW298925  11.999  10.335   0.927
66301SOL     OW98926  12.255  10.294   0.087
66301SOL    HW198927  12.232  10.347   0.005
66301SOL    HW298928  12.336  10.238   0.068
66302SOL     OW98929  13.033  10.879   0.851
66302SOL    HW198930  12.962  10.867   0.781
66302SOL    HW298931  13.034  10.800   0.911
66303SOL     OW98932  11.393  10.624   1.844
66303SOL    HW198933  11.328  10.551   1.823
66303SOL    HW298934  11.397  10.638   1.942
66304SOL     OW98935  11.251  10.550   0.653
66304SOL    HW198936  11.250  10.503   0.741
66304SOL    HW298937  11.333  10.522   0.602
66305SOL     OW98938  11.844  10.701   1.624
66305SOL    HW198939  11.766  10.651   1.662
66305SOL    HW298940  11.841  10.796   1.655
66306SOL     OW98941  11.600   9.734   0.520
66306SOL    HW198942  11.630   9.662   0.458
66306SOL    HW298943  11.561   9.694   0.603
66307SOL     OW98944  11.489   9.857   1.280
66307SOL    HW198945  11.527   9.798   1.352
66307SOL    HW298946  11.529   9.831   1.192
66308SOL     OW98947  11.984  10.896   0.687
66308SOL    HW198948  12.016  10.906   0.593
66308SOL    HW298949  11.905  10.834   0.689
66309SOL     OW98950  12.596   9.524   1.112
66309SOL    HW198951  12.648   9.459   1.167
66309SOL    HW298952  12.547   9.587   1.173
66310SOL     OW98953  12.173   9.344   1.154
66310SOL    HW198954  12.110   9.272   1.123
66310SOL    HW298955  12.266   9.308   1.154
66311SOL     OW98956  11.942  10.640   0.301
66311SOL    HW198957  11.896  10.553   0.318
66311SOL    HW298958  12.033  10.637   0.342
66312SOL     OW98959  11.790  10.877   1.284
66312SOL    HW198960  11.785  10.959   1.341
66312SOL    HW298961  11.879  10.874   1.239
66313SOL     OW98962  12.524   9.362   0.168
66313SOL    HW198963  12.559   9.321   0.084
66313SOL    HW298964  12.434   9.324   0.188
66314SOL     OW98965  12.472   9.763   0.691
66314SOL    HW198966  12.413   9.843   0.695
66314SOL    HW298967  12.487   9.728   0.784
66315SOL     OW98968  12.765   9.531   0.882
66315SOL    HW198969  12.681   9.530   0.936
66315SOL    HW298970  12.767   9.614   0.826
66316SOL     OW98971  11.211  10.387   0.300
66316SOL    HW198972  11.310  10.376   0.291
66316SOL    HW298973  11.171  10.301   0.332
66317SOL     OW98974  12.047  10.956   0.337
66317SOL    HW198975  11.970  10.921   0.283
66317SOL    HW298976  12.015  11.027   0.399
66318SOL     OW98977  11.402   9.938   1.975
66318SOL    HW198978  11.309   9.936   2.012
66318SOL    HW298979  11.403   9.899   1.883
66319SOL     OW98980  11.397   9.585   2.858
66319SOL    HW198981  11.432   9.568   2.950
66319SOL    HW298982  11.309   9.540   2.846
66320SOL     OW98983  11.191   9.678   2.509
66320SOL    HW198984  11.109   9.721   2.548
66320SOL    HW298985  11.163   9.605   2.446
66321SOL     OW98986  11.741  10.585   3.027
66321SOL    HW198987  11.648  10.578   2.990
66321SOL    HW298988  11.752  10.674   3.071
66322SOL     OW98989  12.727  10.821   2.565
66322SOL    HW198990  12.670  10.805   2.646
66322SOL    HW298991  12.668  10.831   2.485
66323SOL     OW98992  12.307  10.013   2.579
66323SOL    HW198993  12.364  10.091   2.554
66323SOL    HW298994  12.247  10.039   2.655
66324SOL     OW98995  11.940  10.454   2.885
66324SOL    HW198996  11.862  10.471   2.945
66324SOL    HW298997  11.974  10.541   2.849
66325SOL     OW98998  12.022  10.108   3.685
66325SOL    HW198999  12.018  10.184   3.750
66325SOL    HW299000  12.044  10.144   3.594
66326SOL     OW99001  11.857  10.322   2.527
66326SOL    HW199002  11.926  10.306   2.597
66326SOL    HW299003  11.784  10.379   2.565
66327SOL     OW99004  11.858  10.471   3.665
66327SOL    HW199005  11.918  10.550   3.679
66327SOL    HW299006  11.772  10.502   3.624
66328SOL     OW99007  11.507  10.745   2.923
66328SOL    HW199008  11.429  10.714   2.870
66328SOL    HW299009  11.565  10.803   2.866
66329SOL     OW99010  12.632  10.815   3.201
66329SOL    HW199011  12.656  10.909   3.227
66329SOL    HW299012  12.616  10.761   3.283
66330SOL     OW99013  11.610   9.702   3.361
66330SOL    HW199014  11.692   9.646   3.370
66330SOL    HW299015  11.529   9.644   3.365
66331SOL     OW99016  11.403  11.023   2.345
66331SOL    HW199017  11.437  11.100   2.399
66331SOL    HW299018  11.447  11.023   2.255
66332SOL     OW99019  12.299  10.651   3.552
66332SOL    HW199020  12.346  10.651   3.640
66332SOL    HW299021  12.251  10.564   3.541
66333SOL     OW99022  11.402  10.744   2.400
66333SOL    HW199023  11.376  10.840   2.400
66333SOL    HW299024  11.331  10.690   2.445
66334SOL     OW99025  11.412  10.401   2.748
66334SOL    HW199026  11.426  10.317   2.800
66334SOL    HW299027  11.357  10.465   2.803
66335SOL     OW99028  11.792  11.096   3.301
66335SOL    HW199029  11.700  11.079   3.336
66335SOL    HW299030  11.820  11.188   3.327
66336SOL     OW99031  11.778  10.274   1.985
66336SOL    HW199032  11.785  10.358   1.931
66336SOL    HW299033  11.824  10.287   2.073
66337SOL     OW99034  12.766   9.424   3.342
66337SOL    HW199035  12.748   9.491   3.270
66337SOL    HW299036  12.763   9.470   3.431
66338SOL     OW99037  11.294   9.953   2.425
66338SOL    HW199038  11.249   9.865   2.442
66338SOL    HW299039  11.293  10.007   2.509
66339SOL     OW99040  11.199  10.906   1.979
66339SOL    HW199041  11.180  10.810   2.000
66339SOL    HW299042  11.166  10.964   2.054
66340SOL     OW99043  12.861  10.232   2.474
66340SOL    HW199044  12.956  10.203   2.482
66340SOL    HW299045  12.853  10.297   2.399
66341SOL     OW99046  11.285  10.047   3.459
66341SOL    HW199047  11.373  10.034   3.504
66341SOL    HW299048  11.272  10.144   3.437
66342SOL     OW99049  11.785  10.675   2.588
66342SOL    HW199050  11.736  10.588   2.597
66342SOL    HW299051  11.762  10.718   2.501
66343SOL     OW99052  12.465  10.538   3.285
66343SOL    HW199053  12.502  10.465   3.227
66343SOL    HW299054  12.517  10.543   3.370
66344SOL     OW99055  11.981   9.314   2.364
66344SOL    HW199056  12.021   9.405   2.355
66344SOL    HW299057  11.881   9.322   2.370
66345SOL     OW99058  11.369  10.286   3.126
66345SOL    HW199059  11.458  10.241   3.112
66345SOL    HW299060  11.296  10.221   3.107
66346SOL     OW99061  12.359  11.102   3.478
66346SOL    HW199062  12.383  11.162   3.402
66346SOL    HW299063  12.366  11.007   3.448
66347SOL     OW99064  11.489   9.561   3.663
66347SOL    HW199065  11.560   9.632   3.669
66347SOL    HW299066  11.401   9.600   3.691
66348SOL     OW99067  12.638  10.727   2.815
66348SOL    HW199068  12.579  10.733   2.895
66348SOL    HW299069  12.623  10.639   2.769
66349SOL     OW99070  12.839  11.024   2.434
66349SOL    HW199071  12.798  11.001   2.346
66349SOL    HW299072  12.821  10.950   2.499
66350SOL     OW99073  11.770  10.039   2.132
66350SOL    HW199074  11.794  10.108   2.064
66350SOL    HW299075  11.692  10.072   2.186
66351SOL     OW99076  12.453   9.655   2.806
66351SOL    HW199077  12.367   9.605   2.793
66351SOL    HW299078  12.515   9.601   2.862
66352SOL     OW99079  11.979   9.915   3.327
66352SOL    HW199080  11.932   9.912   3.416
66352SOL    HW299081  11.928   9.860   3.261
66353SOL     OW99082  12.566   9.779   3.536
66353SOL    HW199083  12.546   9.822   3.624
66353SOL    HW299084  12.644   9.717   3.545
66354SOL     OW99085  12.145  10.200   3.434
66354SOL    HW199086  12.191  10.116   3.405
66354SOL    HW299087  12.089  10.234   3.359
66355SOL     OW99088  12.163   9.720   3.104
66355SOL    HW199089  12.086   9.754   3.158
66355SOL    HW299090  12.129   9.669   3.025
66356SOL     OW99091  12.213  10.011   2.291
66356SOL    HW199092  12.239  10.007   2.387
66356SOL    HW299093  12.128   9.960   2.277
66357SOL     OW99094  11.248  10.121   2.651
66357SOL    HW199095  11.347  10.109   2.660
66357SOL    HW299096  11.224  10.216   2.672
66358SOL     OW99097  11.302  11.131   3.433
66358SOL    HW199098  11.292  11.116   3.532
66358SOL    HW299099  11.216  11.167   3.397
66359SOL     OW99100  12.037   9.658   2.057
66359SOL    HW199101  12.096   9.721   2.008
66359SOL    HW299102  12.056   9.564   2.028
66360SOL     OW99103  12.534  10.454   2.407
66360SOL    HW199104  12.617  10.425   2.359
66360SOL    HW299105  12.485  10.521   2.351
66361SOL     OW99106  11.722   9.506   2.747
66361SOL    HW199107  11.717   9.501   2.847
66361SOL    HW299108  11.724   9.602   2.718
66362SOL     OW99109  12.180  10.766   2.339
66362SOL    HW199110  12.134  10.838   2.287
66362SOL    HW299111  12.176  10.786   2.437
66363SOL     OW99112  11.523  11.111   2.715
66363SOL    HW199113  11.573  11.025   2.721
66363SOL    HW299114  11.588  11.188   2.712
66364SOL     OW99115  12.399  10.860   3.368
66364SOL    HW199116  12.405  10.783   3.432
66364SOL    HW299117  12.347  10.834   3.288
66365SOL     OW99118  11.493  10.253   2.104
66365SOL    HW199119  11.575  10.292   2.062
66365SOL    HW299120  11.466  10.171   2.055
66366SOL     OW99121  12.630  10.045   2.590
66366SOL    HW199122  12.625   9.980   2.665
66366SOL    HW299123  12.710  10.104   2.603
66367SOL     OW99124  11.633  10.576   3.589
66367SOL    HW199125  11.583  10.577   3.503
66367SOL    HW299126  11.570  10.558   3.665
66368SOL     OW99127  12.283  11.086   2.099
66368SOL    HW199128  12.223  11.024   2.149
66368SOL    HW299129  12.314  11.042   2.014
66369SOL     OW99130  11.374   9.595   3.360
66369SOL    HW199131  11.294   9.655   3.347
66369SOL    HW299132  11.364   9.546   3.446
66370SOL     OW99133  11.636  11.053   2.185
66370SOL    HW199134  11.669  11.092   2.271
66370SOL    HW299135  11.712  11.046   2.120
66371SOL     OW99136  12.572   9.417   2.288
66371SOL    HW199137  12.548   9.380   2.198
66371SOL    HW299138  12.671   9.433   2.292
66372SOL     OW99139  11.421  11.095   3.103
66372SOL    HW199140  11.478  11.030   3.153
66372SOL    HW299141  11.405  11.062   3.010
66373SOL     OW99142  12.112  11.008   2.766
66373SOL    HW199143  12.192  10.951   2.787
66373SOL    HW299144  12.063  10.968   2.689
66374SOL     OW99145  11.554  10.010   2.342
66374SOL    HW199146  11.599   9.920   2.339
66374SOL    HW299147  11.460   9.999   2.375
66375SOL     OW99148  11.786   9.432   1.979
66375SOL    HW199149  11.884   9.410   1.986
66375SOL    HW299150  11.755   9.415   1.886
66376SOL     OW99151  11.953   9.574   3.611
66376SOL    HW199152  12.020   9.513   3.654
66376SOL    HW299153  11.880   9.593   3.676
66377SOL     OW99154  12.060  10.824   3.057
66377SOL    HW199155  12.037  10.799   2.963
66377SOL    HW299156  12.121  10.755   3.096
66378SOL     OW99157  12.523   9.900   3.295
66378SOL    HW199158  12.551   9.857   3.380
66378SOL    HW299159  12.548   9.996   3.296
66379SOL     OW99160  11.975  10.712   2.786
66379SOL    HW199161  12.065  10.726   2.744
66379SOL    HW299162  11.904  10.714   2.715
66380SOL     OW99163  12.094   9.813   2.761
66380SOL    HW199164  12.069   9.804   2.665
66380SOL    HW299165  12.142   9.731   2.792
66381SOL     OW99166  11.711   9.374   2.374
66381SOL    HW199167  11.630   9.375   2.432
66381SOL    HW299168  11.714   9.457   2.319
66382SOL     OW99169  12.606  10.498   1.903
66382SOL    HW199170  12.638  10.422   1.960
66382SOL    HW299171  12.514  10.525   1.933
66383SOL     OW99172  11.469   9.345   2.033
66383SOL    HW199173  11.518   9.429   2.012
66383SOL    HW299174  11.531   9.280   2.078
66384SOL     OW99175  12.107   9.546   2.342
66384SOL    HW199176  12.059   9.587   2.264
66384SOL    HW299177  12.206   9.544   2.323
66385SOL     OW99178  12.248   9.993   3.326
66385SOL    HW199179  12.168   9.932   3.329
66385SOL    HW299180  12.329   9.940   3.302
66386SOL     OW99181  12.399  10.880   2.655
66386SOL    HW199182  12.420  10.954   2.590
66386SOL    HW299183  12.467  10.880   2.728
66387SOL     OW99184  11.631  10.462   2.603
66387SOL    HW199185  11.560  10.435   2.668
66387SOL    HW299186  11.605  10.434   2.510
66388SOL     OW99187  12.443  11.107   2.453
66388SOL    HW199188  12.487  11.171   2.389
66388SOL    HW299189  12.393  11.159   2.523
66389SOL     OW99190  12.204   9.859   1.878
66389SOL    HW199191  12.163   9.941   1.839
66389SOL    HW299192  12.268   9.885   1.951
66390SOL     OW99193  11.250   9.866   3.248
66390SOL    HW199194  11.342   9.865   3.207
66390SOL    HW299195  11.244   9.940   3.315
66391SOL     OW99196  11.733   9.532   3.009
66391SOL    HW199197  11.771   9.448   3.046
66391SOL    HW299198  11.645   9.551   3.053
66392SOL     OW99199  12.038   9.764   2.504
66392SOL    HW199200  12.006   9.836   2.442
66392SOL    HW299201  12.062   9.683   2.451
66393SOL     OW99202  12.189   9.349   2.615
66393SOL    HW199203  12.117   9.354   2.546
66393SOL    HW299204  12.165   9.280   2.684
66394SOL     OW99205  12.601  10.483   2.729
66394SOL    HW199206  12.546  10.399   2.722
66394SOL    HW299207  12.627  10.512   2.637
66395SOL     OW99208  12.638   9.900   2.854
66395SOL    HW199209  12.608   9.805   2.861
66395SOL    HW299210  12.711   9.916   2.920
66396SOL     OW99211  11.660  10.695   2.036
66396SOL    HW199212  11.573  10.680   2.083
66396SOL    HW299213  11.643  10.721   1.941
66397SOL     OW99214  12.562   9.885   1.940
66397SOL    HW199215  12.508   9.864   2.021
66397SOL    HW299216  12.653   9.844   1.949
66398SOL     OW99217  11.699   9.566   2.190
66398SOL    HW199218  11.726   9.507   2.115
66398SOL    HW299219  11.699   9.661   2.159
66399SOL     OW99220  12.236  10.657   3.202
66399SOL    HW199221  12.156  10.634   3.257
66399SOL    HW299222  12.319  10.631   3.251
66400SOL     OW99223  12.764  10.939   3.487
66400SOL    HW199224  12.791  10.973   3.397
66400SOL    HW299225  12.843  10.901   3.533
66401SOL     OW99226  12.283  10.505   2.962
66401SOL    HW199227  12.243  10.549   3.043
66401SOL    HW299228  12.242  10.542   2.879
66402SOL     OW99229  12.087   9.399   3.264
66402SOL    HW199230  12.112   9.379   3.169
66402SOL    HW299231  12.159   9.455   3.306
66403SOL     OW99232  12.152  10.426   3.581
66403SOL    HW199233  12.053  10.432   3.591
66403SOL    HW299234  12.175  10.346   3.525
66404SOL     OW99235  11.877  10.360   2.230
66404SOL    HW199236  11.863  10.367   2.329
66404SOL    HW299237  11.961  10.309   2.212
66405SOL     OW99238  11.582  10.123   3.113
66405SOL    HW199239  11.668  10.135   3.163
66405SOL    HW299240  11.540  10.036   3.140
66406SOL     OW99241  12.446   9.696   3.124
66406SOL    HW199242  12.467   9.770   3.188
66406SOL    HW299243  12.357   9.713   3.081
66407SOL     OW99244  11.236  10.874   3.193
66407SOL    HW199245  11.190  10.956   3.159
66407SOL    HW299246  11.334  10.893   3.202
66408SOL     OW99247  11.539  10.410   2.363
66408SOL    HW199248  11.532  10.493   2.307
66408SOL    HW299249  11.543  10.330   2.303
66409SOL     OW99250  11.738   9.847   2.727
66409SOL    HW199251  11.750   9.913   2.653
66409SOL    HW299252  11.784   9.881   2.810
66410SOL     OW99253  12.424  10.658   2.250
66410SOL    HW199254  12.474  10.735   2.290
66410SOL    HW299255  12.329  10.660   2.282
66411SOL     OW99256  12.444  10.755   3.004
66411SOL    HW199257  12.491  10.768   3.091
66411SOL    HW299258  12.378  10.681   3.013
66412SOL     OW99259  12.754   9.949   2.334
66412SOL    HW199260  12.723  10.010   2.407
66412SOL    HW299261  12.804  10.001   2.265
66413SOL     OW99262  11.526  10.820   3.191
66413SOL    HW199263  11.505  10.776   3.104
66413SOL    HW299264  11.623  10.846   3.194
66414SOL     OW99265  11.574  10.061   3.460
66414SOL    HW199266  11.642  10.116   3.413
66414SOL    HW299267  11.614   9.973   3.487
66415SOL     OW99268  12.185   9.415   3.632
66415SOL    HW199269  12.191   9.500   3.580
66415SOL    HW299270  12.217   9.339   3.575
66416SOL     OW99271  11.676   9.360   3.602
66416SOL    HW199272  11.634   9.303   3.532
66416SOL    HW299273  11.610   9.429   3.634
66417SOL     OW99274  11.745  10.180   2.891
66417SOL    HW199275  11.789  10.269   2.882
66417SOL    HW299276  11.682  10.180   2.968
66418SOL     OW99277  12.532  10.172   2.907
66418SOL    HW199278  12.457  10.172   2.841
66418SOL    HW299279  12.569  10.080   2.916
66419SOL     OW99280  12.381   9.835   2.137
66419SOL    HW199281  12.394   9.751   2.191
66419SOL    HW299282  12.352   9.909   2.197
66420SOL     OW99283  11.479   9.523   3.093
66420SOL    HW199284  11.456   9.560   3.183
66420SOL    HW299285  11.449   9.428   3.087
66421SOL     OW99286  11.209  10.620   3.144
66421SOL    HW199287  11.262  10.571   3.212
66421SOL    HW299288  11.231  10.718   3.149
66422SOL     OW99289  11.904   9.944   2.926
66422SOL    HW199290  11.963   9.918   2.850
66422SOL    HW299291  11.876  10.040   2.915
66423SOL     OW99292  11.479   9.373   2.480
66423SOL    HW199293  11.468   9.467   2.513
66423SOL    HW299294  11.474   9.310   2.557
66424SOL     OW99295  12.794   9.677   2.236
66424SOL    HW199296  12.796   9.601   2.300
66424SOL    HW299297  12.746   9.754   2.276
66425SOL     OW99298  12.195  10.076   2.828
66425SOL    HW199299  12.210  10.097   2.924
66425SOL    HW299300  12.165   9.981   2.819
66426SOL     OW99301  12.152  10.883   3.562
66426SOL    HW199302  12.132  10.927   3.474
66426SOL    HW299303  12.191  10.792   3.546
66427SOL     OW99304  11.522  10.208   3.666
66427SOL    HW199305  11.598  10.252   3.714
66427SOL    HW299306  11.557  10.161   3.584
66428SOL     OW99307  12.712   9.584   1.987
66428SOL    HW199308  12.651   9.509   2.010
66428SOL    HW299309  12.734   9.636   2.070
66429SOL     OW99310  12.475  10.148   1.904
66429SOL    HW199311  12.509  10.055   1.919
66429SOL    HW299312  12.493  10.175   1.809
66430SOL     OW99313  12.240  10.643   2.711
66430SOL    HW199314  12.247  10.559   2.656
66430SOL    HW299315  12.302  10.712   2.675
66431SOL     OW99316  11.491  10.120   2.811
66431SOL    HW199317  11.584  10.156   2.816
66431SOL    HW299318  11.485  10.035   2.863
66432SOL     OW99319  11.511   9.819   2.868
66432SOL    HW199320  11.459   9.736   2.851
66432SOL    HW299321  11.588   9.824   2.804
66433SOL     OW99322  12.310   9.690   3.540
66433SOL    HW199323  12.265   9.753   3.604
66433SOL    HW299324  12.403   9.721   3.523
66434SOL     OW99325  12.332   9.517   3.339
66434SOL    HW199326  12.332   9.581   3.416
66434SOL    HW299327  12.360   9.565   3.256
66435SOL     OW99328  11.180  10.636   2.062
66435SOL    HW199329  11.087  10.657   2.031
66435SOL    HW299330  11.190  10.537   2.075
66436SOL     OW99331  11.260  11.111   2.789
66436SOL    HW199332  11.218  11.025   2.762
66436SOL    HW299333  11.354  11.114   2.755
66437SOL     OW99334  11.676  10.878   2.772
66437SOL    HW199335  11.742  10.952   2.781
66437SOL    HW299336  11.720  10.799   2.730
66438SOL     OW99337  12.174  10.106   3.100
66438SOL    HW199338  12.215  10.074   3.186
66438SOL    HW299339  12.078  10.079   3.097
66439SOL     OW99340  11.212   9.854   2.976
66439SOL    HW199341  11.297   9.821   2.935
66439SOL    HW299342  11.225   9.869   3.074
66440SOL     OW99343  11.361   9.830   3.584
66440SOL    HW199344  11.420   9.790   3.514
66440SOL    HW299345  11.303   9.901   3.543
66441SOL     OW99346  12.541  10.260   3.522
66441SOL    HW199347  12.580  10.349   3.542
66441SOL    HW299348  12.551  10.240   3.425
66442SOL     OW99349  11.987   9.882   2.187
66442SOL    HW199350  11.994   9.793   2.141
66442SOL    HW299351  11.893   9.916   2.179
66443SOL     OW99352  11.424  10.874   3.606
66443SOL    HW199353  11.394  10.931   3.682
66443SOL    HW299354  11.417  10.777   3.632
66444SOL     OW99355  11.843   9.774   3.131
66444SOL    HW199356  11.809   9.685   3.101
66444SOL    HW299357  11.869   9.828   3.051
66445SOL     OW99358  12.102  10.988   3.327
66445SOL    HW199359  12.078  10.970   3.232
66445SOL    HW299360  12.132  11.082   3.337
66446SOL     OW99361  11.645   9.810   2.053
66446SOL    HW199362  11.706   9.890   2.057
66446SOL    HW299363  11.550   9.841   2.060
66447SOL     OW99364  11.331  10.447   3.328
66447SOL    HW199365  11.353  10.386   3.404
66447SOL    HW299366  11.341  10.398   3.242
66448SOL     OW99367  12.519  10.369   3.096
66448SOL    HW199368  12.543  10.306   3.022
66448SOL    HW299369  12.429  10.409   3.078
66449SOL     OW99370  12.474  10.165   2.171
66449SOL    HW199371  12.388  10.134   2.213
66449SOL    HW299372  12.470  10.151   2.072
66450SOL     OW99373  12.424  11.041   2.990
66450SOL    HW199374  12.508  11.046   2.936
66450SOL    HW299375  12.401  10.945   3.008
66451SOL     OW99376  11.255  10.568   2.884
66451SOL    HW199377  11.250  10.567   2.984
66451SOL    HW299378  11.172  10.527   2.846
66452SOL     OW99379  11.860  10.972   3.578
66452SOL    HW199380  11.804  11.053   3.587
66452SOL    HW299381  11.912  10.976   3.492
66453SOL     OW99382  12.898   9.445   2.385
66453SOL    HW199383  12.971   9.428   2.318
66453SOL    HW299384  12.867   9.358   2.423
66454SOL     OW99385  12.560  10.883   2.339
66454SOL    HW199386  12.627  10.895   2.265
66454SOL    HW299387  12.520  10.972   2.362
66455SOL     OW99388  11.302  11.104   3.713
66455SOL    HW199389  11.261  11.030   3.766
66455SOL    HW299390  11.366  11.155   3.771
66456SOL     OW99391  12.452  10.237   2.534
66456SOL    HW199392  12.512  10.156   2.536
66456SOL    HW299393  12.492  10.306   2.474
66457SOL     OW99394  12.002  10.583   3.284
66457SOL    HW199395  11.997  10.616   3.379
66457SOL    HW299396  11.916  10.602   3.238
66458SOL     OW99397  11.844  10.926   2.016
66458SOL    HW199398  11.853  10.936   1.917
66458SOL    HW299399  11.804  10.837   2.037
66459SOL     OW99400  11.435   9.636   2.582
66459SOL    HW199401  11.356   9.687   2.548
66459SOL    HW299402  11.426   9.621   2.680
66460SOL     OW99403  12.366  10.922   1.893
66460SOL    HW199404  12.372  10.829   1.930
66460SOL    HW299405  12.307  10.922   1.813
66461SOL     OW99406  11.994  10.312   3.234
66461SOL    HW199407  12.034  10.311   3.142
66461SOL    HW299408  12.004  10.404   3.274
66462SOL     OW99409  12.088  10.220   2.153
66462SOL    HW199410  12.151  10.258   2.085
66462SOL    HW299411  12.128  10.137   2.192
66463SOL     OW99412  12.676  10.917   1.906
66463SOL    HW199413  12.584  10.954   1.913
66463SOL    HW299414  12.714  10.937   1.816
66464SOL     OW99415  11.544  10.598   3.352
66464SOL    HW199416  11.531  10.691   3.318
66464SOL    HW299417  11.460  10.546   3.339
66465SOL     OW99418  12.211  10.408   2.558
66465SOL    HW199419  12.141  10.361   2.612
66465SOL    HW299420  12.270  10.340   2.515
66466SOL     OW99421  12.186   9.546   2.833
66466SOL    HW199422  12.178   9.510   2.740
66466SOL    HW299423  12.184   9.470   2.898
66467SOL     OW99424  11.762  10.797   2.353
66467SOL    HW199425  11.804  10.739   2.283
66467SOL    HW299426  11.718  10.876   2.309
66468SOL     OW99427  11.427  10.658   2.152
66468SOL    HW199428  11.331  10.659   2.125
66468SOL    HW299429  11.439  10.711   2.236
66469SOL     OW99430  11.277  10.323   3.588
66469SOL    HW199431  11.200  10.290   3.642
66469SOL    HW299432  11.362  10.293   3.630
66470SOL     OW99433  11.844   9.513   3.351
66470SOL    HW199434  11.934   9.497   3.311
66470SOL    HW299435  11.852   9.518   3.450
66471SOL     OW99436  11.247   9.655   1.895
66471SOL    HW199437  11.155   9.627   1.866
66471SOL    HW299438  11.278   9.732   1.839
66472SOL     OW99439  12.612  10.166   3.260
66472SOL    HW199440  12.555  10.218   3.197
66472SOL    HW299441  12.708  10.178   3.236
66473SOL     OW99442  11.244   9.476   2.180
66473SOL    HW199443  11.227   9.559   2.126
66473SOL    HW299444  11.334   9.439   2.158
66474SOL     OW99445  12.355  10.645   1.981
66474SOL    HW199446  12.256  10.634   1.983
66474SOL    HW299447  12.389  10.660   2.074
66475SOL     OW99448  11.785  10.152   3.293
66475SOL    HW199449  11.841  10.233   3.276
66475SOL    HW299450  11.844  10.072   3.296
66476SOL     OW99451  12.665  11.077   2.821
66476SOL    HW199452  12.698  11.141   2.752
66476SOL    HW299453  12.731  11.071   2.896
66477SOL     OW99454  11.888   9.875   3.570
66477SOL    HW199455  11.907   9.940   3.644
66477SOL    HW299456  11.948   9.795   3.579
66478SOL     OW99457  12.622  10.530   3.495
66478SOL    HW199458  12.613  10.520   3.594
66478SOL    HW299459  12.718  10.523   3.469
66479SOL     OW99460  11.562  11.051   3.422
66479SOL    HW199461  11.471  11.092   3.420
66479SOL    HW299462  11.555  10.957   3.454
66480SOL     OW99463  12.397   9.635   2.311
66480SOL    HW199464  12.462   9.561   2.300
66480SOL    HW299465  12.417   9.685   2.395
66481SOL     OW99466  11.766  10.055   2.514
66481SOL    HW199467  11.816  10.140   2.495
66481SOL    HW299468  11.678  10.057   2.466
66482SOL     OW99469  12.031  10.684   1.878
66482SOL    HW199470  11.985  10.699   1.966
66482SOL    HW299471  12.075  10.769   1.848
66483SOL     OW99472  11.833  11.100   2.815
66483SOL    HW199473  11.787  11.188   2.802
66483SOL    HW299474  11.932  11.112   2.808
66484SOL     OW99475  12.031  10.266   2.723
66484SOL    HW199476  12.085  10.197   2.771
66484SOL    HW299477  11.999  10.335   2.789
66485SOL     OW99478  12.255  10.294   1.949
66485SOL    HW199479  12.232  10.347   1.867
66485SOL    HW299480  12.336  10.238   1.930
66486SOL     OW99481  13.033  10.879   2.713
66486SOL    HW199482  12.962  10.867   2.643
66486SOL    HW299483  13.034  10.800   2.773
66487SOL     OW99484  11.393  10.624   3.706
66487SOL    HW199485  11.328  10.551   3.685
66487SOL    HW299486  11.397  10.638   3.804
66488SOL     OW99487  11.251  10.550   2.515
66488SOL    HW199488  11.250  10.503   2.603
66488SOL    HW299489  11.333  10.522   2.464
66489SOL     OW99490  11.844  10.701   3.486
66489SOL    HW199491  11.766  10.651   3.524
66489SOL    HW299492  11.841  10.796   3.517
66490SOL     OW99493  11.600   9.734   2.382
66490SOL    HW199494  11.630   9.662   2.320
66490SOL    HW299495  11.561   9.694   2.465
66491SOL     OW99496  11.489   9.857   3.142
66491SOL    HW199497  11.527   9.798   3.214
66491SOL    HW299498  11.529   9.831   3.054
66492SOL     OW99499  11.984  10.896   2.549
66492SOL    HW199500  12.016  10.906   2.455
66492SOL    HW299501  11.905  10.834   2.551
66493SOL     OW99502  12.596   9.524   2.974
66493SOL    HW199503  12.648   9.459   3.029
66493SOL    HW299504  12.547   9.587   3.035
66494SOL     OW99505  12.173   9.344   3.016
66494SOL    HW199506  12.110   9.272   2.985
66494SOL    HW299507  12.266   9.308   3.016
66495SOL     OW99508  11.942  10.640   2.163
66495SOL    HW199509  11.896  10.553   2.180
66495SOL    HW299510  12.033  10.637   2.204
66496SOL     OW99511  11.790  10.877   3.146
66496SOL    HW199512  11.785  10.959   3.203
66496SOL    HW299513  11.879  10.874   3.101
66497SOL     OW99514  12.524   9.362   2.030
66497SOL    HW199515  12.559   9.321   1.946
66497SOL    HW299516  12.434   9.324   2.050
66498SOL     OW99517  12.472   9.763   2.553
66498SOL    HW199518  12.413   9.843   2.557
66498SOL    HW299519  12.487   9.728   2.646
66499SOL     OW99520  12.765   9.531   2.744
66499SOL    HW199521  12.681   9.530   2.798
66499SOL    HW299522  12.767   9.614   2.688
66500SOL     OW99523  11.211  10.387   2.162
66500SOL    HW199524  11.310  10.376   2.153
66500SOL    HW299525  11.171  10.301   2.194
66501SOL     OW99526  12.047  10.956   2.199
66501SOL    HW199527  11.970  10.921   2.145
66501SOL    HW299528  12.015  11.027   2.261
66502SOL     OW99529  11.402   9.938   3.837
66502SOL    HW199530  11.309   9.936   3.874
66502SOL    HW299531  11.403   9.899   3.745
66503SOL     OW99532  11.397   9.585   4.720
66503SOL    HW199533  11.432   9.568   4.812
66503SOL    HW299534  11.309   9.540   4.708
66504SOL     OW99535  11.191   9.678   4.371
66504SOL    HW199536  11.109   9.721   4.410
66504SOL    HW299537  11.163   9.605   4.308
66505SOL     OW99538  11.741  10.585   4.889
66505SOL    HW199539  11.648  10.578   4.852
66505SOL    HW299540  11.752  10.674   4.933
66506SOL     OW99541  12.727  10.821   4.427
66506SOL    HW199542  12.670  10.805   4.508
66506SOL    HW299543  12.668  10.831   4.347
66507SOL     OW99544  12.307  10.013   4.441
66507SOL    HW199545  12.364  10.091   4.416
66507SOL    HW299546  12.247  10.039   4.517
66508SOL     OW99547  11.940  10.454   4.747
66508SOL    HW199548  11.862  10.471   4.807
66508SOL    HW299549  11.974  10.541   4.711
66509SOL     OW99550  12.022  10.108   5.547
66509SOL    HW199551  12.018  10.184   5.612
66509SOL    HW299552  12.044  10.144   5.456
66510SOL     OW99553  11.857  10.322   4.389
66510SOL    HW199554  11.926  10.306   4.459
66510SOL    HW299555  11.784  10.379   4.427
66511SOL     OW99556  11.858  10.471   5.527
66511SOL    HW199557  11.918  10.550   5.541
66511SOL    HW299558  11.772  10.502   5.486
66512SOL     OW99559  11.507  10.745   4.785
66512SOL    HW199560  11.429  10.714   4.732
66512SOL    HW299561  11.565  10.803   4.728
66513SOL     OW99562  12.632  10.815   5.063
66513SOL    HW199563  12.656  10.909   5.089
66513SOL    HW299564  12.616  10.761   5.145
66514SOL     OW99565  11.610   9.702   5.223
66514SOL    HW199566  11.692   9.646   5.232
66514SOL    HW299567  11.529   9.644   5.227
66515SOL     OW99568  11.403  11.023   4.207
66515SOL    HW199569  11.437  11.100   4.261
66515SOL    HW299570  11.447  11.023   4.117
66516SOL     OW99571  12.299  10.651   5.414
66516SOL    HW199572  12.346  10.651   5.502
66516SOL    HW299573  12.251  10.564   5.403
66517SOL     OW99574  11.402  10.744   4.262
66517SOL    HW199575  11.376  10.840   4.262
66517SOL    HW299576  11.331  10.690   4.307
66518SOL     OW99577  11.412  10.401   4.610
66518SOL    HW199578  11.426  10.317   4.662
66518SOL    HW299579  11.357  10.465   4.665
66519SOL     OW99580  11.792  11.096   5.163
66519SOL    HW199581  11.700  11.079   5.198
66519SOL    HW299582  11.820  11.188   5.189
66520SOL     OW99583  11.778  10.274   3.847
66520SOL    HW199584  11.785  10.358   3.793
66520SOL    HW299585  11.824  10.287   3.935
66521SOL     OW99586  12.766   9.424   5.204
66521SOL    HW199587  12.748   9.491   5.132
66521SOL    HW299588  12.763   9.470   5.293
66522SOL     OW99589  11.294   9.953   4.287
66522SOL    HW199590  11.249   9.865   4.304
66522SOL    HW299591  11.293  10.007   4.371
66523SOL     OW99592  11.199  10.906   3.841
66523SOL    HW199593  11.180  10.810   3.862
66523SOL    HW299594  11.166  10.964   3.916
66524SOL     OW99595  12.861  10.232   4.336
66524SOL    HW199596  12.956  10.203   4.344
66524SOL    HW299597  12.853  10.297   4.261
66525SOL     OW99598  11.285  10.047   5.321
66525SOL    HW199599  11.373  10.034   5.366
66525SOL    HW299600  11.272  10.144   5.299
66526SOL     OW99601  11.785  10.675   4.450
66526SOL    HW199602  11.736  10.588   4.459
66526SOL    HW299603  11.762  10.718   4.363
66527SOL     OW99604  12.465  10.538   5.147
66527SOL    HW199605  12.502  10.465   5.089
66527SOL    HW299606  12.517  10.543   5.232
66528SOL     OW99607  11.981   9.314   4.226
66528SOL    HW199608  12.021   9.405   4.217
66528SOL    HW299609  11.881   9.322   4.232
66529SOL     OW99610  11.369  10.286   4.988
66529SOL    HW199611  11.458  10.241   4.974
66529SOL    HW299612  11.296  10.221   4.969
66530SOL     OW99613  12.359  11.102   5.340
66530SOL    HW199614  12.383  11.162   5.264
66530SOL    HW299615  12.366  11.007   5.310
66531SOL     OW99616  11.489   9.561   5.525
66531SOL    HW199617  11.560   9.632   5.531
66531SOL    HW299618  11.401   9.600   5.553
66532SOL     OW99619  12.638  10.727   4.677
66532SOL    HW199620  12.579  10.733   4.757
66532SOL    HW299621  12.623  10.639   4.631
66533SOL     OW99622  12.839  11.024   4.296
66533SOL    HW199623  12.798  11.001   4.208
66533SOL    HW299624  12.821  10.950   4.361
66534SOL     OW99625  11.770  10.039   3.994
66534SOL    HW199626  11.794  10.108   3.926
66534SOL    HW299627  11.692  10.072   4.048
66535SOL     OW99628  12.453   9.655   4.668
66535SOL    HW199629  12.367   9.605   4.655
66535SOL    HW299630  12.515   9.601   4.724
66536SOL     OW99631  11.979   9.915   5.189
66536SOL    HW199632  11.932   9.912   5.278
66536SOL    HW299633  11.928   9.860   5.123
66537SOL     OW99634  12.566   9.779   5.398
66537SOL    HW199635  12.546   9.822   5.486
66537SOL    HW299636  12.644   9.717   5.407
66538SOL     OW99637  12.145  10.200   5.296
66538SOL    HW199638  12.191  10.116   5.267
66538SOL    HW299639  12.089  10.234   5.221
66539SOL     OW99640  12.163   9.720   4.966
66539SOL    HW199641  12.086   9.754   5.020
66539SOL    HW299642  12.129   9.669   4.887
66540SOL     OW99643  12.213  10.011   4.153
66540SOL    HW199644  12.239  10.007   4.249
66540SOL    HW299645  12.128   9.960   4.139
66541SOL     OW99646  11.248  10.121   4.513
66541SOL    HW199647  11.347  10.109   4.522
66541SOL    HW299648  11.224  10.216   4.534
66542SOL     OW99649  11.302  11.131   5.295
66542SOL    HW199650  11.292  11.116   5.394
66542SOL    HW299651  11.216  11.167   5.259
66543SOL     OW99652  12.037   9.658   3.919
66543SOL    HW199653  12.096   9.721   3.870
66543SOL    HW299654  12.056   9.564   3.890
66544SOL     OW99655  12.534  10.454   4.269
66544SOL    HW199656  12.617  10.425   4.221
66544SOL    HW299657  12.485  10.521   4.213
66545SOL     OW99658  11.722   9.506   4.609
66545SOL    HW199659  11.717   9.501   4.709
66545SOL    HW299660  11.724   9.602   4.580
66546SOL     OW99661  12.180  10.766   4.201
66546SOL    HW199662  12.134  10.838   4.149
66546SOL    HW299663  12.176  10.786   4.299
66547SOL     OW99664  11.523  11.111   4.577
66547SOL    HW199665  11.573  11.025   4.583
66547SOL    HW299666  11.588  11.188   4.574
66548SOL     OW99667  12.399  10.860   5.230
66548SOL    HW199668  12.405  10.783   5.294
66548SOL    HW299669  12.347  10.834   5.150
66549SOL     OW99670  11.493  10.253   3.966
66549SOL    HW199671  11.575  10.292   3.924
66549SOL    HW299672  11.466  10.171   3.917
66550SOL     OW99673  12.630  10.045   4.452
66550SOL    HW199674  12.625   9.980   4.527
66550SOL    HW299675  12.710  10.104   4.465
66551SOL     OW99676  11.633  10.576   5.451
66551SOL    HW199677  11.583  10.577   5.365
66551SOL    HW299678  11.570  10.558   5.527
66552SOL     OW99679  12.283  11.086   3.961
66552SOL    HW199680  12.223  11.024   4.011
66552SOL    HW299681  12.314  11.042   3.876
66553SOL     OW99682  11.374   9.595   5.222
66553SOL    HW199683  11.294   9.655   5.209
66553SOL    HW299684  11.364   9.546   5.308
66554SOL     OW99685  11.636  11.053   4.047
66554SOL    HW199686  11.669  11.092   4.133
66554SOL    HW299687  11.712  11.046   3.982
66555SOL     OW99688  12.572   9.417   4.150
66555SOL    HW199689  12.548   9.380   4.060
66555SOL    HW299690  12.671   9.433   4.154
66556SOL     OW99691  11.421  11.095   4.965
66556SOL    HW199692  11.478  11.030   5.015
66556SOL    HW299693  11.405  11.062   4.872
66557SOL     OW99694  12.112  11.008   4.628
66557SOL    HW199695  12.192  10.951   4.649
66557SOL    HW299696  12.063  10.968   4.551
66558SOL     OW99697  11.554  10.010   4.204
66558SOL    HW199698  11.599   9.920   4.201
66558SOL    HW299699  11.460   9.999   4.237
66559SOL     OW99700  11.786   9.432   3.841
66559SOL    HW199701  11.884   9.410   3.848
66559SOL    HW299702  11.755   9.415   3.748
66560SOL     OW99703  11.953   9.574   5.473
66560SOL    HW199704  12.020   9.513   5.516
66560SOL    HW299705  11.880   9.593   5.538
66561SOL     OW99706  12.060  10.824   4.919
66561SOL    HW199707  12.037  10.799   4.825
66561SOL    HW299708  12.121  10.755   4.958
66562SOL     OW99709  12.523   9.900   5.157
66562SOL    HW199710  12.551   9.857   5.242
66562SOL    HW299711  12.548   9.996   5.158
66563SOL     OW99712  11.975  10.712   4.648
66563SOL    HW199713  12.065  10.726   4.606
66563SOL    HW299714  11.904  10.714   4.577
66564SOL     OW99715  12.094   9.813   4.623
66564SOL    HW199716  12.069   9.804   4.527
66564SOL    HW299717  12.142   9.731   4.654
66565SOL     OW99718  11.711   9.374   4.236
66565SOL    HW199719  11.630   9.375   4.294
66565SOL    HW299720  11.714   9.457   4.181
66566SOL     OW99721  12.606  10.498   3.765
66566SOL    HW199722  12.638  10.422   3.822
66566SOL    HW299723  12.514  10.525   3.795
66567SOL     OW99724  11.469   9.345   3.895
66567SOL    HW199725  11.518   9.429   3.874
66567SOL    HW299726  11.531   9.280   3.940
66568SOL     OW99727  12.107   9.546   4.204
66568SOL    HW199728  12.059   9.587   4.126
66568SOL    HW299729  12.206   9.544   4.185
66569SOL     OW99730  12.248   9.993   5.188
66569SOL    HW199731  12.168   9.932   5.191
66569SOL    HW299732  12.329   9.940   5.164
66570SOL     OW99733  12.399  10.880   4.517
66570SOL    HW199734  12.420  10.954   4.452
66570SOL    HW299735  12.467  10.880   4.590
66571SOL     OW99736  11.631  10.462   4.465
66571SOL    HW199737  11.560  10.435   4.530
66571SOL    HW299738  11.605  10.434   4.372
66572SOL     OW99739  12.443  11.107   4.315
66572SOL    HW199740  12.487  11.171   4.251
66572SOL    HW299741  12.393  11.159   4.385
66573SOL     OW99742  12.204   9.859   3.740
66573SOL    HW199743  12.163   9.941   3.701
66573SOL    HW299744  12.268   9.885   3.813
66574SOL     OW99745  11.250   9.866   5.110
66574SOL    HW199746  11.342   9.865   5.069
66574SOL    HW299747  11.244   9.940   5.177
66575SOL     OW99748  11.733   9.532   4.871
66575SOL    HW199749  11.771   9.448   4.908
66575SOL    HW299750  11.645   9.551   4.915
66576SOL     OW99751  12.038   9.764   4.366
66576SOL    HW199752  12.006   9.836   4.304
66576SOL    HW299753  12.062   9.683   4.313
66577SOL     OW99754  12.189   9.349   4.477
66577SOL    HW199755  12.117   9.354   4.408
66577SOL    HW299756  12.165   9.280   4.546
66578SOL     OW99757  12.601  10.483   4.591
66578SOL    HW199758  12.546  10.399   4.584
66578SOL    HW299759  12.627  10.512   4.499
66579SOL     OW99760  12.638   9.900   4.716
66579SOL    HW199761  12.608   9.805   4.723
66579SOL    HW299762  12.711   9.916   4.782
66580SOL     OW99763  11.660  10.695   3.898
66580SOL    HW199764  11.573  10.680   3.945
66580SOL    HW299765  11.643  10.721   3.803
66581SOL     OW99766  12.562   9.885   3.802
66581SOL    HW199767  12.508   9.864   3.883
66581SOL    HW299768  12.653   9.844   3.811
66582SOL     OW99769  11.699   9.566   4.052
66582SOL    HW199770  11.726   9.507   3.977
66582SOL    HW299771  11.699   9.661   4.021
66583SOL     OW99772  12.236  10.657   5.064
66583SOL    HW199773  12.156  10.634   5.119
66583SOL    HW299774  12.319  10.631   5.113
66584SOL     OW99775  12.764  10.939   5.349
66584SOL    HW199776  12.791  10.973   5.259
66584SOL    HW299777  12.843  10.901   5.395
66585SOL     OW99778  12.283  10.505   4.824
66585SOL    HW199779  12.243  10.549   4.905
66585SOL    HW299780  12.242  10.542   4.741
66586SOL     OW99781  12.087   9.399   5.126
66586SOL    HW199782  12.112   9.379   5.031
66586SOL    HW299783  12.159   9.455   5.168
66587SOL     OW99784  12.152  10.426   5.443
66587SOL    HW199785  12.053  10.432   5.453
66587SOL    HW299786  12.175  10.346   5.387
66588SOL     OW99787  11.877  10.360   4.092
66588SOL    HW199788  11.863  10.367   4.191
66588SOL    HW299789  11.961  10.309   4.074
66589SOL     OW99790  11.582  10.123   4.975
66589SOL    HW199791  11.668  10.135   5.025
66589SOL    HW299792  11.540  10.036   5.002
66590SOL     OW99793  12.446   9.696   4.986
66590SOL    HW199794  12.467   9.770   5.050
66590SOL    HW299795  12.357   9.713   4.943
66591SOL     OW99796  11.236  10.874   5.055
66591SOL    HW199797  11.190  10.956   5.021
66591SOL    HW299798  11.334  10.893   5.064
66592SOL     OW99799  11.738   9.847   4.589
66592SOL    HW199800  11.750   9.913   4.515
66592SOL    HW299801  11.784   9.881   4.672
66593SOL     OW99802  12.424  10.658   4.112
66593SOL    HW199803  12.474  10.735   4.152
66593SOL    HW299804  12.329  10.660   4.144
66594SOL     OW99805  12.444  10.755   4.866
66594SOL    HW199806  12.491  10.768   4.953
66594SOL    HW299807  12.378  10.681   4.875
66595SOL     OW99808  12.754   9.949   4.196
66595SOL    HW199809  12.723  10.010   4.269
66595SOL    HW299810  12.804  10.001   4.127
66596SOL     OW99811  11.526  10.820   5.053
66596SOL    HW199812  11.505  10.776   4.966
66596SOL    HW299813  11.623  10.846   5.056
66597SOL     OW99814  11.574  10.061   5.322
66597SOL    HW199815  11.642  10.116   5.275
66597SOL    HW299816  11.614   9.973   5.349
66598SOL     OW99817  12.185   9.415   5.494
66598SOL    HW199818  12.191   9.500   5.442
66598SOL    HW299819  12.217   9.339   5.437
66599SOL     OW99820  11.676   9.360   5.464
66599SOL    HW199821  11.634   9.303   5.394
66599SOL    HW299822  11.610   9.429   5.496
66600SOL     OW99823  11.745  10.180   4.753
66600SOL    HW199824  11.789  10.269   4.744
66600SOL    HW299825  11.682  10.180   4.830
66601SOL     OW99826  12.532  10.172   4.769
66601SOL    HW199827  12.457  10.172   4.703
66601SOL    HW299828  12.569  10.080   4.778
66602SOL     OW99829  12.381   9.835   3.999
66602SOL    HW199830  12.394   9.751   4.053
66602SOL    HW299831  12.352   9.909   4.059
66603SOL     OW99832  11.479   9.523   4.955
66603SOL    HW199833  11.456   9.560   5.045
66603SOL    HW299834  11.449   9.428   4.949
66604SOL     OW99835  11.209  10.620   5.006
66604SOL    HW199836  11.262  10.571   5.074
66604SOL    HW299837  11.231  10.718   5.011
66605SOL     OW99838  11.904   9.944   4.788
66605SOL    HW199839  11.963   9.918   4.712
66605SOL    HW299840  11.876  10.040   4.777
66606SOL     OW99841  11.479   9.373   4.342
66606SOL    HW199842  11.468   9.467   4.375
66606SOL    HW299843  11.474   9.310   4.419
66607SOL     OW99844  12.794   9.677   4.098
66607SOL    HW199845  12.796   9.601   4.162
66607SOL    HW299846  12.746   9.754   4.138
66608SOL     OW99847  12.195  10.076   4.690
66608SOL    HW199848  12.210  10.097   4.786
66608SOL    HW299849  12.165   9.981   4.681
66609SOL     OW99850  12.152  10.883   5.424
66609SOL    HW199851  12.132  10.927   5.336
66609SOL    HW299852  12.191  10.792   5.408
66610SOL     OW99853  11.522  10.208   5.528
66610SOL    HW199854  11.598  10.252   5.576
66610SOL    HW299855  11.557  10.161   5.446
66611SOL     OW99856  12.712   9.584   3.849
66611SOL    HW199857  12.651   9.509   3.872
66611SOL    HW299858  12.734   9.636   3.932
66612SOL     OW99859  12.475  10.148   3.766
66612SOL    HW199860  12.509  10.055   3.781
66612SOL    HW299861  12.493  10.175   3.671
66613SOL     OW99862  12.240  10.643   4.573
66613SOL    HW199863  12.247  10.559   4.518
66613SOL    HW299864  12.302  10.712   4.537
66614SOL     OW99865  11.491  10.120   4.673
66614SOL    HW199866  11.584  10.156   4.678
66614SOL    HW299867  11.485  10.035   4.725
66615SOL     OW99868  11.511   9.819   4.730
66615SOL    HW199869  11.459   9.736   4.713
66615SOL    HW299870  11.588   9.824   4.666
66616SOL     OW99871  12.310   9.690   5.402
66616SOL    HW199872  12.265   9.753   5.466
66616SOL    HW299873  12.403   9.721   5.385
66617SOL     OW99874  12.332   9.517   5.201
66617SOL    HW199875  12.332   9.581   5.278
66617SOL    HW299876  12.360   9.565   5.118
66618SOL     OW99877  11.180  10.636   3.924
66618SOL    HW199878  11.087  10.657   3.893
66618SOL    HW299879  11.190  10.537   3.937
66619SOL     OW99880  11.260  11.111   4.651
66619SOL    HW199881  11.218  11.025   4.624
66619SOL    HW299882  11.354  11.114   4.617
66620SOL     OW99883  11.676  10.878   4.634
66620SOL    HW199884  11.742  10.952   4.643
66620SOL    HW299885  11.720  10.799   4.592
66621SOL     OW99886  12.174  10.106   4.962
66621SOL    HW199887  12.215  10.074   5.048
66621SOL    HW299888  12.078  10.079   4.959
66622SOL     OW99889  11.212   9.854   4.838
66622SOL    HW199890  11.297   9.821   4.797
66622SOL    HW299891  11.225   9.869   4.936
66623SOL     OW99892  11.361   9.830   5.446
66623SOL    HW199893  11.420   9.790   5.376
66623SOL    HW299894  11.303   9.901   5.405
66624SOL     OW99895  12.541  10.260   5.384
66624SOL    HW199896  12.580  10.349   5.404
66624SOL    HW299897  12.551  10.240   5.287
66625SOL     OW99898  11.987   9.882   4.049
66625SOL    HW199899  11.994   9.793   4.003
66625SOL    HW299900  11.893   9.916   4.041
66626SOL     OW99901  11.424  10.874   5.468
66626SOL    HW199902  11.394  10.931   5.544
66626SOL    HW299903  11.417  10.777   5.494
66627SOL     OW99904  11.843   9.774   4.993
66627SOL    HW199905  11.809   9.685   4.963
66627SOL    HW299906  11.869   9.828   4.913
66628SOL     OW99907  12.102  10.988   5.189
66628SOL    HW199908  12.078  10.970   5.094
66628SOL    HW299909  12.132  11.082   5.199
66629SOL     OW99910  11.645   9.810   3.915
66629SOL    HW199911  11.706   9.890   3.919
66629SOL    HW299912  11.550   9.841   3.922
66630SOL     OW99913  11.331  10.447   5.190
66630SOL    HW199914  11.353  10.386   5.266
66630SOL    HW299915  11.341  10.398   5.104
66631SOL     OW99916  12.519  10.369   4.958
66631SOL    HW199917  12.543  10.306   4.884
66631SOL    HW299918  12.429  10.409   4.940
66632SOL     OW99919  12.474  10.165   4.033
66632SOL    HW199920  12.388  10.134   4.075
66632SOL    HW299921  12.470  10.151   3.934
66633SOL     OW99922  12.424  11.041   4.852
66633SOL    HW199923  12.508  11.046   4.798
66633SOL    HW299924  12.401  10.945   4.870
66634SOL     OW99925  11.255  10.568   4.746
66634SOL    HW199926  11.250  10.567   4.846
66634SOL    HW299927  11.172  10.527   4.708
66635SOL     OW99928  11.860  10.972   5.440
66635SOL    HW199929  11.804  11.053   5.449
66635SOL    HW299930  11.912  10.976   5.354
66636SOL     OW99931  12.898   9.445   4.247
66636SOL    HW199932  12.971   9.428   4.180
66636SOL    HW299933  12.867   9.358   4.285
66637SOL     OW99934  12.560  10.883   4.201
66637SOL    HW199935  12.627  10.895   4.127
66637SOL    HW299936  12.520  10.972   4.224
66638SOL     OW99937  11.302  11.104   5.575
66638SOL    HW199938  11.261  11.030   5.628
66638SOL    HW299939  11.366  11.155   5.633
66639SOL     OW99940  12.452  10.237   4.396
66639SOL    HW199941  12.512  10.156   4.398
66639SOL    HW299942  12.492  10.306   4.336
66640SOL     OW99943  12.002  10.583   5.146
66640SOL    HW199944  11.997  10.616   5.241
66640SOL    HW299945  11.916  10.602   5.100
66641SOL     OW99946  11.844  10.926   3.878
66641SOL    HW199947  11.853  10.936   3.779
66641SOL    HW299948  11.804  10.837   3.899
66642SOL     OW99949  11.435   9.636   4.444
66642SOL    HW199950  11.356   9.687   4.410
66642SOL    HW299951  11.426   9.621   4.542
66643SOL     OW99952  12.366  10.922   3.755
66643SOL    HW199953  12.372  10.829   3.792
66643SOL    HW299954  12.307  10.922   3.675
66644SOL     OW99955  11.994  10.312   5.096
66644SOL    HW199956  12.034  10.311   5.004
66644SOL    HW299957  12.004  10.404   5.136
66645SOL     OW99958  12.088  10.220   4.015
66645SOL    HW199959  12.151  10.258   3.947
66645SOL    HW299960  12.128  10.137   4.054
66646SOL     OW99961  12.676  10.917   3.768
66646SOL    HW199962  12.584  10.954   3.775
66646SOL    HW299963  12.714  10.937   3.678
66647SOL     OW99964  11.544  10.598   5.214
66647SOL    HW199965  11.531  10.691   5.180
66647SOL    HW299966  11.460  10.546   5.201
66648SOL     OW99967  12.211  10.408   4.420
66648SOL    HW199968  12.141  10.361   4.474
66648SOL    HW299969  12.270  10.340   4.377
66649SOL     OW99970  12.186   9.546   4.695
66649SOL    HW199971  12.178   9.510   4.602
66649SOL    HW299972  12.184   9.470   4.760
66650SOL     OW99973  11.762  10.797   4.215
66650SOL    HW199974  11.804  10.739   4.145
66650SOL    HW299975  11.718  10.876   4.171
66651SOL     OW99976  11.427  10.658   4.014
66651SOL    HW199977  11.331  10.659   3.987
66651SOL    HW299978  11.439  10.711   4.098
66652SOL     OW99979  11.277  10.323   5.450
66652SOL    HW199980  11.200  10.290   5.504
66652SOL    HW299981  11.362  10.293   5.492
66653SOL     OW99982  11.844   9.513   5.213
66653SOL    HW199983  11.934   9.497   5.173
66653SOL    HW299984  11.852   9.518   5.312
66654SOL     OW99985  11.247   9.655   3.757
66654SOL    HW199986  11.155   9.627   3.728
66654SOL    HW299987  11.278   9.732   3.701
66655SOL     OW99988  12.612  10.166   5.122
66655SOL    HW199989  12.555  10.218   5.059
66655SOL    HW299990  12.708  10.178   5.098
66656SOL     OW99991  11.244   9.476   4.042
66656SOL    HW199992  11.227   9.559   3.988
66656SOL    HW299993  11.334   9.439   4.020
66657SOL     OW99994  12.355  10.645   3.843
66657SOL    HW199995  12.256  10.634   3.845
66657SOL    HW299996  12.389  10.660   3.936
66658SOL     OW99997  11.785  10.152   5.155
66658SOL    HW199998  11.841  10.233   5.138
66658SOL    HW299999  11.844  10.072   5.158
66659SOL     OW    0  12.665  11.077   4.683
66659SOL    HW1    1  12.698  11.141   4.614
66659SOL    HW2    2  12.731  11.071   4.758
66660SOL     OW    3  11.888   9.875   5.432
66660SOL    HW1    4  11.907   9.940   5.506
66660SOL    HW2    5  11.948   9.795   5.441
66661SOL     OW    6  12.622  10.530   5.357
66661SOL    HW1    7  12.613  10.520   5.456
66661SOL    HW2    8  12.718  10.523   5.331
66662SOL     OW    9  11.562  11.051   5.284
66662SOL    HW1   10  11.471  11.092   5.282
66662SOL    HW2   11  11.555  10.957   5.316
66663SOL     OW   12  12.397   9.635   4.173
66663SOL    HW1   13  12.462   9.561   4.162
66663SOL    HW2   14  12.417   9.685   4.257
66664SOL     OW   15  11.766  10.055   4.376
66664SOL    HW1   16  11.816  10.140   4.357
66664SOL    HW2   17  11.678  10.057   4.328
66665SOL     OW   18  12.031  10.684   3.740
66665SOL    HW1   19  11.985  10.699   3.828
66665SOL    HW2   20  12.075  10.769   3.710
66666SOL     OW   21  11.833  11.100   4.677
66666SOL    HW1   22  11.787  11.188   4.664
66666SOL    HW2   23  11.932  11.112   4.670
66667SOL     OW   24  12.031  10.266   4.585
66667SOL    HW1   25  12.085  10.197   4.633
66667SOL    HW2   26  11.999  10.335   4.651
66668SOL     OW   27  12.255  10.294   3.811
66668SOL    HW1   28  12.232  10.347   3.729
66668SOL    HW2   29  12.336  10.238   3.792
66669SOL     OW   30  13.033  10.879   4.575
66669SOL    HW1   31  12.962  10.867   4.505
66669SOL    HW2   32  13.034  10.800   4.635
66670SOL     OW   33  11.393  10.624   5.568
66670SOL    HW1   34  11.328  10.551   5.547
66670SOL    HW2   35  11.397  10.638   5.666
66671SOL     OW   36  11.251  10.550   4.377
66671SOL    HW1   37  11.250  10.503   4.465
66671SOL    HW2   38  11.333  10.522   4.326
66672SOL     OW   39  11.844  10.701   5.348
66672SOL    HW1   40  11.766  10.651   5.386
66672SOL    HW2   41  11.841  10.796   5.379
66673SOL     OW   42  11.600   9.734   4.244
66673SOL    HW1   43  11.630   9.662   4.182
66673SOL    HW2   44  11.561   9.694   4.327
66674SOL     OW   45  11.489   9.857   5.004
66674SOL    HW1   46  11.527   9.798   5.076
66674SOL    HW2   47  11.529   9.831   4.916
66675SOL     OW   48  11.984  10.896   4.411
66675SOL    HW1   49  12.016  10.906   4.317
66675SOL    HW2   50  11.905  10.834   4.413
66676SOL     OW   51  12.596   9.524   4.836
66676SOL    HW1   52  12.648   9.459   4.891
66676SOL    HW2   53  12.547   9.587   4.897
66677SOL     OW   54  12.173   9.344   4.878
66677SOL    HW1   55  12.110   9.272   4.847
66677SOL    HW2   56  12.266   9.308   4.878
66678SOL     OW   57  11.942  10.640   4.025
66678SOL    HW1   58  11.896  10.553   4.042
66678SOL    HW2   59  12.033  10.637   4.066
66679SOL     OW   60  11.790  10.877   5.008
66679SOL    HW1   61  11.785  10.959   5.065
66679SOL    HW2   62  11.879  10.874   4.963
66680SOL     OW   63  12.524   9.362   3.892
66680SOL    HW1   64  12.559   9.321   3.808
66680SOL    HW2   65  12.434   9.324   3.912
66681SOL     OW   66  12.472   9.763   4.415
66681SOL    HW1   67  12.413   9.843   4.419
66681SOL    HW2   68  12.487   9.728   4.508
66682SOL     OW   69  12.765   9.531   4.606
66682SOL    HW1   70  12.681   9.530   4.660
66682SOL    HW2   71  12.767   9.614   4.550
66683SOL     OW   72  11.211  10.387   4.024
66683SOL    HW1   73  11.310  10.376   4.015
66683SOL    HW2   74  11.171  10.301   4.056
66684SOL     OW   75  12.047  10.956   4.061
66684SOL    HW1   76  11.970  10.921   4.007
66684SOL    HW2   77  12.015  11.027   4.123
66685SOL     OW   78  11.402   9.938   5.699
66685SOL    HW1   79  11.309   9.936   5.736
66685SOL    HW2   80  11.403   9.899   5.607
66686SOL     OW   81  11.397   9.585   6.582
66686SOL    HW1   82  11.432   9.568   6.674
66686SOL    HW2   83  11.309   9.540   6.570
66687SOL     OW   84  11.191   9.678   6.233
66687SOL    HW1   85  11.109   9.721   6.272
66687SOL    HW2   86  11.163   9.605   6.170
66688SOL     OW   87  11.741  10.585   6.751
66688SOL    HW1   88  11.648  10.578   6.714
66688SOL    HW2   89  11.752  10.674   6.795
66689SOL     OW   90  12.727  10.821   6.289
66689SOL    HW1   91  12.670  10.805   6.370
66689SOL    HW2   92  12.668  10.831   6.209
66690SOL     OW   93  12.307  10.013   6.303
66690SOL    HW1   94  12.364  10.091   6.278
66690SOL    HW2   95  12.247  10.039   6.379
66691SOL     OW   96  11.940  10.454   6.609
66691SOL    HW1   97  11.862  10.471   6.669
66691SOL    HW2   98  11.974  10.541   6.573
66692SOL     OW   99  12.022  10.108   7.409
66692SOL    HW1  100  12.018  10.184   7.474
66692SOL    HW2  101  12.044  10.144   7.318
66693SOL     OW  102  11.857  10.322   6.251
66693SOL    HW1  103  11.926  10.306   6.321
66693SOL    HW2  104  11.784  10.379   6.289
66694SOL     OW  105  11.858  10.471   7.389
66694SOL    HW1  106  11.918  10.550   7.403
66694SOL    HW2  107  11.772  10.502   7.348
66695SOL     OW  108  11.507  10.745   6.647
66695SOL    HW1  109  11.429  10.714   6.594
66695SOL    HW2  110  11.565  10.803   6.590
66696SOL     OW  111  12.632  10.815   6.925
66696SOL    HW1  112  12.656  10.909   6.951
66696SOL    HW2  113  12.616  10.761   7.007
66697SOL     OW  114  11.610   9.702   7.085
66697SOL    HW1  115  11.692   9.646   7.094
66697SOL    HW2  116  11.529   9.644   7.089
66698SOL     OW  117  11.403  11.023   6.069
66698SOL    HW1  118  11.437  11.100   6.123
66698SOL    HW2  119  11.447  11.023   5.979
66699SOL     OW  120  12.299  10.651   7.276
66699SOL    HW1  121  12.346  10.651   7.364
66699SOL    HW2  122  12.251  10.564   7.265
66700SOL     OW  123  11.402  10.744   6.124
66700SOL    HW1  124  11.376  10.840   6.124
66700SOL    HW2  125  11.331  10.690   6.169
66701SOL     OW  126  11.412  10.401   6.472
66701SOL    HW1  127  11.426  10.317   6.524
66701SOL    HW2  128  11.357  10.465   6.527
66702SOL     OW  129  11.792  11.096   7.025
66702SOL    HW1  130  11.700  11.079   7.060
66702SOL    HW2  131  11.820  11.188   7.051
66703SOL     OW  132  11.778  10.274   5.709
66703SOL    HW1  133  11.785  10.358   5.655
66703SOL    HW2  134  11.824  10.287   5.797
66704SOL     OW  135  12.766   9.424   7.066
66704SOL    HW1  136  12.748   9.491   6.994
66704SOL    HW2  137  12.763   9.470   7.155
66705SOL     OW  138  11.294   9.953   6.149
66705SOL    HW1  139  11.249   9.865   6.166
66705SOL    HW2  140  11.293  10.007   6.233
66706SOL     OW  141  11.199  10.906   5.703
66706SOL    HW1  142  11.180  10.810   5.724
66706SOL    HW2  143  11.166  10.964   5.778
66707SOL     OW  144  12.861  10.232   6.198
66707SOL    HW1  145  12.956  10.203   6.206
66707SOL    HW2  146  12.853  10.297   6.123
66708SOL     OW  147  11.285  10.047   7.183
66708SOL    HW1  148  11.373  10.034   7.228
66708SOL    HW2  149  11.272  10.144   7.161
66709SOL     OW  150  11.785  10.675   6.312
66709SOL    HW1  151  11.736  10.588   6.321
66709SOL    HW2  152  11.762  10.718   6.225
66710SOL     OW  153  12.465  10.538   7.009
66710SOL    HW1  154  12.502  10.465   6.951
66710SOL    HW2  155  12.517  10.543   7.094
66711SOL     OW  156  11.981   9.314   6.088
66711SOL    HW1  157  12.021   9.405   6.079
66711SOL    HW2  158  11.881   9.322   6.094
66712SOL     OW  159  11.369  10.286   6.850
66712SOL    HW1  160  11.458  10.241   6.836
66712SOL    HW2  161  11.296  10.221   6.831
66713SOL     OW  162  12.359  11.102   7.202
66713SOL    HW1  163  12.383  11.162   7.126
66713SOL    HW2  164  12.366  11.007   7.172
66714SOL     OW  165  11.489   9.561   7.387
66714SOL    HW1  166  11.560   9.632   7.393
66714SOL    HW2  167  11.401   9.600   7.415
66715SOL     OW  168  12.638  10.727   6.539
66715SOL    HW1  169  12.579  10.733   6.619
66715SOL    HW2  170  12.623  10.639   6.493
66716SOL     OW  171  12.839  11.024   6.158
66716SOL    HW1  172  12.798  11.001   6.070
66716SOL    HW2  173  12.821  10.950   6.223
66717SOL     OW  174  11.770  10.039   5.856
66717SOL    HW1  175  11.794  10.108   5.788
66717SOL    HW2  176  11.692  10.072   5.910
66718SOL     OW  177  12.453   9.655   6.530
66718SOL    HW1  178  12.367   9.605   6.517
66718SOL    HW2  179  12.515   9.601   6.586
66719SOL     OW  180  11.979   9.915   7.051
66719SOL    HW1  181  11.932   9.912   7.140
66719SOL    HW2  182  11.928   9.860   6.985
66720SOL     OW  183  12.566   9.779   7.260
66720SOL    HW1  184  12.546   9.822   7.348
66720SOL    HW2  185  12.644   9.717   7.269
66721SOL     OW  186  12.145  10.200   7.158
66721SOL    HW1  187  12.191  10.116   7.129
66721SOL    HW2  188  12.089  10.234   7.083
66722SOL     OW  189  12.163   9.720   6.828
66722SOL    HW1  190  12.086   9.754   6.882
66722SOL    HW2  191  12.129   9.669   6.749
66723SOL     OW  192  12.213  10.011   6.015
66723SOL    HW1  193  12.239  10.007   6.111
66723SOL    HW2  194  12.128   9.960   6.001
66724SOL     OW  195  11.248  10.121   6.375
66724SOL    HW1  196  11.347  10.109   6.384
66724SOL    HW2  197  11.224  10.216   6.396
66725SOL     OW  198  11.302  11.131   7.157
66725SOL    HW1  199  11.292  11.116   7.256
66725SOL    HW2  200  11.216  11.167   7.121
66726SOL     OW  201  12.037   9.658   5.781
66726SOL    HW1  202  12.096   9.721   5.732
66726SOL    HW2  203  12.056   9.564   5.752
66727SOL     OW  204  12.534  10.454   6.131
66727SOL    HW1  205  12.617  10.425   6.083
66727SOL    HW2  206  12.485  10.521   6.075
66728SOL     OW  207  11.722   9.506   6.471
66728SOL    HW1  208  11.717   9.501   6.571
66728SOL    HW2  209  11.724   9.602   6.442
66729SOL     OW  210  12.180  10.766   6.063
66729SOL    HW1  211  12.134  10.838   6.011
66729SOL    HW2  212  12.176  10.786   6.161
66730SOL     OW  213  11.523  11.111   6.439
66730SOL    HW1  214  11.573  11.025   6.445
66730SOL    HW2  215  11.588  11.188   6.436
66731SOL     OW  216  12.399  10.860   7.092
66731SOL    HW1  217  12.405  10.783   7.156
66731SOL    HW2  218  12.347  10.834   7.012
66732SOL     OW  219  11.493  10.253   5.828
66732SOL    HW1  220  11.575  10.292   5.786
66732SOL    HW2  221  11.466  10.171   5.779
66733SOL     OW  222  12.630  10.045   6.314
66733SOL    HW1  223  12.625   9.980   6.389
66733SOL    HW2  224  12.710  10.104   6.327
66734SOL     OW  225  11.633  10.576   7.313
66734SOL    HW1  226  11.583  10.577   7.227
66734SOL    HW2  227  11.570  10.558   7.389
66735SOL     OW  228  12.283  11.086   5.823
66735SOL    HW1  229  12.223  11.024   5.873
66735SOL    HW2  230  12.314  11.042   5.738
66736SOL     OW  231  11.374   9.595   7.084
66736SOL    HW1  232  11.294   9.655   7.071
66736SOL    HW2  233  11.364   9.546   7.170
66737SOL     OW  234  11.636  11.053   5.909
66737SOL    HW1  235  11.669  11.092   5.995
66737SOL    HW2  236  11.712  11.046   5.844
66738SOL     OW  237  12.572   9.417   6.012
66738SOL    HW1  238  12.548   9.380   5.922
66738SOL    HW2  239  12.671   9.433   6.016
66739SOL     OW  240  11.421  11.095   6.827
66739SOL    HW1  241  11.478  11.030   6.877
66739SOL    HW2  242  11.405  11.062   6.734
66740SOL     OW  243  12.112  11.008   6.490
66740SOL    HW1  244  12.192  10.951   6.511
66740SOL    HW2  245  12.063  10.968   6.413
66741SOL     OW  246  11.554  10.010   6.066
66741SOL    HW1  247  11.599   9.920   6.063
66741SOL    HW2  248  11.460   9.999   6.099
66742SOL     OW  249  11.786   9.432   5.703
66742SOL    HW1  250  11.884   9.410   5.710
66742SOL    HW2  251  11.755   9.415   5.610
66743SOL     OW  252  11.953   9.574   7.335
66743SOL    HW1  253  12.020   9.513   7.378
66743SOL    HW2  254  11.880   9.593   7.400
66744SOL     OW  255  12.060  10.824   6.781
66744SOL    HW1  256  12.037  10.799   6.687
66744SOL    HW2  257  12.121  10.755   6.820
66745SOL     OW  258  12.523   9.900   7.019
66745SOL    HW1  259  12.551   9.857   7.104
66745SOL    HW2  260  12.548   9.996   7.020
66746SOL     OW  261  11.975  10.712   6.510
66746SOL    HW1  262  12.065  10.726   6.468
66746SOL    HW2  263  11.904  10.714   6.439
66747SOL     OW  264  12.094   9.813   6.485
66747SOL    HW1  265  12.069   9.804   6.389
66747SOL    HW2  266  12.142   9.731   6.516
66748SOL     OW  267  11.711   9.374   6.098
66748SOL    HW1  268  11.630   9.375   6.156
66748SOL    HW2  269  11.714   9.457   6.043
66749SOL     OW  270  12.606  10.498   5.627
66749SOL    HW1  271  12.638  10.422   5.684
66749SOL    HW2  272  12.514  10.525   5.657
66750SOL     OW  273  11.469   9.345   5.757
66750SOL    HW1  274  11.518   9.429   5.736
66750SOL    HW2  275  11.531   9.280   5.802
66751SOL     OW  276  12.107   9.546   6.066
66751SOL    HW1  277  12.059   9.587   5.988
66751SOL    HW2  278  12.206   9.544   6.047
66752SOL     OW  279  12.248   9.993   7.050
66752SOL    HW1  280  12.168   9.932   7.053
66752SOL    HW2  281  12.329   9.940   7.026
66753SOL     OW  282  12.399  10.880   6.379
66753SOL    HW1  283  12.420  10.954   6.314
66753SOL    HW2  284  12.467  10.880   6.452
66754SOL     OW  285  11.631  10.462   6.327
66754SOL    HW1  286  11.560  10.435   6.392
66754SOL    HW2  287  11.605  10.434   6.234
66755SOL     OW  288  12.443  11.107   6.177
66755SOL    HW1  289  12.487  11.171   6.113
66755SOL    HW2  290  12.393  11.159   6.247
66756SOL     OW  291  11.250   9.866   6.972
66756SOL    HW1  292  11.342   9.865   6.931
66756SOL    HW2  293  11.244   9.940   7.039
66757SOL     OW  294  11.733   9.532   6.733
66757SOL    HW1  295  11.771   9.448   6.770
66757SOL    HW2  296  11.645   9.551   6.777
66758SOL     OW  297  12.038   9.764   6.228
66758SOL    HW1  298  12.006   9.836   6.166
66758SOL    HW2  299  12.062   9.683   6.175
66759SOL     OW  300  12.189   9.349   6.339
66759SOL    HW1  301  12.117   9.354   6.270
66759SOL    HW2  302  12.165   9.280   6.408
66760SOL     OW  303  12.601  10.483   6.453
66760SOL    HW1  304  12.546  10.399   6.446
66760SOL    HW2  305  12.627  10.512   6.361
66761SOL     OW  306  12.638   9.900   6.578
66761SOL    HW1  307  12.608   9.805   6.585
66761SOL    HW2  308  12.711   9.916   6.644
66762SOL     OW  309  11.660  10.695   5.760
66762SOL    HW1  310  11.573  10.680   5.807
66762SOL    HW2  311  11.643  10.721   5.665
66763SOL     OW  312  12.562   9.885   5.664
66763SOL    HW1  313  12.508   9.864   5.745
66763SOL    HW2  314  12.653   9.844   5.673
66764SOL     OW  315  11.699   9.566   5.914
66764SOL    HW1  316  11.726   9.507   5.839
66764SOL    HW2  317  11.699   9.661   5.883
66765SOL     OW  318  12.236  10.657   6.926
66765SOL    HW1  319  12.156  10.634   6.981
66765SOL    HW2  320  12.319  10.631   6.975
66766SOL     OW  321  12.764  10.939   7.211
66766SOL    HW1  322  12.791  10.973   7.121
66766SOL    HW2  323  12.843  10.901   7.257
66767SOL     OW  324  12.283  10.505   6.686
66767SOL    HW1  325  12.243  10.549   6.767
66767SOL    HW2  326  12.242  10.542   6.603
66768SOL     OW  327  12.087   9.399   6.988
66768SOL    HW1  328  12.112   9.379   6.893
66768SOL    HW2  329  12.159   9.455   7.030
66769SOL     OW  330  12.152  10.426   7.305
66769SOL    HW1  331  12.053  10.432   7.315
66769SOL    HW2  332  12.175  10.346   7.249
66770SOL     OW  333  11.877  10.360   5.954
66770SOL    HW1  334  11.863  10.367   6.053
66770SOL    HW2  335  11.961  10.309   5.936
66771SOL     OW  336  11.582  10.123   6.837
66771SOL    HW1  337  11.668  10.135   6.887
66771SOL    HW2  338  11.540  10.036   6.864
66772SOL     OW  339  12.446   9.696   6.848
66772SOL    HW1  340  12.467   9.770   6.912
66772SOL    HW2  341  12.357   9.713   6.805
66773SOL     OW  342  11.236  10.874   6.917
66773SOL    HW1  343  11.190  10.956   6.883
66773SOL    HW2  344  11.334  10.893   6.926
66774SOL     OW  345  11.539  10.410   6.087
66774SOL    HW1  346  11.532  10.493   6.031
66774SOL    HW2  347  11.543  10.330   6.027
66775SOL     OW  348  11.738   9.847   6.451
66775SOL    HW1  349  11.750   9.913   6.377
66775SOL    HW2  350  11.784   9.881   6.534
66776SOL     OW  351  12.424  10.658   5.974
66776SOL    HW1  352  12.474  10.735   6.014
66776SOL    HW2  353  12.329  10.660   6.006
66777SOL     OW  354  12.444  10.755   6.728
66777SOL    HW1  355  12.491  10.768   6.815
66777SOL    HW2  356  12.378  10.681   6.737
66778SOL     OW  357  12.754   9.949   6.058
66778SOL    HW1  358  12.723  10.010   6.131
66778SOL    HW2  359  12.804  10.001   5.989
66779SOL     OW  360  11.526  10.820   6.915
66779SOL    HW1  361  11.505  10.776   6.828
66779SOL    HW2  362  11.623  10.846   6.918
66780SOL     OW  363  11.574  10.061   7.184
66780SOL    HW1  364  11.642  10.116   7.137
66780SOL    HW2  365  11.614   9.973   7.211
66781SOL     OW  366  12.185   9.415   7.356
66781SOL    HW1  367  12.191   9.500   7.304
66781SOL    HW2  368  12.217   9.339   7.299
66782SOL     OW  369  11.676   9.360   7.326
66782SOL    HW1  370  11.634   9.303   7.256
66782SOL    HW2  371  11.610   9.429   7.358
66783SOL     OW  372  11.745  10.180   6.615
66783SOL    HW1  373  11.789  10.269   6.606
66783SOL    HW2  374  11.682  10.180   6.692
66784SOL     OW  375  12.532  10.172   6.631
66784SOL    HW1  376  12.457  10.172   6.565
66784SOL    HW2  377  12.569  10.080   6.640
66785SOL     OW  378  12.381   9.835   5.861
66785SOL    HW1  379  12.394   9.751   5.915
66785SOL    HW2  380  12.352   9.909   5.921
66786SOL     OW  381  11.479   9.523   6.817
66786SOL    HW1  382  11.456   9.560   6.907
66786SOL    HW2  383  11.449   9.428   6.811
66787SOL     OW  384  11.209  10.620   6.868
66787SOL    HW1  385  11.262  10.571   6.936
66787SOL    HW2  386  11.231  10.718   6.873
66788SOL     OW  387  11.904   9.944   6.650
66788SOL    HW1  388  11.963   9.918   6.574
66788SOL    HW2  389  11.876  10.040   6.639
66789SOL     OW  390  11.479   9.373   6.204
66789SOL    HW1  391  11.468   9.467   6.237
66789SOL    HW2  392  11.474   9.310   6.281
66790SOL     OW  393  12.794   9.677   5.960
66790SOL    HW1  394  12.796   9.601   6.024
66790SOL    HW2  395  12.746   9.754   6.000
66791SOL     OW  396  12.195  10.076   6.552
66791SOL    HW1  397  12.210  10.097   6.648
66791SOL    HW2  398  12.165   9.981   6.543
66792SOL     OW  399  12.152  10.883   7.286
66792SOL    HW1  400  12.132  10.927   7.198
66792SOL    HW2  401  12.191  10.792   7.270
66793SOL     OW  402  11.522  10.208   7.390
66793SOL    HW1  403  11.598  10.252   7.438
66793SOL    HW2  404  11.557  10.161   7.308
66794SOL     OW  405  12.712   9.584   5.711
66794SOL    HW1  406  12.651   9.509   5.734
66794SOL    HW2  407  12.734   9.636   5.794
66795SOL     OW  408  12.475  10.148   5.628
66795SOL    HW1  409  12.509  10.055   5.643
66795SOL    HW2  410  12.493  10.175   5.533
66796SOL     OW  411  12.240  10.643   6.435
66796SOL    HW1  412  12.247  10.559   6.380
66796SOL    HW2  413  12.302  10.712   6.399
66797SOL     OW  414  11.491  10.120   6.535
66797SOL    HW1  415  11.584  10.156   6.540
66797SOL    HW2  416  11.485  10.035   6.587
66798SOL     OW  417  11.511   9.819   6.592
66798SOL    HW1  418  11.459   9.736   6.575
66798SOL    HW2  419  11.588   9.824   6.528
66799SOL     OW  420  12.310   9.690   7.264
66799SOL    HW1  421  12.265   9.753   7.328
66799SOL    HW2  422  12.403   9.721   7.247
66800SOL     OW  423  12.332   9.517   7.063
66800SOL    HW1  424  12.332   9.581   7.140
66800SOL    HW2  425  12.360   9.565   6.980
66801SOL     OW  426  11.180  10.636   5.786
66801SOL    HW1  427  11.087  10.657   5.755
66801SOL    HW2  428  11.190  10.537   5.799
66802SOL     OW  429  11.260  11.111   6.513
66802SOL    HW1  430  11.218  11.025   6.486
66802SOL    HW2  431  11.354  11.114   6.479
66803SOL     OW  432  11.676  10.878   6.496
66803SOL    HW1  433  11.742  10.952   6.505
66803SOL    HW2  434  11.720  10.799   6.454
66804SOL     OW  435  12.174  10.106   6.824
66804SOL    HW1  436  12.215  10.074   6.910
66804SOL    HW2  437  12.078  10.079   6.821
66805SOL     OW  438  11.212   9.854   6.700
66805SOL    HW1  439  11.297   9.821   6.659
66805SOL    HW2  440  11.225   9.869   6.798
66806SOL     OW  441  11.361   9.830   7.308
66806SOL    HW1  442  11.420   9.790   7.238
66806SOL    HW2  443  11.303   9.901   7.267
66807SOL     OW  444  12.541  10.260   7.246
66807SOL    HW1  445  12.580  10.349   7.266
66807SOL    HW2  446  12.551  10.240   7.149
66808SOL     OW  447  11.987   9.882   5.911
66808SOL    HW1  448  11.994   9.793   5.865
66808SOL    HW2  449  11.893   9.916   5.903
66809SOL     OW  450  11.424  10.874   7.330
66809SOL    HW1  451  11.394  10.931   7.406
66809SOL    HW2  452  11.417  10.777   7.356
66810SOL     OW  453  11.843   9.774   6.855
66810SOL    HW1  454  11.809   9.685   6.825
66810SOL    HW2  455  11.869   9.828   6.775
66811SOL     OW  456  12.102  10.988   7.051
66811SOL    HW1  457  12.078  10.970   6.956
66811SOL    HW2  458  12.132  11.082   7.061
66812SOL     OW  459  11.645   9.810   5.777
66812SOL    HW1  460  11.706   9.890   5.781
66812SOL    HW2  461  11.550   9.841   5.784
66813SOL     OW  462  11.331  10.447   7.052
66813SOL    HW1  463  11.353  10.386   7.128
66813SOL    HW2  464  11.341  10.398   6.966
66814SOL     OW  465  12.519  10.369   6.820
66814SOL    HW1  466  12.543  10.306   6.746
66814SOL    HW2  467  12.429  10.409   6.802
66815SOL     OW  468  12.474  10.165   5.895
66815SOL    HW1  469  12.388  10.134   5.937
66815SOL    HW2  470  12.470  10.151   5.796
66816SOL     OW  471  12.424  11.041   6.714
66816SOL    HW1  472  12.508  11.046   6.660
66816SOL    HW2  473  12.401  10.945   6.732
66817SOL     OW  474  11.255  10.568   6.608
66817SOL    HW1  475  11.250  10.567   6.708
66817SOL    HW2  476  11.172  10.527   6.570
66818SOL     OW  477  11.860  10.972   7.302
66818SOL    HW1  478  11.804  11.053   7.311
66818SOL    HW2  479  11.912  10.976   7.216
66819SOL     OW  480  12.898   9.445   6.109
66819SOL    HW1  481  12.971   9.428   6.042
66819SOL    HW2  482  12.867   9.358   6.147
66820SOL     OW  483  12.560  10.883   6.063
66820SOL    HW1  484  12.627  10.895   5.989
66820SOL    HW2  485  12.520  10.972   6.086
66821SOL     OW  486  11.302  11.104   7.437
66821SOL    HW1  487  11.261  11.030   7.490
66821SOL    HW2  488  11.366  11.155   7.495
66822SOL     OW  489  12.452  10.237   6.258
66822SOL    HW1  490  12.512  10.156   6.260
66822SOL    HW2  491  12.492  10.306   6.198
66823SOL     OW  492  12.002  10.583   7.008
66823SOL    HW1  493  11.997  10.616   7.103
66823SOL    HW2  494  11.916  10.602   6.962
66824SOL     OW  495  11.844  10.926   5.740
66824SOL    HW1  496  11.853  10.936   5.641
66824SOL    HW2  497  11.804  10.837   5.761
66825SOL     OW  498  11.435   9.636   6.306
66825SOL    HW1  499  11.356   9.687   6.272
66825SOL    HW2  500  11.426   9.621   6.404
66826SOL     OW  501  12.366  10.922   5.617
66826SOL    HW1  502  12.372  10.829   5.654
66826SOL    HW2  503  12.307  10.922   5.537
66827SOL     OW  504  11.994  10.312   6.958
66827SOL    HW1  505  12.034  10.311   6.866
66827SOL    HW2  506  12.004  10.404   6.998
66828SOL     OW  507  12.088  10.220   5.877
66828SOL    HW1  508  12.151  10.258   5.809
66828SOL    HW2  509  12.128  10.137   5.916
66829SOL     OW  510  12.676  10.917   5.630
66829SOL    HW1  511  12.584  10.954   5.637
66829SOL    HW2  512  12.714  10.937   5.540
66830SOL     OW  513  11.544  10.598   7.076
66830SOL    HW1  514  11.531  10.691   7.042
66830SOL    HW2  515  11.460  10.546   7.063
66831SOL     OW  516  12.211  10.408   6.282
66831SOL    HW1  517  12.141  10.361   6.336
66831SOL    HW2  518  12.270  10.340   6.239
66832SOL     OW  519  12.186   9.546   6.557
66832SOL    HW1  520  12.178   9.510   6.464
66832SOL    HW2  521  12.184   9.470   6.622
66833SOL     OW  522  11.762  10.797   6.077
66833SOL    HW1  523  11.804  10.739   6.007
66833SOL    HW2  524  11.718  10.876   6.033
66834SOL     OW  525  11.427  10.658   5.876
66834SOL    HW1  526  11.331  10.659   5.849
66834SOL    HW2  527  11.439  10.711   5.960
66835SOL     OW  528  11.277  10.323   7.312
66835SOL    HW1  529  11.200  10.290   7.366
66835SOL    HW2  530  11.362  10.293   7.354
66836SOL     OW  531  11.844   9.513   7.075
66836SOL    HW1  532  11.934   9.497   7.035
66836SOL    HW2  533  11.852   9.518   7.174
66837SOL     OW  534  11.247   9.655   5.619
66837SOL    HW1  535  11.155   9.627   5.590
66837SOL    HW2  536  11.278   9.732   5.563
66838SOL     OW  537  12.612  10.166   6.984
66838SOL    HW1  538  12.555  10.218   6.921
66838SOL    HW2  539  12.708  10.178   6.960
66839SOL     OW  540  11.244   9.476   5.904
66839SOL    HW1  541  11.227   9.559   5.850
66839SOL    HW2  542  11.334   9.439   5.882
66840SOL     OW  543  12.355  10.645   5.705
66840SOL    HW1  544  12.256  10.634   5.707
66840SOL    HW2  545  12.389  10.660   5.798
66841SOL     OW  546  11.785  10.152   7.017
66841SOL    HW1  547  11.841  10.233   7.000
66841SOL    HW2  548  11.844  10.072   7.020
66842SOL     OW  549  12.665  11.077   6.545
66842SOL    HW1  550  12.698  11.141   6.476
66842SOL    HW2  551  12.731  11.071   6.620
66843SOL     OW  552  11.888   9.875   7.294
66843SOL    HW1  553  11.907   9.940   7.368
66843SOL    HW2  554  11.948   9.795   7.303
66844SOL     OW  555  12.622  10.530   7.219
66844SOL    HW1  556  12.613  10.520   7.318
66844SOL    HW2  557  12.718  10.523   7.193
66845SOL     OW  558  11.562  11.051   7.146
66845SOL    HW1  559  11.471  11.092   7.144
66845SOL    HW2  560  11.555  10.957   7.178
66846SOL     OW  561  12.397   9.635   6.035
66846SOL    HW1  562  12.462   9.561   6.024
66846SOL    HW2  563  12.417   9.685   6.119
66847SOL     OW  564  11.766  10.055   6.238
66847SOL    HW1  565  11.816  10.140   6.219
66847SOL    HW2  566  11.678  10.057   6.190
66848SOL     OW  567  12.031  10.684   5.602
66848SOL    HW1  568  11.985  10.699   5.690
66848SOL    HW2  569  12.075  10.769   5.572
66849SOL     OW  570  11.833  11.100   6.539
66849SOL    HW1  571  11.787  11.188   6.526
66849SOL    HW2  572  11.932  11.112   6.532
66850SOL     OW  573  12.031  10.266   6.447
66850SOL    HW1  574  12.085  10.197   6.495
66850SOL    HW2  575  11.999  10.335   6.513
66851SOL     OW  576  12.255  10.294   5.673
66851SOL    HW1  577  12.232  10.347   5.591
66851SOL    HW2  578  12.336  10.238   5.654
66852SOL     OW  579  13.033  10.879   6.437
66852SOL    HW1  580  12.962  10.867   6.367
66852SOL    HW2  581  13.034  10.800   6.497
66853SOL     OW  582  11.393  10.624   7.430
66853SOL    HW1  583  11.328  10.551   7.409
66853SOL    HW2  584  11.397  10.638   7.528
66854SOL     OW  585  11.251  10.550   6.239
66854SOL    HW1  586  11.250  10.503   6.327
66854SOL    HW2  587  11.333  10.522   6.188
66855SOL     OW  588  11.844  10.701   7.210
66855SOL    HW1  589  11.766  10.651   7.248
66855SOL    HW2  590  11.841  10.796   7.241
66856SOL     OW  591  11.600   9.734   6.106
66856SOL    HW1  592  11.630   9.662   6.044
66856SOL    HW2  593  11.561   9.694   6.189
66857SOL     OW  594  11.489   9.857   6.866
66857SOL    HW1  595  11.527   9.798   6.938
66857SOL    HW2  596  11.529   9.831   6.778
66858SOL     OW  597  11.984  10.896   6.273
66858SOL    HW1  598  12.016  10.906   6.179
66858SOL    HW2  599  11.905  10.834   6.275
66859SOL     OW  600  12.596   9.524   6.698
66859SOL    HW1  601  12.648   9.459   6.753
66859SOL    HW2  602  12.547   9.587   6.759
66860SOL     OW  603  12.173   9.344   6.740
66860SOL    HW1  604  12.110   9.272   6.709
66860SOL    HW2  605  12.266   9.308   6.740
66861SOL     OW  606  11.942  10.640   5.887
66861SOL    HW1  607  11.896  10.553   5.904
66861SOL    HW2  608  12.033  10.637   5.928
66862SOL     OW  609  11.790  10.877   6.870
66862SOL    HW1  610  11.785  10.959   6.927
66862SOL    HW2  611  11.879  10.874   6.825
66863SOL     OW  612  12.524   9.362   5.754
66863SOL    HW1  613  12.559   9.321   5.670
66863SOL    HW2  614  12.434   9.324   5.774
66864SOL     OW  615  12.472   9.763   6.277
66864SOL    HW1  616  12.413   9.843   6.281
66864SOL    HW2  617  12.487   9.728   6.370
66865SOL     OW  618  12.765   9.531   6.468
66865SOL    HW1  619  12.681   9.530   6.522
66865SOL    HW2  620  12.767   9.614   6.412
66866SOL     OW  621  11.211  10.387   5.886
66866SOL    HW1  622  11.310  10.376   5.877
66866SOL    HW2  623  11.171  10.301   5.918
66867SOL     OW  624  12.047  10.956   5.923
66867SOL    HW1  625  11.970  10.921   5.869
66867SOL    HW2  626  12.015  11.027   5.985
66868SOL     OW  627  11.402   9.938   7.561
66868SOL    HW1  628  11.309   9.936   7.598
66868SOL    HW2  629  11.403   9.899   7.469
66869SOL     OW  630  11.397   9.585   8.444
66869SOL    HW1  631  11.432   9.568   8.536
66869SOL    HW2  632  11.309   9.540   8.432
66870SOL     OW  633  11.191   9.678   8.095
66870SOL    HW1  634  11.109   9.721   8.134
66870SOL    HW2  635  11.163   9.605   8.032
66871SOL     OW  636  11.741  10.585   8.613
66871SOL    HW1  637  11.648  10.578   8.576
66871SOL    HW2  638  11.752  10.674   8.657
66872SOL     OW  639  12.727  10.821   8.151
66872SOL    HW1  640  12.670  10.805   8.232
66872SOL    HW2  641  12.668  10.831   8.071
66873SOL     OW  642  12.307  10.013   8.165
66873SOL    HW1  643  12.364  10.091   8.140
66873SOL    HW2  644  12.247  10.039   8.241
66874SOL     OW  645  11.940  10.454   8.471
66874SOL    HW1  646  11.862  10.471   8.531
66874SOL    HW2  647  11.974  10.541   8.435
66875SOL     OW  648  12.022  10.108   9.271
66875SOL    HW1  649  12.018  10.184   9.336
66875SOL    HW2  650  12.044  10.144   9.180
66876SOL     OW  651  11.857  10.322   8.113
66876SOL    HW1  652  11.926  10.306   8.183
66876SOL    HW2  653  11.784  10.379   8.151
66877SOL     OW  654  11.858  10.471   9.251
66877SOL    HW1  655  11.918  10.550   9.265
66877SOL    HW2  656  11.772  10.502   9.210
66878SOL     OW  657  11.507  10.745   8.509
66878SOL    HW1  658  11.429  10.714   8.456
66878SOL    HW2  659  11.565  10.803   8.452
66879SOL     OW  660  12.632  10.815   8.787
66879SOL    HW1  661  12.656  10.909   8.813
66879SOL    HW2  662  12.616  10.761   8.869
66880SOL     OW  663  11.610   9.702   8.947
66880SOL    HW1  664  11.692   9.646   8.956
66880SOL    HW2  665  11.529   9.644   8.951
66881SOL     OW  666  11.403  11.023   7.931
66881SOL    HW1  667  11.437  11.100   7.985
66881SOL    HW2  668  11.447  11.023   7.841
66882SOL     OW  669  12.299  10.651   9.138
66882SOL    HW1  670  12.346  10.651   9.226
66882SOL    HW2  671  12.251  10.564   9.127
66883SOL     OW  672  11.402  10.744   7.986
66883SOL    HW1  673  11.376  10.840   7.986
66883SOL    HW2  674  11.331  10.690   8.031
66884SOL     OW  675  11.412  10.401   8.334
66884SOL    HW1  676  11.426  10.317   8.386
66884SOL    HW2  677  11.357  10.465   8.389
66885SOL     OW  678  11.792  11.096   8.887
66885SOL    HW1  679  11.700  11.079   8.922
66885SOL    HW2  680  11.820  11.188   8.913
66886SOL     OW  681  11.778  10.274   7.571
66886SOL    HW1  682  11.785  10.358   7.517
66886SOL    HW2  683  11.824  10.287   7.659
66887SOL     OW  684  12.766   9.424   8.928
66887SOL    HW1  685  12.748   9.491   8.856
66887SOL    HW2  686  12.763   9.470   9.017
66888SOL     OW  687  11.294   9.953   8.011
66888SOL    HW1  688  11.249   9.865   8.028
66888SOL    HW2  689  11.293  10.007   8.095
66889SOL     OW  690  11.199  10.906   7.565
66889SOL    HW1  691  11.180  10.810   7.586
66889SOL    HW2  692  11.166  10.964   7.640
66890SOL     OW  693  12.861  10.232   8.060
66890SOL    HW1  694  12.956  10.203   8.068
66890SOL    HW2  695  12.853  10.297   7.985
66891SOL     OW  696  11.285  10.047   9.045
66891SOL    HW1  697  11.373  10.034   9.090
66891SOL    HW2  698  11.272  10.144   9.023
66892SOL     OW  699  11.785  10.675   8.174
66892SOL    HW1  700  11.736  10.588   8.183
66892SOL    HW2  701  11.762  10.718   8.087
66893SOL     OW  702  12.465  10.538   8.871
66893SOL    HW1  703  12.502  10.465   8.813
66893SOL    HW2  704  12.517  10.543   8.956
66894SOL     OW  705  11.981   9.314   7.950
66894SOL    HW1  706  12.021   9.405   7.941
66894SOL    HW2  707  11.881   9.322   7.956
66895SOL     OW  708  11.369  10.286   8.712
66895SOL    HW1  709  11.458  10.241   8.698
66895SOL    HW2  710  11.296  10.221   8.693
66896SOL     OW  711  12.359  11.102   9.064
66896SOL    HW1  712  12.383  11.162   8.988
66896SOL    HW2  713  12.366  11.007   9.034
66897SOL     OW  714  11.489   9.561   9.249
66897SOL    HW1  715  11.560   9.632   9.255
66897SOL    HW2  716  11.401   9.600   9.277
66898SOL     OW  717  12.638  10.727   8.401
66898SOL    HW1  718  12.579  10.733   8.481
66898SOL    HW2  719  12.623  10.639   8.355
66899SOL     OW  720  12.839  11.024   8.020
66899SOL    HW1  721  12.798  11.001   7.932
66899SOL    HW2  722  12.821  10.950   8.085
66900SOL     OW  723  11.770  10.039   7.718
66900SOL    HW1  724  11.794  10.108   7.650
66900SOL    HW2  725  11.692  10.072   7.772
66901SOL     OW  726  12.453   9.655   8.392
66901SOL    HW1  727  12.367   9.605   8.379
66901SOL    HW2  728  12.515   9.601   8.448
66902SOL     OW  729  11.979   9.915   8.913
66902SOL    HW1  730  11.932   9.912   9.002
66902SOL    HW2  731  11.928   9.860   8.847
66903SOL     OW  732  12.566   9.779   9.122
66903SOL    HW1  733  12.546   9.822   9.210
66903SOL    HW2  734  12.644   9.717   9.131
66904SOL     OW  735  12.145  10.200   9.020
66904SOL    HW1  736  12.191  10.116   8.991
66904SOL    HW2  737  12.089  10.234   8.945
66905SOL     OW  738  12.163   9.720   8.690
66905SOL    HW1  739  12.086   9.754   8.744
66905SOL    HW2  740  12.129   9.669   8.611
66906SOL     OW  741  12.213  10.011   7.877
66906SOL    HW1  742  12.239  10.007   7.973
66906SOL    HW2  743  12.128   9.960   7.863
66907SOL     OW  744  11.248  10.121   8.237
66907SOL    HW1  745  11.347  10.109   8.246
66907SOL    HW2  746  11.224  10.216   8.258
66908SOL     OW  747  11.302  11.131   9.019
66908SOL    HW1  748  11.292  11.116   9.118
66908SOL    HW2  749  11.216  11.167   8.983
66909SOL     OW  750  12.037   9.658   7.643
66909SOL    HW1  751  12.096   9.721   7.594
66909SOL    HW2  752  12.056   9.564   7.614
66910SOL     OW  753  12.534  10.454   7.993
66910SOL    HW1  754  12.617  10.425   7.945
66910SOL    HW2  755  12.485  10.521   7.937
66911SOL     OW  756  11.722   9.506   8.333
66911SOL    HW1  757  11.717   9.501   8.433
66911SOL    HW2  758  11.724   9.602   8.304
66912SOL     OW  759  12.180  10.766   7.925
66912SOL    HW1  760  12.134  10.838   7.873
66912SOL    HW2  761  12.176  10.786   8.023
66913SOL     OW  762  11.523  11.111   8.301
66913SOL    HW1  763  11.573  11.025   8.307
66913SOL    HW2  764  11.588  11.188   8.298
66914SOL     OW  765  12.399  10.860   8.954
66914SOL    HW1  766  12.405  10.783   9.018
66914SOL    HW2  767  12.347  10.834   8.874
66915SOL     OW  768  11.493  10.253   7.690
66915SOL    HW1  769  11.575  10.292   7.648
66915SOL    HW2  770  11.466  10.171   7.641
66916SOL     OW  771  12.630  10.045   8.176
66916SOL    HW1  772  12.625   9.980   8.251
66916SOL    HW2  773  12.710  10.104   8.189
66917SOL     OW  774  11.633  10.576   9.175
66917SOL    HW1  775  11.583  10.577   9.089
66917SOL    HW2  776  11.570  10.558   9.251
66918SOL     OW  777  12.283  11.086   7.685
66918SOL    HW1  778  12.223  11.024   7.735
66918SOL    HW2  779  12.314  11.042   7.600
66919SOL     OW  780  11.374   9.595   8.946
66919SOL    HW1  781  11.294   9.655   8.933
66919SOL    HW2  782  11.364   9.546   9.032
66920SOL     OW  783  11.636  11.053   7.771
66920SOL    HW1  784  11.669  11.092   7.857
66920SOL    HW2  785  11.712  11.046   7.706
66921SOL     OW  786  12.572   9.417   7.874
66921SOL    HW1  787  12.548   9.380   7.784
66921SOL    HW2  788  12.671   9.433   7.878
66922SOL     OW  789  11.421  11.095   8.689
66922SOL    HW1  790  11.478  11.030   8.739
66922SOL    HW2  791  11.405  11.062   8.596
66923SOL     OW  792  12.112  11.008   8.352
66923SOL    HW1  793  12.192  10.951   8.373
66923SOL    HW2  794  12.063  10.968   8.275
66924SOL     OW  795  11.554  10.010   7.928
66924SOL    HW1  796  11.599   9.920   7.925
66924SOL    HW2  797  11.460   9.999   7.961
66925SOL     OW  798  11.786   9.432   7.565
66925SOL    HW1  799  11.884   9.410   7.572
66925SOL    HW2  800  11.755   9.415   7.472
66926SOL     OW  801  11.953   9.574   9.197
66926SOL    HW1  802  12.020   9.513   9.240
66926SOL    HW2  803  11.880   9.593   9.262
66927SOL     OW  804  12.060  10.824   8.643
66927SOL    HW1  805  12.037  10.799   8.549
66927SOL    HW2  806  12.121  10.755   8.682
66928SOL     OW  807  12.523   9.900   8.881
66928SOL    HW1  808  12.551   9.857   8.966
66928SOL    HW2  809  12.548   9.996   8.882
66929SOL     OW  810  11.975  10.712   8.372
66929SOL    HW1  811  12.065  10.726   8.330
66929SOL    HW2  812  11.904  10.714   8.301
66930SOL     OW  813  12.094   9.813   8.347
66930SOL    HW1  814  12.069   9.804   8.251
66930SOL    HW2  815  12.142   9.731   8.378
66931SOL     OW  816  11.711   9.374   7.960
66931SOL    HW1  817  11.630   9.375   8.018
66931SOL    HW2  818  11.714   9.457   7.905
66932SOL     OW  819  12.606  10.498   7.489
66932SOL    HW1  820  12.638  10.422   7.546
66932SOL    HW2  821  12.514  10.525   7.519
66933SOL     OW  822  11.469   9.345   7.619
66933SOL    HW1  823  11.518   9.429   7.598
66933SOL    HW2  824  11.531   9.280   7.664
66934SOL     OW  825  12.107   9.546   7.928
66934SOL    HW1  826  12.059   9.587   7.850
66934SOL    HW2  827  12.206   9.544   7.909
66935SOL     OW  828  12.248   9.993   8.912
66935SOL    HW1  829  12.168   9.932   8.915
66935SOL    HW2  830  12.329   9.940   8.888
66936SOL     OW  831  12.399  10.880   8.241
66936SOL    HW1  832  12.420  10.954   8.176
66936SOL    HW2  833  12.467  10.880   8.314
66937SOL     OW  834  11.631  10.462   8.189
66937SOL    HW1  835  11.560  10.435   8.254
66937SOL    HW2  836  11.605  10.434   8.096
66938SOL     OW  837  12.443  11.107   8.039
66938SOL    HW1  838  12.487  11.171   7.975
66938SOL    HW2  839  12.393  11.159   8.109
66939SOL     OW  840  12.204   9.859   7.464
66939SOL    HW1  841  12.163   9.941   7.425
66939SOL    HW2  842  12.268   9.885   7.537
66940SOL     OW  843  11.250   9.866   8.834
66940SOL    HW1  844  11.342   9.865   8.793
66940SOL    HW2  845  11.244   9.940   8.901
66941SOL     OW  846  11.733   9.532   8.595
66941SOL    HW1  847  11.771   9.448   8.632
66941SOL    HW2  848  11.645   9.551   8.639
66942SOL     OW  849  12.038   9.764   8.090
66942SOL    HW1  850  12.006   9.836   8.028
66942SOL    HW2  851  12.062   9.683   8.037
66943SOL     OW  852  12.189   9.349   8.201
66943SOL    HW1  853  12.117   9.354   8.132
66943SOL    HW2  854  12.165   9.280   8.270
66944SOL     OW  855  12.601  10.483   8.315
66944SOL    HW1  856  12.546  10.399   8.308
66944SOL    HW2  857  12.627  10.512   8.223
66945SOL     OW  858  12.638   9.900   8.440
66945SOL    HW1  859  12.608   9.805   8.447
66945SOL    HW2  860  12.711   9.916   8.506
66946SOL     OW  861  11.660  10.695   7.622
66946SOL    HW1  862  11.573  10.680   7.669
66946SOL    HW2  863  11.643  10.721   7.527
66947SOL     OW  864  12.562   9.885   7.526
66947SOL    HW1  865  12.508   9.864   7.607
66947SOL    HW2  866  12.653   9.844   7.535
66948SOL     OW  867  11.699   9.566   7.776
66948SOL    HW1  868  11.726   9.507   7.701
66948SOL    HW2  869  11.699   9.661   7.745
66949SOL     OW  870  12.236  10.657   8.788
66949SOL    HW1  871  12.156  10.634   8.843
66949SOL    HW2  872  12.319  10.631   8.837
66950SOL     OW  873  12.764  10.939   9.073
66950SOL    HW1  874  12.791  10.973   8.983
66950SOL    HW2  875  12.843  10.901   9.119
66951SOL     OW  876  12.283  10.505   8.548
66951SOL    HW1  877  12.243  10.549   8.629
66951SOL    HW2  878  12.242  10.542   8.465
66952SOL     OW  879  12.087   9.399   8.850
66952SOL    HW1  880  12.112   9.379   8.755
66952SOL    HW2  881  12.159   9.455   8.892
66953SOL     OW  882  12.152  10.426   9.167
66953SOL    HW1  883  12.053  10.432   9.177
66953SOL    HW2  884  12.175  10.346   9.111
66954SOL     OW  885  11.877  10.360   7.816
66954SOL    HW1  886  11.863  10.367   7.915
66954SOL    HW2  887  11.961  10.309   7.798
66955SOL     OW  888  11.582  10.123   8.699
66955SOL    HW1  889  11.668  10.135   8.749
66955SOL    HW2  890  11.540  10.036   8.726
66956SOL     OW  891  12.446   9.696   8.710
66956SOL    HW1  892  12.467   9.770   8.774
66956SOL    HW2  893  12.357   9.713   8.667
66957SOL     OW  894  11.236  10.874   8.779
66957SOL    HW1  895  11.190  10.956   8.745
66957SOL    HW2  896  11.334  10.893   8.788
66958SOL     OW  897  11.539  10.410   7.949
66958SOL    HW1  898  11.532  10.493   7.893
66958SOL    HW2  899  11.543  10.330   7.889
66959SOL     OW  900  11.738   9.847   8.313
66959SOL    HW1  901  11.750   9.913   8.239
66959SOL    HW2  902  11.784   9.881   8.396
66960SOL     OW  903  12.424  10.658   7.836
66960SOL    HW1  904  12.474  10.735   7.876
66960SOL    HW2  905  12.329  10.660   7.868
66961SOL     OW  906  12.444  10.755   8.590
66961SOL    HW1  907  12.491  10.768   8.677
66961SOL    HW2  908  12.378  10.681   8.599
66962SOL     OW  909  12.754   9.949   7.920
66962SOL    HW1  910  12.723  10.010   7.993
66962SOL    HW2  911  12.804  10.001   7.851
66963SOL     OW  912  11.526  10.820   8.777
66963SOL    HW1  913  11.505  10.776   8.690
66963SOL    HW2  914  11.623  10.846   8.780
66964SOL     OW  915  11.574  10.061   9.046
66964SOL    HW1  916  11.642  10.116   8.999
66964SOL    HW2  917  11.614   9.973   9.073
66965SOL     OW  918  12.185   9.415   9.218
66965SOL    HW1  919  12.191   9.500   9.166
66965SOL    HW2  920  12.217   9.339   9.161
66966SOL     OW  921  11.676   9.360   9.188
66966SOL    HW1  922  11.634   9.303   9.118
66966SOL    HW2  923  11.610   9.429   9.220
66967SOL     OW  924  11.745  10.180   8.477
66967SOL    HW1  925  11.789  10.269   8.468
66967SOL    HW2  926  11.682  10.180   8.554
66968SOL     OW  927  12.532  10.172   8.493
66968SOL    HW1  928  12.457  10.172   8.427
66968SOL    HW2  929  12.569  10.080   8.502
66969SOL     OW  930  12.381   9.835   7.723
66969SOL    HW1  931  12.394   9.751   7.777
66969SOL    HW2  932  12.352   9.909   7.783
66970SOL     OW  933  11.479   9.523   8.679
66970SOL    HW1  934  11.456   9.560   8.769
66970SOL    HW2  935  11.449   9.428   8.673
66971SOL     OW  936  11.209  10.620   8.730
66971SOL    HW1  937  11.262  10.571   8.798
66971SOL    HW2  938  11.231  10.718   8.735
66972SOL     OW  939  11.904   9.944   8.512
66972SOL    HW1  940  11.963   9.918   8.436
66972SOL    HW2  941  11.876  10.040   8.501
66973SOL     OW  942  11.479   9.373   8.066
66973SOL    HW1  943  11.468   9.467   8.099
66973SOL    HW2  944  11.474   9.310   8.143
66974SOL     OW  945  12.794   9.677   7.822
66974SOL    HW1  946  12.796   9.601   7.886
66974SOL    HW2  947  12.746   9.754   7.862
66975SOL     OW  948  12.195  10.076   8.414
66975SOL    HW1  949  12.210  10.097   8.510
66975SOL    HW2  950  12.165   9.981   8.405
66976SOL     OW  951  12.152  10.883   9.148
66976SOL    HW1  952  12.132  10.927   9.060
66976SOL    HW2  953  12.191  10.792   9.132
66977SOL     OW  954  11.522  10.208   9.252
66977SOL    HW1  955  11.598  10.252   9.300
66977SOL    HW2  956  11.557  10.161   9.170
66978SOL     OW  957  12.712   9.584   7.573
66978SOL    HW1  958  12.651   9.509   7.596
66978SOL    HW2  959  12.734   9.636   7.656
66979SOL     OW  960  12.475  10.148   7.490
66979SOL    HW1  961  12.509  10.055   7.505
66979SOL    HW2  962  12.493  10.175   7.395
66980SOL     OW  963  12.240  10.643   8.297
66980SOL    HW1  964  12.247  10.559   8.242
66980SOL    HW2  965  12.302  10.712   8.261
66981SOL     OW  966  11.491  10.120   8.397
66981SOL    HW1  967  11.584  10.156   8.402
66981SOL    HW2  968  11.485  10.035   8.449
66982SOL     OW  969  11.511   9.819   8.454
66982SOL    HW1  970  11.459   9.736   8.437
66982SOL    HW2  971  11.588   9.824   8.390
66983SOL     OW  972  12.310   9.690   9.126
66983SOL    HW1  973  12.265   9.753   9.190
66983SOL    HW2  974  12.403   9.721   9.109
66984SOL     OW  975  12.332   9.517   8.925
66984SOL    HW1  976  12.332   9.581   9.002
66984SOL    HW2  977  12.360   9.565   8.842
66985SOL     OW  978  11.180  10.636   7.648
66985SOL    HW1  979  11.087  10.657   7.617
66985SOL    HW2  980  11.190  10.537   7.661
66986SOL     OW  981  11.260  11.111   8.375
66986SOL    HW1  982  11.218  11.025   8.348
66986SOL    HW2  983  11.354  11.114   8.341
66987SOL     OW  984  11.676  10.878   8.358
66987SOL    HW1  985  11.742  10.952   8.367
66987SOL    HW2  986  11.720  10.799   8.316
66988SOL     OW  987  12.174  10.106   8.686
66988SOL    HW1  988  12.215  10.074   8.772
66988SOL    HW2  989  12.078  10.079   8.683
66989SOL     OW  990  11.212   9.854   8.562
66989SOL    HW1  991  11.297   9.821   8.521
66989SOL    HW2  992  11.225   9.869   8.660
66990SOL     OW  993  11.361   9.830   9.170
66990SOL    HW1  994  11.420   9.790   9.100
66990SOL    HW2  995  11.303   9.901   9.129
66991SOL     OW  996  12.541  10.260   9.108
66991SOL    HW1  997  12.580  10.349   9.128
66991SOL    HW2  998  12.551  10.240   9.011
66992SOL     OW  999  11.987   9.882   7.773
66992SOL    HW1 1000  11.994   9.793   7.727
66992SOL    HW2 1001  11.893   9.916   7.765
66993SOL     OW 1002  11.424  10.874   9.192
66993SOL    HW1 1003  11.394  10.931   9.268
66993SOL    HW2 1004  11.417  10.777   9.218
66994SOL     OW 1005  11.843   9.774   8.717
66994SOL    HW1 1006  11.809   9.685   8.687
66994SOL    HW2 1007  11.869   9.828   8.637
66995SOL     OW 1008  12.102  10.988   8.913
66995SOL    HW1 1009  12.078  10.970   8.818
66995SOL    HW2 1010  12.132  11.082   8.923
66996SOL     OW 1011  11.645   9.810   7.639
66996SOL    HW1 1012  11.706   9.890   7.643
66996SOL    HW2 1013  11.550   9.841   7.646
66997SOL     OW 1014  11.331  10.447   8.914
66997SOL    HW1 1015  11.353  10.386   8.990
66997SOL    HW2 1016  11.341  10.398   8.828
66998SOL     OW 1017  12.519  10.369   8.682
66998SOL    HW1 1018  12.543  10.306   8.608
66998SOL    HW2 1019  12.429  10.409   8.664
66999SOL     OW 1020  12.474  10.165   7.757
66999SOL    HW1 1021  12.388  10.134   7.799
66999SOL    HW2 1022  12.470  10.151   7.658
67000SOL     OW 1023  12.424  11.041   8.576
67000SOL    HW1 1024  12.508  11.046   8.522
67000SOL    HW2 1025  12.401  10.945   8.594
67001SOL     OW 1026  11.255  10.568   8.470
67001SOL    HW1 1027  11.250  10.567   8.570
67001SOL    HW2 1028  11.172  10.527   8.432
67002SOL     OW 1029  11.860  10.972   9.164
67002SOL    HW1 1030  11.804  11.053   9.173
67002SOL    HW2 1031  11.912  10.976   9.078
67003SOL     OW 1032  12.898   9.445   7.971
67003SOL    HW1 1033  12.971   9.428   7.904
67003SOL    HW2 1034  12.867   9.358   8.009
67004SOL     OW 1035  12.560  10.883   7.925
67004SOL    HW1 1036  12.627  10.895   7.851
67004SOL    HW2 1037  12.520  10.972   7.948
67005SOL     OW 1038  11.302  11.104   9.299
67005SOL    HW1 1039  11.261  11.030   9.352
67005SOL    HW2 1040  11.366  11.155   9.357
67006SOL     OW 1041  12.452  10.237   8.120
67006SOL    HW1 1042  12.512  10.156   8.122
67006SOL    HW2 1043  12.492  10.306   8.060
67007SOL     OW 1044  12.002  10.583   8.870
67007SOL    HW1 1045  11.997  10.616   8.965
67007SOL    HW2 1046  11.916  10.602   8.824
67008SOL     OW 1047  11.844  10.926   7.602
67008SOL    HW1 1048  11.853  10.936   7.503
67008SOL    HW2 1049  11.804  10.837   7.623
67009SOL     OW 1050  11.435   9.636   8.168
67009SOL    HW1 1051  11.356   9.687   8.134
67009SOL    HW2 1052  11.426   9.621   8.266
67010SOL     OW 1053  12.366  10.922   7.479
67010SOL    HW1 1054  12.372  10.829   7.516
67010SOL    HW2 1055  12.307  10.922   7.399
67011SOL     OW 1056  11.994  10.312   8.820
67011SOL    HW1 1057  12.034  10.311   8.728
67011SOL    HW2 1058  12.004  10.404   8.860
67012SOL     OW 1059  12.088  10.220   7.739
67012SOL    HW1 1060  12.151  10.258   7.671
67012SOL    HW2 1061  12.128  10.137   7.778
67013SOL     OW 1062  12.676  10.917   7.492
67013SOL    HW1 1063  12.584  10.954   7.499
67013SOL    HW2 1064  12.714  10.937   7.402
67014SOL     OW 1065  11.544  10.598   8.938
67014SOL    HW1 1066  11.531  10.691   8.904
67014SOL    HW2 1067  11.460  10.546   8.925
67015SOL     OW 1068  12.211  10.408   8.144
67015SOL    HW1 1069  12.141  10.361   8.198
67015SOL    HW2 1070  12.270  10.340   8.101
67016SOL     OW 1071  12.186   9.546   8.419
67016SOL    HW1 1072  12.178   9.510   8.326
67016SOL    HW2 1073  12.184   9.470   8.484
67017SOL     OW 1074  11.762  10.797   7.939
67017SOL    HW1 1075  11.804  10.739   7.869
67017SOL    HW2 1076  11.718  10.876   7.895
67018SOL     OW 1077  11.427  10.658   7.738
67018SOL    HW1 1078  11.331  10.659   7.711
67018SOL    HW2 1079  11.439  10.711   7.822
67019SOL     OW 1080  11.277  10.323   9.174
67019SOL    HW1 1081  11.200  10.290   9.228
67019SOL    HW2 1082  11.362  10.293   9.216
67020SOL     OW 1083  11.844   9.513   8.937
67020SOL    HW1 1084  11.934   9.497   8.897
67020SOL    HW2 1085  11.852   9.518   9.036
67021SOL     OW 1086  11.247   9.655   7.481
67021SOL    HW1 1087  11.155   9.627   7.452
67021SOL    HW2 1088  11.278   9.732   7.425
67022SOL     OW 1089  12.612  10.166   8.846
67022SOL    HW1 1090  12.555  10.218   8.783
67022SOL    HW2 1091  12.708  10.178   8.822
67023SOL     OW 1092  11.244   9.476   7.766
67023SOL    HW1 1093  11.227   9.559   7.712
67023SOL    HW2 1094  11.334   9.439   7.744
67024SOL     OW 1095  12.355  10.645   7.567
67024SOL    HW1 1096  12.256  10.634   7.569
67024SOL    HW2 1097  12.389  10.660   7.660
67025SOL     OW 1098  11.785  10.152   8.879
67025SOL    HW1 1099  11.841  10.233   8.862
67025SOL    HW2 1100  11.844  10.072   8.882
67026SOL     OW 1101  12.665  11.077   8.407
67026SOL    HW1 1102  12.698  11.141   8.338
67026SOL    HW2 1103  12.731  11.071   8.482
67027SOL     OW 1104  11.888   9.875   9.156
67027SOL    HW1 1105  11.907   9.940   9.230
67027SOL    HW2 1106  11.948   9.795   9.165
67028SOL     OW 1107  12.622  10.530   9.081
67028SOL    HW1 1108  12.613  10.520   9.180
67028SOL    HW2 1109  12.718  10.523   9.055
67029SOL     OW 1110  11.562  11.051   9.008
67029SOL    HW1 1111  11.471  11.092   9.006
67029SOL    HW2 1112  11.555  10.957   9.040
67030SOL     OW 1113  12.397   9.635   7.897
67030SOL    HW1 1114  12.462   9.561   7.886
67030SOL    HW2 1115  12.417   9.685   7.981
67031SOL     OW 1116  11.766  10.055   8.100
67031SOL    HW1 1117  11.816  10.140   8.081
67031SOL    HW2 1118  11.678  10.057   8.052
67032SOL     OW 1119  12.031  10.684   7.464
67032SOL    HW1 1120  11.985  10.699   7.552
67032SOL    HW2 1121  12.075  10.769   7.434
67033SOL     OW 1122  11.833  11.100   8.401
67033SOL    HW1 1123  11.787  11.188   8.388
67033SOL    HW2 1124  11.932  11.112   8.394
67034SOL     OW 1125  12.031  10.266   8.309
67034SOL    HW1 1126  12.085  10.197   8.357
67034SOL    HW2 1127  11.999  10.335   8.375
67035SOL     OW 1128  12.255  10.294   7.535
67035SOL    HW1 1129  12.232  10.347   7.453
67035SOL    HW2 1130  12.336  10.238   7.516
67036SOL     OW 1131  13.033  10.879   8.299
67036SOL    HW1 1132  12.962  10.867   8.229
67036SOL    HW2 1133  13.034  10.800   8.359
67037SOL     OW 1134  11.393  10.624   9.292
67037SOL    HW1 1135  11.328  10.551   9.271
67037SOL    HW2 1136  11.397  10.638   9.390
67038SOL     OW 1137  11.251  10.550   8.101
67038SOL    HW1 1138  11.250  10.503   8.189
67038SOL    HW2 1139  11.333  10.522   8.050
67039SOL     OW 1140  11.844  10.701   9.072
67039SOL    HW1 1141  11.766  10.651   9.110
67039SOL    HW2 1142  11.841  10.796   9.103
67040SOL     OW 1143  11.600   9.734   7.968
67040SOL    HW1 1144  11.630   9.662   7.906
67040SOL    HW2 1145  11.561   9.694   8.051
67041SOL     OW 1146  11.489   9.857   8.728
67041SOL    HW1 1147  11.527   9.798   8.800
67041SOL    HW2 1148  11.529   9.831   8.640
67042SOL     OW 1149  11.984  10.896   8.135
67042SOL    HW1 1150  12.016  10.906   8.041
67042SOL    HW2 1151  11.905  10.834   8.137
67043SOL     OW 1152  12.596   9.524   8.560
67043SOL    HW1 1153  12.648   9.459   8.615
67043SOL    HW2 1154  12.547   9.587   8.621
67044SOL     OW 1155  11.942  10.640   7.749
67044SOL    HW1 1156  11.896  10.553   7.766
67044SOL    HW2 1157  12.033  10.637   7.790
67045SOL     OW 1158  11.790  10.877   8.732
67045SOL    HW1 1159  11.785  10.959   8.789
67045SOL    HW2 1160  11.879  10.874   8.687
67046SOL     OW 1161  12.524   9.362   7.616
67046SOL    HW1 1162  12.559   9.321   7.532
67046SOL    HW2 1163  12.434   9.324   7.636
67047SOL     OW 1164  12.472   9.763   8.139
67047SOL    HW1 1165  12.413   9.843   8.143
67047SOL    HW2 1166  12.487   9.728   8.232
67048SOL     OW 1167  12.765   9.531   8.330
67048SOL    HW1 1168  12.681   9.530   8.384
67048SOL    HW2 1169  12.767   9.614   8.274
67049SOL     OW 1170  11.211  10.387   7.748
67049SOL    HW1 1171  11.310  10.376   7.739
67049SOL    HW2 1172  11.171  10.301   7.780
67050SOL     OW 1173  12.047  10.956   7.785
67050SOL    HW1 1174  11.970  10.921   7.731
67050SOL    HW2 1175  12.015  11.027   7.847
67051SOL     OW 1176  11.402   9.938   9.423
67051SOL    HW1 1177  11.309   9.936   9.460
67051SOL    HW2 1178  11.403   9.899   9.331
67052SOL     OW 1179  11.397   9.585  10.306
67052SOL    HW1 1180  11.432   9.568  10.398
67052SOL    HW2 1181  11.309   9.540  10.294
67053SOL     OW 1182  11.191   9.678   9.957
67053SOL    HW1 1183  11.109   9.721   9.996
67053SOL    HW2 1184  11.163   9.605   9.894
67054SOL     OW 1185  11.741  10.585  10.475
67054SOL    HW1 1186  11.648  10.578  10.438
67054SOL    HW2 1187  11.752  10.674  10.519
67055SOL     OW 1188  12.727  10.821  10.013
67055SOL    HW1 1189  12.670  10.805  10.094
67055SOL    HW2 1190  12.668  10.831   9.933
67056SOL     OW 1191  12.307  10.013  10.027
67056SOL    HW1 1192  12.364  10.091  10.002
67056SOL    HW2 1193  12.247  10.039  10.103
67057SOL     OW 1194  11.940  10.454  10.333
67057SOL    HW1 1195  11.862  10.471  10.393
67057SOL    HW2 1196  11.974  10.541  10.297
67058SOL     OW 1197  12.022  10.108  11.133
67058SOL    HW1 1198  12.018  10.184  11.198
67058SOL    HW2 1199  12.044  10.144  11.042
67059SOL     OW 1200  11.857  10.322   9.975
67059SOL    HW1 1201  11.926  10.306  10.045
67059SOL    HW2 1202  11.784  10.379  10.013
67060SOL     OW 1203  11.507  10.745  10.371
67060SOL    HW1 1204  11.429  10.714  10.318
67060SOL    HW2 1205  11.565  10.803  10.314
67061SOL     OW 1206  12.632  10.815  10.649
67061SOL    HW1 1207  12.656  10.909  10.675
67061SOL    HW2 1208  12.616  10.761  10.731
67062SOL     OW 1209  11.610   9.702  10.809
67062SOL    HW1 1210  11.692   9.646  10.818
67062SOL    HW2 1211  11.529   9.644  10.813
67063SOL     OW 1212  11.403  11.023   9.793
67063SOL    HW1 1213  11.437  11.100   9.847
67063SOL    HW2 1214  11.447  11.023   9.703
67064SOL     OW 1215  12.299  10.651  11.000
67064SOL    HW1 1216  12.346  10.651  11.088
67064SOL    HW2 1217  12.251  10.564  10.989
67065SOL     OW 1218  11.402  10.744   9.848
67065SOL    HW1 1219  11.376  10.840   9.848
67065SOL    HW2 1220  11.331  10.690   9.893
67066SOL     OW 1221  11.412  10.401  10.196
67066SOL    HW1 1222  11.426  10.317  10.248
67066SOL    HW2 1223  11.357  10.465  10.251
67067SOL     OW 1224  11.792  11.096  10.749
67067SOL    HW1 1225  11.700  11.079  10.784
67067SOL    HW2 1226  11.820  11.188  10.775
67068SOL     OW 1227  11.778  10.274   9.433
67068SOL    HW1 1228  11.785  10.358   9.379
67068SOL    HW2 1229  11.824  10.287   9.521
67069SOL     OW 1230  12.766   9.424  10.790
67069SOL    HW1 1231  12.748   9.491  10.718
67069SOL    HW2 1232  12.763   9.470  10.879
67070SOL     OW 1233  11.294   9.953   9.873
67070SOL    HW1 1234  11.249   9.865   9.890
67070SOL    HW2 1235  11.293  10.007   9.957
67071SOL     OW 1236  11.199  10.906   9.427
67071SOL    HW1 1237  11.180  10.810   9.448
67071SOL    HW2 1238  11.166  10.964   9.502
67072SOL     OW 1239  12.861  10.232   9.922
67072SOL    HW1 1240  12.956  10.203   9.930
67072SOL    HW2 1241  12.853  10.297   9.847
67073SOL     OW 1242  11.285  10.047  10.907
67073SOL    HW1 1243  11.373  10.034  10.952
67073SOL    HW2 1244  11.272  10.144  10.885
67074SOL     OW 1245  11.785  10.675  10.036
67074SOL    HW1 1246  11.736  10.588  10.045
67074SOL    HW2 1247  11.762  10.718   9.949
67075SOL     OW 1248  12.465  10.538  10.733
67075SOL    HW1 1249  12.502  10.465  10.675
67075SOL    HW2 1250  12.517  10.543  10.818
67076SOL     OW 1251  11.981   9.314   9.812
67076SOL    HW1 1252  12.021   9.405   9.803
67076SOL    HW2 1253  11.881   9.322   9.818
67077SOL     OW 1254  11.369  10.286  10.574
67077SOL    HW1 1255  11.458  10.241  10.560
67077SOL    HW2 1256  11.296  10.221  10.555
67078SOL     OW 1257  12.359  11.102  10.926
67078SOL    HW1 1258  12.383  11.162  10.850
67078SOL    HW2 1259  12.366  11.007  10.896
67079SOL     OW 1260  11.489   9.561  11.111
67079SOL    HW1 1261  11.560   9.632  11.117
67079SOL    HW2 1262  11.401   9.600  11.139
67080SOL     OW 1263  12.638  10.727  10.263
67080SOL    HW1 1264  12.579  10.733  10.343
67080SOL    HW2 1265  12.623  10.639  10.217
67081SOL     OW 1266  12.839  11.024   9.882
67081SOL    HW1 1267  12.798  11.001   9.794
67081SOL    HW2 1268  12.821  10.950   9.947
67082SOL     OW 1269  11.770  10.039   9.580
67082SOL    HW1 1270  11.794  10.108   9.512
67082SOL    HW2 1271  11.692  10.072   9.634
67083SOL     OW 1272  12.453   9.655  10.254
67083SOL    HW1 1273  12.367   9.605  10.241
67083SOL    HW2 1274  12.515   9.601  10.310
67084SOL     OW 1275  11.979   9.915  10.775
67084SOL    HW1 1276  11.932   9.912  10.864
67084SOL    HW2 1277  11.928   9.860  10.709
67085SOL     OW 1278  12.566   9.779  10.984
67085SOL    HW1 1279  12.546   9.822  11.072
67085SOL    HW2 1280  12.644   9.717  10.993
67086SOL     OW 1281  12.145  10.200  10.882
67086SOL    HW1 1282  12.191  10.116  10.853
67086SOL    HW2 1283  12.089  10.234  10.807
67087SOL     OW 1284  12.163   9.720  10.552
67087SOL    HW1 1285  12.086   9.754  10.606
67087SOL    HW2 1286  12.129   9.669  10.473
67088SOL     OW 1287  12.213  10.011   9.739
67088SOL    HW1 1288  12.239  10.007   9.835
67088SOL    HW2 1289  12.128   9.960   9.725
67089SOL     OW 1290  11.248  10.121  10.099
67089SOL    HW1 1291  11.347  10.109  10.108
67089SOL    HW2 1292  11.224  10.216  10.120
67090SOL     OW 1293  11.302  11.131  10.881
67090SOL    HW1 1294  11.292  11.116  10.980
67090SOL    HW2 1295  11.216  11.167  10.845
67091SOL     OW 1296  12.037   9.658   9.505
67091SOL    HW1 1297  12.096   9.721   9.456
67091SOL    HW2 1298  12.056   9.564   9.476
67092SOL     OW 1299  12.534  10.454   9.855
67092SOL    HW1 1300  12.617  10.425   9.807
67092SOL    HW2 1301  12.485  10.521   9.799
67093SOL     OW 1302  11.722   9.506  10.195
67093SOL    HW1 1303  11.717   9.501  10.295
67093SOL    HW2 1304  11.724   9.602  10.166
67094SOL     OW 1305  12.180  10.766   9.787
67094SOL    HW1 1306  12.134  10.838   9.735
67094SOL    HW2 1307  12.176  10.786   9.885
67095SOL     OW 1308  11.523  11.111  10.163
67095SOL    HW1 1309  11.573  11.025  10.169
67095SOL    HW2 1310  11.588  11.188  10.160
67096SOL     OW 1311  12.399  10.860  10.816
67096SOL    HW1 1312  12.405  10.783  10.880
67096SOL    HW2 1313  12.347  10.834  10.736
67097SOL     OW 1314  11.493  10.253   9.552
67097SOL    HW1 1315  11.575  10.292   9.510
67097SOL    HW2 1316  11.466  10.171   9.503
67098SOL     OW 1317  12.630  10.045  10.038
67098SOL    HW1 1318  12.625   9.980  10.113
67098SOL    HW2 1319  12.710  10.104  10.051
67099SOL     OW 1320  11.633  10.576  11.037
67099SOL    HW1 1321  11.583  10.577  10.951
67099SOL    HW2 1322  11.570  10.558  11.113
67100SOL     OW 1323  12.283  11.086   9.547
67100SOL    HW1 1324  12.223  11.024   9.597
67100SOL    HW2 1325  12.314  11.042   9.462
67101SOL     OW 1326  11.374   9.595  10.808
67101SOL    HW1 1327  11.294   9.655  10.795
67101SOL    HW2 1328  11.364   9.546  10.894
67102SOL     OW 1329  11.636  11.053   9.633
67102SOL    HW1 1330  11.669  11.092   9.719
67102SOL    HW2 1331  11.712  11.046   9.568
67103SOL     OW 1332  12.572   9.417   9.736
67103SOL    HW1 1333  12.548   9.380   9.646
67103SOL    HW2 1334  12.671   9.433   9.740
67104SOL     OW 1335  11.421  11.095  10.551
67104SOL    HW1 1336  11.478  11.030  10.601
67104SOL    HW2 1337  11.405  11.062  10.458
67105SOL     OW 1338  12.112  11.008  10.214
67105SOL    HW1 1339  12.192  10.951  10.235
67105SOL    HW2 1340  12.063  10.968  10.137
67106SOL     OW 1341  11.554  10.010   9.790
67106SOL    HW1 1342  11.599   9.920   9.787
67106SOL    HW2 1343  11.460   9.999   9.823
67107SOL     OW 1344  11.786   9.432   9.427
67107SOL    HW1 1345  11.884   9.410   9.434
67107SOL    HW2 1346  11.755   9.415   9.334
67108SOL     OW 1347  11.953   9.574  11.059
67108SOL    HW1 1348  12.020   9.513  11.102
67108SOL    HW2 1349  11.880   9.593  11.124
67109SOL     OW 1350  12.060  10.824  10.505
67109SOL    HW1 1351  12.037  10.799  10.411
67109SOL    HW2 1352  12.121  10.755  10.544
67110SOL     OW 1353  12.523   9.900  10.743
67110SOL    HW1 1354  12.551   9.857  10.828
67110SOL    HW2 1355  12.548   9.996  10.744
67111SOL     OW 1356  11.975  10.712  10.234
67111SOL    HW1 1357  12.065  10.726  10.192
67111SOL    HW2 1358  11.904  10.714  10.163
67112SOL     OW 1359  12.094   9.813  10.209
67112SOL    HW1 1360  12.069   9.804  10.113
67112SOL    HW2 1361  12.142   9.731  10.240
67113SOL     OW 1362  11.711   9.374   9.822
67113SOL    HW1 1363  11.630   9.375   9.880
67113SOL    HW2 1364  11.714   9.457   9.767
67114SOL     OW 1365  12.606  10.498   9.351
67114SOL    HW1 1366  12.638  10.422   9.408
67114SOL    HW2 1367  12.514  10.525   9.381
67115SOL     OW 1368  11.469   9.345   9.481
67115SOL    HW1 1369  11.518   9.429   9.460
67115SOL    HW2 1370  11.531   9.280   9.526
67116SOL     OW 1371  12.107   9.546   9.790
67116SOL    HW1 1372  12.059   9.587   9.712
67116SOL    HW2 1373  12.206   9.544   9.771
67117SOL     OW 1374  12.248   9.993  10.774
67117SOL    HW1 1375  12.168   9.932  10.777
67117SOL    HW2 1376  12.329   9.940  10.750
67118SOL     OW 1377  12.399  10.880  10.103
67118SOL    HW1 1378  12.420  10.954  10.038
67118SOL    HW2 1379  12.467  10.880  10.176
67119SOL     OW 1380  11.631  10.462  10.051
67119SOL    HW1 1381  11.560  10.435  10.116
67119SOL    HW2 1382  11.605  10.434   9.958
67120SOL     OW 1383  12.443  11.107   9.901
67120SOL    HW1 1384  12.487  11.171   9.837
67120SOL    HW2 1385  12.393  11.159   9.971
67121SOL     OW 1386  12.204   9.859   9.326
67121SOL    HW1 1387  12.163   9.941   9.287
67121SOL    HW2 1388  12.268   9.885   9.399
67122SOL     OW 1389  11.250   9.866  10.696
67122SOL    HW1 1390  11.342   9.865  10.655
67122SOL    HW2 1391  11.244   9.940  10.763
67123SOL     OW 1392  11.733   9.532  10.457
67123SOL    HW1 1393  11.771   9.448  10.494
67123SOL    HW2 1394  11.645   9.551  10.501
67124SOL     OW 1395  12.038   9.764   9.952
67124SOL    HW1 1396  12.006   9.836   9.890
67124SOL    HW2 1397  12.062   9.683   9.899
67125SOL     OW 1398  12.189   9.349  10.063
67125SOL    HW1 1399  12.117   9.354   9.994
67125SOL    HW2 1400  12.165   9.280  10.132
67126SOL     OW 1401  12.601  10.483  10.177
67126SOL    HW1 1402  12.546  10.399  10.170
67126SOL    HW2 1403  12.627  10.512  10.085
67127SOL     OW 1404  12.638   9.900  10.302
67127SOL    HW1 1405  12.608   9.805  10.309
67127SOL    HW2 1406  12.711   9.916  10.368
67128SOL     OW 1407  11.660  10.695   9.484
67128SOL    HW1 1408  11.573  10.680   9.531
67128SOL    HW2 1409  11.643  10.721   9.389
67129SOL     OW 1410  12.562   9.885   9.388
67129SOL    HW1 1411  12.508   9.864   9.469
67129SOL    HW2 1412  12.653   9.844   9.397
67130SOL     OW 1413  11.699   9.566   9.638
67130SOL    HW1 1414  11.726   9.507   9.563
67130SOL    HW2 1415  11.699   9.661   9.607
67131SOL     OW 1416  12.236  10.657  10.650
67131SOL    HW1 1417  12.156  10.634  10.705
67131SOL    HW2 1418  12.319  10.631  10.699
67132SOL     OW 1419  12.764  10.939  10.935
67132SOL    HW1 1420  12.791  10.973  10.845
67132SOL    HW2 1421  12.843  10.901  10.981
67133SOL     OW 1422  12.283  10.505  10.410
67133SOL    HW1 1423  12.243  10.549  10.491
67133SOL    HW2 1424  12.242  10.542  10.327
67134SOL     OW 1425  12.087   9.399  10.712
67134SOL    HW1 1426  12.112   9.379  10.617
67134SOL    HW2 1427  12.159   9.455  10.754
67135SOL     OW 1428  12.152  10.426  11.029
67135SOL    HW1 1429  12.053  10.432  11.039
67135SOL    HW2 1430  12.175  10.346  10.973
67136SOL     OW 1431  11.877  10.360   9.678
67136SOL    HW1 1432  11.863  10.367   9.777
67136SOL    HW2 1433  11.961  10.309   9.660
67137SOL     OW 1434  11.582  10.123  10.561
67137SOL    HW1 1435  11.668  10.135  10.611
67137SOL    HW2 1436  11.540  10.036  10.588
67138SOL     OW 1437  12.446   9.696  10.572
67138SOL    HW1 1438  12.467   9.770  10.636
67138SOL    HW2 1439  12.357   9.713  10.529
67139SOL     OW 1440  11.236  10.874  10.641
67139SOL    HW1 1441  11.190  10.956  10.607
67139SOL    HW2 1442  11.334  10.893  10.650
67140SOL     OW 1443  11.539  10.410   9.811
67140SOL    HW1 1444  11.532  10.493   9.755
67140SOL    HW2 1445  11.543  10.330   9.751
67141SOL     OW 1446  11.738   9.847  10.175
67141SOL    HW1 1447  11.750   9.913  10.101
67141SOL    HW2 1448  11.784   9.881  10.258
67142SOL     OW 1449  12.424  10.658   9.698
67142SOL    HW1 1450  12.474  10.735   9.738
67142SOL    HW2 1451  12.329  10.660   9.730
67143SOL     OW 1452  12.444  10.755  10.452
67143SOL    HW1 1453  12.491  10.768  10.539
67143SOL    HW2 1454  12.378  10.681  10.461
67144SOL     OW 1455  12.754   9.949   9.782
67144SOL    HW1 1456  12.723  10.010   9.855
67144SOL    HW2 1457  12.804  10.001   9.713
67145SOL     OW 1458  11.526  10.820  10.639
67145SOL    HW1 1459  11.505  10.776  10.552
67145SOL    HW2 1460  11.623  10.846  10.642
67146SOL     OW 1461  11.574  10.061  10.908
67146SOL    HW1 1462  11.642  10.116  10.861
67146SOL    HW2 1463  11.614   9.973  10.935
67147SOL     OW 1464  12.185   9.415  11.080
67147SOL    HW1 1465  12.191   9.500  11.028
67147SOL    HW2 1466  12.217   9.339  11.023
67148SOL     OW 1467  11.676   9.360  11.050
67148SOL    HW1 1468  11.634   9.303  10.980
67148SOL    HW2 1469  11.610   9.429  11.082
67149SOL     OW 1470  11.745  10.180  10.339
67149SOL    HW1 1471  11.789  10.269  10.330
67149SOL    HW2 1472  11.682  10.180  10.416
67150SOL     OW 1473  12.532  10.172  10.355
67150SOL    HW1 1474  12.457  10.172  10.289
67150SOL    HW2 1475  12.569  10.080  10.364
67151SOL     OW 1476  12.381   9.835   9.585
67151SOL    HW1 1477  12.394   9.751   9.639
67151SOL    HW2 1478  12.352   9.909   9.645
67152SOL     OW 1479  11.479   9.523  10.541
67152SOL    HW1 1480  11.456   9.560  10.631
67152SOL    HW2 1481  11.449   9.428  10.535
67153SOL     OW 1482  11.209  10.620  10.592
67153SOL    HW1 1483  11.262  10.571  10.660
67153SOL    HW2 1484  11.231  10.718  10.597
67154SOL     OW 1485  11.904   9.944  10.374
67154SOL    HW1 1486  11.963   9.918  10.298
67154SOL    HW2 1487  11.876  10.040  10.363
67155SOL     OW 1488  11.479   9.373   9.928
67155SOL    HW1 1489  11.468   9.467   9.961
67155SOL    HW2 1490  11.474   9.310  10.005
67156SOL     OW 1491  12.794   9.677   9.684
67156SOL    HW1 1492  12.796   9.601   9.748
67156SOL    HW2 1493  12.746   9.754   9.724
67157SOL     OW 1494  12.195  10.076  10.276
67157SOL    HW1 1495  12.210  10.097  10.372
67157SOL    HW2 1496  12.165   9.981  10.267
67158SOL     OW 1497  12.152  10.883  11.010
67158SOL    HW1 1498  12.132  10.927  10.922
67158SOL    HW2 1499  12.191  10.792  10.994
67159SOL     OW 1500  11.522  10.208  11.114
67159SOL    HW1 1501  11.598  10.252  11.162
67159SOL    HW2 1502  11.557  10.161  11.032
67160SOL     OW 1503  12.712   9.584   9.435
67160SOL    HW1 1504  12.651   9.509   9.458
67160SOL    HW2 1505  12.734   9.636   9.518
67161SOL     OW 1506  12.475  10.148   9.352
67161SOL    HW1 1507  12.509  10.055   9.367
67161SOL    HW2 1508  12.493  10.175   9.257
67162SOL     OW 1509  12.240  10.643  10.159
67162SOL    HW1 1510  12.247  10.559  10.104
67162SOL    HW2 1511  12.302  10.712  10.123
67163SOL     OW 1512  11.491  10.120  10.259
67163SOL    HW1 1513  11.584  10.156  10.264
67163SOL    HW2 1514  11.485  10.035  10.311
67164SOL     OW 1515  11.511   9.819  10.316
67164SOL    HW1 1516  11.459   9.736  10.299
67164SOL    HW2 1517  11.588   9.824  10.252
67165SOL     OW 1518  12.310   9.690  10.988
67165SOL    HW1 1519  12.265   9.753  11.052
67165SOL    HW2 1520  12.403   9.721  10.971
67166SOL     OW 1521  12.332   9.517  10.787
67166SOL    HW1 1522  12.332   9.581  10.864
67166SOL    HW2 1523  12.360   9.565  10.704
67167SOL     OW 1524  11.180  10.636   9.510
67167SOL    HW1 1525  11.087  10.657   9.479
67167SOL    HW2 1526  11.190  10.537   9.523
67168SOL     OW 1527  11.260  11.111  10.237
67168SOL    HW1 1528  11.218  11.025  10.210
67168SOL    HW2 1529  11.354  11.114  10.203
67169SOL     OW 1530  11.676  10.878  10.220
67169SOL    HW1 1531  11.742  10.952  10.229
67169SOL    HW2 1532  11.720  10.799  10.178
67170SOL     OW 1533  12.174  10.106  10.548
67170SOL    HW1 1534  12.215  10.074  10.634
67170SOL    HW2 1535  12.078  10.079  10.545
67171SOL     OW 1536  11.212   9.854  10.424
67171SOL    HW1 1537  11.297   9.821  10.383
67171SOL    HW2 1538  11.225   9.869  10.522
67172SOL     OW 1539  11.361   9.830  11.032
67172SOL    HW1 1540  11.420   9.790  10.962
67172SOL    HW2 1541  11.303   9.901  10.991
67173SOL     OW 1542  12.541  10.260  10.970
67173SOL    HW1 1543  12.580  10.349  10.990
67173SOL    HW2 1544  12.551  10.240  10.873
67174SOL     OW 1545  11.987   9.882   9.635
67174SOL    HW1 1546  11.994   9.793   9.589
67174SOL    HW2 1547  11.893   9.916   9.627
67175SOL     OW 1548  11.424  10.874  11.054
67175SOL    HW1 1549  11.394  10.931  11.130
67175SOL    HW2 1550  11.417  10.777  11.080
67176SOL     OW 1551  11.843   9.774  10.579
67176SOL    HW1 1552  11.809   9.685  10.549
67176SOL    HW2 1553  11.869   9.828  10.499
67177SOL     OW 1554  12.102  10.988  10.775
67177SOL    HW1 1555  12.078  10.970  10.680
67177SOL    HW2 1556  12.132  11.082  10.785
67178SOL     OW 1557  11.645   9.810   9.501
67178SOL    HW1 1558  11.706   9.890   9.505
67178SOL    HW2 1559  11.550   9.841   9.508
67179SOL     OW 1560  11.331  10.447  10.776
67179SOL    HW1 1561  11.353  10.386  10.852
67179SOL    HW2 1562  11.341  10.398  10.690
67180SOL     OW 1563  12.519  10.369  10.544
67180SOL    HW1 1564  12.543  10.306  10.470
67180SOL    HW2 1565  12.429  10.409  10.526
67181SOL     OW 1566  12.474  10.165   9.619
67181SOL    HW1 1567  12.388  10.134   9.661
67181SOL    HW2 1568  12.470  10.151   9.520
67182SOL     OW 1569  12.424  11.041  10.438
67182SOL    HW1 1570  12.508  11.046  10.384
67182SOL    HW2 1571  12.401  10.945  10.456
67183SOL     OW 1572  11.255  10.568  10.332
67183SOL    HW1 1573  11.250  10.567  10.432
67183SOL    HW2 1574  11.172  10.527  10.294
67184SOL     OW 1575  11.860  10.972  11.026
67184SOL    HW1 1576  11.804  11.053  11.035
67184SOL    HW2 1577  11.912  10.976  10.940
67185SOL     OW 1578  12.898   9.445   9.833
67185SOL    HW1 1579  12.971   9.428   9.766
67185SOL    HW2 1580  12.867   9.358   9.871
67186SOL     OW 1581  12.560  10.883   9.787
67186SOL    HW1 1582  12.627  10.895   9.713
67186SOL    HW2 1583  12.520  10.972   9.810
67187SOL     OW 1584  11.302  11.104  11.161
67187SOL    HW1 1585  11.261  11.030  11.214
67187SOL    HW2 1586  11.366  11.155  11.219
67188SOL     OW 1587  12.452  10.237   9.982
67188SOL    HW1 1588  12.512  10.156   9.984
67188SOL    HW2 1589  12.492  10.306   9.922
67189SOL     OW 1590  12.002  10.583  10.732
67189SOL    HW1 1591  11.997  10.616  10.827
67189SOL    HW2 1592  11.916  10.602  10.686
67190SOL     OW 1593  11.844  10.926   9.464
67190SOL    HW1 1594  11.853  10.936   9.365
67190SOL    HW2 1595  11.804  10.837   9.485
67191SOL     OW 1596  11.435   9.636  10.030
67191SOL    HW1 1597  11.356   9.687   9.996
67191SOL    HW2 1598  11.426   9.621  10.128
67192SOL     OW 1599  12.366  10.922   9.341
67192SOL    HW1 1600  12.372  10.829   9.378
67192SOL    HW2 1601  12.307  10.922   9.261
67193SOL     OW 1602  11.994  10.312  10.682
67193SOL    HW1 1603  12.034  10.311  10.590
67193SOL    HW2 1604  12.004  10.404  10.722
67194SOL     OW 1605  12.088  10.220   9.601
67194SOL    HW1 1606  12.151  10.258   9.533
67194SOL    HW2 1607  12.128  10.137   9.640
67195SOL     OW 1608  12.676  10.917   9.354
67195SOL    HW1 1609  12.584  10.954   9.361
67195SOL    HW2 1610  12.714  10.937   9.264
67196SOL     OW 1611  11.544  10.598  10.800
67196SOL    HW1 1612  11.531  10.691  10.766
67196SOL    HW2 1613  11.460  10.546  10.787
67197SOL     OW 1614  12.211  10.408  10.006
67197SOL    HW1 1615  12.141  10.361  10.060
67197SOL    HW2 1616  12.270  10.340   9.963
67198SOL     OW 1617  12.186   9.546  10.281
67198SOL    HW1 1618  12.178   9.510  10.188
67198SOL    HW2 1619  12.184   9.470  10.346
67199SOL     OW 1620  11.762  10.797   9.801
67199SOL    HW1 1621  11.804  10.739   9.731
67199SOL    HW2 1622  11.718  10.876   9.757
67200SOL     OW 1623  11.427  10.658   9.600
67200SOL    HW1 1624  11.331  10.659   9.573
67200SOL    HW2 1625  11.439  10.711   9.684
67201SOL     OW 1626  11.277  10.323  11.036
67201SOL    HW1 1627  11.200  10.290  11.090
67201SOL    HW2 1628  11.362  10.293  11.078
67202SOL     OW 1629  11.844   9.513  10.799
67202SOL    HW1 1630  11.934   9.497  10.759
67202SOL    HW2 1631  11.852   9.518  10.898
67203SOL     OW 1632  11.247   9.655   9.343
67203SOL    HW1 1633  11.155   9.627   9.314
67203SOL    HW2 1634  11.278   9.732   9.287
67204SOL     OW 1635  12.612  10.166  10.708
67204SOL    HW1 1636  12.555  10.218  10.645
67204SOL    HW2 1637  12.708  10.178  10.684
67205SOL     OW 1638  11.244   9.476   9.628
67205SOL    HW1 1639  11.227   9.559   9.574
67205SOL    HW2 1640  11.334   9.439   9.606
67206SOL     OW 1641  12.355  10.645   9.429
67206SOL    HW1 1642  12.256  10.634   9.431
67206SOL    HW2 1643  12.389  10.660   9.522
67207SOL     OW 1644  11.785  10.152  10.741
67207SOL    HW1 1645  11.841  10.233  10.724
67207SOL    HW2 1646  11.844  10.072  10.744
67208SOL     OW 1647  12.665  11.077  10.269
67208SOL    HW1 1648  12.698  11.141  10.200
67208SOL    HW2 1649  12.731  11.071  10.344
67209SOL     OW 1650  11.888   9.875  11.018
67209SOL    HW1 1651  11.907   9.940  11.092
67209SOL    HW2 1652  11.948   9.795  11.027
67210SOL     OW 1653  12.622  10.530  10.943
67210SOL    HW1 1654  12.613  10.520  11.042
67210SOL    HW2 1655  12.718  10.523  10.917
67211SOL     OW 1656  11.562  11.051  10.870
67211SOL    HW1 1657  11.471  11.092  10.868
67211SOL    HW2 1658  11.555  10.957  10.902
67212SOL     OW 1659  12.397   9.635   9.759
67212SOL    HW1 1660  12.462   9.561   9.748
67212SOL    HW2 1661  12.417   9.685   9.843
67213SOL     OW 1662  11.766  10.055   9.962
67213SOL    HW1 1663  11.816  10.140   9.943
67213SOL    HW2 1664  11.678  10.057   9.914
67214SOL     OW 1665  12.031  10.684   9.326
67214SOL    HW1 1666  11.985  10.699   9.414
67214SOL    HW2 1667  12.075  10.769   9.296
67215SOL     OW 1668  11.833  11.100  10.263
67215SOL    HW1 1669  11.787  11.188  10.250
67215SOL    HW2 1670  11.932  11.112  10.256
67216SOL     OW 1671  12.031  10.266  10.171
67216SOL    HW1 1672  12.085  10.197  10.219
67216SOL    HW2 1673  11.999  10.335  10.237
67217SOL     OW 1674  12.255  10.294   9.397
67217SOL    HW1 1675  12.232  10.347   9.315
67217SOL    HW2 1676  12.336  10.238   9.378
67218SOL     OW 1677  13.033  10.879  10.161
67218SOL    HW1 1678  12.962  10.867  10.091
67218SOL    HW2 1679  13.034  10.800  10.221
67219SOL     OW 1680  11.393  10.624  11.154
67219SOL    HW1 1681  11.328  10.551  11.133
67219SOL    HW2 1682  11.397  10.638  11.252
67220SOL     OW 1683  11.251  10.550   9.963
67220SOL    HW1 1684  11.250  10.503  10.051
67220SOL    HW2 1685  11.333  10.522   9.912
67221SOL     OW 1686  11.844  10.701  10.934
67221SOL    HW1 1687  11.766  10.651  10.972
67221SOL    HW2 1688  11.841  10.796  10.965
67222SOL     OW 1689  11.600   9.734   9.830
67222SOL    HW1 1690  11.630   9.662   9.768
67222SOL    HW2 1691  11.561   9.694   9.913
67223SOL     OW 1692  11.489   9.857  10.590
67223SOL    HW1 1693  11.527   9.798  10.662
67223SOL    HW2 1694  11.529   9.831  10.502
67224SOL     OW 1695  11.984  10.896   9.997
67224SOL    HW1 1696  12.016  10.906   9.903
67224SOL    HW2 1697  11.905  10.834   9.999
67225SOL     OW 1698  12.596   9.524  10.422
67225SOL    HW1 1699  12.648   9.459  10.477
67225SOL    HW2 1700  12.547   9.587  10.483
67226SOL     OW 1701  12.173   9.344  10.464
67226SOL    HW1 1702  12.110   9.272  10.433
67226SOL    HW2 1703  12.266   9.308  10.464
67227SOL     OW 1704  11.942  10.640   9.611
67227SOL    HW1 1705  11.896  10.553   9.628
67227SOL    HW2 1706  12.033  10.637   9.652
67228SOL     OW 1707  11.790  10.877  10.594
67228SOL    HW1 1708  11.785  10.959  10.651
67228SOL    HW2 1709  11.879  10.874  10.549
67229SOL     OW 1710  12.524   9.362   9.478
67229SOL    HW1 1711  12.559   9.321   9.394
67229SOL    HW2 1712  12.434   9.324   9.498
67230SOL     OW 1713  12.472   9.763  10.001
67230SOL    HW1 1714  12.413   9.843  10.005
67230SOL    HW2 1715  12.487   9.728  10.094
67231SOL     OW 1716  12.765   9.531  10.192
67231SOL    HW1 1717  12.681   9.530  10.246
67231SOL    HW2 1718  12.767   9.614  10.136
67232SOL     OW 1719  11.211  10.387   9.610
67232SOL    HW1 1720  11.310  10.376   9.601
67232SOL    HW2 1721  11.171  10.301   9.642
67233SOL     OW 1722  12.047  10.956   9.647
67233SOL    HW1 1723  11.970  10.921   9.593
67233SOL    HW2 1724  12.015  11.027   9.709
67234SOL     OW 1725  11.402   9.938  11.285
67234SOL    HW1 1726  11.309   9.936  11.322
67234SOL    HW2 1727  11.403   9.899  11.193
67235SOL     OW 1728  11.397   9.585  12.168
67235SOL    HW1 1729  11.432   9.568  12.260
67235SOL    HW2 1730  11.309   9.540  12.156
67236SOL     OW 1731  11.191   9.678  11.819
67236SOL    HW1 1732  11.109   9.721  11.858
67236SOL    HW2 1733  11.163   9.605  11.756
67237SOL     OW 1734  11.741  10.585  12.337
67237SOL    HW1 1735  11.648  10.578  12.300
67237SOL    HW2 1736  11.752  10.674  12.381
67238SOL     OW 1737  12.727  10.821  11.875
67238SOL    HW1 1738  12.670  10.805  11.956
67238SOL    HW2 1739  12.668  10.831  11.795
67239SOL     OW 1740  12.307  10.013  11.889
67239SOL    HW1 1741  12.364  10.091  11.864
67239SOL    HW2 1742  12.247  10.039  11.965
67240SOL     OW 1743  11.940  10.454  12.195
67240SOL    HW1 1744  11.862  10.471  12.255
67240SOL    HW2 1745  11.974  10.541  12.159
67241SOL     OW 1746  11.857  10.322  11.837
67241SOL    HW1 1747  11.926  10.306  11.907
67241SOL    HW2 1748  11.784  10.379  11.875
67242SOL     OW 1749  11.507  10.745  12.233
67242SOL    HW1 1750  11.429  10.714  12.180
67242SOL    HW2 1751  11.565  10.803  12.176
67243SOL     OW 1752  12.632  10.815  12.511
67243SOL    HW1 1753  12.656  10.909  12.537
67243SOL    HW2 1754  12.616  10.761  12.593
67244SOL     OW 1755  11.610   9.702  12.671
67244SOL    HW1 1756  11.692   9.646  12.680
67244SOL    HW2 1757  11.529   9.644  12.675
67245SOL     OW 1758  11.403  11.023  11.655
67245SOL    HW1 1759  11.437  11.100  11.709
67245SOL    HW2 1760  11.447  11.023  11.565
67246SOL     OW 1761  11.402  10.744  11.710
67246SOL    HW1 1762  11.376  10.840  11.710
67246SOL    HW2 1763  11.331  10.690  11.755
67247SOL     OW 1764  11.412  10.401  12.058
67247SOL    HW1 1765  11.426  10.317  12.110
67247SOL    HW2 1766  11.357  10.465  12.113
67248SOL     OW 1767  11.792  11.096  12.611
67248SOL    HW1 1768  11.700  11.079  12.646
67248SOL    HW2 1769  11.820  11.188  12.637
67249SOL     OW 1770  11.778  10.274  11.295
67249SOL    HW1 1771  11.785  10.358  11.241
67249SOL    HW2 1772  11.824  10.287  11.383
67250SOL     OW 1773  12.766   9.424  12.652
67250SOL    HW1 1774  12.748   9.491  12.580
67250SOL    HW2 1775  12.763   9.470  12.741
67251SOL     OW 1776  11.294   9.953  11.735
67251SOL    HW1 1777  11.249   9.865  11.752
67251SOL    HW2 1778  11.293  10.007  11.819
67252SOL     OW 1779  11.199  10.906  11.289
67252SOL    HW1 1780  11.180  10.810  11.310
67252SOL    HW2 1781  11.166  10.964  11.364
67253SOL     OW 1782  12.861  10.232  11.784
67253SOL    HW1 1783  12.956  10.203  11.792
67253SOL    HW2 1784  12.853  10.297  11.709
67254SOL     OW 1785  11.285  10.047  12.769
67254SOL    HW1 1786  11.373  10.034  12.814
67254SOL    HW2 1787  11.272  10.144  12.747
67255SOL     OW 1788  11.785  10.675  11.898
67255SOL    HW1 1789  11.736  10.588  11.907
67255SOL    HW2 1790  11.762  10.718  11.811
67256SOL     OW 1791  12.465  10.538  12.595
67256SOL    HW1 1792  12.502  10.465  12.537
67256SOL    HW2 1793  12.517  10.543  12.680
67257SOL     OW 1794  11.981   9.314  11.674
67257SOL    HW1 1795  12.021   9.405  11.665
67257SOL    HW2 1796  11.881   9.322  11.680
67258SOL     OW 1797  11.369  10.286  12.436
67258SOL    HW1 1798  11.458  10.241  12.422
67258SOL    HW2 1799  11.296  10.221  12.417
67259SOL     OW 1800  12.638  10.727  12.125
67259SOL    HW1 1801  12.579  10.733  12.205
67259SOL    HW2 1802  12.623  10.639  12.079
67260SOL     OW 1803  12.839  11.024  11.744
67260SOL    HW1 1804  12.798  11.001  11.656
67260SOL    HW2 1805  12.821  10.950  11.809
67261SOL     OW 1806  11.770  10.039  11.442
67261SOL    HW1 1807  11.794  10.108  11.374
67261SOL    HW2 1808  11.692  10.072  11.496
67262SOL     OW 1809  12.453   9.655  12.116
67262SOL    HW1 1810  12.367   9.605  12.103
67262SOL    HW2 1811  12.515   9.601  12.172
67263SOL     OW 1812  11.979   9.915  12.637
67263SOL    HW1 1813  11.932   9.912  12.726
67263SOL    HW2 1814  11.928   9.860  12.571
67264SOL     OW 1815  12.145  10.200  12.744
67264SOL    HW1 1816  12.191  10.116  12.715
67264SOL    HW2 1817  12.089  10.234  12.669
67265SOL     OW 1818  12.163   9.720  12.414
67265SOL    HW1 1819  12.086   9.754  12.468
67265SOL    HW2 1820  12.129   9.669  12.335
67266SOL     OW 1821  12.213  10.011  11.601
67266SOL    HW1 1822  12.239  10.007  11.697
67266SOL    HW2 1823  12.128   9.960  11.587
67267SOL     OW 1824  11.248  10.121  11.961
67267SOL    HW1 1825  11.347  10.109  11.970
67267SOL    HW2 1826  11.224  10.216  11.982
67268SOL     OW 1827  11.302  11.131  12.743
67268SOL    HW1 1828  11.292  11.116  12.842
67268SOL    HW2 1829  11.216  11.167  12.707
67269SOL     OW 1830  12.037   9.658  11.367
67269SOL    HW1 1831  12.096   9.721  11.318
67269SOL    HW2 1832  12.056   9.564  11.338
67270SOL     OW 1833  12.534  10.454  11.717
67270SOL    HW1 1834  12.617  10.425  11.669
67270SOL    HW2 1835  12.485  10.521  11.661
67271SOL     OW 1836  11.722   9.506  12.057
67271SOL    HW1 1837  11.717   9.501  12.157
67271SOL    HW2 1838  11.724   9.602  12.028
67272SOL     OW 1839  12.180  10.766  11.649
67272SOL    HW1 1840  12.134  10.838  11.597
67272SOL    HW2 1841  12.176  10.786  11.747
67273SOL     OW 1842  11.523  11.111  12.025
67273SOL    HW1 1843  11.573  11.025  12.031
67273SOL    HW2 1844  11.588  11.188  12.022
67274SOL     OW 1845  12.399  10.860  12.678
67274SOL    HW1 1846  12.405  10.783  12.742
67274SOL    HW2 1847  12.347  10.834  12.598
67275SOL     OW 1848  11.493  10.253  11.414
67275SOL    HW1 1849  11.575  10.292  11.372
67275SOL    HW2 1850  11.466  10.171  11.365
67276SOL     OW 1851  12.630  10.045  11.900
67276SOL    HW1 1852  12.625   9.980  11.975
67276SOL    HW2 1853  12.710  10.104  11.913
67277SOL     OW 1854  12.283  11.086  11.409
67277SOL    HW1 1855  12.223  11.024  11.459
67277SOL    HW2 1856  12.314  11.042  11.324
67278SOL     OW 1857  11.374   9.595  12.670
67278SOL    HW1 1858  11.294   9.655  12.657
67278SOL    HW2 1859  11.364   9.546  12.756
67279SOL     OW 1860  11.636  11.053  11.495
67279SOL    HW1 1861  11.669  11.092  11.581
67279SOL    HW2 1862  11.712  11.046  11.430
67280SOL     OW 1863  12.572   9.417  11.598
67280SOL    HW1 1864  12.548   9.380  11.508
67280SOL    HW2 1865  12.671   9.433  11.602
67281SOL     OW 1866  11.421  11.095  12.413
67281SOL    HW1 1867  11.478  11.030  12.463
67281SOL    HW2 1868  11.405  11.062  12.320
67282SOL     OW 1869  12.112  11.008  12.076
67282SOL    HW1 1870  12.192  10.951  12.097
67282SOL    HW2 1871  12.063  10.968  11.999
67283SOL     OW 1872  11.554  10.010  11.652
67283SOL    HW1 1873  11.599   9.920  11.649
67283SOL    HW2 1874  11.460   9.999  11.685
67284SOL     OW 1875  11.786   9.432  11.289
67284SOL    HW1 1876  11.884   9.410  11.296
67284SOL    HW2 1877  11.755   9.415  11.196
67285SOL     OW 1878  12.060  10.824  12.367
67285SOL    HW1 1879  12.037  10.799  12.273
67285SOL    HW2 1880  12.121  10.755  12.406
67286SOL     OW 1881  12.523   9.900  12.605
67286SOL    HW1 1882  12.551   9.857  12.690
67286SOL    HW2 1883  12.548   9.996  12.606
67287SOL     OW 1884  11.975  10.712  12.096
67287SOL    HW1 1885  12.065  10.726  12.054
67287SOL    HW2 1886  11.904  10.714  12.025
67288SOL     OW 1887  12.094   9.813  12.071
67288SOL    HW1 1888  12.069   9.804  11.975
67288SOL    HW2 1889  12.142   9.731  12.102
67289SOL     OW 1890  11.711   9.374  11.684
67289SOL    HW1 1891  11.630   9.375  11.742
67289SOL    HW2 1892  11.714   9.457  11.629
67290SOL     OW 1893  12.606  10.498  11.213
67290SOL    HW1 1894  12.638  10.422  11.270
67290SOL    HW2 1895  12.514  10.525  11.243
67291SOL     OW 1896  11.469   9.345  11.343
67291SOL    HW1 1897  11.518   9.429  11.322
67291SOL    HW2 1898  11.531   9.280  11.388
67292SOL     OW 1899  12.107   9.546  11.652
67292SOL    HW1 1900  12.059   9.587  11.574
67292SOL    HW2 1901  12.206   9.544  11.633
67293SOL     OW 1902  12.248   9.993  12.636
67293SOL    HW1 1903  12.168   9.932  12.639
67293SOL    HW2 1904  12.329   9.940  12.612
67294SOL     OW 1905  12.399  10.880  11.965
67294SOL    HW1 1906  12.420  10.954  11.900
67294SOL    HW2 1907  12.467  10.880  12.038
67295SOL     OW 1908  11.631  10.462  11.913
67295SOL    HW1 1909  11.560  10.435  11.978
67295SOL    HW2 1910  11.605  10.434  11.820
67296SOL     OW 1911  12.443  11.107  11.763
67296SOL    HW1 1912  12.487  11.171  11.699
67296SOL    HW2 1913  12.393  11.159  11.833
67297SOL     OW 1914  12.204   9.859  11.188
67297SOL    HW1 1915  12.163   9.941  11.149
67297SOL    HW2 1916  12.268   9.885  11.261
67298SOL     OW 1917  11.250   9.866  12.558
67298SOL    HW1 1918  11.342   9.865  12.517
67298SOL    HW2 1919  11.244   9.940  12.625
67299SOL     OW 1920  11.733   9.532  12.319
67299SOL    HW1 1921  11.771   9.448  12.356
67299SOL    HW2 1922  11.645   9.551  12.363
67300SOL     OW 1923  12.038   9.764  11.814
67300SOL    HW1 1924  12.006   9.836  11.752
67300SOL    HW2 1925  12.062   9.683  11.761
67301SOL     OW 1926  12.189   9.349  11.925
67301SOL    HW1 1927  12.117   9.354  11.856
67301SOL    HW2 1928  12.165   9.280  11.994
67302SOL     OW 1929  12.601  10.483  12.039
67302SOL    HW1 1930  12.546  10.399  12.032
67302SOL    HW2 1931  12.627  10.512  11.947
67303SOL     OW 1932  12.638   9.900  12.164
67303SOL    HW1 1933  12.608   9.805  12.171
67303SOL    HW2 1934  12.711   9.916  12.230
67304SOL     OW 1935  11.660  10.695  11.346
67304SOL    HW1 1936  11.573  10.680  11.393
67304SOL    HW2 1937  11.643  10.721  11.251
67305SOL     OW 1938  12.562   9.885  11.250
67305SOL    HW1 1939  12.508   9.864  11.331
67305SOL    HW2 1940  12.653   9.844  11.259
67306SOL     OW 1941  11.699   9.566  11.500
67306SOL    HW1 1942  11.726   9.507  11.425
67306SOL    HW2 1943  11.699   9.661  11.469
67307SOL     OW 1944  12.236  10.657  12.512
67307SOL    HW1 1945  12.156  10.634  12.567
67307SOL    HW2 1946  12.319  10.631  12.561
67308SOL     OW 1947  12.283  10.505  12.272
67308SOL    HW1 1948  12.243  10.549  12.353
67308SOL    HW2 1949  12.242  10.542  12.189
67309SOL     OW 1950  12.087   9.399  12.574
67309SOL    HW1 1951  12.112   9.379  12.479
67309SOL    HW2 1952  12.159   9.455  12.616
67310SOL     OW 1953  11.877  10.360  11.540
67310SOL    HW1 1954  11.863  10.367  11.639
67310SOL    HW2 1955  11.961  10.309  11.522
67311SOL     OW 1956  11.582  10.123  12.423
67311SOL    HW1 1957  11.668  10.135  12.473
67311SOL    HW2 1958  11.540  10.036  12.450
67312SOL     OW 1959  12.446   9.696  12.434
67312SOL    HW1 1960  12.467   9.770  12.498
67312SOL    HW2 1961  12.357   9.713  12.391
67313SOL     OW 1962  11.236  10.874  12.503
67313SOL    HW1 1963  11.190  10.956  12.469
67313SOL    HW2 1964  11.334  10.893  12.512
67314SOL     OW 1965  11.539  10.410  11.673
67314SOL    HW1 1966  11.532  10.493  11.617
67314SOL    HW2 1967  11.543  10.330  11.613
67315SOL     OW 1968  11.738   9.847  12.037
67315SOL    HW1 1969  11.750   9.913  11.963
67315SOL    HW2 1970  11.784   9.881  12.120
67316SOL     OW 1971  12.424  10.658  11.560
67316SOL    HW1 1972  12.474  10.735  11.600
67316SOL    HW2 1973  12.329  10.660  11.592
67317SOL     OW 1974  12.444  10.755  12.314
67317SOL    HW1 1975  12.491  10.768  12.401
67317SOL    HW2 1976  12.378  10.681  12.323
67318SOL     OW 1977  12.754   9.949  11.644
67318SOL    HW1 1978  12.723  10.010  11.717
67318SOL    HW2 1979  12.804  10.001  11.575
67319SOL     OW 1980  11.574  10.061  12.770
67319SOL    HW1 1981  11.642  10.116  12.723
67319SOL    HW2 1982  11.614   9.973  12.797
67320SOL     OW 1983  11.745  10.180  12.201
67320SOL    HW1 1984  11.789  10.269  12.192
67320SOL    HW2 1985  11.682  10.180  12.278
67321SOL     OW 1986  12.532  10.172  12.217
67321SOL    HW1 1987  12.457  10.172  12.151
67321SOL    HW2 1988  12.569  10.080  12.226
67322SOL     OW 1989  12.381   9.835  11.447
67322SOL    HW1 1990  12.394   9.751  11.501
67322SOL    HW2 1991  12.352   9.909  11.507
67323SOL     OW 1992  11.479   9.523  12.403
67323SOL    HW1 1993  11.456   9.560  12.493
67323SOL    HW2 1994  11.449   9.428  12.397
67324SOL     OW 1995  11.209  10.620  12.454
67324SOL    HW1 1996  11.262  10.571  12.522
67324SOL    HW2 1997  11.231  10.718  12.459
67325SOL     OW 1998  11.904   9.944  12.236
67325SOL    HW1 1999  11.963   9.918  12.160
67325SOL    HW2 2000  11.876  10.040  12.225
67326SOL     OW 2001  11.479   9.373  11.790
67326SOL    HW1 2002  11.468   9.467  11.823
67326SOL    HW2 2003  11.474   9.310  11.867
67327SOL     OW 2004  12.794   9.677  11.546
67327SOL    HW1 2005  12.796   9.601  11.610
67327SOL    HW2 2006  12.746   9.754  11.586
67328SOL     OW 2007  12.195  10.076  12.138
67328SOL    HW1 2008  12.210  10.097  12.234
67328SOL    HW2 2009  12.165   9.981  12.129
67329SOL     OW 2010  12.712   9.584  11.297
67329SOL    HW1 2011  12.651   9.509  11.320
67329SOL    HW2 2012  12.734   9.636  11.380
67330SOL     OW 2013  12.475  10.148  11.214
67330SOL    HW1 2014  12.509  10.055  11.229
67330SOL    HW2 2015  12.493  10.175  11.119
67331SOL     OW 2016  12.240  10.643  12.021
67331SOL    HW1 2017  12.247  10.559  11.966
67331SOL    HW2 2018  12.302  10.712  11.985
67332SOL     OW 2019  11.491  10.120  12.121
67332SOL    HW1 2020  11.584  10.156  12.126
67332SOL    HW2 2021  11.485  10.035  12.173
67333SOL     OW 2022  11.511   9.819  12.178
67333SOL    HW1 2023  11.459   9.736  12.161
67333SOL    HW2 2024  11.588   9.824  12.114
67334SOL     OW 2025  12.332   9.517  12.649
67334SOL    HW1 2026  12.332   9.581  12.726
67334SOL    HW2 2027  12.360   9.565  12.566
67335SOL     OW 2028  11.180  10.636  11.372
67335SOL    HW1 2029  11.087  10.657  11.341
67335SOL    HW2 2030  11.190  10.537  11.385
67336SOL     OW 2031  11.260  11.111  12.099
67336SOL    HW1 2032  11.218  11.025  12.072
67336SOL    HW2 2033  11.354  11.114  12.065
67337SOL     OW 2034  11.676  10.878  12.082
67337SOL    HW1 2035  11.742  10.952  12.091
67337SOL    HW2 2036  11.720  10.799  12.040
67338SOL     OW 2037  12.174  10.106  12.410
67338SOL    HW1 2038  12.215  10.074  12.496
67338SOL    HW2 2039  12.078  10.079  12.407
67339SOL     OW 2040  11.212   9.854  12.286
67339SOL    HW1 2041  11.297   9.821  12.245
67339SOL    HW2 2042  11.225   9.869  12.384
67340SOL     OW 2043  11.987   9.882  11.497
67340SOL    HW1 2044  11.994   9.793  11.451
67340SOL    HW2 2045  11.893   9.916  11.489
67341SOL     OW 2046  11.424  10.874  12.916
67341SOL    HW1 2047  11.394  10.931  12.992
67341SOL    HW2 2048  11.417  10.777  12.942
67342SOL     OW 2049  11.843   9.774  12.441
67342SOL    HW1 2050  11.809   9.685  12.411
67342SOL    HW2 2051  11.869   9.828  12.361
67343SOL     OW 2052  12.102  10.988  12.637
67343SOL    HW1 2053  12.078  10.970  12.542
67343SOL    HW2 2054  12.132  11.082  12.647
67344SOL     OW 2055  11.645   9.810  11.363
67344SOL    HW1 2056  11.706   9.890  11.367
67344SOL    HW2 2057  11.550   9.841  11.370
67345SOL     OW 2058  11.331  10.447  12.638
67345SOL    HW1 2059  11.353  10.386  12.714
67345SOL    HW2 2060  11.341  10.398  12.552
67346SOL     OW 2061  12.519  10.369  12.406
67346SOL    HW1 2062  12.543  10.306  12.332
67346SOL    HW2 2063  12.429  10.409  12.388
67347SOL     OW 2064  12.474  10.165  11.481
67347SOL    HW1 2065  12.388  10.134  11.523
67347SOL    HW2 2066  12.470  10.151  11.382
67348SOL     OW 2067  12.424  11.041  12.300
67348SOL    HW1 2068  12.508  11.046  12.246
67348SOL    HW2 2069  12.401  10.945  12.318
67349SOL     OW 2070  11.255  10.568  12.194
67349SOL    HW1 2071  11.250  10.567  12.294
67349SOL    HW2 2072  11.172  10.527  12.156
67350SOL     OW 2073  12.898   9.445  11.695
67350SOL    HW1 2074  12.971   9.428  11.628
67350SOL    HW2 2075  12.867   9.358  11.733
67351SOL     OW 2076  12.560  10.883  11.649
67351SOL    HW1 2077  12.627  10.895  11.575
67351SOL    HW2 2078  12.520  10.972  11.672
67352SOL     OW 2079  12.452  10.237  11.844
67352SOL    HW1 2080  12.512  10.156  11.846
67352SOL    HW2 2081  12.492  10.306  11.784
67353SOL     OW 2082  12.002  10.583  12.594
67353SOL    HW1 2083  11.997  10.616  12.689
67353SOL    HW2 2084  11.916  10.602  12.548
67354SOL     OW 2085  11.844  10.926  11.326
67354SOL    HW1 2086  11.853  10.936  11.227
67354SOL    HW2 2087  11.804  10.837  11.347
67355SOL     OW 2088  11.435   9.636  11.892
67355SOL    HW1 2089  11.356   9.687  11.858
67355SOL    HW2 2090  11.426   9.621  11.990
67356SOL     OW 2091  12.366  10.922  11.203
67356SOL    HW1 2092  12.372  10.829  11.240
67356SOL    HW2 2093  12.307  10.922  11.123
67357SOL     OW 2094  11.994  10.312  12.544
67357SOL    HW1 2095  12.034  10.311  12.452
67357SOL    HW2 2096  12.004  10.404  12.584
67358SOL     OW 2097  12.088  10.220  11.463
67358SOL    HW1 2098  12.151  10.258  11.395
67358SOL    HW2 2099  12.128  10.137  11.502
67359SOL     OW 2100  12.676  10.917  11.216
67359SOL    HW1 2101  12.584  10.954  11.223
67359SOL    HW2 2102  12.714  10.937  11.126
67360SOL     OW 2103  11.544  10.598  12.662
67360SOL    HW1 2104  11.531  10.691  12.628
67360SOL    HW2 2105  11.460  10.546  12.649
67361SOL     OW 2106  12.211  10.408  11.868
67361SOL    HW1 2107  12.141  10.361  11.922
67361SOL    HW2 2108  12.270  10.340  11.825
67362SOL     OW 2109  12.186   9.546  12.143
67362SOL    HW1 2110  12.178   9.510  12.050
67362SOL    HW2 2111  12.184   9.470  12.208
67363SOL     OW 2112  11.762  10.797  11.663
67363SOL    HW1 2113  11.804  10.739  11.593
67363SOL    HW2 2114  11.718  10.876  11.619
67364SOL     OW 2115  11.427  10.658  11.462
67364SOL    HW1 2116  11.331  10.659  11.435
67364SOL    HW2 2117  11.439  10.711  11.546
67365SOL     OW 2118  11.277  10.323  12.898
67365SOL    HW1 2119  11.200  10.290  12.952
67365SOL    HW2 2120  11.362  10.293  12.940
67366SOL     OW 2121  11.844   9.513  12.661
67366SOL    HW1 2122  11.934   9.497  12.621
67366SOL    HW2 2123  11.852   9.518  12.760
67367SOL     OW 2124  11.247   9.655  11.205
67367SOL    HW1 2125  11.155   9.627  11.176
67367SOL    HW2 2126  11.278   9.732  11.149
67368SOL     OW 2127  12.612  10.166  12.570
67368SOL    HW1 2128  12.555  10.218  12.507
67368SOL    HW2 2129  12.708  10.178  12.546
67369SOL     OW 2130  11.244   9.476  11.490
67369SOL    HW1 2131  11.227   9.559  11.436
67369SOL    HW2 2132  11.334   9.439  11.468
67370SOL     OW 2133  12.355  10.645  11.291
67370SOL    HW1 2134  12.256  10.634  11.293
67370SOL    HW2 2135  12.389  10.660  11.384
67371SOL     OW 2136  11.785  10.152  12.603
67371SOL    HW1 2137  11.841  10.233  12.586
67371SOL    HW2 2138  11.844  10.072  12.606
67372SOL     OW 2139  12.665  11.077  12.131
67372SOL    HW1 2140  12.698  11.141  12.062
67372SOL    HW2 2141  12.731  11.071  12.206
67373SOL     OW 2142  11.888   9.875  12.880
67373SOL    HW1 2143  11.907   9.940  12.954
67373SOL    HW2 2144  11.948   9.795  12.889
67374SOL     OW 2145  11.562  11.051  12.732
67374SOL    HW1 2146  11.471  11.092  12.730
67374SOL    HW2 2147  11.555  10.957  12.764
67375SOL     OW 2148  12.397   9.635  11.621
67375SOL    HW1 2149  12.462   9.561  11.610
67375SOL    HW2 2150  12.417   9.685  11.705
67376SOL     OW 2151  11.766  10.055  11.824
67376SOL    HW1 2152  11.816  10.140  11.805
67376SOL    HW2 2153  11.678  10.057  11.776
67377SOL     OW 2154  12.031  10.684  11.188
67377SOL    HW1 2155  11.985  10.699  11.276
67377SOL    HW2 2156  12.075  10.769  11.158
67378SOL     OW 2157  11.833  11.100  12.125
67378SOL    HW1 2158  11.787  11.188  12.112
67378SOL    HW2 2159  11.932  11.112  12.118
67379SOL     OW 2160  12.031  10.266  12.033
67379SOL    HW1 2161  12.085  10.197  12.081
67379SOL    HW2 2162  11.999  10.335  12.099
67380SOL     OW 2163  12.255  10.294  11.259
67380SOL    HW1 2164  12.232  10.347  11.177
67380SOL    HW2 2165  12.336  10.238  11.240
67381SOL     OW 2166  13.033  10.879  12.023
67381SOL    HW1 2167  12.962  10.867  11.953
67381SOL    HW2 2168  13.034  10.800  12.083
67382SOL     OW 2169  11.251  10.550  11.825
67382SOL    HW1 2170  11.250  10.503  11.913
67382SOL    HW2 2171  11.333  10.522  11.774
67383SOL     OW 2172  11.844  10.701  12.796
67383SOL    HW1 2173  11.766  10.651  12.834
67383SOL    HW2 2174  11.841  10.796  12.827
67384SOL     OW 2175  11.600   9.734  11.692
67384SOL    HW1 2176  11.630   9.662  11.630
67384SOL    HW2 2177  11.561   9.694  11.775
67385SOL     OW 2178  11.489   9.857  12.452
67385SOL    HW1 2179  11.527   9.798  12.524
67385SOL    HW2 2180  11.529   9.831  12.364
67386SOL     OW 2181  11.984  10.896  11.859
67386SOL    HW1 2182  12.016  10.906  11.765
67386SOL    HW2 2183  11.905  10.834  11.861
67387SOL     OW 2184  12.596   9.524  12.284
67387SOL    HW1 2185  12.648   9.459  12.339
67387SOL    HW2 2186  12.547   9.587  12.345
67388SOL     OW 2187  12.173   9.344  12.326
67388SOL    HW1 2188  12.110   9.272  12.295
67388SOL    HW2 2189  12.266   9.308  12.326
67389SOL     OW 2190  11.942  10.640  11.473
67389SOL    HW1 2191  11.896  10.553  11.490
67389SOL    HW2 2192  12.033  10.637  11.514
67390SOL     OW 2193  11.790  10.877  12.456
67390SOL    HW1 2194  11.785  10.959  12.513
67390SOL    HW2 2195  11.879  10.874  12.411
67391SOL     OW 2196  12.524   9.362  11.340
67391SOL    HW1 2197  12.559   9.321  11.256
67391SOL    HW2 2198  12.434   9.324  11.360
67392SOL     OW 2199  12.472   9.763  11.863
67392SOL    HW1 2200  12.413   9.843  11.867
67392SOL    HW2 2201  12.487   9.728  11.956
67393SOL     OW 2202  12.765   9.531  12.054
67393SOL    HW1 2203  12.681   9.530  12.108
67393SOL    HW2 2204  12.767   9.614  11.998
67394SOL     OW 2205  11.211  10.387  11.472
67394SOL    HW1 2206  11.310  10.376  11.463
67394SOL    HW2 2207  11.171  10.301  11.504
67395SOL     OW 2208  12.047  10.956  11.509
67395SOL    HW1 2209  11.970  10.921  11.455
67395SOL    HW2 2210  12.015  11.027  11.571
67396SOL     OW 2211  11.402  11.800   0.113
67396SOL    HW1 2212  11.309  11.798   0.150
67396SOL    HW2 2213  11.403  11.761   0.021
67397SOL     OW 2214  11.397  11.447   0.996
67397SOL    HW1 2215  11.432  11.430   1.088
67397SOL    HW2 2216  11.309  11.402   0.984
67398SOL     OW 2217  11.191  11.540   0.647
67398SOL    HW1 2218  11.109  11.583   0.686
67398SOL    HW2 2219  11.163  11.467   0.584
67399SOL     OW 2220  11.741  12.447   1.165
67399SOL    HW1 2221  11.648  12.440   1.128
67399SOL    HW2 2222  11.752  12.536   1.209
67400SOL     OW 2223  12.727  12.683   0.703
67400SOL    HW1 2224  12.670  12.667   0.784
67400SOL    HW2 2225  12.668  12.693   0.623
67401SOL     OW 2226  12.307  11.875   0.717
67401SOL    HW1 2227  12.364  11.953   0.692
67401SOL    HW2 2228  12.247  11.901   0.793
67402SOL     OW 2229  11.940  12.316   1.023
67402SOL    HW1 2230  11.862  12.333   1.083
67402SOL    HW2 2231  11.974  12.403   0.987
67403SOL     OW 2232  12.022  11.970   1.823
67403SOL    HW1 2233  12.018  12.046   1.888
67403SOL    HW2 2234  12.044  12.006   1.732
67404SOL     OW 2235  11.857  12.184   0.665
67404SOL    HW1 2236  11.926  12.168   0.735
67404SOL    HW2 2237  11.784  12.241   0.703
67405SOL     OW 2238  11.858  12.333   1.803
67405SOL    HW1 2239  11.918  12.412   1.817
67405SOL    HW2 2240  11.772  12.364   1.762
67406SOL     OW 2241  11.507  12.607   1.061
67406SOL    HW1 2242  11.429  12.576   1.008
67406SOL    HW2 2243  11.565  12.665   1.004
67407SOL     OW 2244  12.632  12.677   1.339
67407SOL    HW1 2245  12.656  12.771   1.365
67407SOL    HW2 2246  12.616  12.623   1.421
67408SOL     OW 2247  11.610  11.564   1.499
67408SOL    HW1 2248  11.692  11.508   1.508
67408SOL    HW2 2249  11.529  11.506   1.503
67409SOL     OW 2250  12.299  12.513   1.690
67409SOL    HW1 2251  12.346  12.513   1.778
67409SOL    HW2 2252  12.251  12.426   1.679
67410SOL     OW 2253  11.402  12.606   0.538
67410SOL    HW1 2254  11.376  12.702   0.538
67410SOL    HW2 2255  11.331  12.552   0.583
67411SOL     OW 2256  11.412  12.263   0.886
67411SOL    HW1 2257  11.426  12.179   0.938
67411SOL    HW2 2258  11.357  12.327   0.941
67412SOL     OW 2259  11.778  12.136   0.123
67412SOL    HW1 2260  11.785  12.220   0.069
67412SOL    HW2 2261  11.824  12.149   0.211
67413SOL     OW 2262  12.766  11.286   1.480
67413SOL    HW1 2263  12.748  11.353   1.408
67413SOL    HW2 2264  12.763  11.332   1.569
67414SOL     OW 2265  11.294  11.815   0.563
67414SOL    HW1 2266  11.249  11.727   0.580
67414SOL    HW2 2267  11.293  11.869   0.647
67415SOL     OW 2268  11.199  12.768   0.117
67415SOL    HW1 2269  11.180  12.672   0.138
67415SOL    HW2 2270  11.166  12.826   0.192
67416SOL     OW 2271  12.861  12.094   0.612
67416SOL    HW1 2272  12.956  12.065   0.620
67416SOL    HW2 2273  12.853  12.159   0.537
67417SOL     OW 2274  11.285  11.909   1.597
67417SOL    HW1 2275  11.373  11.896   1.642
67417SOL    HW2 2276  11.272  12.006   1.575
67418SOL     OW 2277  11.785  12.537   0.726
67418SOL    HW1 2278  11.736  12.450   0.735
67418SOL    HW2 2279  11.762  12.580   0.639
67419SOL     OW 2280  12.465  12.400   1.423
67419SOL    HW1 2281  12.502  12.327   1.365
67419SOL    HW2 2282  12.517  12.405   1.508
67420SOL     OW 2283  11.981  11.176   0.502
67420SOL    HW1 2284  12.021  11.267   0.493
67420SOL    HW2 2285  11.881  11.184   0.508
67421SOL     OW 2286  11.369  12.148   1.264
67421SOL    HW1 2287  11.458  12.103   1.250
67421SOL    HW2 2288  11.296  12.083   1.245
67422SOL     OW 2289  11.489  11.423   1.801
67422SOL    HW1 2290  11.560  11.494   1.807
67422SOL    HW2 2291  11.401  11.462   1.829
67423SOL     OW 2292  12.638  12.589   0.953
67423SOL    HW1 2293  12.579  12.595   1.033
67423SOL    HW2 2294  12.623  12.501   0.907
67424SOL     OW 2295  11.770  11.901   0.270
67424SOL    HW1 2296  11.794  11.970   0.202
67424SOL    HW2 2297  11.692  11.934   0.324
67425SOL     OW 2298  12.453  11.517   0.944
67425SOL    HW1 2299  12.367  11.467   0.931
67425SOL    HW2 2300  12.515  11.463   1.000
67426SOL     OW 2301  11.979  11.777   1.465
67426SOL    HW1 2302  11.932  11.774   1.554
67426SOL    HW2 2303  11.928  11.722   1.399
67427SOL     OW 2304  12.566  11.641   1.674
67427SOL    HW1 2305  12.546  11.684   1.762
67427SOL    HW2 2306  12.644  11.579   1.683
67428SOL     OW 2307  12.145  12.062   1.572
67428SOL    HW1 2308  12.191  11.978   1.543
67428SOL    HW2 2309  12.089  12.096   1.497
67429SOL     OW 2310  12.163  11.582   1.242
67429SOL    HW1 2311  12.086  11.616   1.296
67429SOL    HW2 2312  12.129  11.531   1.163
67430SOL     OW 2313  12.213  11.873   0.429
67430SOL    HW1 2314  12.239  11.869   0.525
67430SOL    HW2 2315  12.128  11.822   0.415
67431SOL     OW 2316  11.248  11.983   0.789
67431SOL    HW1 2317  11.347  11.971   0.798
67431SOL    HW2 2318  11.224  12.078   0.810
67432SOL     OW 2319  12.037  11.520   0.195
67432SOL    HW1 2320  12.096  11.583   0.146
67432SOL    HW2 2321  12.056  11.426   0.166
67433SOL     OW 2322  12.534  12.316   0.545
67433SOL    HW1 2323  12.617  12.287   0.497
67433SOL    HW2 2324  12.485  12.383   0.489
67434SOL     OW 2325  11.722  11.368   0.885
67434SOL    HW1 2326  11.717  11.363   0.985
67434SOL    HW2 2327  11.724  11.464   0.856
67435SOL     OW 2328  12.180  12.628   0.477
67435SOL    HW1 2329  12.134  12.700   0.425
67435SOL    HW2 2330  12.176  12.648   0.575
67436SOL     OW 2331  12.399  12.722   1.506
67436SOL    HW1 2332  12.405  12.645   1.570
67436SOL    HW2 2333  12.347  12.696   1.426
67437SOL     OW 2334  11.493  12.115   0.242
67437SOL    HW1 2335  11.575  12.154   0.200
67437SOL    HW2 2336  11.466  12.033   0.193
67438SOL     OW 2337  12.630  11.907   0.728
67438SOL    HW1 2338  12.625  11.842   0.803
67438SOL    HW2 2339  12.710  11.966   0.741
67439SOL     OW 2340  11.633  12.438   1.727
67439SOL    HW1 2341  11.583  12.439   1.641
67439SOL    HW2 2342  11.570  12.420   1.803
67440SOL     OW 2343  11.374  11.457   1.498
67440SOL    HW1 2344  11.294  11.517   1.485
67440SOL    HW2 2345  11.364  11.408   1.584
67441SOL     OW 2346  12.572  11.279   0.426
67441SOL    HW1 2347  12.548  11.242   0.336
67441SOL    HW2 2348  12.671  11.295   0.430
67442SOL     OW 2349  11.554  11.872   0.480
67442SOL    HW1 2350  11.599  11.782   0.477
67442SOL    HW2 2351  11.460  11.861   0.513
67443SOL     OW 2352  11.786  11.294   0.117
67443SOL    HW1 2353  11.884  11.272   0.124
67443SOL    HW2 2354  11.755  11.277   0.024
67444SOL     OW 2355  11.953  11.436   1.749
67444SOL    HW1 2356  12.020  11.375   1.792
67444SOL    HW2 2357  11.880  11.455   1.814
67445SOL     OW 2358  12.523  11.762   1.433
67445SOL    HW1 2359  12.551  11.719   1.518
67445SOL    HW2 2360  12.548  11.858   1.434
67446SOL     OW 2361  11.975  12.574   0.924
67446SOL    HW1 2362  12.065  12.588   0.882
67446SOL    HW2 2363  11.904  12.576   0.853
67447SOL     OW 2364  12.094  11.675   0.899
67447SOL    HW1 2365  12.069  11.666   0.803
67447SOL    HW2 2366  12.142  11.593   0.930
67448SOL     OW 2367  11.711  11.236   0.512
67448SOL    HW1 2368  11.630  11.237   0.570
67448SOL    HW2 2369  11.714  11.319   0.457
67449SOL     OW 2370  12.606  12.360   0.041
67449SOL    HW1 2371  12.638  12.284   0.098
67449SOL    HW2 2372  12.514  12.387   0.071
67450SOL     OW 2373  11.469  11.207   0.171
67450SOL    HW1 2374  11.518  11.291   0.150
67450SOL    HW2 2375  11.531  11.142   0.216
67451SOL     OW 2376  12.107  11.408   0.480
67451SOL    HW1 2377  12.059  11.449   0.402
67451SOL    HW2 2378  12.206  11.406   0.461
67452SOL     OW 2379  12.248  11.855   1.464
67452SOL    HW1 2380  12.168  11.794   1.467
67452SOL    HW2 2381  12.329  11.802   1.440
67453SOL     OW 2382  12.399  12.742   0.793
67453SOL    HW1 2383  12.420  12.816   0.728
67453SOL    HW2 2384  12.467  12.742   0.866
67454SOL     OW 2385  11.631  12.324   0.741
67454SOL    HW1 2386  11.560  12.297   0.806
67454SOL    HW2 2387  11.605  12.296   0.648
67455SOL     OW 2388  12.204  11.721   0.016
67455SOL    HW1 2389  12.163  11.803  -0.023
67455SOL    HW2 2390  12.268  11.747   0.089
67456SOL     OW 2391  11.250  11.728   1.386
67456SOL    HW1 2392  11.342  11.727   1.345
67456SOL    HW2 2393  11.244  11.802   1.453
67457SOL     OW 2394  11.733  11.394   1.147
67457SOL    HW1 2395  11.771  11.310   1.184
67457SOL    HW2 2396  11.645  11.413   1.191
67458SOL     OW 2397  12.189  11.211   0.753
67458SOL    HW1 2398  12.117  11.216   0.684
67458SOL    HW2 2399  12.165  11.142   0.822
67459SOL     OW 2400  12.601  12.345   0.867
67459SOL    HW1 2401  12.546  12.261   0.860
67459SOL    HW2 2402  12.627  12.374   0.775
67460SOL     OW 2403  12.638  11.762   0.992
67460SOL    HW1 2404  12.608  11.667   0.999
67460SOL    HW2 2405  12.711  11.778   1.058
67461SOL     OW 2406  11.660  12.557   0.174
67461SOL    HW1 2407  11.573  12.542   0.221
67461SOL    HW2 2408  11.643  12.583   0.079
67462SOL     OW 2409  12.562  11.747   0.078
67462SOL    HW1 2410  12.508  11.726   0.159
67462SOL    HW2 2411  12.653  11.706   0.087
67463SOL     OW 2412  11.699  11.428   0.328
67463SOL    HW1 2413  11.726  11.369   0.253
67463SOL    HW2 2414  11.699  11.523   0.297
67464SOL     OW 2415  12.236  12.519   1.340
67464SOL    HW1 2416  12.156  12.496   1.395
67464SOL    HW2 2417  12.319  12.493   1.389
67465SOL     OW 2418  12.283  12.367   1.100
67465SOL    HW1 2419  12.243  12.411   1.181
67465SOL    HW2 2420  12.242  12.404   1.017
67466SOL     OW 2421  12.087  11.261   1.402
67466SOL    HW1 2422  12.112  11.241   1.307
67466SOL    HW2 2423  12.159  11.317   1.444
67467SOL     OW 2424  12.152  12.288   1.719
67467SOL    HW1 2425  12.053  12.294   1.729
67467SOL    HW2 2426  12.175  12.208   1.663
67468SOL     OW 2427  11.877  12.222   0.368
67468SOL    HW1 2428  11.863  12.229   0.467
67468SOL    HW2 2429  11.961  12.171   0.350
67469SOL     OW 2430  11.582  11.985   1.251
67469SOL    HW1 2431  11.668  11.997   1.301
67469SOL    HW2 2432  11.540  11.898   1.278
67470SOL     OW 2433  12.446  11.558   1.262
67470SOL    HW1 2434  12.467  11.632   1.326
67470SOL    HW2 2435  12.357  11.575   1.219
67471SOL     OW 2436  11.236  12.736   1.331
67471SOL    HW1 2437  11.190  12.818   1.297
67471SOL    HW2 2438  11.334  12.755   1.340
67472SOL     OW 2439  11.539  12.272   0.501
67472SOL    HW1 2440  11.532  12.355   0.445
67472SOL    HW2 2441  11.543  12.192   0.441
67473SOL     OW 2442  11.738  11.709   0.865
67473SOL    HW1 2443  11.750  11.775   0.791
67473SOL    HW2 2444  11.784  11.743   0.948
67474SOL     OW 2445  12.424  12.520   0.388
67474SOL    HW1 2446  12.474  12.597   0.428
67474SOL    HW2 2447  12.329  12.522   0.420
67475SOL     OW 2448  12.444  12.617   1.142
67475SOL    HW1 2449  12.491  12.630   1.229
67475SOL    HW2 2450  12.378  12.543   1.151
67476SOL     OW 2451  12.754  11.811   0.472
67476SOL    HW1 2452  12.723  11.872   0.545
67476SOL    HW2 2453  12.804  11.863   0.403
67477SOL     OW 2454  11.526  12.682   1.329
67477SOL    HW1 2455  11.505  12.638   1.242
67477SOL    HW2 2456  11.623  12.708   1.332
67478SOL     OW 2457  11.574  11.923   1.598
67478SOL    HW1 2458  11.642  11.978   1.551
67478SOL    HW2 2459  11.614  11.835   1.625
67479SOL     OW 2460  12.185  11.277   1.770
67479SOL    HW1 2461  12.191  11.362   1.718
67479SOL    HW2 2462  12.217  11.201   1.713
67480SOL     OW 2463  11.676  11.222   1.740
67480SOL    HW1 2464  11.634  11.165   1.670
67480SOL    HW2 2465  11.610  11.291   1.772
67481SOL     OW 2466  11.745  12.042   1.029
67481SOL    HW1 2467  11.789  12.131   1.020
67481SOL    HW2 2468  11.682  12.042   1.106
67482SOL     OW 2469  12.532  12.034   1.045
67482SOL    HW1 2470  12.457  12.034   0.979
67482SOL    HW2 2471  12.569  11.942   1.054
67483SOL     OW 2472  12.381  11.697   0.275
67483SOL    HW1 2473  12.394  11.613   0.329
67483SOL    HW2 2474  12.352  11.771   0.335
67484SOL     OW 2475  11.479  11.385   1.231
67484SOL    HW1 2476  11.456  11.422   1.321
67484SOL    HW2 2477  11.449  11.290   1.225
67485SOL     OW 2478  11.209  12.482   1.282
67485SOL    HW1 2479  11.262  12.433   1.350
67485SOL    HW2 2480  11.231  12.580   1.287
67486SOL     OW 2481  11.904  11.806   1.064
67486SOL    HW1 2482  11.963  11.780   0.988
67486SOL    HW2 2483  11.876  11.902   1.053
67487SOL     OW 2484  11.479  11.235   0.618
67487SOL    HW1 2485  11.468  11.329   0.651
67487SOL    HW2 2486  11.474  11.172   0.695
67488SOL     OW 2487  12.794  11.539   0.374
67488SOL    HW1 2488  12.796  11.463   0.438
67488SOL    HW2 2489  12.746  11.616   0.414
67489SOL     OW 2490  12.195  11.938   0.966
67489SOL    HW1 2491  12.210  11.959   1.062
67489SOL    HW2 2492  12.165  11.843   0.957
67490SOL     OW 2493  11.522  12.070   1.804
67490SOL    HW1 2494  11.598  12.114   1.852
67490SOL    HW2 2495  11.557  12.023   1.722
67491SOL     OW 2496  12.712  11.446   0.125
67491SOL    HW1 2497  12.651  11.371   0.148
67491SOL    HW2 2498  12.734  11.498   0.208
67492SOL     OW 2499  12.475  12.010   0.042
67492SOL    HW1 2500  12.509  11.917   0.057
67492SOL    HW2 2501  12.493  12.037  -0.053
67493SOL     OW 2502  12.240  12.505   0.849
67493SOL    HW1 2503  12.247  12.421   0.794
67493SOL    HW2 2504  12.302  12.574   0.813
67494SOL     OW 2505  11.491  11.982   0.949
67494SOL    HW1 2506  11.584  12.018   0.954
67494SOL    HW2 2507  11.485  11.897   1.001
67495SOL     OW 2508  11.511  11.681   1.006
67495SOL    HW1 2509  11.459  11.598   0.989
67495SOL    HW2 2510  11.588  11.686   0.942
67496SOL     OW 2511  12.310  11.552   1.678
67496SOL    HW1 2512  12.265  11.615   1.742
67496SOL    HW2 2513  12.403  11.583   1.661
67497SOL     OW 2514  12.332  11.379   1.477
67497SOL    HW1 2515  12.332  11.443   1.554
67497SOL    HW2 2516  12.360  11.427   1.394
67498SOL     OW 2517  11.180  12.498   0.200
67498SOL    HW1 2518  11.087  12.519   0.169
67498SOL    HW2 2519  11.190  12.399   0.213
67499SOL     OW 2520  11.676  12.740   0.910
67499SOL    HW1 2521  11.742  12.814   0.919
67499SOL    HW2 2522  11.720  12.661   0.868
67500SOL     OW 2523  12.174  11.968   1.238
67500SOL    HW1 2524  12.215  11.936   1.324
67500SOL    HW2 2525  12.078  11.941   1.235
67501SOL     OW 2526  11.212  11.716   1.114
67501SOL    HW1 2527  11.297  11.683   1.073
67501SOL    HW2 2528  11.225  11.731   1.212
67502SOL     OW 2529  11.361  11.692   1.722
67502SOL    HW1 2530  11.420  11.652   1.652
67502SOL    HW2 2531  11.303  11.763   1.681
67503SOL     OW 2532  12.541  12.122   1.660
67503SOL    HW1 2533  12.580  12.211   1.680
67503SOL    HW2 2534  12.551  12.102   1.563
67504SOL     OW 2535  11.987  11.744   0.325
67504SOL    HW1 2536  11.994  11.655   0.279
67504SOL    HW2 2537  11.893  11.778   0.317
67505SOL     OW 2538  11.424  12.736   1.744
67505SOL    HW1 2539  11.394  12.793   1.820
67505SOL    HW2 2540  11.417  12.639   1.770
67506SOL     OW 2541  11.843  11.636   1.269
67506SOL    HW1 2542  11.809  11.547   1.239
67506SOL    HW2 2543  11.869  11.690   1.189
67507SOL     OW 2544  11.645  11.672   0.191
67507SOL    HW1 2545  11.706  11.752   0.195
67507SOL    HW2 2546  11.550  11.703   0.198
67508SOL     OW 2547  11.331  12.309   1.466
67508SOL    HW1 2548  11.353  12.248   1.542
67508SOL    HW2 2549  11.341  12.260   1.380
67509SOL     OW 2550  12.519  12.231   1.234
67509SOL    HW1 2551  12.543  12.168   1.160
67509SOL    HW2 2552  12.429  12.271   1.216
67510SOL     OW 2553  12.474  12.027   0.309
67510SOL    HW1 2554  12.388  11.996   0.351
67510SOL    HW2 2555  12.470  12.013   0.210
67511SOL     OW 2556  12.931  12.919   1.154
67511SOL    HW1 2557  12.992  12.949   1.081
67511SOL    HW2 2558  12.893  12.830   1.132
67512SOL     OW 2559  12.424  12.903   1.128
67512SOL    HW1 2560  12.508  12.908   1.074
67512SOL    HW2 2561  12.401  12.807   1.146
67513SOL     OW 2562  11.255  12.430   1.022
67513SOL    HW1 2563  11.250  12.429   1.122
67513SOL    HW2 2564  11.172  12.389   0.984
67514SOL     OW 2565  12.075  11.258   0.133
67514SOL    HW1 2566  12.126  11.259   0.047
67514SOL    HW2 2567  12.131  11.216   0.204
67515SOL     OW 2568  12.898  11.307   0.523
67515SOL    HW1 2569  12.971  11.290   0.456
67515SOL    HW2 2570  12.867  11.220   0.561
67516SOL     OW 2571  11.302  12.966   1.851
67516SOL    HW1 2572  11.261  12.892   1.904
67516SOL    HW2 2573  11.366  13.017   1.909
67517SOL     OW 2574  12.452  12.099   0.672
67517SOL    HW1 2575  12.512  12.018   0.674
67517SOL    HW2 2576  12.492  12.168   0.612
67518SOL     OW 2577  12.002  12.445   1.422
67518SOL    HW1 2578  11.997  12.478   1.517
67518SOL    HW2 2579  11.916  12.464   1.376
67519SOL     OW 2580  11.844  12.788   0.154
67519SOL    HW1 2581  11.853  12.798   0.055
67519SOL    HW2 2582  11.804  12.699   0.175
67520SOL     OW 2583  11.435  11.498   0.720
67520SOL    HW1 2584  11.356  11.549   0.686
67520SOL    HW2 2585  11.426  11.483   0.818
67521SOL     OW 2586  12.366  12.784   0.031
67521SOL    HW1 2587  12.372  12.691   0.068
67521SOL    HW2 2588  12.307  12.784  -0.049
67522SOL     OW 2589  11.994  12.174   1.372
67522SOL    HW1 2590  12.034  12.173   1.280
67522SOL    HW2 2591  12.004  12.266   1.412
67523SOL     OW 2592  12.088  12.082   0.291
67523SOL    HW1 2593  12.151  12.120   0.223
67523SOL    HW2 2594  12.128  11.999   0.330
67524SOL     OW 2595  11.544  12.460   1.490
67524SOL    HW1 2596  11.531  12.553   1.456
67524SOL    HW2 2597  11.460  12.408   1.477
67525SOL     OW 2598  12.211  12.270   0.696
67525SOL    HW1 2599  12.141  12.223   0.750
67525SOL    HW2 2600  12.270  12.202   0.653
67526SOL     OW 2601  12.186  11.408   0.971
67526SOL    HW1 2602  12.178  11.372   0.878
67526SOL    HW2 2603  12.184  11.332   1.036
67527SOL     OW 2604  11.762  12.659   0.491
67527SOL    HW1 2605  11.804  12.601   0.421
67527SOL    HW2 2606  11.718  12.738   0.447
67528SOL     OW 2607  11.427  12.520   0.290
67528SOL    HW1 2608  11.331  12.521   0.263
67528SOL    HW2 2609  11.439  12.573   0.374
67529SOL     OW 2610  11.277  12.185   1.726
67529SOL    HW1 2611  11.200  12.152   1.780
67529SOL    HW2 2612  11.362  12.155   1.768
67530SOL     OW 2613  11.844  11.375   1.489
67530SOL    HW1 2614  11.934  11.359   1.449
67530SOL    HW2 2615  11.852  11.380   1.588
67531SOL     OW 2616  12.612  12.028   1.398
67531SOL    HW1 2617  12.555  12.080   1.335
67531SOL    HW2 2618  12.708  12.040   1.374
67532SOL     OW 2619  11.244  11.338   0.318
67532SOL    HW1 2620  11.227  11.421   0.264
67532SOL    HW2 2621  11.334  11.301   0.296
67533SOL     OW 2622  12.355  12.507   0.119
67533SOL    HW1 2623  12.256  12.496   0.121
67533SOL    HW2 2624  12.389  12.522   0.212
67534SOL     OW 2625  11.785  12.014   1.431
67534SOL    HW1 2626  11.841  12.095   1.414
67534SOL    HW2 2627  11.844  11.934   1.434
67535SOL     OW 2628  11.888  11.737   1.708
67535SOL    HW1 2629  11.907  11.802   1.782
67535SOL    HW2 2630  11.948  11.657   1.717
67536SOL     OW 2631  12.622  12.392   1.633
67536SOL    HW1 2632  12.613  12.382   1.732
67536SOL    HW2 2633  12.718  12.385   1.607
67537SOL     OW 2634  12.397  11.497   0.449
67537SOL    HW1 2635  12.462  11.423   0.438
67537SOL    HW2 2636  12.417  11.547   0.533
67538SOL     OW 2637  11.766  11.917   0.652
67538SOL    HW1 2638  11.816  12.002   0.633
67538SOL    HW2 2639  11.678  11.919   0.604
67539SOL     OW 2640  12.031  12.546   0.016
67539SOL    HW1 2641  11.985  12.561   0.104
67539SOL    HW2 2642  12.075  12.631  -0.014
67540SOL     OW 2643  12.580  13.023   1.720
67540SOL    HW1 2644  12.484  13.012   1.693
67540SOL    HW2 2645  12.636  12.956   1.672
67541SOL     OW 2646  12.031  12.128   0.861
67541SOL    HW1 2647  12.085  12.059   0.909
67541SOL    HW2 2648  11.999  12.197   0.927
67542SOL     OW 2649  12.255  12.156   0.087
67542SOL    HW1 2650  12.232  12.209   0.005
67542SOL    HW2 2651  12.336  12.100   0.068
67543SOL     OW 2652  13.033  12.741   0.851
67543SOL    HW1 2653  12.962  12.729   0.781
67543SOL    HW2 2654  13.034  12.662   0.911
67544SOL     OW 2655  11.393  12.486   1.844
67544SOL    HW1 2656  11.328  12.413   1.823
67544SOL    HW2 2657  11.397  12.500   1.942
67545SOL     OW 2658  11.251  12.412   0.653
67545SOL    HW1 2659  11.250  12.365   0.741
67545SOL    HW2 2660  11.333  12.384   0.602
67546SOL     OW 2661  11.844  12.563   1.624
67546SOL    HW1 2662  11.766  12.513   1.662
67546SOL    HW2 2663  11.841  12.658   1.655
67547SOL     OW 2664  11.600  11.596   0.520
67547SOL    HW1 2665  11.630  11.524   0.458
67547SOL    HW2 2666  11.561  11.556   0.603
67548SOL     OW 2667  11.489  11.719   1.280
67548SOL    HW1 2668  11.527  11.660   1.352
67548SOL    HW2 2669  11.529  11.693   1.192
67549SOL     OW 2670  12.596  11.386   1.112
67549SOL    HW1 2671  12.648  11.321   1.167
67549SOL    HW2 2672  12.547  11.449   1.173
67550SOL     OW 2673  12.173  11.206   1.154
67550SOL    HW1 2674  12.110  11.134   1.123
67550SOL    HW2 2675  12.266  11.170   1.154
67551SOL     OW 2676  11.942  12.502   0.301
67551SOL    HW1 2677  11.896  12.415   0.318
67551SOL    HW2 2678  12.033  12.499   0.342
67552SOL     OW 2679  11.790  12.739   1.284
67552SOL    HW1 2680  11.785  12.821   1.341
67552SOL    HW2 2681  11.879  12.736   1.239
67553SOL     OW 2682  12.524  11.224   0.168
67553SOL    HW1 2683  12.559  11.183   0.084
67553SOL    HW2 2684  12.434  11.186   0.188
67554SOL     OW 2685  12.472  11.625   0.691
67554SOL    HW1 2686  12.413  11.705   0.695
67554SOL    HW2 2687  12.487  11.590   0.784
67555SOL     OW 2688  12.765  11.393   0.882
67555SOL    HW1 2689  12.681  11.392   0.936
67555SOL    HW2 2690  12.767  11.476   0.826
67556SOL     OW 2691  11.211  12.249   0.300
67556SOL    HW1 2692  11.310  12.238   0.291
67556SOL    HW2 2693  11.171  12.163   0.332
67557SOL     OW 2694  11.402  11.800   1.975
67557SOL    HW1 2695  11.309  11.798   2.012
67557SOL    HW2 2696  11.403  11.761   1.883
67558SOL     OW 2697  11.397  11.447   2.858
67558SOL    HW1 2698  11.432  11.430   2.950
67558SOL    HW2 2699  11.309  11.402   2.846
67559SOL     OW 2700  11.191  11.540   2.509
67559SOL    HW1 2701  11.109  11.583   2.548
67559SOL    HW2 2702  11.163  11.467   2.446
67560SOL     OW 2703  11.741  12.447   3.027
67560SOL    HW1 2704  11.648  12.440   2.990
67560SOL    HW2 2705  11.752  12.536   3.071
67561SOL     OW 2706  12.727  12.683   2.565
67561SOL    HW1 2707  12.670  12.667   2.646
67561SOL    HW2 2708  12.668  12.693   2.485
67562SOL     OW 2709  12.307  11.875   2.579
67562SOL    HW1 2710  12.364  11.953   2.554
67562SOL    HW2 2711  12.247  11.901   2.655
67563SOL     OW 2712  11.940  12.316   2.885
67563SOL    HW1 2713  11.862  12.333   2.945
67563SOL    HW2 2714  11.974  12.403   2.849
67564SOL     OW 2715  12.022  11.970   3.685
67564SOL    HW1 2716  12.018  12.046   3.750
67564SOL    HW2 2717  12.044  12.006   3.594
67565SOL     OW 2718  11.857  12.184   2.527
67565SOL    HW1 2719  11.926  12.168   2.597
67565SOL    HW2 2720  11.784  12.241   2.565
67566SOL     OW 2721  11.858  12.333   3.665
67566SOL    HW1 2722  11.918  12.412   3.679
67566SOL    HW2 2723  11.772  12.364   3.624
67567SOL     OW 2724  11.507  12.607   2.923
67567SOL    HW1 2725  11.429  12.576   2.870
67567SOL    HW2 2726  11.565  12.665   2.866
67568SOL     OW 2727  12.632  12.677   3.201
67568SOL    HW1 2728  12.656  12.771   3.227
67568SOL    HW2 2729  12.616  12.623   3.283
67569SOL     OW 2730  11.610  11.564   3.361
67569SOL    HW1 2731  11.692  11.508   3.370
67569SOL    HW2 2732  11.529  11.506   3.365
67570SOL     OW 2733  12.299  12.513   3.552
67570SOL    HW1 2734  12.346  12.513   3.640
67570SOL    HW2 2735  12.251  12.426   3.541
67571SOL     OW 2736  11.402  12.606   2.400
67571SOL    HW1 2737  11.376  12.702   2.400
67571SOL    HW2 2738  11.331  12.552   2.445
67572SOL     OW 2739  11.412  12.263   2.748
67572SOL    HW1 2740  11.426  12.179   2.800
67572SOL    HW2 2741  11.357  12.327   2.803
67573SOL     OW 2742  11.778  12.136   1.985
67573SOL    HW1 2743  11.785  12.220   1.931
67573SOL    HW2 2744  11.824  12.149   2.073
67574SOL     OW 2745  12.766  11.286   3.342
67574SOL    HW1 2746  12.748  11.353   3.270
67574SOL    HW2 2747  12.763  11.332   3.431
67575SOL     OW 2748  11.294  11.815   2.425
67575SOL    HW1 2749  11.249  11.727   2.442
67575SOL    HW2 2750  11.293  11.869   2.509
67576SOL     OW 2751  11.199  12.768   1.979
67576SOL    HW1 2752  11.180  12.672   2.000
67576SOL    HW2 2753  11.166  12.826   2.054
67577SOL     OW 2754  12.861  12.094   2.474
67577SOL    HW1 2755  12.956  12.065   2.482
67577SOL    HW2 2756  12.853  12.159   2.399
67578SOL     OW 2757  11.285  11.909   3.459
67578SOL    HW1 2758  11.373  11.896   3.504
67578SOL    HW2 2759  11.272  12.006   3.437
67579SOL     OW 2760  11.785  12.537   2.588
67579SOL    HW1 2761  11.736  12.450   2.597
67579SOL    HW2 2762  11.762  12.580   2.501
67580SOL     OW 2763  12.465  12.400   3.285
67580SOL    HW1 2764  12.502  12.327   3.227
67580SOL    HW2 2765  12.517  12.405   3.370
67581SOL     OW 2766  11.981  11.176   2.364
67581SOL    HW1 2767  12.021  11.267   2.355
67581SOL    HW2 2768  11.881  11.184   2.370
67582SOL     OW 2769  11.369  12.148   3.126
67582SOL    HW1 2770  11.458  12.103   3.112
67582SOL    HW2 2771  11.296  12.083   3.107
67583SOL     OW 2772  11.489  11.423   3.663
67583SOL    HW1 2773  11.560  11.494   3.669
67583SOL    HW2 2774  11.401  11.462   3.691
67584SOL     OW 2775  12.638  12.589   2.815
67584SOL    HW1 2776  12.579  12.595   2.895
67584SOL    HW2 2777  12.623  12.501   2.769
67585SOL     OW 2778  11.770  11.901   2.132
67585SOL    HW1 2779  11.794  11.970   2.064
67585SOL    HW2 2780  11.692  11.934   2.186
67586SOL     OW 2781  12.453  11.517   2.806
67586SOL    HW1 2782  12.367  11.467   2.793
67586SOL    HW2 2783  12.515  11.463   2.862
67587SOL     OW 2784  11.979  11.777   3.327
67587SOL    HW1 2785  11.932  11.774   3.416
67587SOL    HW2 2786  11.928  11.722   3.261
67588SOL     OW 2787  12.566  11.641   3.536
67588SOL    HW1 2788  12.546  11.684   3.624
67588SOL    HW2 2789  12.644  11.579   3.545
67589SOL     OW 2790  12.145  12.062   3.434
67589SOL    HW1 2791  12.191  11.978   3.405
67589SOL    HW2 2792  12.089  12.096   3.359
67590SOL     OW 2793  12.163  11.582   3.104
67590SOL    HW1 2794  12.086  11.616   3.158
67590SOL    HW2 2795  12.129  11.531   3.025
67591SOL     OW 2796  12.213  11.873   2.291
67591SOL    HW1 2797  12.239  11.869   2.387
67591SOL    HW2 2798  12.128  11.822   2.277
67592SOL     OW 2799  11.248  11.983   2.651
67592SOL    HW1 2800  11.347  11.971   2.660
67592SOL    HW2 2801  11.224  12.078   2.672
67593SOL     OW 2802  12.037  11.520   2.057
67593SOL    HW1 2803  12.096  11.583   2.008
67593SOL    HW2 2804  12.056  11.426   2.028
67594SOL     OW 2805  12.534  12.316   2.407
67594SOL    HW1 2806  12.617  12.287   2.359
67594SOL    HW2 2807  12.485  12.383   2.351
67595SOL     OW 2808  11.722  11.368   2.747
67595SOL    HW1 2809  11.717  11.363   2.847
67595SOL    HW2 2810  11.724  11.464   2.718
67596SOL     OW 2811  12.180  12.628   2.339
67596SOL    HW1 2812  12.134  12.700   2.287
67596SOL    HW2 2813  12.176  12.648   2.437
67597SOL     OW 2814  12.399  12.722   3.368
67597SOL    HW1 2815  12.405  12.645   3.432
67597SOL    HW2 2816  12.347  12.696   3.288
67598SOL     OW 2817  11.493  12.115   2.104
67598SOL    HW1 2818  11.575  12.154   2.062
67598SOL    HW2 2819  11.466  12.033   2.055
67599SOL     OW 2820  12.630  11.907   2.590
67599SOL    HW1 2821  12.625  11.842   2.665
67599SOL    HW2 2822  12.710  11.966   2.603
67600SOL     OW 2823  11.633  12.438   3.589
67600SOL    HW1 2824  11.583  12.439   3.503
67600SOL    HW2 2825  11.570  12.420   3.665
67601SOL     OW 2826  11.374  11.457   3.360
67601SOL    HW1 2827  11.294  11.517   3.347
67601SOL    HW2 2828  11.364  11.408   3.446
67602SOL     OW 2829  11.554  11.872   2.342
67602SOL    HW1 2830  11.599  11.782   2.339
67602SOL    HW2 2831  11.460  11.861   2.375
67603SOL     OW 2832  11.786  11.294   1.979
67603SOL    HW1 2833  11.884  11.272   1.986
67603SOL    HW2 2834  11.755  11.277   1.886
67604SOL     OW 2835  11.953  11.436   3.611
67604SOL    HW1 2836  12.020  11.375   3.654
67604SOL    HW2 2837  11.880  11.455   3.676
67605SOL     OW 2838  12.523  11.762   3.295
67605SOL    HW1 2839  12.551  11.719   3.380
67605SOL    HW2 2840  12.548  11.858   3.296
67606SOL     OW 2841  11.975  12.574   2.786
67606SOL    HW1 2842  12.065  12.588   2.744
67606SOL    HW2 2843  11.904  12.576   2.715
67607SOL     OW 2844  12.094  11.675   2.761
67607SOL    HW1 2845  12.069  11.666   2.665
67607SOL    HW2 2846  12.142  11.593   2.792
67608SOL     OW 2847  11.711  11.236   2.374
67608SOL    HW1 2848  11.630  11.237   2.432
67608SOL    HW2 2849  11.714  11.319   2.319
67609SOL     OW 2850  12.606  12.360   1.903
67609SOL    HW1 2851  12.638  12.284   1.960
67609SOL    HW2 2852  12.514  12.387   1.933
67610SOL     OW 2853  11.469  11.207   2.033
67610SOL    HW1 2854  11.518  11.291   2.012
67610SOL    HW2 2855  11.531  11.142   2.078
67611SOL     OW 2856  12.107  11.408   2.342
67611SOL    HW1 2857  12.059  11.449   2.264
67611SOL    HW2 2858  12.206  11.406   2.323
67612SOL     OW 2859  12.248  11.855   3.326
67612SOL    HW1 2860  12.168  11.794   3.329
67612SOL    HW2 2861  12.329  11.802   3.302
67613SOL     OW 2862  12.399  12.742   2.655
67613SOL    HW1 2863  12.420  12.816   2.590
67613SOL    HW2 2864  12.467  12.742   2.728
67614SOL     OW 2865  11.631  12.324   2.603
67614SOL    HW1 2866  11.560  12.297   2.668
67614SOL    HW2 2867  11.605  12.296   2.510
67615SOL     OW 2868  12.204  11.721   1.878
67615SOL    HW1 2869  12.163  11.803   1.839
67615SOL    HW2 2870  12.268  11.747   1.951
67616SOL     OW 2871  11.250  11.728   3.248
67616SOL    HW1 2872  11.342  11.727   3.207
67616SOL    HW2 2873  11.244  11.802   3.315
67617SOL     OW 2874  11.733  11.394   3.009
67617SOL    HW1 2875  11.771  11.310   3.046
67617SOL    HW2 2876  11.645  11.413   3.053
67618SOL     OW 2877  12.038  11.626   2.504
67618SOL    HW1 2878  12.006  11.698   2.442
67618SOL    HW2 2879  12.062  11.545   2.451
67619SOL     OW 2880  12.189  11.211   2.615
67619SOL    HW1 2881  12.117  11.216   2.546
67619SOL    HW2 2882  12.165  11.142   2.684
67620SOL     OW 2883  12.601  12.345   2.729
67620SOL    HW1 2884  12.546  12.261   2.722
67620SOL    HW2 2885  12.627  12.374   2.637
67621SOL     OW 2886  12.638  11.762   2.854
67621SOL    HW1 2887  12.608  11.667   2.861
67621SOL    HW2 2888  12.711  11.778   2.920
67622SOL     OW 2889  11.660  12.557   2.036
67622SOL    HW1 2890  11.573  12.542   2.083
67622SOL    HW2 2891  11.643  12.583   1.941
67623SOL     OW 2892  12.562  11.747   1.940
67623SOL    HW1 2893  12.508  11.726   2.021
67623SOL    HW2 2894  12.653  11.706   1.949
67624SOL     OW 2895  11.699  11.428   2.190
67624SOL    HW1 2896  11.726  11.369   2.115
67624SOL    HW2 2897  11.699  11.523   2.159
67625SOL     OW 2898  12.236  12.519   3.202
67625SOL    HW1 2899  12.156  12.496   3.257
67625SOL    HW2 2900  12.319  12.493   3.251
67626SOL     OW 2901  12.283  12.367   2.962
67626SOL    HW1 2902  12.243  12.411   3.043
67626SOL    HW2 2903  12.242  12.404   2.879
67627SOL     OW 2904  12.087  11.261   3.264
67627SOL    HW1 2905  12.112  11.241   3.169
67627SOL    HW2 2906  12.159  11.317   3.306
67628SOL     OW 2907  12.152  12.288   3.581
67628SOL    HW1 2908  12.053  12.294   3.591
67628SOL    HW2 2909  12.175  12.208   3.525
67629SOL     OW 2910  11.877  12.222   2.230
67629SOL    HW1 2911  11.863  12.229   2.329
67629SOL    HW2 2912  11.961  12.171   2.212
67630SOL     OW 2913  11.582  11.985   3.113
67630SOL    HW1 2914  11.668  11.997   3.163
67630SOL    HW2 2915  11.540  11.898   3.140
67631SOL     OW 2916  12.446  11.558   3.124
67631SOL    HW1 2917  12.467  11.632   3.188
67631SOL    HW2 2918  12.357  11.575   3.081
67632SOL     OW 2919  11.236  12.736   3.193
67632SOL    HW1 2920  11.190  12.818   3.159
67632SOL    HW2 2921  11.334  12.755   3.202
67633SOL     OW 2922  11.539  12.272   2.363
67633SOL    HW1 2923  11.532  12.355   2.307
67633SOL    HW2 2924  11.543  12.192   2.303
67634SOL     OW 2925  11.738  11.709   2.727
67634SOL    HW1 2926  11.750  11.775   2.653
67634SOL    HW2 2927  11.784  11.743   2.810
67635SOL     OW 2928  12.424  12.520   2.250
67635SOL    HW1 2929  12.474  12.597   2.290
67635SOL    HW2 2930  12.329  12.522   2.282
67636SOL     OW 2931  12.444  12.617   3.004
67636SOL    HW1 2932  12.491  12.630   3.091
67636SOL    HW2 2933  12.378  12.543   3.013
67637SOL     OW 2934  12.754  11.811   2.334
67637SOL    HW1 2935  12.723  11.872   2.407
67637SOL    HW2 2936  12.804  11.863   2.265
67638SOL     OW 2937  11.526  12.682   3.191
67638SOL    HW1 2938  11.505  12.638   3.104
67638SOL    HW2 2939  11.623  12.708   3.194
67639SOL     OW 2940  11.574  11.923   3.460
67639SOL    HW1 2941  11.642  11.978   3.413
67639SOL    HW2 2942  11.614  11.835   3.487
67640SOL     OW 2943  12.185  11.277   3.632
67640SOL    HW1 2944  12.191  11.362   3.580
67640SOL    HW2 2945  12.217  11.201   3.575
67641SOL     OW 2946  11.676  11.222   3.602
67641SOL    HW1 2947  11.634  11.165   3.532
67641SOL    HW2 2948  11.610  11.291   3.634
67642SOL     OW 2949  11.745  12.042   2.891
67642SOL    HW1 2950  11.789  12.131   2.882
67642SOL    HW2 2951  11.682  12.042   2.968
67643SOL     OW 2952  12.532  12.034   2.907
67643SOL    HW1 2953  12.457  12.034   2.841
67643SOL    HW2 2954  12.569  11.942   2.916
67644SOL     OW 2955  12.381  11.697   2.137
67644SOL    HW1 2956  12.394  11.613   2.191
67644SOL    HW2 2957  12.352  11.771   2.197
67645SOL     OW 2958  11.479  11.385   3.093
67645SOL    HW1 2959  11.456  11.422   3.183
67645SOL    HW2 2960  11.449  11.290   3.087
67646SOL     OW 2961  11.209  12.482   3.144
67646SOL    HW1 2962  11.262  12.433   3.212
67646SOL    HW2 2963  11.231  12.580   3.149
67647SOL     OW 2964  11.904  11.806   2.926
67647SOL    HW1 2965  11.963  11.780   2.850
67647SOL    HW2 2966  11.876  11.902   2.915
67648SOL     OW 2967  11.479  11.235   2.480
67648SOL    HW1 2968  11.468  11.329   2.513
67648SOL    HW2 2969  11.474  11.172   2.557
67649SOL     OW 2970  12.794  11.539   2.236
67649SOL    HW1 2971  12.796  11.463   2.300
67649SOL    HW2 2972  12.746  11.616   2.276
67650SOL     OW 2973  12.195  11.938   2.828
67650SOL    HW1 2974  12.210  11.959   2.924
67650SOL    HW2 2975  12.165  11.843   2.819
67651SOL     OW 2976  11.522  12.070   3.666
67651SOL    HW1 2977  11.598  12.114   3.714
67651SOL    HW2 2978  11.557  12.023   3.584
67652SOL     OW 2979  12.712  11.446   1.987
67652SOL    HW1 2980  12.651  11.371   2.010
67652SOL    HW2 2981  12.734  11.498   2.070
67653SOL     OW 2982  12.475  12.010   1.904
67653SOL    HW1 2983  12.509  11.917   1.919
67653SOL    HW2 2984  12.493  12.037   1.809
67654SOL     OW 2985  12.240  12.505   2.711
67654SOL    HW1 2986  12.247  12.421   2.656
67654SOL    HW2 2987  12.302  12.574   2.675
67655SOL     OW 2988  11.491  11.982   2.811
67655SOL    HW1 2989  11.584  12.018   2.816
67655SOL    HW2 2990  11.485  11.897   2.863
67656SOL     OW 2991  11.511  11.681   2.868
67656SOL    HW1 2992  11.459  11.598   2.851
67656SOL    HW2 2993  11.588  11.686   2.804
67657SOL     OW 2994  12.310  11.552   3.540
67657SOL    HW1 2995  12.265  11.615   3.604
67657SOL    HW2 2996  12.403  11.583   3.523
67658SOL     OW 2997  12.332  11.379   3.339
67658SOL    HW1 2998  12.332  11.443   3.416
67658SOL    HW2 2999  12.360  11.427   3.256
67659SOL     OW 3000  11.180  12.498   2.062
67659SOL    HW1 3001  11.087  12.519   2.031
67659SOL    HW2 3002  11.190  12.399   2.075
67660SOL     OW 3003  11.676  12.740   2.772
67660SOL    HW1 3004  11.742  12.814   2.781
67660SOL    HW2 3005  11.720  12.661   2.730
67661SOL     OW 3006  12.174  11.968   3.100
67661SOL    HW1 3007  12.215  11.936   3.186
67661SOL    HW2 3008  12.078  11.941   3.097
67662SOL     OW 3009  11.212  11.716   2.976
67662SOL    HW1 3010  11.297  11.683   2.935
67662SOL    HW2 3011  11.225  11.731   3.074
67663SOL     OW 3012  11.361  11.692   3.584
67663SOL    HW1 3013  11.420  11.652   3.514
67663SOL    HW2 3014  11.303  11.763   3.543
67664SOL     OW 3015  12.541  12.122   3.522
67664SOL    HW1 3016  12.580  12.211   3.542
67664SOL    HW2 3017  12.551  12.102   3.425
67665SOL     OW 3018  11.987  11.744   2.187
67665SOL    HW1 3019  11.994  11.655   2.141
67665SOL    HW2 3020  11.893  11.778   2.179
67666SOL     OW 3021  11.424  12.736   3.606
67666SOL    HW1 3022  11.394  12.793   3.682
67666SOL    HW2 3023  11.417  12.639   3.632
67667SOL     OW 3024  11.843  11.636   3.131
67667SOL    HW1 3025  11.809  11.547   3.101
67667SOL    HW2 3026  11.869  11.690   3.051
67668SOL     OW 3027  11.645  11.672   2.053
67668SOL    HW1 3028  11.706  11.752   2.057
67668SOL    HW2 3029  11.550  11.703   2.060
67669SOL     OW 3030  11.331  12.309   3.328
67669SOL    HW1 3031  11.353  12.248   3.404
67669SOL    HW2 3032  11.341  12.260   3.242
67670SOL     OW 3033  12.474  12.027   2.171
67670SOL    HW1 3034  12.388  11.996   2.213
67670SOL    HW2 3035  12.470  12.013   2.072
67671SOL     OW 3036  12.931  12.919   3.016
67671SOL    HW1 3037  12.992  12.949   2.943
67671SOL    HW2 3038  12.893  12.830   2.994
67672SOL     OW 3039  12.424  12.903   2.990
67672SOL    HW1 3040  12.508  12.908   2.936
67672SOL    HW2 3041  12.401  12.807   3.008
67673SOL     OW 3042  11.255  12.430   2.884
67673SOL    HW1 3043  11.250  12.429   2.984
67673SOL    HW2 3044  11.172  12.389   2.846
67674SOL     OW 3045  12.898  11.307   2.385
67674SOL    HW1 3046  12.971  11.290   2.318
67674SOL    HW2 3047  12.867  11.220   2.423
67675SOL     OW 3048  11.302  12.966   3.713
67675SOL    HW1 3049  11.261  12.892   3.766
67675SOL    HW2 3050  11.366  13.017   3.771
67676SOL     OW 3051  12.452  12.099   2.534
67676SOL    HW1 3052  12.512  12.018   2.536
67676SOL    HW2 3053  12.492  12.168   2.474
67677SOL     OW 3054  12.002  12.445   3.284
67677SOL    HW1 3055  11.997  12.478   3.379
67677SOL    HW2 3056  11.916  12.464   3.238
67678SOL     OW 3057  11.844  12.788   2.016
67678SOL    HW1 3058  11.853  12.798   1.917
67678SOL    HW2 3059  11.804  12.699   2.037
67679SOL     OW 3060  11.435  11.498   2.582
67679SOL    HW1 3061  11.356  11.549   2.548
67679SOL    HW2 3062  11.426  11.483   2.680
67680SOL     OW 3063  12.366  12.784   1.893
67680SOL    HW1 3064  12.372  12.691   1.930
67680SOL    HW2 3065  12.307  12.784   1.813
67681SOL     OW 3066  11.994  12.174   3.234
67681SOL    HW1 3067  12.034  12.173   3.142
67681SOL    HW2 3068  12.004  12.266   3.274
67682SOL     OW 3069  12.088  12.082   2.153
67682SOL    HW1 3070  12.151  12.120   2.085
67682SOL    HW2 3071  12.128  11.999   2.192
67683SOL     OW 3072  11.544  12.460   3.352
67683SOL    HW1 3073  11.531  12.553   3.318
67683SOL    HW2 3074  11.460  12.408   3.339
67684SOL     OW 3075  12.211  12.270   2.558
67684SOL    HW1 3076  12.141  12.223   2.612
67684SOL    HW2 3077  12.270  12.202   2.515
67685SOL     OW 3078  12.186  11.408   2.833
67685SOL    HW1 3079  12.178  11.372   2.740
67685SOL    HW2 3080  12.184  11.332   2.898
67686SOL     OW 3081  11.762  12.659   2.353
67686SOL    HW1 3082  11.804  12.601   2.283
67686SOL    HW2 3083  11.718  12.738   2.309
67687SOL     OW 3084  11.427  12.520   2.152
67687SOL    HW1 3085  11.331  12.521   2.125
67687SOL    HW2 3086  11.439  12.573   2.236
67688SOL     OW 3087  11.277  12.185   3.588
67688SOL    HW1 3088  11.200  12.152   3.642
67688SOL    HW2 3089  11.362  12.155   3.630
67689SOL     OW 3090  11.844  11.375   3.351
67689SOL    HW1 3091  11.934  11.359   3.311
67689SOL    HW2 3092  11.852  11.380   3.450
67690SOL     OW 3093  11.247  11.517   1.895
67690SOL    HW1 3094  11.155  11.489   1.866
67690SOL    HW2 3095  11.278  11.594   1.839
67691SOL     OW 3096  12.612  12.028   3.260
67691SOL    HW1 3097  12.555  12.080   3.197
67691SOL    HW2 3098  12.708  12.040   3.236
67692SOL     OW 3099  11.244  11.338   2.180
67692SOL    HW1 3100  11.227  11.421   2.126
67692SOL    HW2 3101  11.334  11.301   2.158
67693SOL     OW 3102  12.355  12.507   1.981
67693SOL    HW1 3103  12.256  12.496   1.983
67693SOL    HW2 3104  12.389  12.522   2.074
67694SOL     OW 3105  11.785  12.014   3.293
67694SOL    HW1 3106  11.841  12.095   3.276
67694SOL    HW2 3107  11.844  11.934   3.296
67695SOL     OW 3108  11.888  11.737   3.570
67695SOL    HW1 3109  11.907  11.802   3.644
67695SOL    HW2 3110  11.948  11.657   3.579
67696SOL     OW 3111  12.622  12.392   3.495
67696SOL    HW1 3112  12.613  12.382   3.594
67696SOL    HW2 3113  12.718  12.385   3.469
67697SOL     OW 3114  12.397  11.497   2.311
67697SOL    HW1 3115  12.462  11.423   2.300
67697SOL    HW2 3116  12.417  11.547   2.395
67698SOL     OW 3117  11.766  11.917   2.514
67698SOL    HW1 3118  11.816  12.002   2.495
67698SOL    HW2 3119  11.678  11.919   2.466
67699SOL     OW 3120  12.031  12.546   1.878
67699SOL    HW1 3121  11.985  12.561   1.966
67699SOL    HW2 3122  12.075  12.631   1.848
67700SOL     OW 3123  12.580  13.023   3.582
67700SOL    HW1 3124  12.484  13.012   3.555
67700SOL    HW2 3125  12.636  12.956   3.534
67701SOL     OW 3126  12.031  12.128   2.723
67701SOL    HW1 3127  12.085  12.059   2.771
67701SOL    HW2 3128  11.999  12.197   2.789
67702SOL     OW 3129  12.255  12.156   1.949
67702SOL    HW1 3130  12.232  12.209   1.867
67702SOL    HW2 3131  12.336  12.100   1.930
67703SOL     OW 3132  13.033  12.741   2.713
67703SOL    HW1 3133  12.962  12.729   2.643
67703SOL    HW2 3134  13.034  12.662   2.773
67704SOL     OW 3135  11.393  12.486   3.706
67704SOL    HW1 3136  11.328  12.413   3.685
67704SOL    HW2 3137  11.397  12.500   3.804
67705SOL     OW 3138  11.251  12.412   2.515
67705SOL    HW1 3139  11.250  12.365   2.603
67705SOL    HW2 3140  11.333  12.384   2.464
67706SOL     OW 3141  11.844  12.563   3.486
67706SOL    HW1 3142  11.766  12.513   3.524
67706SOL    HW2 3143  11.841  12.658   3.517
67707SOL     OW 3144  11.600  11.596   2.382
67707SOL    HW1 3145  11.630  11.524   2.320
67707SOL    HW2 3146  11.561  11.556   2.465
67708SOL     OW 3147  11.489  11.719   3.142
67708SOL    HW1 3148  11.527  11.660   3.214
67708SOL    HW2 3149  11.529  11.693   3.054
67709SOL     OW 3150  12.596  11.386   2.974
67709SOL    HW1 3151  12.648  11.321   3.029
67709SOL    HW2 3152  12.547  11.449   3.035
67710SOL     OW 3153  12.173  11.206   3.016
67710SOL    HW1 3154  12.110  11.134   2.985
67710SOL    HW2 3155  12.266  11.170   3.016
67711SOL     OW 3156  11.942  12.502   2.163
67711SOL    HW1 3157  11.896  12.415   2.180
67711SOL    HW2 3158  12.033  12.499   2.204
67712SOL     OW 3159  11.790  12.739   3.146
67712SOL    HW1 3160  11.785  12.821   3.203
67712SOL    HW2 3161  11.879  12.736   3.101
67713SOL     OW 3162  12.524  11.224   2.030
67713SOL    HW1 3163  12.559  11.183   1.946
67713SOL    HW2 3164  12.434  11.186   2.050
67714SOL     OW 3165  12.472  11.625   2.553
67714SOL    HW1 3166  12.413  11.705   2.557
67714SOL    HW2 3167  12.487  11.590   2.646
67715SOL     OW 3168  12.765  11.393   2.744
67715SOL    HW1 3169  12.681  11.392   2.798
67715SOL    HW2 3170  12.767  11.476   2.688
67716SOL     OW 3171  11.211  12.249   2.162
67716SOL    HW1 3172  11.310  12.238   2.153
67716SOL    HW2 3173  11.171  12.163   2.194
67717SOL     OW 3174  11.402  11.800   3.837
67717SOL    HW1 3175  11.309  11.798   3.874
67717SOL    HW2 3176  11.403  11.761   3.745
67718SOL     OW 3177  11.397  11.447   4.720
67718SOL    HW1 3178  11.432  11.430   4.812
67718SOL    HW2 3179  11.309  11.402   4.708
67719SOL     OW 3180  11.191  11.540   4.371
67719SOL    HW1 3181  11.109  11.583   4.410
67719SOL    HW2 3182  11.163  11.467   4.308
67720SOL     OW 3183  11.741  12.447   4.889
67720SOL    HW1 3184  11.648  12.440   4.852
67720SOL    HW2 3185  11.752  12.536   4.933
67721SOL     OW 3186  12.727  12.683   4.427
67721SOL    HW1 3187  12.670  12.667   4.508
67721SOL    HW2 3188  12.668  12.693   4.347
67722SOL     OW 3189  12.307  11.875   4.441
67722SOL    HW1 3190  12.364  11.953   4.416
67722SOL    HW2 3191  12.247  11.901   4.517
67723SOL     OW 3192  11.940  12.316   4.747
67723SOL    HW1 3193  11.862  12.333   4.807
67723SOL    HW2 3194  11.974  12.403   4.711
67724SOL     OW 3195  12.022  11.970   5.547
67724SOL    HW1 3196  12.018  12.046   5.612
67724SOL    HW2 3197  12.044  12.006   5.456
67725SOL     OW 3198  11.857  12.184   4.389
67725SOL    HW1 3199  11.926  12.168   4.459
67725SOL    HW2 3200  11.784  12.241   4.427
67726SOL     OW 3201  11.858  12.333   5.527
67726SOL    HW1 3202  11.918  12.412   5.541
67726SOL    HW2 3203  11.772  12.364   5.486
67727SOL     OW 3204  11.507  12.607   4.785
67727SOL    HW1 3205  11.429  12.576   4.732
67727SOL    HW2 3206  11.565  12.665   4.728
67728SOL     OW 3207  12.632  12.677   5.063
67728SOL    HW1 3208  12.656  12.771   5.089
67728SOL    HW2 3209  12.616  12.623   5.145
67729SOL     OW 3210  11.610  11.564   5.223
67729SOL    HW1 3211  11.692  11.508   5.232
67729SOL    HW2 3212  11.529  11.506   5.227
67730SOL     OW 3213  12.299  12.513   5.414
67730SOL    HW1 3214  12.346  12.513   5.502
67730SOL    HW2 3215  12.251  12.426   5.403
67731SOL     OW 3216  11.402  12.606   4.262
67731SOL    HW1 3217  11.376  12.702   4.262
67731SOL    HW2 3218  11.331  12.552   4.307
67732SOL     OW 3219  11.412  12.263   4.610
67732SOL    HW1 3220  11.426  12.179   4.662
67732SOL    HW2 3221  11.357  12.327   4.665
67733SOL     OW 3222  11.778  12.136   3.847
67733SOL    HW1 3223  11.785  12.220   3.793
67733SOL    HW2 3224  11.824  12.149   3.935
67734SOL     OW 3225  12.766  11.286   5.204
67734SOL    HW1 3226  12.748  11.353   5.132
67734SOL    HW2 3227  12.763  11.332   5.293
67735SOL     OW 3228  11.294  11.815   4.287
67735SOL    HW1 3229  11.249  11.727   4.304
67735SOL    HW2 3230  11.293  11.869   4.371
67736SOL     OW 3231  11.199  12.768   3.841
67736SOL    HW1 3232  11.180  12.672   3.862
67736SOL    HW2 3233  11.166  12.826   3.916
67737SOL     OW 3234  12.861  12.094   4.336
67737SOL    HW1 3235  12.956  12.065   4.344
67737SOL    HW2 3236  12.853  12.159   4.261
67738SOL     OW 3237  11.285  11.909   5.321
67738SOL    HW1 3238  11.373  11.896   5.366
67738SOL    HW2 3239  11.272  12.006   5.299
67739SOL     OW 3240  11.785  12.537   4.450
67739SOL    HW1 3241  11.736  12.450   4.459
67739SOL    HW2 3242  11.762  12.580   4.363
67740SOL     OW 3243  12.465  12.400   5.147
67740SOL    HW1 3244  12.502  12.327   5.089
67740SOL    HW2 3245  12.517  12.405   5.232
67741SOL     OW 3246  11.981  11.176   4.226
67741SOL    HW1 3247  12.021  11.267   4.217
67741SOL    HW2 3248  11.881  11.184   4.232
67742SOL     OW 3249  11.369  12.148   4.988
67742SOL    HW1 3250  11.458  12.103   4.974
67742SOL    HW2 3251  11.296  12.083   4.969
67743SOL     OW 3252  11.489  11.423   5.525
67743SOL    HW1 3253  11.560  11.494   5.531
67743SOL    HW2 3254  11.401  11.462   5.553
67744SOL     OW 3255  12.638  12.589   4.677
67744SOL    HW1 3256  12.579  12.595   4.757
67744SOL    HW2 3257  12.623  12.501   4.631
67745SOL     OW 3258  11.770  11.901   3.994
67745SOL    HW1 3259  11.794  11.970   3.926
67745SOL    HW2 3260  11.692  11.934   4.048
67746SOL     OW 3261  12.453  11.517   4.668
67746SOL    HW1 3262  12.367  11.467   4.655
67746SOL    HW2 3263  12.515  11.463   4.724
67747SOL     OW 3264  11.979  11.777   5.189
67747SOL    HW1 3265  11.932  11.774   5.278
67747SOL    HW2 3266  11.928  11.722   5.123
67748SOL     OW 3267  12.566  11.641   5.398
67748SOL    HW1 3268  12.546  11.684   5.486
67748SOL    HW2 3269  12.644  11.579   5.407
67749SOL     OW 3270  12.145  12.062   5.296
67749SOL    HW1 3271  12.191  11.978   5.267
67749SOL    HW2 3272  12.089  12.096   5.221
67750SOL     OW 3273  12.163  11.582   4.966
67750SOL    HW1 3274  12.086  11.616   5.020
67750SOL    HW2 3275  12.129  11.531   4.887
67751SOL     OW 3276  12.213  11.873   4.153
67751SOL    HW1 3277  12.239  11.869   4.249
67751SOL    HW2 3278  12.128  11.822   4.139
67752SOL     OW 3279  11.248  11.983   4.513
67752SOL    HW1 3280  11.347  11.971   4.522
67752SOL    HW2 3281  11.224  12.078   4.534
67753SOL     OW 3282  12.037  11.520   3.919
67753SOL    HW1 3283  12.096  11.583   3.870
67753SOL    HW2 3284  12.056  11.426   3.890
67754SOL     OW 3285  12.534  12.316   4.269
67754SOL    HW1 3286  12.617  12.287   4.221
67754SOL    HW2 3287  12.485  12.383   4.213
67755SOL     OW 3288  11.722  11.368   4.609
67755SOL    HW1 3289  11.717  11.363   4.709
67755SOL    HW2 3290  11.724  11.464   4.580
67756SOL     OW 3291  12.180  12.628   4.201
67756SOL    HW1 3292  12.134  12.700   4.149
67756SOL    HW2 3293  12.176  12.648   4.299
67757SOL     OW 3294  12.399  12.722   5.230
67757SOL    HW1 3295  12.405  12.645   5.294
67757SOL    HW2 3296  12.347  12.696   5.150
67758SOL     OW 3297  11.493  12.115   3.966
67758SOL    HW1 3298  11.575  12.154   3.924
67758SOL    HW2 3299  11.466  12.033   3.917
67759SOL     OW 3300  12.630  11.907   4.452
67759SOL    HW1 3301  12.625  11.842   4.527
67759SOL    HW2 3302  12.710  11.966   4.465
67760SOL     OW 3303  11.633  12.438   5.451
67760SOL    HW1 3304  11.583  12.439   5.365
67760SOL    HW2 3305  11.570  12.420   5.527
67761SOL     OW 3306  11.374  11.457   5.222
67761SOL    HW1 3307  11.294  11.517   5.209
67761SOL    HW2 3308  11.364  11.408   5.308
67762SOL     OW 3309  12.572  11.279   4.150
67762SOL    HW1 3310  12.548  11.242   4.060
67762SOL    HW2 3311  12.671  11.295   4.154
67763SOL     OW 3312  11.554  11.872   4.204
67763SOL    HW1 3313  11.599  11.782   4.201
67763SOL    HW2 3314  11.460  11.861   4.237
67764SOL     OW 3315  11.786  11.294   3.841
67764SOL    HW1 3316  11.884  11.272   3.848
67764SOL    HW2 3317  11.755  11.277   3.748
67765SOL     OW 3318  11.953  11.436   5.473
67765SOL    HW1 3319  12.020  11.375   5.516
67765SOL    HW2 3320  11.880  11.455   5.538
67766SOL     OW 3321  12.523  11.762   5.157
67766SOL    HW1 3322  12.551  11.719   5.242
67766SOL    HW2 3323  12.548  11.858   5.158
67767SOL     OW 3324  11.975  12.574   4.648
67767SOL    HW1 3325  12.065  12.588   4.606
67767SOL    HW2 3326  11.904  12.576   4.577
67768SOL     OW 3327  12.094  11.675   4.623
67768SOL    HW1 3328  12.069  11.666   4.527
67768SOL    HW2 3329  12.142  11.593   4.654
67769SOL     OW 3330  11.711  11.236   4.236
67769SOL    HW1 3331  11.630  11.237   4.294
67769SOL    HW2 3332  11.714  11.319   4.181
67770SOL     OW 3333  12.606  12.360   3.765
67770SOL    HW1 3334  12.638  12.284   3.822
67770SOL    HW2 3335  12.514  12.387   3.795
67771SOL     OW 3336  11.469  11.207   3.895
67771SOL    HW1 3337  11.518  11.291   3.874
67771SOL    HW2 3338  11.531  11.142   3.940
67772SOL     OW 3339  12.107  11.408   4.204
67772SOL    HW1 3340  12.059  11.449   4.126
67772SOL    HW2 3341  12.206  11.406   4.185
67773SOL     OW 3342  12.248  11.855   5.188
67773SOL    HW1 3343  12.168  11.794   5.191
67773SOL    HW2 3344  12.329  11.802   5.164
67774SOL     OW 3345  12.399  12.742   4.517
67774SOL    HW1 3346  12.420  12.816   4.452
67774SOL    HW2 3347  12.467  12.742   4.590
67775SOL     OW 3348  11.631  12.324   4.465
67775SOL    HW1 3349  11.560  12.297   4.530
67775SOL    HW2 3350  11.605  12.296   4.372
67776SOL     OW 3351  12.204  11.721   3.740
67776SOL    HW1 3352  12.163  11.803   3.701
67776SOL    HW2 3353  12.268  11.747   3.813
67777SOL     OW 3354  11.250  11.728   5.110
67777SOL    HW1 3355  11.342  11.727   5.069
67777SOL    HW2 3356  11.244  11.802   5.177
67778SOL     OW 3357  11.733  11.394   4.871
67778SOL    HW1 3358  11.771  11.310   4.908
67778SOL    HW2 3359  11.645  11.413   4.915
67779SOL     OW 3360  12.038  11.626   4.366
67779SOL    HW1 3361  12.006  11.698   4.304
67779SOL    HW2 3362  12.062  11.545   4.313
67780SOL     OW 3363  12.189  11.211   4.477
67780SOL    HW1 3364  12.117  11.216   4.408
67780SOL    HW2 3365  12.165  11.142   4.546
67781SOL     OW 3366  12.601  12.345   4.591
67781SOL    HW1 3367  12.546  12.261   4.584
67781SOL    HW2 3368  12.627  12.374   4.499
67782SOL     OW 3369  12.638  11.762   4.716
67782SOL    HW1 3370  12.608  11.667   4.723
67782SOL    HW2 3371  12.711  11.778   4.782
67783SOL     OW 3372  11.660  12.557   3.898
67783SOL    HW1 3373  11.573  12.542   3.945
67783SOL    HW2 3374  11.643  12.583   3.803
67784SOL     OW 3375  12.562  11.747   3.802
67784SOL    HW1 3376  12.508  11.726   3.883
67784SOL    HW2 3377  12.653  11.706   3.811
67785SOL     OW 3378  11.699  11.428   4.052
67785SOL    HW1 3379  11.726  11.369   3.977
67785SOL    HW2 3380  11.699  11.523   4.021
67786SOL     OW 3381  12.236  12.519   5.064
67786SOL    HW1 3382  12.156  12.496   5.119
67786SOL    HW2 3383  12.319  12.493   5.113
67787SOL     OW 3384  12.283  12.367   4.824
67787SOL    HW1 3385  12.243  12.411   4.905
67787SOL    HW2 3386  12.242  12.404   4.741
67788SOL     OW 3387  12.087  11.261   5.126
67788SOL    HW1 3388  12.112  11.241   5.031
67788SOL    HW2 3389  12.159  11.317   5.168
67789SOL     OW 3390  12.152  12.288   5.443
67789SOL    HW1 3391  12.053  12.294   5.453
67789SOL    HW2 3392  12.175  12.208   5.387
67790SOL     OW 3393  11.877  12.222   4.092
67790SOL    HW1 3394  11.863  12.229   4.191
67790SOL    HW2 3395  11.961  12.171   4.074
67791SOL     OW 3396  11.582  11.985   4.975
67791SOL    HW1 3397  11.668  11.997   5.025
67791SOL    HW2 3398  11.540  11.898   5.002
67792SOL     OW 3399  12.446  11.558   4.986
67792SOL    HW1 3400  12.467  11.632   5.050
67792SOL    HW2 3401  12.357  11.575   4.943
67793SOL     OW 3402  11.236  12.736   5.055
67793SOL    HW1 3403  11.190  12.818   5.021
67793SOL    HW2 3404  11.334  12.755   5.064
67794SOL     OW 3405  11.539  12.272   4.225
67794SOL    HW1 3406  11.532  12.355   4.169
67794SOL    HW2 3407  11.543  12.192   4.165
67795SOL     OW 3408  11.738  11.709   4.589
67795SOL    HW1 3409  11.750  11.775   4.515
67795SOL    HW2 3410  11.784  11.743   4.672
67796SOL     OW 3411  12.424  12.520   4.112
67796SOL    HW1 3412  12.474  12.597   4.152
67796SOL    HW2 3413  12.329  12.522   4.144
67797SOL     OW 3414  12.444  12.617   4.866
67797SOL    HW1 3415  12.491  12.630   4.953
67797SOL    HW2 3416  12.378  12.543   4.875
67798SOL     OW 3417  12.754  11.811   4.196
67798SOL    HW1 3418  12.723  11.872   4.269
67798SOL    HW2 3419  12.804  11.863   4.127
67799SOL     OW 3420  11.526  12.682   5.053
67799SOL    HW1 3421  11.505  12.638   4.966
67799SOL    HW2 3422  11.623  12.708   5.056
67800SOL     OW 3423  11.574  11.923   5.322
67800SOL    HW1 3424  11.642  11.978   5.275
67800SOL    HW2 3425  11.614  11.835   5.349
67801SOL     OW 3426  12.185  11.277   5.494
67801SOL    HW1 3427  12.191  11.362   5.442
67801SOL    HW2 3428  12.217  11.201   5.437
67802SOL     OW 3429  11.676  11.222   5.464
67802SOL    HW1 3430  11.634  11.165   5.394
67802SOL    HW2 3431  11.610  11.291   5.496
67803SOL     OW 3432  11.745  12.042   4.753
67803SOL    HW1 3433  11.789  12.131   4.744
67803SOL    HW2 3434  11.682  12.042   4.830
67804SOL     OW 3435  12.532  12.034   4.769
67804SOL    HW1 3436  12.457  12.034   4.703
67804SOL    HW2 3437  12.569  11.942   4.778
67805SOL     OW 3438  12.381  11.697   3.999
67805SOL    HW1 3439  12.394  11.613   4.053
67805SOL    HW2 3440  12.352  11.771   4.059
67806SOL     OW 3441  11.479  11.385   4.955
67806SOL    HW1 3442  11.456  11.422   5.045
67806SOL    HW2 3443  11.449  11.290   4.949
67807SOL     OW 3444  11.209  12.482   5.006
67807SOL    HW1 3445  11.262  12.433   5.074
67807SOL    HW2 3446  11.231  12.580   5.011
67808SOL     OW 3447  11.904  11.806   4.788
67808SOL    HW1 3448  11.963  11.780   4.712
67808SOL    HW2 3449  11.876  11.902   4.777
67809SOL     OW 3450  11.479  11.235   4.342
67809SOL    HW1 3451  11.468  11.329   4.375
67809SOL    HW2 3452  11.474  11.172   4.419
67810SOL     OW 3453  12.195  11.938   4.690
67810SOL    HW1 3454  12.210  11.959   4.786
67810SOL    HW2 3455  12.165  11.843   4.681
67811SOL     OW 3456  11.522  12.070   5.528
67811SOL    HW1 3457  11.598  12.114   5.576
67811SOL    HW2 3458  11.557  12.023   5.446
67812SOL     OW 3459  12.712  11.446   3.849
67812SOL    HW1 3460  12.651  11.371   3.872
67812SOL    HW2 3461  12.734  11.498   3.932
67813SOL     OW 3462  12.475  12.010   3.766
67813SOL    HW1 3463  12.509  11.917   3.781
67813SOL    HW2 3464  12.493  12.037   3.671
67814SOL     OW 3465  12.240  12.505   4.573
67814SOL    HW1 3466  12.247  12.421   4.518
67814SOL    HW2 3467  12.302  12.574   4.537
67815SOL     OW 3468  11.491  11.982   4.673
67815SOL    HW1 3469  11.584  12.018   4.678
67815SOL    HW2 3470  11.485  11.897   4.725
67816SOL     OW 3471  11.511  11.681   4.730
67816SOL    HW1 3472  11.459  11.598   4.713
67816SOL    HW2 3473  11.588  11.686   4.666
67817SOL     OW 3474  12.310  11.552   5.402
67817SOL    HW1 3475  12.265  11.615   5.466
67817SOL    HW2 3476  12.403  11.583   5.385
67818SOL     OW 3477  12.332  11.379   5.201
67818SOL    HW1 3478  12.332  11.443   5.278
67818SOL    HW2 3479  12.360  11.427   5.118
67819SOL     OW 3480  11.180  12.498   3.924
67819SOL    HW1 3481  11.087  12.519   3.893
67819SOL    HW2 3482  11.190  12.399   3.937
67820SOL     OW 3483  11.676  12.740   4.634
67820SOL    HW1 3484  11.742  12.814   4.643
67820SOL    HW2 3485  11.720  12.661   4.592
67821SOL     OW 3486  12.174  11.968   4.962
67821SOL    HW1 3487  12.215  11.936   5.048
67821SOL    HW2 3488  12.078  11.941   4.959
67822SOL     OW 3489  11.212  11.716   4.838
67822SOL    HW1 3490  11.297  11.683   4.797
67822SOL    HW2 3491  11.225  11.731   4.936
67823SOL     OW 3492  11.361  11.692   5.446
67823SOL    HW1 3493  11.420  11.652   5.376
67823SOL    HW2 3494  11.303  11.763   5.405
67824SOL     OW 3495  12.541  12.122   5.384
67824SOL    HW1 3496  12.580  12.211   5.404
67824SOL    HW2 3497  12.551  12.102   5.287
67825SOL     OW 3498  11.987  11.744   4.049
67825SOL    HW1 3499  11.994  11.655   4.003
67825SOL    HW2 3500  11.893  11.778   4.041
67826SOL     OW 3501  11.424  12.736   5.468
67826SOL    HW1 3502  11.394  12.793   5.544
67826SOL    HW2 3503  11.417  12.639   5.494
67827SOL     OW 3504  11.843  11.636   4.993
67827SOL    HW1 3505  11.809  11.547   4.963
67827SOL    HW2 3506  11.869  11.690   4.913
67828SOL     OW 3507  11.645  11.672   3.915
67828SOL    HW1 3508  11.706  11.752   3.919
67828SOL    HW2 3509  11.550  11.703   3.922
67829SOL     OW 3510  11.331  12.309   5.190
67829SOL    HW1 3511  11.353  12.248   5.266
67829SOL    HW2 3512  11.341  12.260   5.104
67830SOL     OW 3513  12.519  12.231   4.958
67830SOL    HW1 3514  12.543  12.168   4.884
67830SOL    HW2 3515  12.429  12.271   4.940
67831SOL     OW 3516  12.474  12.027   4.033
67831SOL    HW1 3517  12.388  11.996   4.075
67831SOL    HW2 3518  12.470  12.013   3.934
67832SOL     OW 3519  12.931  12.919   4.878
67832SOL    HW1 3520  12.992  12.949   4.805
67832SOL    HW2 3521  12.893  12.830   4.856
67833SOL     OW 3522  12.424  12.903   4.852
67833SOL    HW1 3523  12.508  12.908   4.798
67833SOL    HW2 3524  12.401  12.807   4.870
67834SOL     OW 3525  11.255  12.430   4.746
67834SOL    HW1 3526  11.250  12.429   4.846
67834SOL    HW2 3527  11.172  12.389   4.708
67835SOL     OW 3528  12.898  11.307   4.247
67835SOL    HW1 3529  12.971  11.290   4.180
67835SOL    HW2 3530  12.867  11.220   4.285
67836SOL     OW 3531  11.302  12.966   5.575
67836SOL    HW1 3532  11.261  12.892   5.628
67836SOL    HW2 3533  11.366  13.017   5.633
67837SOL     OW 3534  12.452  12.099   4.396
67837SOL    HW1 3535  12.512  12.018   4.398
67837SOL    HW2 3536  12.492  12.168   4.336
67838SOL     OW 3537  11.844  12.788   3.878
67838SOL    HW1 3538  11.853  12.798   3.779
67838SOL    HW2 3539  11.804  12.699   3.899
67839SOL     OW 3540  11.435  11.498   4.444
67839SOL    HW1 3541  11.356  11.549   4.410
67839SOL    HW2 3542  11.426  11.483   4.542
67840SOL     OW 3543  12.366  12.784   3.755
67840SOL    HW1 3544  12.372  12.691   3.792
67840SOL    HW2 3545  12.307  12.784   3.675
67841SOL     OW 3546  11.994  12.174   5.096
67841SOL    HW1 3547  12.034  12.173   5.004
67841SOL    HW2 3548  12.004  12.266   5.136
67842SOL     OW 3549  12.088  12.082   4.015
67842SOL    HW1 3550  12.151  12.120   3.947
67842SOL    HW2 3551  12.128  11.999   4.054
67843SOL     OW 3552  11.544  12.460   5.214
67843SOL    HW1 3553  11.531  12.553   5.180
67843SOL    HW2 3554  11.460  12.408   5.201
67844SOL     OW 3555  12.211  12.270   4.420
67844SOL    HW1 3556  12.141  12.223   4.474
67844SOL    HW2 3557  12.270  12.202   4.377
67845SOL     OW 3558  12.186  11.408   4.695
67845SOL    HW1 3559  12.178  11.372   4.602
67845SOL    HW2 3560  12.184  11.332   4.760
67846SOL     OW 3561  11.762  12.659   4.215
67846SOL    HW1 3562  11.804  12.601   4.145
67846SOL    HW2 3563  11.718  12.738   4.171
67847SOL     OW 3564  11.427  12.520   4.014
67847SOL    HW1 3565  11.331  12.521   3.987
67847SOL    HW2 3566  11.439  12.573   4.098
67848SOL     OW 3567  11.277  12.185   5.450
67848SOL    HW1 3568  11.200  12.152   5.504
67848SOL    HW2 3569  11.362  12.155   5.492
67849SOL     OW 3570  11.844  11.375   5.213
67849SOL    HW1 3571  11.934  11.359   5.173
67849SOL    HW2 3572  11.852  11.380   5.312
67850SOL     OW 3573  11.247  11.517   3.757
67850SOL    HW1 3574  11.155  11.489   3.728
67850SOL    HW2 3575  11.278  11.594   3.701
67851SOL     OW 3576  12.612  12.028   5.122
67851SOL    HW1 3577  12.555  12.080   5.059
67851SOL    HW2 3578  12.708  12.040   5.098
67852SOL     OW 3579  11.244  11.338   4.042
67852SOL    HW1 3580  11.227  11.421   3.988
67852SOL    HW2 3581  11.334  11.301   4.020
67853SOL     OW 3582  12.355  12.507   3.843
67853SOL    HW1 3583  12.256  12.496   3.845
67853SOL    HW2 3584  12.389  12.522   3.936
67854SOL     OW 3585  11.785  12.014   5.155
67854SOL    HW1 3586  11.841  12.095   5.138
67854SOL    HW2 3587  11.844  11.934   5.158
67855SOL     OW 3588  11.888  11.737   5.432
67855SOL    HW1 3589  11.907  11.802   5.506
67855SOL    HW2 3590  11.948  11.657   5.441
67856SOL     OW 3591  12.622  12.392   5.357
67856SOL    HW1 3592  12.613  12.382   5.456
67856SOL    HW2 3593  12.718  12.385   5.331
67857SOL     OW 3594  12.397  11.497   4.173
67857SOL    HW1 3595  12.462  11.423   4.162
67857SOL    HW2 3596  12.417  11.547   4.257
67858SOL     OW 3597  11.766  11.917   4.376
67858SOL    HW1 3598  11.816  12.002   4.357
67858SOL    HW2 3599  11.678  11.919   4.328
67859SOL     OW 3600  12.031  12.546   3.740
67859SOL    HW1 3601  11.985  12.561   3.828
67859SOL    HW2 3602  12.075  12.631   3.710
67860SOL     OW 3603  12.580  13.023   5.444
67860SOL    HW1 3604  12.484  13.012   5.417
67860SOL    HW2 3605  12.636  12.956   5.396
67861SOL     OW 3606  12.031  12.128   4.585
67861SOL    HW1 3607  12.085  12.059   4.633
67861SOL    HW2 3608  11.999  12.197   4.651
67862SOL     OW 3609  12.255  12.156   3.811
67862SOL    HW1 3610  12.232  12.209   3.729
67862SOL    HW2 3611  12.336  12.100   3.792
67863SOL     OW 3612  13.033  12.741   4.575
67863SOL    HW1 3613  12.962  12.729   4.505
67863SOL    HW2 3614  13.034  12.662   4.635
67864SOL     OW 3615  11.393  12.486   5.568
67864SOL    HW1 3616  11.328  12.413   5.547
67864SOL    HW2 3617  11.397  12.500   5.666
67865SOL     OW 3618  11.251  12.412   4.377
67865SOL    HW1 3619  11.250  12.365   4.465
67865SOL    HW2 3620  11.333  12.384   4.326
67866SOL     OW 3621  11.844  12.563   5.348
67866SOL    HW1 3622  11.766  12.513   5.386
67866SOL    HW2 3623  11.841  12.658   5.379
67867SOL     OW 3624  11.600  11.596   4.244
67867SOL    HW1 3625  11.630  11.524   4.182
67867SOL    HW2 3626  11.561  11.556   4.327
67868SOL     OW 3627  11.489  11.719   5.004
67868SOL    HW1 3628  11.527  11.660   5.076
67868SOL    HW2 3629  11.529  11.693   4.916
67869SOL     OW 3630  12.596  11.386   4.836
67869SOL    HW1 3631  12.648  11.321   4.891
67869SOL    HW2 3632  12.547  11.449   4.897
67870SOL     OW 3633  12.173  11.206   4.878
67870SOL    HW1 3634  12.110  11.134   4.847
67870SOL    HW2 3635  12.266  11.170   4.878
67871SOL     OW 3636  11.942  12.502   4.025
67871SOL    HW1 3637  11.896  12.415   4.042
67871SOL    HW2 3638  12.033  12.499   4.066
67872SOL     OW 3639  11.790  12.739   5.008
67872SOL    HW1 3640  11.785  12.821   5.065
67872SOL    HW2 3641  11.879  12.736   4.963
67873SOL     OW 3642  12.524  11.224   3.892
67873SOL    HW1 3643  12.559  11.183   3.808
67873SOL    HW2 3644  12.434  11.186   3.912
67874SOL     OW 3645  12.472  11.625   4.415
67874SOL    HW1 3646  12.413  11.705   4.419
67874SOL    HW2 3647  12.487  11.590   4.508
67875SOL     OW 3648  12.765  11.393   4.606
67875SOL    HW1 3649  12.681  11.392   4.660
67875SOL    HW2 3650  12.767  11.476   4.550
67876SOL     OW 3651  11.211  12.249   4.024
67876SOL    HW1 3652  11.310  12.238   4.015
67876SOL    HW2 3653  11.171  12.163   4.056
67877SOL     OW 3654  11.397  11.447   6.582
67877SOL    HW1 3655  11.432  11.430   6.674
67877SOL    HW2 3656  11.309  11.402   6.570
67878SOL     OW 3657  11.191  11.540   6.233
67878SOL    HW1 3658  11.109  11.583   6.272
67878SOL    HW2 3659  11.163  11.467   6.170
67879SOL     OW 3660  11.741  12.447   6.751
67879SOL    HW1 3661  11.648  12.440   6.714
67879SOL    HW2 3662  11.752  12.536   6.795
67880SOL     OW 3663  12.727  12.683   6.289
67880SOL    HW1 3664  12.670  12.667   6.370
67880SOL    HW2 3665  12.668  12.693   6.209
67881SOL     OW 3666  12.307  11.875   6.303
67881SOL    HW1 3667  12.364  11.953   6.278
67881SOL    HW2 3668  12.247  11.901   6.379
67882SOL     OW 3669  11.940  12.316   6.609
67882SOL    HW1 3670  11.862  12.333   6.669
67882SOL    HW2 3671  11.974  12.403   6.573
67883SOL     OW 3672  12.022  11.970   7.409
67883SOL    HW1 3673  12.018  12.046   7.474
67883SOL    HW2 3674  12.044  12.006   7.318
67884SOL     OW 3675  11.857  12.184   6.251
67884SOL    HW1 3676  11.926  12.168   6.321
67884SOL    HW2 3677  11.784  12.241   6.289
67885SOL     OW 3678  11.858  12.333   7.389
67885SOL    HW1 3679  11.918  12.412   7.403
67885SOL    HW2 3680  11.772  12.364   7.348
67886SOL     OW 3681  11.507  12.607   6.647
67886SOL    HW1 3682  11.429  12.576   6.594
67886SOL    HW2 3683  11.565  12.665   6.590
67887SOL     OW 3684  12.632  12.677   6.925
67887SOL    HW1 3685  12.656  12.771   6.951
67887SOL    HW2 3686  12.616  12.623   7.007
67888SOL     OW 3687  11.610  11.564   7.085
67888SOL    HW1 3688  11.692  11.508   7.094
67888SOL    HW2 3689  11.529  11.506   7.089
67889SOL     OW 3690  12.299  12.513   7.276
67889SOL    HW1 3691  12.346  12.513   7.364
67889SOL    HW2 3692  12.251  12.426   7.265
67890SOL     OW 3693  11.402  12.606   6.124
67890SOL    HW1 3694  11.376  12.702   6.124
67890SOL    HW2 3695  11.331  12.552   6.169
67891SOL     OW 3696  11.412  12.263   6.472
67891SOL    HW1 3697  11.426  12.179   6.524
67891SOL    HW2 3698  11.357  12.327   6.527
67892SOL     OW 3699  11.778  12.136   5.709
67892SOL    HW1 3700  11.785  12.220   5.655
67892SOL    HW2 3701  11.824  12.149   5.797
67893SOL     OW 3702  12.766  11.286   7.066
67893SOL    HW1 3703  12.748  11.353   6.994
67893SOL    HW2 3704  12.763  11.332   7.155
67894SOL     OW 3705  11.294  11.815   6.149
67894SOL    HW1 3706  11.249  11.727   6.166
67894SOL    HW2 3707  11.293  11.869   6.233
67895SOL     OW 3708  11.199  12.768   5.703
67895SOL    HW1 3709  11.180  12.672   5.724
67895SOL    HW2 3710  11.166  12.826   5.778
67896SOL     OW 3711  12.861  12.094   6.198
67896SOL    HW1 3712  12.956  12.065   6.206
67896SOL    HW2 3713  12.853  12.159   6.123
67897SOL     OW 3714  11.285  11.909   7.183
67897SOL    HW1 3715  11.373  11.896   7.228
67897SOL    HW2 3716  11.272  12.006   7.161
67898SOL     OW 3717  11.785  12.537   6.312
67898SOL    HW1 3718  11.736  12.450   6.321
67898SOL    HW2 3719  11.762  12.580   6.225
67899SOL     OW 3720  12.465  12.400   7.009
67899SOL    HW1 3721  12.502  12.327   6.951
67899SOL    HW2 3722  12.517  12.405   7.094
67900SOL     OW 3723  11.981  11.176   6.088
67900SOL    HW1 3724  12.021  11.267   6.079
67900SOL    HW2 3725  11.881  11.184   6.094
67901SOL     OW 3726  11.369  12.148   6.850
67901SOL    HW1 3727  11.458  12.103   6.836
67901SOL    HW2 3728  11.296  12.083   6.831
67902SOL     OW 3729  11.489  11.423   7.387
67902SOL    HW1 3730  11.560  11.494   7.393
67902SOL    HW2 3731  11.401  11.462   7.415
67903SOL     OW 3732  12.638  12.589   6.539
67903SOL    HW1 3733  12.579  12.595   6.619
67903SOL    HW2 3734  12.623  12.501   6.493
67904SOL     OW 3735  11.770  11.901   5.856
67904SOL    HW1 3736  11.794  11.970   5.788
67904SOL    HW2 3737  11.692  11.934   5.910
67905SOL     OW 3738  12.453  11.517   6.530
67905SOL    HW1 3739  12.367  11.467   6.517
67905SOL    HW2 3740  12.515  11.463   6.586
67906SOL     OW 3741  11.979  11.777   7.051
67906SOL    HW1 3742  11.932  11.774   7.140
67906SOL    HW2 3743  11.928  11.722   6.985
67907SOL     OW 3744  12.566  11.641   7.260
67907SOL    HW1 3745  12.546  11.684   7.348
67907SOL    HW2 3746  12.644  11.579   7.269
67908SOL     OW 3747  12.145  12.062   7.158
67908SOL    HW1 3748  12.191  11.978   7.129
67908SOL    HW2 3749  12.089  12.096   7.083
67909SOL     OW 3750  12.163  11.582   6.828
67909SOL    HW1 3751  12.086  11.616   6.882
67909SOL    HW2 3752  12.129  11.531   6.749
67910SOL     OW 3753  12.213  11.873   6.015
67910SOL    HW1 3754  12.239  11.869   6.111
67910SOL    HW2 3755  12.128  11.822   6.001
67911SOL     OW 3756  12.037  11.520   5.781
67911SOL    HW1 3757  12.096  11.583   5.732
67911SOL    HW2 3758  12.056  11.426   5.752
67912SOL     OW 3759  12.534  12.316   6.131
67912SOL    HW1 3760  12.617  12.287   6.083
67912SOL    HW2 3761  12.485  12.383   6.075
67913SOL     OW 3762  11.722  11.368   6.471
67913SOL    HW1 3763  11.717  11.363   6.571
67913SOL    HW2 3764  11.724  11.464   6.442
67914SOL     OW 3765  12.180  12.628   6.063
67914SOL    HW1 3766  12.134  12.700   6.011
67914SOL    HW2 3767  12.176  12.648   6.161
67915SOL     OW 3768  12.399  12.722   7.092
67915SOL    HW1 3769  12.405  12.645   7.156
67915SOL    HW2 3770  12.347  12.696   7.012
67916SOL     OW 3771  11.493  12.115   5.828
67916SOL    HW1 3772  11.575  12.154   5.786
67916SOL    HW2 3773  11.466  12.033   5.779
67917SOL     OW 3774  12.630  11.907   6.314
67917SOL    HW1 3775  12.625  11.842   6.389
67917SOL    HW2 3776  12.710  11.966   6.327
67918SOL     OW 3777  11.633  12.438   7.313
67918SOL    HW1 3778  11.583  12.439   7.227
67918SOL    HW2 3779  11.570  12.420   7.389
67919SOL     OW 3780  11.374  11.457   7.084
67919SOL    HW1 3781  11.294  11.517   7.071
67919SOL    HW2 3782  11.364  11.408   7.170
67920SOL     OW 3783  12.572  11.279   6.012
67920SOL    HW1 3784  12.548  11.242   5.922
67920SOL    HW2 3785  12.671  11.295   6.016
67921SOL     OW 3786  11.554  11.872   6.066
67921SOL    HW1 3787  11.599  11.782   6.063
67921SOL    HW2 3788  11.460  11.861   6.099
67922SOL     OW 3789  11.786  11.294   5.703
67922SOL    HW1 3790  11.884  11.272   5.710
67922SOL    HW2 3791  11.755  11.277   5.610
67923SOL     OW 3792  11.953  11.436   7.335
67923SOL    HW1 3793  12.020  11.375   7.378
67923SOL    HW2 3794  11.880  11.455   7.400
67924SOL     OW 3795  12.523  11.762   7.019
67924SOL    HW1 3796  12.551  11.719   7.104
67924SOL    HW2 3797  12.548  11.858   7.020
67925SOL     OW 3798  11.975  12.574   6.510
67925SOL    HW1 3799  12.065  12.588   6.468
67925SOL    HW2 3800  11.904  12.576   6.439
67926SOL     OW 3801  12.094  11.675   6.485
67926SOL    HW1 3802  12.069  11.666   6.389
67926SOL    HW2 3803  12.142  11.593   6.516
67927SOL     OW 3804  11.711  11.236   6.098
67927SOL    HW1 3805  11.630  11.237   6.156
67927SOL    HW2 3806  11.714  11.319   6.043
67928SOL     OW 3807  12.606  12.360   5.627
67928SOL    HW1 3808  12.638  12.284   5.684
67928SOL    HW2 3809  12.514  12.387   5.657
67929SOL     OW 3810  11.469  11.207   5.757
67929SOL    HW1 3811  11.518  11.291   5.736
67929SOL    HW2 3812  11.531  11.142   5.802
67930SOL     OW 3813  12.107  11.408   6.066
67930SOL    HW1 3814  12.059  11.449   5.988
67930SOL    HW2 3815  12.206  11.406   6.047
67931SOL     OW 3816  12.248  11.855   7.050
67931SOL    HW1 3817  12.168  11.794   7.053
67931SOL    HW2 3818  12.329  11.802   7.026
67932SOL     OW 3819  12.399  12.742   6.379
67932SOL    HW1 3820  12.420  12.816   6.314
67932SOL    HW2 3821  12.467  12.742   6.452
67933SOL     OW 3822  11.631  12.324   6.327
67933SOL    HW1 3823  11.560  12.297   6.392
67933SOL    HW2 3824  11.605  12.296   6.234
67934SOL     OW 3825  12.204  11.721   5.602
67934SOL    HW1 3826  12.163  11.803   5.563
67934SOL    HW2 3827  12.268  11.747   5.675
67935SOL     OW 3828  11.250  11.728   6.972
67935SOL    HW1 3829  11.342  11.727   6.931
67935SOL    HW2 3830  11.244  11.802   7.039
67936SOL     OW 3831  11.733  11.394   6.733
67936SOL    HW1 3832  11.771  11.310   6.770
67936SOL    HW2 3833  11.645  11.413   6.777
67937SOL     OW 3834  12.038  11.626   6.228
67937SOL    HW1 3835  12.006  11.698   6.166
67937SOL    HW2 3836  12.062  11.545   6.175
67938SOL     OW 3837  12.189  11.211   6.339
67938SOL    HW1 3838  12.117  11.216   6.270
67938SOL    HW2 3839  12.165  11.142   6.408
67939SOL     OW 3840  12.601  12.345   6.453
67939SOL    HW1 3841  12.546  12.261   6.446
67939SOL    HW2 3842  12.627  12.374   6.361
67940SOL     OW 3843  12.638  11.762   6.578
67940SOL    HW1 3844  12.608  11.667   6.585
67940SOL    HW2 3845  12.711  11.778   6.644
67941SOL     OW 3846  11.660  12.557   5.760
67941SOL    HW1 3847  11.573  12.542   5.807
67941SOL    HW2 3848  11.643  12.583   5.665
67942SOL     OW 3849  12.562  11.747   5.664
67942SOL    HW1 3850  12.508  11.726   5.745
67942SOL    HW2 3851  12.653  11.706   5.673
67943SOL     OW 3852  11.699  11.428   5.914
67943SOL    HW1 3853  11.726  11.369   5.839
67943SOL    HW2 3854  11.699  11.523   5.883
67944SOL     OW 3855  12.236  12.519   6.926
67944SOL    HW1 3856  12.156  12.496   6.981
67944SOL    HW2 3857  12.319  12.493   6.975
67945SOL     OW 3858  12.283  12.367   6.686
67945SOL    HW1 3859  12.243  12.411   6.767
67945SOL    HW2 3860  12.242  12.404   6.603
67946SOL     OW 3861  12.087  11.261   6.988
67946SOL    HW1 3862  12.112  11.241   6.893
67946SOL    HW2 3863  12.159  11.317   7.030
67947SOL     OW 3864  12.152  12.288   7.305
67947SOL    HW1 3865  12.053  12.294   7.315
67947SOL    HW2 3866  12.175  12.208   7.249
67948SOL     OW 3867  11.877  12.222   5.954
67948SOL    HW1 3868  11.863  12.229   6.053
67948SOL    HW2 3869  11.961  12.171   5.936
67949SOL     OW 3870  11.582  11.985   6.837
67949SOL    HW1 3871  11.668  11.997   6.887
67949SOL    HW2 3872  11.540  11.898   6.864
67950SOL     OW 3873  12.446  11.558   6.848
67950SOL    HW1 3874  12.467  11.632   6.912
67950SOL    HW2 3875  12.357  11.575   6.805
67951SOL     OW 3876  11.236  12.736   6.917
67951SOL    HW1 3877  11.190  12.818   6.883
67951SOL    HW2 3878  11.334  12.755   6.926
67952SOL     OW 3879  11.539  12.272   6.087
67952SOL    HW1 3880  11.532  12.355   6.031
67952SOL    HW2 3881  11.543  12.192   6.027
67953SOL     OW 3882  11.738  11.709   6.451
67953SOL    HW1 3883  11.750  11.775   6.377
67953SOL    HW2 3884  11.784  11.743   6.534
67954SOL     OW 3885  12.424  12.520   5.974
67954SOL    HW1 3886  12.474  12.597   6.014
67954SOL    HW2 3887  12.329  12.522   6.006
67955SOL     OW 3888  12.444  12.617   6.728
67955SOL    HW1 3889  12.491  12.630   6.815
67955SOL    HW2 3890  12.378  12.543   6.737
67956SOL     OW 3891  12.754  11.811   6.058
67956SOL    HW1 3892  12.723  11.872   6.131
67956SOL    HW2 3893  12.804  11.863   5.989
67957SOL     OW 3894  11.526  12.682   6.915
67957SOL    HW1 3895  11.505  12.638   6.828
67957SOL    HW2 3896  11.623  12.708   6.918
67958SOL     OW 3897  11.574  11.923   7.184
67958SOL    HW1 3898  11.642  11.978   7.137
67958SOL    HW2 3899  11.614  11.835   7.211
67959SOL     OW 3900  12.185  11.277   7.356
67959SOL    HW1 3901  12.191  11.362   7.304
67959SOL    HW2 3902  12.217  11.201   7.299
67960SOL     OW 3903  11.676  11.222   7.326
67960SOL    HW1 3904  11.634  11.165   7.256
67960SOL    HW2 3905  11.610  11.291   7.358
67961SOL     OW 3906  11.745  12.042   6.615
67961SOL    HW1 3907  11.789  12.131   6.606
67961SOL    HW2 3908  11.682  12.042   6.692
67962SOL     OW 3909  12.532  12.034   6.631
67962SOL    HW1 3910  12.457  12.034   6.565
67962SOL    HW2 3911  12.569  11.942   6.640
67963SOL     OW 3912  12.381  11.697   5.861
67963SOL    HW1 3913  12.394  11.613   5.915
67963SOL    HW2 3914  12.352  11.771   5.921
67964SOL     OW 3915  11.479  11.385   6.817
67964SOL    HW1 3916  11.456  11.422   6.907
67964SOL    HW2 3917  11.449  11.290   6.811
67965SOL     OW 3918  11.209  12.482   6.868
67965SOL    HW1 3919  11.262  12.433   6.936
67965SOL    HW2 3920  11.231  12.580   6.873
67966SOL     OW 3921  11.904  11.806   6.650
67966SOL    HW1 3922  11.963  11.780   6.574
67966SOL    HW2 3923  11.876  11.902   6.639
67967SOL     OW 3924  11.479  11.235   6.204
67967SOL    HW1 3925  11.468  11.329   6.237
67967SOL    HW2 3926  11.474  11.172   6.281
67968SOL     OW 3927  12.794  11.539   5.960
67968SOL    HW1 3928  12.796  11.463   6.024
67968SOL    HW2 3929  12.746  11.616   6.000
67969SOL     OW 3930  12.195  11.938   6.552
67969SOL    HW1 3931  12.210  11.959   6.648
67969SOL    HW2 3932  12.165  11.843   6.543
67970SOL     OW 3933  11.522  12.070   7.390
67970SOL    HW1 3934  11.598  12.114   7.438
67970SOL    HW2 3935  11.557  12.023   7.308
67971SOL     OW 3936  12.712  11.446   5.711
67971SOL    HW1 3937  12.651  11.371   5.734
67971SOL    HW2 3938  12.734  11.498   5.794
67972SOL     OW 3939  12.475  12.010   5.628
67972SOL    HW1 3940  12.509  11.917   5.643
67972SOL    HW2 3941  12.493  12.037   5.533
67973SOL     OW 3942  12.240  12.505   6.435
67973SOL    HW1 3943  12.247  12.421   6.380
67973SOL    HW2 3944  12.302  12.574   6.399
67974SOL     OW 3945  11.491  11.982   6.535
67974SOL    HW1 3946  11.584  12.018   6.540
67974SOL    HW2 3947  11.485  11.897   6.587
67975SOL     OW 3948  11.511  11.681   6.592
67975SOL    HW1 3949  11.459  11.598   6.575
67975SOL    HW2 3950  11.588  11.686   6.528
67976SOL     OW 3951  12.310  11.552   7.264
67976SOL    HW1 3952  12.265  11.615   7.328
67976SOL    HW2 3953  12.403  11.583   7.247
67977SOL     OW 3954  12.332  11.379   7.063
67977SOL    HW1 3955  12.332  11.443   7.140
67977SOL    HW2 3956  12.360  11.427   6.980
67978SOL     OW 3957  11.180  12.498   5.786
67978SOL    HW1 3958  11.087  12.519   5.755
67978SOL    HW2 3959  11.190  12.399   5.799
67979SOL     OW 3960  11.676  12.740   6.496
67979SOL    HW1 3961  11.742  12.814   6.505
67979SOL    HW2 3962  11.720  12.661   6.454
67980SOL     OW 3963  12.174  11.968   6.824
67980SOL    HW1 3964  12.215  11.936   6.910
67980SOL    HW2 3965  12.078  11.941   6.821
67981SOL     OW 3966  11.212  11.716   6.700
67981SOL    HW1 3967  11.297  11.683   6.659
67981SOL    HW2 3968  11.225  11.731   6.798
67982SOL     OW 3969  11.361  11.692   7.308
67982SOL    HW1 3970  11.420  11.652   7.238
67982SOL    HW2 3971  11.303  11.763   7.267
67983SOL     OW 3972  12.541  12.122   7.246
67983SOL    HW1 3973  12.580  12.211   7.266
67983SOL    HW2 3974  12.551  12.102   7.149
67984SOL     OW 3975  11.987  11.744   5.911
67984SOL    HW1 3976  11.994  11.655   5.865
67984SOL    HW2 3977  11.893  11.778   5.903
67985SOL     OW 3978  11.424  12.736   7.330
67985SOL    HW1 3979  11.394  12.793   7.406
67985SOL    HW2 3980  11.417  12.639   7.356
67986SOL     OW 3981  11.843  11.636   6.855
67986SOL    HW1 3982  11.809  11.547   6.825
67986SOL    HW2 3983  11.869  11.690   6.775
67987SOL     OW 3984  11.645  11.672   5.777
67987SOL    HW1 3985  11.706  11.752   5.781
67987SOL    HW2 3986  11.550  11.703   5.784
67988SOL     OW 3987  11.331  12.309   7.052
67988SOL    HW1 3988  11.353  12.248   7.128
67988SOL    HW2 3989  11.341  12.260   6.966
67989SOL     OW 3990  12.519  12.231   6.820
67989SOL    HW1 3991  12.543  12.168   6.746
67989SOL    HW2 3992  12.429  12.271   6.802
67990SOL     OW 3993  12.474  12.027   5.895
67990SOL    HW1 3994  12.388  11.996   5.937
67990SOL    HW2 3995  12.470  12.013   5.796
67991SOL     OW 3996  12.931  12.919   6.740
67991SOL    HW1 3997  12.992  12.949   6.667
67991SOL    HW2 3998  12.893  12.830   6.718
67992SOL     OW 3999  12.424  12.903   6.714
67992SOL    HW1 4000  12.508  12.908   6.660
67992SOL    HW2 4001  12.401  12.807   6.732
67993SOL     OW 4002  11.255  12.430   6.608
67993SOL    HW1 4003  11.250  12.429   6.708
67993SOL    HW2 4004  11.172  12.389   6.570
67994SOL     OW 4005  12.898  11.307   6.109
67994SOL    HW1 4006  12.971  11.290   6.042
67994SOL    HW2 4007  12.867  11.220   6.147
67995SOL     OW 4008  11.302  12.966   7.437
67995SOL    HW1 4009  11.261  12.892   7.490
67995SOL    HW2 4010  11.366  13.017   7.495
67996SOL     OW 4011  12.452  12.099   6.258
67996SOL    HW1 4012  12.512  12.018   6.260
67996SOL    HW2 4013  12.492  12.168   6.198
67997SOL     OW 4014  12.002  12.445   7.008
67997SOL    HW1 4015  11.997  12.478   7.103
67997SOL    HW2 4016  11.916  12.464   6.962
67998SOL     OW 4017  11.844  12.788   5.740
67998SOL    HW1 4018  11.853  12.798   5.641
67998SOL    HW2 4019  11.804  12.699   5.761
67999SOL     OW 4020  11.435  11.498   6.306
67999SOL    HW1 4021  11.356  11.549   6.272
67999SOL    HW2 4022  11.426  11.483   6.404
68000SOL     OW 4023  12.366  12.784   5.617
68000SOL    HW1 4024  12.372  12.691   5.654
68000SOL    HW2 4025  12.307  12.784   5.537
68001SOL     OW 4026  11.994  12.174   6.958
68001SOL    HW1 4027  12.034  12.173   6.866
68001SOL    HW2 4028  12.004  12.266   6.998
68002SOL     OW 4029  12.088  12.082   5.877
68002SOL    HW1 4030  12.151  12.120   5.809
68002SOL    HW2 4031  12.128  11.999   5.916
68003SOL     OW 4032  11.544  12.460   7.076
68003SOL    HW1 4033  11.531  12.553   7.042
68003SOL    HW2 4034  11.460  12.408   7.063
68004SOL     OW 4035  12.211  12.270   6.282
68004SOL    HW1 4036  12.141  12.223   6.336
68004SOL    HW2 4037  12.270  12.202   6.239
68005SOL     OW 4038  12.186  11.408   6.557
68005SOL    HW1 4039  12.178  11.372   6.464
68005SOL    HW2 4040  12.184  11.332   6.622
68006SOL     OW 4041  11.762  12.659   6.077
68006SOL    HW1 4042  11.804  12.601   6.007
68006SOL    HW2 4043  11.718  12.738   6.033
68007SOL     OW 4044  11.427  12.520   5.876
68007SOL    HW1 4045  11.331  12.521   5.849
68007SOL    HW2 4046  11.439  12.573   5.960
68008SOL     OW 4047  11.277  12.185   7.312
68008SOL    HW1 4048  11.200  12.152   7.366
68008SOL    HW2 4049  11.362  12.155   7.354
68009SOL     OW 4050  11.844  11.375   7.075
68009SOL    HW1 4051  11.934  11.359   7.035
68009SOL    HW2 4052  11.852  11.380   7.174
68010SOL     OW 4053  11.247  11.517   5.619
68010SOL    HW1 4054  11.155  11.489   5.590
68010SOL    HW2 4055  11.278  11.594   5.563
68011SOL     OW 4056  12.612  12.028   6.984
68011SOL    HW1 4057  12.555  12.080   6.921
68011SOL    HW2 4058  12.708  12.040   6.960
68012SOL     OW 4059  11.244  11.338   5.904
68012SOL    HW1 4060  11.227  11.421   5.850
68012SOL    HW2 4061  11.334  11.301   5.882
68013SOL     OW 4062  12.355  12.507   5.705
68013SOL    HW1 4063  12.256  12.496   5.707
68013SOL    HW2 4064  12.389  12.522   5.798
68014SOL     OW 4065  11.785  12.014   7.017
68014SOL    HW1 4066  11.841  12.095   7.000
68014SOL    HW2 4067  11.844  11.934   7.020
68015SOL     OW 4068  11.888  11.737   7.294
68015SOL    HW1 4069  11.907  11.802   7.368
68015SOL    HW2 4070  11.948  11.657   7.303
68016SOL     OW 4071  12.622  12.392   7.219
68016SOL    HW1 4072  12.613  12.382   7.318
68016SOL    HW2 4073  12.718  12.385   7.193
68017SOL     OW 4074  12.397  11.497   6.035
68017SOL    HW1 4075  12.462  11.423   6.024
68017SOL    HW2 4076  12.417  11.547   6.119
68018SOL     OW 4077  11.766  11.917   6.238
68018SOL    HW1 4078  11.816  12.002   6.219
68018SOL    HW2 4079  11.678  11.919   6.190
68019SOL     OW 4080  12.031  12.546   5.602
68019SOL    HW1 4081  11.985  12.561   5.690
68019SOL    HW2 4082  12.075  12.631   5.572
68020SOL     OW 4083  12.580  13.023   7.306
68020SOL    HW1 4084  12.484  13.012   7.279
68020SOL    HW2 4085  12.636  12.956   7.258
68021SOL     OW 4086  12.031  12.128   6.447
68021SOL    HW1 4087  12.085  12.059   6.495
68021SOL    HW2 4088  11.999  12.197   6.513
68022SOL     OW 4089  12.255  12.156   5.673
68022SOL    HW1 4090  12.232  12.209   5.591
68022SOL    HW2 4091  12.336  12.100   5.654
68023SOL     OW 4092  13.033  12.741   6.437
68023SOL    HW1 4093  12.962  12.729   6.367
68023SOL    HW2 4094  13.034  12.662   6.497
68024SOL     OW 4095  11.393  12.486   7.430
68024SOL    HW1 4096  11.328  12.413   7.409
68024SOL    HW2 4097  11.397  12.500   7.528
68025SOL     OW 4098  11.251  12.412   6.239
68025SOL    HW1 4099  11.250  12.365   6.327
68025SOL    HW2 4100  11.333  12.384   6.188
68026SOL     OW 4101  11.844  12.563   7.210
68026SOL    HW1 4102  11.766  12.513   7.248
68026SOL    HW2 4103  11.841  12.658   7.241
68027SOL     OW 4104  11.600  11.596   6.106
68027SOL    HW1 4105  11.630  11.524   6.044
68027SOL    HW2 4106  11.561  11.556   6.189
68028SOL     OW 4107  11.489  11.719   6.866
68028SOL    HW1 4108  11.527  11.660   6.938
68028SOL    HW2 4109  11.529  11.693   6.778
68029SOL     OW 4110  12.596  11.386   6.698
68029SOL    HW1 4111  12.648  11.321   6.753
68029SOL    HW2 4112  12.547  11.449   6.759
68030SOL     OW 4113  12.173  11.206   6.740
68030SOL    HW1 4114  12.110  11.134   6.709
68030SOL    HW2 4115  12.266  11.170   6.740
68031SOL     OW 4116  11.942  12.502   5.887
68031SOL    HW1 4117  11.896  12.415   5.904
68031SOL    HW2 4118  12.033  12.499   5.928
68032SOL     OW 4119  11.790  12.739   6.870
68032SOL    HW1 4120  11.785  12.821   6.927
68032SOL    HW2 4121  11.879  12.736   6.825
68033SOL     OW 4122  12.524  11.224   5.754
68033SOL    HW1 4123  12.559  11.183   5.670
68033SOL    HW2 4124  12.434  11.186   5.774
68034SOL     OW 4125  12.472  11.625   6.277
68034SOL    HW1 4126  12.413  11.705   6.281
68034SOL    HW2 4127  12.487  11.590   6.370
68035SOL     OW 4128  12.765  11.393   6.468
68035SOL    HW1 4129  12.681  11.392   6.522
68035SOL    HW2 4130  12.767  11.476   6.412
68036SOL     OW 4131  11.211  12.249   5.886
68036SOL    HW1 4132  11.310  12.238   5.877
68036SOL    HW2 4133  11.171  12.163   5.918
68037SOL     OW 4134  11.402  11.800   7.561
68037SOL    HW1 4135  11.309  11.798   7.598
68037SOL    HW2 4136  11.403  11.761   7.469
68038SOL     OW 4137  11.397  11.447   8.444
68038SOL    HW1 4138  11.432  11.430   8.536
68038SOL    HW2 4139  11.309  11.402   8.432
68039SOL     OW 4140  11.191  11.540   8.095
68039SOL    HW1 4141  11.109  11.583   8.134
68039SOL    HW2 4142  11.163  11.467   8.032
68040SOL     OW 4143  11.741  12.447   8.613
68040SOL    HW1 4144  11.648  12.440   8.576
68040SOL    HW2 4145  11.752  12.536   8.657
68041SOL     OW 4146  12.727  12.683   8.151
68041SOL    HW1 4147  12.670  12.667   8.232
68041SOL    HW2 4148  12.668  12.693   8.071
68042SOL     OW 4149  12.307  11.875   8.165
68042SOL    HW1 4150  12.364  11.953   8.140
68042SOL    HW2 4151  12.247  11.901   8.241
68043SOL     OW 4152  11.940  12.316   8.471
68043SOL    HW1 4153  11.862  12.333   8.531
68043SOL    HW2 4154  11.974  12.403   8.435
68044SOL     OW 4155  12.022  11.970   9.271
68044SOL    HW1 4156  12.018  12.046   9.336
68044SOL    HW2 4157  12.044  12.006   9.180
68045SOL     OW 4158  11.857  12.184   8.113
68045SOL    HW1 4159  11.926  12.168   8.183
68045SOL    HW2 4160  11.784  12.241   8.151
68046SOL     OW 4161  11.858  12.333   9.251
68046SOL    HW1 4162  11.918  12.412   9.265
68046SOL    HW2 4163  11.772  12.364   9.210
68047SOL     OW 4164  11.507  12.607   8.509
68047SOL    HW1 4165  11.429  12.576   8.456
68047SOL    HW2 4166  11.565  12.665   8.452
68048SOL     OW 4167  12.632  12.677   8.787
68048SOL    HW1 4168  12.656  12.771   8.813
68048SOL    HW2 4169  12.616  12.623   8.869
68049SOL     OW 4170  11.610  11.564   8.947
68049SOL    HW1 4171  11.692  11.508   8.956
68049SOL    HW2 4172  11.529  11.506   8.951
68050SOL     OW 4173  12.299  12.513   9.138
68050SOL    HW1 4174  12.346  12.513   9.226
68050SOL    HW2 4175  12.251  12.426   9.127
68051SOL     OW 4176  11.402  12.606   7.986
68051SOL    HW1 4177  11.376  12.702   7.986
68051SOL    HW2 4178  11.331  12.552   8.031
68052SOL     OW 4179  11.412  12.263   8.334
68052SOL    HW1 4180  11.426  12.179   8.386
68052SOL    HW2 4181  11.357  12.327   8.389
68053SOL     OW 4182  11.778  12.136   7.571
68053SOL    HW1 4183  11.785  12.220   7.517
68053SOL    HW2 4184  11.824  12.149   7.659
68054SOL     OW 4185  12.766  11.286   8.928
68054SOL    HW1 4186  12.748  11.353   8.856
68054SOL    HW2 4187  12.763  11.332   9.017
68055SOL     OW 4188  11.294  11.815   8.011
68055SOL    HW1 4189  11.249  11.727   8.028
68055SOL    HW2 4190  11.293  11.869   8.095
68056SOL     OW 4191  11.199  12.768   7.565
68056SOL    HW1 4192  11.180  12.672   7.586
68056SOL    HW2 4193  11.166  12.826   7.640
68057SOL     OW 4194  12.861  12.094   8.060
68057SOL    HW1 4195  12.956  12.065   8.068
68057SOL    HW2 4196  12.853  12.159   7.985
68058SOL     OW 4197  11.285  11.909   9.045
68058SOL    HW1 4198  11.373  11.896   9.090
68058SOL    HW2 4199  11.272  12.006   9.023
68059SOL     OW 4200  11.785  12.537   8.174
68059SOL    HW1 4201  11.736  12.450   8.183
68059SOL    HW2 4202  11.762  12.580   8.087
68060SOL     OW 4203  12.465  12.400   8.871
68060SOL    HW1 4204  12.502  12.327   8.813
68060SOL    HW2 4205  12.517  12.405   8.956
68061SOL     OW 4206  11.981  11.176   7.950
68061SOL    HW1 4207  12.021  11.267   7.941
68061SOL    HW2 4208  11.881  11.184   7.956
68062SOL     OW 4209  11.369  12.148   8.712
68062SOL    HW1 4210  11.458  12.103   8.698
68062SOL    HW2 4211  11.296  12.083   8.693
68063SOL     OW 4212  11.489  11.423   9.249
68063SOL    HW1 4213  11.560  11.494   9.255
68063SOL    HW2 4214  11.401  11.462   9.277
68064SOL     OW 4215  12.638  12.589   8.401
68064SOL    HW1 4216  12.579  12.595   8.481
68064SOL    HW2 4217  12.623  12.501   8.355
68065SOL     OW 4218  11.770  11.901   7.718
68065SOL    HW1 4219  11.794  11.970   7.650
68065SOL    HW2 4220  11.692  11.934   7.772
68066SOL     OW 4221  12.453  11.517   8.392
68066SOL    HW1 4222  12.367  11.467   8.379
68066SOL    HW2 4223  12.515  11.463   8.448
68067SOL     OW 4224  11.979  11.777   8.913
68067SOL    HW1 4225  11.932  11.774   9.002
68067SOL    HW2 4226  11.928  11.722   8.847
68068SOL     OW 4227  12.566  11.641   9.122
68068SOL    HW1 4228  12.546  11.684   9.210
68068SOL    HW2 4229  12.644  11.579   9.131
68069SOL     OW 4230  12.145  12.062   9.020
68069SOL    HW1 4231  12.191  11.978   8.991
68069SOL    HW2 4232  12.089  12.096   8.945
68070SOL     OW 4233  12.163  11.582   8.690
68070SOL    HW1 4234  12.086  11.616   8.744
68070SOL    HW2 4235  12.129  11.531   8.611
68071SOL     OW 4236  12.213  11.873   7.877
68071SOL    HW1 4237  12.239  11.869   7.973
68071SOL    HW2 4238  12.128  11.822   7.863
68072SOL     OW 4239  11.248  11.983   8.237
68072SOL    HW1 4240  11.347  11.971   8.246
68072SOL    HW2 4241  11.224  12.078   8.258
68073SOL     OW 4242  12.037  11.520   7.643
68073SOL    HW1 4243  12.096  11.583   7.594
68073SOL    HW2 4244  12.056  11.426   7.614
68074SOL     OW 4245  12.534  12.316   7.993
68074SOL    HW1 4246  12.617  12.287   7.945
68074SOL    HW2 4247  12.485  12.383   7.937
68075SOL     OW 4248  11.722  11.368   8.333
68075SOL    HW1 4249  11.717  11.363   8.433
68075SOL    HW2 4250  11.724  11.464   8.304
68076SOL     OW 4251  12.180  12.628   7.925
68076SOL    HW1 4252  12.134  12.700   7.873
68076SOL    HW2 4253  12.176  12.648   8.023
68077SOL     OW 4254  12.399  12.722   8.954
68077SOL    HW1 4255  12.405  12.645   9.018
68077SOL    HW2 4256  12.347  12.696   8.874
68078SOL     OW 4257  11.493  12.115   7.690
68078SOL    HW1 4258  11.575  12.154   7.648
68078SOL    HW2 4259  11.466  12.033   7.641
68079SOL     OW 4260  12.630  11.907   8.176
68079SOL    HW1 4261  12.625  11.842   8.251
68079SOL    HW2 4262  12.710  11.966   8.189
68080SOL     OW 4263  11.633  12.438   9.175
68080SOL    HW1 4264  11.583  12.439   9.089
68080SOL    HW2 4265  11.570  12.420   9.251
68081SOL     OW 4266  11.374  11.457   8.946
68081SOL    HW1 4267  11.294  11.517   8.933
68081SOL    HW2 4268  11.364  11.408   9.032
68082SOL     OW 4269  12.572  11.279   7.874
68082SOL    HW1 4270  12.548  11.242   7.784
68082SOL    HW2 4271  12.671  11.295   7.878
68083SOL     OW 4272  11.554  11.872   7.928
68083SOL    HW1 4273  11.599  11.782   7.925
68083SOL    HW2 4274  11.460  11.861   7.961
68084SOL     OW 4275  11.786  11.294   7.565
68084SOL    HW1 4276  11.884  11.272   7.572
68084SOL    HW2 4277  11.755  11.277   7.472
68085SOL     OW 4278  11.953  11.436   9.197
68085SOL    HW1 4279  12.020  11.375   9.240
68085SOL    HW2 4280  11.880  11.455   9.262
68086SOL     OW 4281  12.523  11.762   8.881
68086SOL    HW1 4282  12.551  11.719   8.966
68086SOL    HW2 4283  12.548  11.858   8.882
68087SOL     OW 4284  11.975  12.574   8.372
68087SOL    HW1 4285  12.065  12.588   8.330
68087SOL    HW2 4286  11.904  12.576   8.301
68088SOL     OW 4287  12.094  11.675   8.347
68088SOL    HW1 4288  12.069  11.666   8.251
68088SOL    HW2 4289  12.142  11.593   8.378
68089SOL     OW 4290  11.711  11.236   7.960
68089SOL    HW1 4291  11.630  11.237   8.018
68089SOL    HW2 4292  11.714  11.319   7.905
68090SOL     OW 4293  12.606  12.360   7.489
68090SOL    HW1 4294  12.638  12.284   7.546
68090SOL    HW2 4295  12.514  12.387   7.519
68091SOL     OW 4296  11.469  11.207   7.619
68091SOL    HW1 4297  11.518  11.291   7.598
68091SOL    HW2 4298  11.531  11.142   7.664
68092SOL     OW 4299  12.107  11.408   7.928
68092SOL    HW1 4300  12.059  11.449   7.850
68092SOL    HW2 4301  12.206  11.406   7.909
68093SOL     OW 4302  12.248  11.855   8.912
68093SOL    HW1 4303  12.168  11.794   8.915
68093SOL    HW2 4304  12.329  11.802   8.888
68094SOL     OW 4305  12.399  12.742   8.241
68094SOL    HW1 4306  12.420  12.816   8.176
68094SOL    HW2 4307  12.467  12.742   8.314
68095SOL     OW 4308  11.631  12.324   8.189
68095SOL    HW1 4309  11.560  12.297   8.254
68095SOL    HW2 4310  11.605  12.296   8.096
68096SOL     OW 4311  12.204  11.721   7.464
68096SOL    HW1 4312  12.163  11.803   7.425
68096SOL    HW2 4313  12.268  11.747   7.537
68097SOL     OW 4314  11.250  11.728   8.834
68097SOL    HW1 4315  11.342  11.727   8.793
68097SOL    HW2 4316  11.244  11.802   8.901
68098SOL     OW 4317  11.733  11.394   8.595
68098SOL    HW1 4318  11.771  11.310   8.632
68098SOL    HW2 4319  11.645  11.413   8.639
68099SOL     OW 4320  12.038  11.626   8.090
68099SOL    HW1 4321  12.006  11.698   8.028
68099SOL    HW2 4322  12.062  11.545   8.037
68100SOL     OW 4323  12.189  11.211   8.201
68100SOL    HW1 4324  12.117  11.216   8.132
68100SOL    HW2 4325  12.165  11.142   8.270
68101SOL     OW 4326  12.601  12.345   8.315
68101SOL    HW1 4327  12.546  12.261   8.308
68101SOL    HW2 4328  12.627  12.374   8.223
68102SOL     OW 4329  12.638  11.762   8.440
68102SOL    HW1 4330  12.608  11.667   8.447
68102SOL    HW2 4331  12.711  11.778   8.506
68103SOL     OW 4332  11.660  12.557   7.622
68103SOL    HW1 4333  11.573  12.542   7.669
68103SOL    HW2 4334  11.643  12.583   7.527
68104SOL     OW 4335  12.562  11.747   7.526
68104SOL    HW1 4336  12.508  11.726   7.607
68104SOL    HW2 4337  12.653  11.706   7.535
68105SOL     OW 4338  11.699  11.428   7.776
68105SOL    HW1 4339  11.726  11.369   7.701
68105SOL    HW2 4340  11.699  11.523   7.745
68106SOL     OW 4341  12.236  12.519   8.788
68106SOL    HW1 4342  12.156  12.496   8.843
68106SOL    HW2 4343  12.319  12.493   8.837
68107SOL     OW 4344  12.283  12.367   8.548
68107SOL    HW1 4345  12.243  12.411   8.629
68107SOL    HW2 4346  12.242  12.404   8.465
68108SOL     OW 4347  12.087  11.261   8.850
68108SOL    HW1 4348  12.112  11.241   8.755
68108SOL    HW2 4349  12.159  11.317   8.892
68109SOL     OW 4350  12.152  12.288   9.167
68109SOL    HW1 4351  12.053  12.294   9.177
68109SOL    HW2 4352  12.175  12.208   9.111
68110SOL     OW 4353  11.877  12.222   7.816
68110SOL    HW1 4354  11.863  12.229   7.915
68110SOL    HW2 4355  11.961  12.171   7.798
68111SOL     OW 4356  11.582  11.985   8.699
68111SOL    HW1 4357  11.668  11.997   8.749
68111SOL    HW2 4358  11.540  11.898   8.726
68112SOL     OW 4359  12.446  11.558   8.710
68112SOL    HW1 4360  12.467  11.632   8.774
68112SOL    HW2 4361  12.357  11.575   8.667
68113SOL     OW 4362  11.236  12.736   8.779
68113SOL    HW1 4363  11.190  12.818   8.745
68113SOL    HW2 4364  11.334  12.755   8.788
68114SOL     OW 4365  11.539  12.272   7.949
68114SOL    HW1 4366  11.532  12.355   7.893
68114SOL    HW2 4367  11.543  12.192   7.889
68115SOL     OW 4368  11.738  11.709   8.313
68115SOL    HW1 4369  11.750  11.775   8.239
68115SOL    HW2 4370  11.784  11.743   8.396
68116SOL     OW 4371  12.424  12.520   7.836
68116SOL    HW1 4372  12.474  12.597   7.876
68116SOL    HW2 4373  12.329  12.522   7.868
68117SOL     OW 4374  12.444  12.617   8.590
68117SOL    HW1 4375  12.491  12.630   8.677
68117SOL    HW2 4376  12.378  12.543   8.599
68118SOL     OW 4377  12.754  11.811   7.920
68118SOL    HW1 4378  12.723  11.872   7.993
68118SOL    HW2 4379  12.804  11.863   7.851
68119SOL     OW 4380  11.526  12.682   8.777
68119SOL    HW1 4381  11.505  12.638   8.690
68119SOL    HW2 4382  11.623  12.708   8.780
68120SOL     OW 4383  11.574  11.923   9.046
68120SOL    HW1 4384  11.642  11.978   8.999
68120SOL    HW2 4385  11.614  11.835   9.073
68121SOL     OW 4386  12.185  11.277   9.218
68121SOL    HW1 4387  12.191  11.362   9.166
68121SOL    HW2 4388  12.217  11.201   9.161
68122SOL     OW 4389  11.676  11.222   9.188
68122SOL    HW1 4390  11.634  11.165   9.118
68122SOL    HW2 4391  11.610  11.291   9.220
68123SOL     OW 4392  11.745  12.042   8.477
68123SOL    HW1 4393  11.789  12.131   8.468
68123SOL    HW2 4394  11.682  12.042   8.554
68124SOL     OW 4395  12.532  12.034   8.493
68124SOL    HW1 4396  12.457  12.034   8.427
68124SOL    HW2 4397  12.569  11.942   8.502
68125SOL     OW 4398  12.381  11.697   7.723
68125SOL    HW1 4399  12.394  11.613   7.777
68125SOL    HW2 4400  12.352  11.771   7.783
68126SOL     OW 4401  11.479  11.385   8.679
68126SOL    HW1 4402  11.456  11.422   8.769
68126SOL    HW2 4403  11.449  11.290   8.673
68127SOL     OW 4404  11.209  12.482   8.730
68127SOL    HW1 4405  11.262  12.433   8.798
68127SOL    HW2 4406  11.231  12.580   8.735
68128SOL     OW 4407  11.904  11.806   8.512
68128SOL    HW1 4408  11.963  11.780   8.436
68128SOL    HW2 4409  11.876  11.902   8.501
68129SOL     OW 4410  11.479  11.235   8.066
68129SOL    HW1 4411  11.468  11.329   8.099
68129SOL    HW2 4412  11.474  11.172   8.143
68130SOL     OW 4413  12.794  11.539   7.822
68130SOL    HW1 4414  12.796  11.463   7.886
68130SOL    HW2 4415  12.746  11.616   7.862
68131SOL     OW 4416  12.195  11.938   8.414
68131SOL    HW1 4417  12.210  11.959   8.510
68131SOL    HW2 4418  12.165  11.843   8.405
68132SOL     OW 4419  11.522  12.070   9.252
68132SOL    HW1 4420  11.598  12.114   9.300
68132SOL    HW2 4421  11.557  12.023   9.170
68133SOL     OW 4422  12.712  11.446   7.573
68133SOL    HW1 4423  12.651  11.371   7.596
68133SOL    HW2 4424  12.734  11.498   7.656
68134SOL     OW 4425  12.475  12.010   7.490
68134SOL    HW1 4426  12.509  11.917   7.505
68134SOL    HW2 4427  12.493  12.037   7.395
68135SOL     OW 4428  12.240  12.505   8.297
68135SOL    HW1 4429  12.247  12.421   8.242
68135SOL    HW2 4430  12.302  12.574   8.261
68136SOL     OW 4431  11.491  11.982   8.397
68136SOL    HW1 4432  11.584  12.018   8.402
68136SOL    HW2 4433  11.485  11.897   8.449
68137SOL     OW 4434  11.511  11.681   8.454
68137SOL    HW1 4435  11.459  11.598   8.437
68137SOL    HW2 4436  11.588  11.686   8.390
68138SOL     OW 4437  12.310  11.552   9.126
68138SOL    HW1 4438  12.265  11.615   9.190
68138SOL    HW2 4439  12.403  11.583   9.109
68139SOL     OW 4440  12.332  11.379   8.925
68139SOL    HW1 4441  12.332  11.443   9.002
68139SOL    HW2 4442  12.360  11.427   8.842
68140SOL     OW 4443  11.180  12.498   7.648
68140SOL    HW1 4444  11.087  12.519   7.617
68140SOL    HW2 4445  11.190  12.399   7.661
68141SOL     OW 4446  11.676  12.740   8.358
68141SOL    HW1 4447  11.742  12.814   8.367
68141SOL    HW2 4448  11.720  12.661   8.316
68142SOL     OW 4449  12.174  11.968   8.686
68142SOL    HW1 4450  12.215  11.936   8.772
68142SOL    HW2 4451  12.078  11.941   8.683
68143SOL     OW 4452  11.212  11.716   8.562
68143SOL    HW1 4453  11.297  11.683   8.521
68143SOL    HW2 4454  11.225  11.731   8.660
68144SOL     OW 4455  11.361  11.692   9.170
68144SOL    HW1 4456  11.420  11.652   9.100
68144SOL    HW2 4457  11.303  11.763   9.129
68145SOL     OW 4458  12.541  12.122   9.108
68145SOL    HW1 4459  12.580  12.211   9.128
68145SOL    HW2 4460  12.551  12.102   9.011
68146SOL     OW 4461  11.987  11.744   7.773
68146SOL    HW1 4462  11.994  11.655   7.727
68146SOL    HW2 4463  11.893  11.778   7.765
68147SOL     OW 4464  11.424  12.736   9.192
68147SOL    HW1 4465  11.394  12.793   9.268
68147SOL    HW2 4466  11.417  12.639   9.218
68148SOL     OW 4467  11.843  11.636   8.717
68148SOL    HW1 4468  11.809  11.547   8.687
68148SOL    HW2 4469  11.869  11.690   8.637
68149SOL     OW 4470  11.645  11.672   7.639
68149SOL    HW1 4471  11.706  11.752   7.643
68149SOL    HW2 4472  11.550  11.703   7.646
68150SOL     OW 4473  11.331  12.309   8.914
68150SOL    HW1 4474  11.353  12.248   8.990
68150SOL    HW2 4475  11.341  12.260   8.828
68151SOL     OW 4476  12.519  12.231   8.682
68151SOL    HW1 4477  12.543  12.168   8.608
68151SOL    HW2 4478  12.429  12.271   8.664
68152SOL     OW 4479  12.474  12.027   7.757
68152SOL    HW1 4480  12.388  11.996   7.799
68152SOL    HW2 4481  12.470  12.013   7.658
68153SOL     OW 4482  12.931  12.919   8.602
68153SOL    HW1 4483  12.992  12.949   8.529
68153SOL    HW2 4484  12.893  12.830   8.580
68154SOL     OW 4485  12.424  12.903   8.576
68154SOL    HW1 4486  12.508  12.908   8.522
68154SOL    HW2 4487  12.401  12.807   8.594
68155SOL     OW 4488  11.255  12.430   8.470
68155SOL    HW1 4489  11.250  12.429   8.570
68155SOL    HW2 4490  11.172  12.389   8.432
68156SOL     OW 4491  12.898  11.307   7.971
68156SOL    HW1 4492  12.971  11.290   7.904
68156SOL    HW2 4493  12.867  11.220   8.009
68157SOL     OW 4494  11.302  12.966   9.299
68157SOL    HW1 4495  11.261  12.892   9.352
68157SOL    HW2 4496  11.366  13.017   9.357
68158SOL     OW 4497  12.452  12.099   8.120
68158SOL    HW1 4498  12.512  12.018   8.122
68158SOL    HW2 4499  12.492  12.168   8.060
68159SOL     OW 4500  12.002  12.445   8.870
68159SOL    HW1 4501  11.997  12.478   8.965
68159SOL    HW2 4502  11.916  12.464   8.824
68160SOL     OW 4503  11.844  12.788   7.602
68160SOL    HW1 4504  11.853  12.798   7.503
68160SOL    HW2 4505  11.804  12.699   7.623
68161SOL     OW 4506  11.435  11.498   8.168
68161SOL    HW1 4507  11.356  11.549   8.134
68161SOL    HW2 4508  11.426  11.483   8.266
68162SOL     OW 4509  12.366  12.784   7.479
68162SOL    HW1 4510  12.372  12.691   7.516
68162SOL    HW2 4511  12.307  12.784   7.399
68163SOL     OW 4512  11.994  12.174   8.820
68163SOL    HW1 4513  12.034  12.173   8.728
68163SOL    HW2 4514  12.004  12.266   8.860
68164SOL     OW 4515  12.088  12.082   7.739
68164SOL    HW1 4516  12.151  12.120   7.671
68164SOL    HW2 4517  12.128  11.999   7.778
68165SOL     OW 4518  11.544  12.460   8.938
68165SOL    HW1 4519  11.531  12.553   8.904
68165SOL    HW2 4520  11.460  12.408   8.925
68166SOL     OW 4521  12.211  12.270   8.144
68166SOL    HW1 4522  12.141  12.223   8.198
68166SOL    HW2 4523  12.270  12.202   8.101
68167SOL     OW 4524  12.186  11.408   8.419
68167SOL    HW1 4525  12.178  11.372   8.326
68167SOL    HW2 4526  12.184  11.332   8.484
68168SOL     OW 4527  11.762  12.659   7.939
68168SOL    HW1 4528  11.804  12.601   7.869
68168SOL    HW2 4529  11.718  12.738   7.895
68169SOL     OW 4530  11.427  12.520   7.738
68169SOL    HW1 4531  11.331  12.521   7.711
68169SOL    HW2 4532  11.439  12.573   7.822
68170SOL     OW 4533  11.277  12.185   9.174
68170SOL    HW1 4534  11.200  12.152   9.228
68170SOL    HW2 4535  11.362  12.155   9.216
68171SOL     OW 4536  11.844  11.375   8.937
68171SOL    HW1 4537  11.934  11.359   8.897
68171SOL    HW2 4538  11.852  11.380   9.036
68172SOL     OW 4539  11.247  11.517   7.481
68172SOL    HW1 4540  11.155  11.489   7.452
68172SOL    HW2 4541  11.278  11.594   7.425
68173SOL     OW 4542  12.612  12.028   8.846
68173SOL    HW1 4543  12.555  12.080   8.783
68173SOL    HW2 4544  12.708  12.040   8.822
68174SOL     OW 4545  11.244  11.338   7.766
68174SOL    HW1 4546  11.227  11.421   7.712
68174SOL    HW2 4547  11.334  11.301   7.744
68175SOL     OW 4548  12.355  12.507   7.567
68175SOL    HW1 4549  12.256  12.496   7.569
68175SOL    HW2 4550  12.389  12.522   7.660
68176SOL     OW 4551  11.785  12.014   8.879
68176SOL    HW1 4552  11.841  12.095   8.862
68176SOL    HW2 4553  11.844  11.934   8.882
68177SOL     OW 4554  11.888  11.737   9.156
68177SOL    HW1 4555  11.907  11.802   9.230
68177SOL    HW2 4556  11.948  11.657   9.165
68178SOL     OW 4557  12.622  12.392   9.081
68178SOL    HW1 4558  12.613  12.382   9.180
68178SOL    HW2 4559  12.718  12.385   9.055
68179SOL     OW 4560  12.397  11.497   7.897
68179SOL    HW1 4561  12.462  11.423   7.886
68179SOL    HW2 4562  12.417  11.547   7.981
68180SOL     OW 4563  11.766  11.917   8.100
68180SOL    HW1 4564  11.816  12.002   8.081
68180SOL    HW2 4565  11.678  11.919   8.052
68181SOL     OW 4566  12.031  12.546   7.464
68181SOL    HW1 4567  11.985  12.561   7.552
68181SOL    HW2 4568  12.075  12.631   7.434
68182SOL     OW 4569  12.580  13.023   9.168
68182SOL    HW1 4570  12.484  13.012   9.141
68182SOL    HW2 4571  12.636  12.956   9.120
68183SOL     OW 4572  12.031  12.128   8.309
68183SOL    HW1 4573  12.085  12.059   8.357
68183SOL    HW2 4574  11.999  12.197   8.375
68184SOL     OW 4575  12.255  12.156   7.535
68184SOL    HW1 4576  12.232  12.209   7.453
68184SOL    HW2 4577  12.336  12.100   7.516
68185SOL     OW 4578  13.033  12.741   8.299
68185SOL    HW1 4579  12.962  12.729   8.229
68185SOL    HW2 4580  13.034  12.662   8.359
68186SOL     OW 4581  11.393  12.486   9.292
68186SOL    HW1 4582  11.328  12.413   9.271
68186SOL    HW2 4583  11.397  12.500   9.390
68187SOL     OW 4584  11.251  12.412   8.101
68187SOL    HW1 4585  11.250  12.365   8.189
68187SOL    HW2 4586  11.333  12.384   8.050
68188SOL     OW 4587  11.844  12.563   9.072
68188SOL    HW1 4588  11.766  12.513   9.110
68188SOL    HW2 4589  11.841  12.658   9.103
68189SOL     OW 4590  11.600  11.596   7.968
68189SOL    HW1 4591  11.630  11.524   7.906
68189SOL    HW2 4592  11.561  11.556   8.051
68190SOL     OW 4593  11.489  11.719   8.728
68190SOL    HW1 4594  11.527  11.660   8.800
68190SOL    HW2 4595  11.529  11.693   8.640
68191SOL     OW 4596  12.596  11.386   8.560
68191SOL    HW1 4597  12.648  11.321   8.615
68191SOL    HW2 4598  12.547  11.449   8.621
68192SOL     OW 4599  12.173  11.206   8.602
68192SOL    HW1 4600  12.110  11.134   8.571
68192SOL    HW2 4601  12.266  11.170   8.602
68193SOL     OW 4602  11.942  12.502   7.749
68193SOL    HW1 4603  11.896  12.415   7.766
68193SOL    HW2 4604  12.033  12.499   7.790
68194SOL     OW 4605  11.790  12.739   8.732
68194SOL    HW1 4606  11.785  12.821   8.789
68194SOL    HW2 4607  11.879  12.736   8.687
68195SOL     OW 4608  12.524  11.224   7.616
68195SOL    HW1 4609  12.559  11.183   7.532
68195SOL    HW2 4610  12.434  11.186   7.636
68196SOL     OW 4611  12.472  11.625   8.139
68196SOL    HW1 4612  12.413  11.705   8.143
68196SOL    HW2 4613  12.487  11.590   8.232
68197SOL     OW 4614  12.765  11.393   8.330
68197SOL    HW1 4615  12.681  11.392   8.384
68197SOL    HW2 4616  12.767  11.476   8.274
68198SOL     OW 4617  11.402  11.800   9.423
68198SOL    HW1 4618  11.309  11.798   9.460
68198SOL    HW2 4619  11.403  11.761   9.331
68199SOL     OW 4620  11.397  11.447  10.306
68199SOL    HW1 4621  11.432  11.430  10.398
68199SOL    HW2 4622  11.309  11.402  10.294
68200SOL     OW 4623  11.191  11.540   9.957
68200SOL    HW1 4624  11.109  11.583   9.996
68200SOL    HW2 4625  11.163  11.467   9.894
68201SOL     OW 4626  11.741  12.447  10.475
68201SOL    HW1 4627  11.648  12.440  10.438
68201SOL    HW2 4628  11.752  12.536  10.519
68202SOL     OW 4629  12.727  12.683  10.013
68202SOL    HW1 4630  12.670  12.667  10.094
68202SOL    HW2 4631  12.668  12.693   9.933
68203SOL     OW 4632  12.307  11.875  10.027
68203SOL    HW1 4633  12.364  11.953  10.002
68203SOL    HW2 4634  12.247  11.901  10.103
68204SOL     OW 4635  11.940  12.316  10.333
68204SOL    HW1 4636  11.862  12.333  10.393
68204SOL    HW2 4637  11.974  12.403  10.297
68205SOL     OW 4638  12.022  11.970  11.133
68205SOL    HW1 4639  12.018  12.046  11.198
68205SOL    HW2 4640  12.044  12.006  11.042
68206SOL     OW 4641  11.857  12.184   9.975
68206SOL    HW1 4642  11.926  12.168  10.045
68206SOL    HW2 4643  11.784  12.241  10.013
68207SOL     OW 4644  11.858  12.333  11.113
68207SOL    HW1 4645  11.918  12.412  11.127
68207SOL    HW2 4646  11.772  12.364  11.072
68208SOL     OW 4647  11.507  12.607  10.371
68208SOL    HW1 4648  11.429  12.576  10.318
68208SOL    HW2 4649  11.565  12.665  10.314
68209SOL     OW 4650  12.632  12.677  10.649
68209SOL    HW1 4651  12.656  12.771  10.675
68209SOL    HW2 4652  12.616  12.623  10.731
68210SOL     OW 4653  11.610  11.564  10.809
68210SOL    HW1 4654  11.692  11.508  10.818
68210SOL    HW2 4655  11.529  11.506  10.813
68211SOL     OW 4656  12.299  12.513  11.000
68211SOL    HW1 4657  12.346  12.513  11.088
68211SOL    HW2 4658  12.251  12.426  10.989
68212SOL     OW 4659  11.402  12.606   9.848
68212SOL    HW1 4660  11.376  12.702   9.848
68212SOL    HW2 4661  11.331  12.552   9.893
68213SOL     OW 4662  11.412  12.263  10.196
68213SOL    HW1 4663  11.426  12.179  10.248
68213SOL    HW2 4664  11.357  12.327  10.251
68214SOL     OW 4665  11.778  12.136   9.433
68214SOL    HW1 4666  11.785  12.220   9.379
68214SOL    HW2 4667  11.824  12.149   9.521
68215SOL     OW 4668  12.766  11.286  10.790
68215SOL    HW1 4669  12.748  11.353  10.718
68215SOL    HW2 4670  12.763  11.332  10.879
68216SOL     OW 4671  11.294  11.815   9.873
68216SOL    HW1 4672  11.249  11.727   9.890
68216SOL    HW2 4673  11.293  11.869   9.957
68217SOL     OW 4674  11.199  12.768   9.427
68217SOL    HW1 4675  11.180  12.672   9.448
68217SOL    HW2 4676  11.166  12.826   9.502
68218SOL     OW 4677  12.861  12.094   9.922
68218SOL    HW1 4678  12.956  12.065   9.930
68218SOL    HW2 4679  12.853  12.159   9.847
68219SOL     OW 4680  11.285  11.909  10.907
68219SOL    HW1 4681  11.373  11.896  10.952
68219SOL    HW2 4682  11.272  12.006  10.885
68220SOL     OW 4683  11.785  12.537  10.036
68220SOL    HW1 4684  11.736  12.450  10.045
68220SOL    HW2 4685  11.762  12.580   9.949
68221SOL     OW 4686  12.465  12.400  10.733
68221SOL    HW1 4687  12.502  12.327  10.675
68221SOL    HW2 4688  12.517  12.405  10.818
68222SOL     OW 4689  11.981  11.176   9.812
68222SOL    HW1 4690  12.021  11.267   9.803
68222SOL    HW2 4691  11.881  11.184   9.818
68223SOL     OW 4692  11.369  12.148  10.574
68223SOL    HW1 4693  11.458  12.103  10.560
68223SOL    HW2 4694  11.296  12.083  10.555
68224SOL     OW 4695  11.489  11.423  11.111
68224SOL    HW1 4696  11.560  11.494  11.117
68224SOL    HW2 4697  11.401  11.462  11.139
68225SOL     OW 4698  12.638  12.589  10.263
68225SOL    HW1 4699  12.579  12.595  10.343
68225SOL    HW2 4700  12.623  12.501  10.217
68226SOL     OW 4701  11.770  11.901   9.580
68226SOL    HW1 4702  11.794  11.970   9.512
68226SOL    HW2 4703  11.692  11.934   9.634
68227SOL     OW 4704  12.453  11.517  10.254
68227SOL    HW1 4705  12.367  11.467  10.241
68227SOL    HW2 4706  12.515  11.463  10.310
68228SOL     OW 4707  11.979  11.777  10.775
68228SOL    HW1 4708  11.932  11.774  10.864
68228SOL    HW2 4709  11.928  11.722  10.709
68229SOL     OW 4710  12.566  11.641  10.984
68229SOL    HW1 4711  12.546  11.684  11.072
68229SOL    HW2 4712  12.644  11.579  10.993
68230SOL     OW 4713  12.145  12.062  10.882
68230SOL    HW1 4714  12.191  11.978  10.853
68230SOL    HW2 4715  12.089  12.096  10.807
68231SOL     OW 4716  12.163  11.582  10.552
68231SOL    HW1 4717  12.086  11.616  10.606
68231SOL    HW2 4718  12.129  11.531  10.473
68232SOL     OW 4719  12.213  11.873   9.739
68232SOL    HW1 4720  12.239  11.869   9.835
68232SOL    HW2 4721  12.128  11.822   9.725
68233SOL     OW 4722  11.248  11.983  10.099
68233SOL    HW1 4723  11.347  11.971  10.108
68233SOL    HW2 4724  11.224  12.078  10.120
68234SOL     OW 4725  12.037  11.520   9.505
68234SOL    HW1 4726  12.096  11.583   9.456
68234SOL    HW2 4727  12.056  11.426   9.476
68235SOL     OW 4728  12.534  12.316   9.855
68235SOL    HW1 4729  12.617  12.287   9.807
68235SOL    HW2 4730  12.485  12.383   9.799
68236SOL     OW 4731  11.722  11.368  10.195
68236SOL    HW1 4732  11.717  11.363  10.295
68236SOL    HW2 4733  11.724  11.464  10.166
68237SOL     OW 4734  12.180  12.628   9.787
68237SOL    HW1 4735  12.134  12.700   9.735
68237SOL    HW2 4736  12.176  12.648   9.885
68238SOL     OW 4737  12.399  12.722  10.816
68238SOL    HW1 4738  12.405  12.645  10.880
68238SOL    HW2 4739  12.347  12.696  10.736
68239SOL     OW 4740  11.493  12.115   9.552
68239SOL    HW1 4741  11.575  12.154   9.510
68239SOL    HW2 4742  11.466  12.033   9.503
68240SOL     OW 4743  12.630  11.907  10.038
68240SOL    HW1 4744  12.625  11.842  10.113
68240SOL    HW2 4745  12.710  11.966  10.051
68241SOL     OW 4746  11.633  12.438  11.037
68241SOL    HW1 4747  11.583  12.439  10.951
68241SOL    HW2 4748  11.570  12.420  11.113
68242SOL     OW 4749  11.374  11.457  10.808
68242SOL    HW1 4750  11.294  11.517  10.795
68242SOL    HW2 4751  11.364  11.408  10.894
68243SOL     OW 4752  12.572  11.279   9.736
68243SOL    HW1 4753  12.548  11.242   9.646
68243SOL    HW2 4754  12.671  11.295   9.740
68244SOL     OW 4755  11.554  11.872   9.790
68244SOL    HW1 4756  11.599  11.782   9.787
68244SOL    HW2 4757  11.460  11.861   9.823
68245SOL     OW 4758  11.786  11.294   9.427
68245SOL    HW1 4759  11.884  11.272   9.434
68245SOL    HW2 4760  11.755  11.277   9.334
68246SOL     OW 4761  11.953  11.436  11.059
68246SOL    HW1 4762  12.020  11.375  11.102
68246SOL    HW2 4763  11.880  11.455  11.124
68247SOL     OW 4764  12.523  11.762  10.743
68247SOL    HW1 4765  12.551  11.719  10.828
68247SOL    HW2 4766  12.548  11.858  10.744
68248SOL     OW 4767  11.975  12.574  10.234
68248SOL    HW1 4768  12.065  12.588  10.192
68248SOL    HW2 4769  11.904  12.576  10.163
68249SOL     OW 4770  12.094  11.675  10.209
68249SOL    HW1 4771  12.069  11.666  10.113
68249SOL    HW2 4772  12.142  11.593  10.240
68250SOL     OW 4773  11.711  11.236   9.822
68250SOL    HW1 4774  11.630  11.237   9.880
68250SOL    HW2 4775  11.714  11.319   9.767
68251SOL     OW 4776  12.606  12.360   9.351
68251SOL    HW1 4777  12.638  12.284   9.408
68251SOL    HW2 4778  12.514  12.387   9.381
68252SOL     OW 4779  11.469  11.207   9.481
68252SOL    HW1 4780  11.518  11.291   9.460
68252SOL    HW2 4781  11.531  11.142   9.526
68253SOL     OW 4782  12.107  11.408   9.790
68253SOL    HW1 4783  12.059  11.449   9.712
68253SOL    HW2 4784  12.206  11.406   9.771
68254SOL     OW 4785  12.248  11.855  10.774
68254SOL    HW1 4786  12.168  11.794  10.777
68254SOL    HW2 4787  12.329  11.802  10.750
68255SOL     OW 4788  12.399  12.742  10.103
68255SOL    HW1 4789  12.420  12.816  10.038
68255SOL    HW2 4790  12.467  12.742  10.176
68256SOL     OW 4791  11.631  12.324  10.051
68256SOL    HW1 4792  11.560  12.297  10.116
68256SOL    HW2 4793  11.605  12.296   9.958
68257SOL     OW 4794  12.204  11.721   9.326
68257SOL    HW1 4795  12.163  11.803   9.287
68257SOL    HW2 4796  12.268  11.747   9.399
68258SOL     OW 4797  11.250  11.728  10.696
68258SOL    HW1 4798  11.342  11.727  10.655
68258SOL    HW2 4799  11.244  11.802  10.763
68259SOL     OW 4800  11.733  11.394  10.457
68259SOL    HW1 4801  11.771  11.310  10.494
68259SOL    HW2 4802  11.645  11.413  10.501
68260SOL     OW 4803  12.038  11.626   9.952
68260SOL    HW1 4804  12.006  11.698   9.890
68260SOL    HW2 4805  12.062  11.545   9.899
68261SOL     OW 4806  12.189  11.211  10.063
68261SOL    HW1 4807  12.117  11.216   9.994
68261SOL    HW2 4808  12.165  11.142  10.132
68262SOL     OW 4809  12.601  12.345  10.177
68262SOL    HW1 4810  12.546  12.261  10.170
68262SOL    HW2 4811  12.627  12.374  10.085
68263SOL     OW 4812  12.638  11.762  10.302
68263SOL    HW1 4813  12.608  11.667  10.309
68263SOL    HW2 4814  12.711  11.778  10.368
68264SOL     OW 4815  11.660  12.557   9.484
68264SOL    HW1 4816  11.573  12.542   9.531
68264SOL    HW2 4817  11.643  12.583   9.389
68265SOL     OW 4818  12.562  11.747   9.388
68265SOL    HW1 4819  12.508  11.726   9.469
68265SOL    HW2 4820  12.653  11.706   9.397
68266SOL     OW 4821  11.699  11.428   9.638
68266SOL    HW1 4822  11.726  11.369   9.563
68266SOL    HW2 4823  11.699  11.523   9.607
68267SOL     OW 4824  12.236  12.519  10.650
68267SOL    HW1 4825  12.156  12.496  10.705
68267SOL    HW2 4826  12.319  12.493  10.699
68268SOL     OW 4827  12.283  12.367  10.410
68268SOL    HW1 4828  12.243  12.411  10.491
68268SOL    HW2 4829  12.242  12.404  10.327
68269SOL     OW 4830  12.087  11.261  10.712
68269SOL    HW1 4831  12.112  11.241  10.617
68269SOL    HW2 4832  12.159  11.317  10.754
68270SOL     OW 4833  12.152  12.288  11.029
68270SOL    HW1 4834  12.053  12.294  11.039
68270SOL    HW2 4835  12.175  12.208  10.973
68271SOL     OW 4836  11.877  12.222   9.678
68271SOL    HW1 4837  11.863  12.229   9.777
68271SOL    HW2 4838  11.961  12.171   9.660
68272SOL     OW 4839  11.582  11.985  10.561
68272SOL    HW1 4840  11.668  11.997  10.611
68272SOL    HW2 4841  11.540  11.898  10.588
68273SOL     OW 4842  12.446  11.558  10.572
68273SOL    HW1 4843  12.467  11.632  10.636
68273SOL    HW2 4844  12.357  11.575  10.529
68274SOL     OW 4845  11.236  12.736  10.641
68274SOL    HW1 4846  11.190  12.818  10.607
68274SOL    HW2 4847  11.334  12.755  10.650
68275SOL     OW 4848  11.539  12.272   9.811
68275SOL    HW1 4849  11.532  12.355   9.755
68275SOL    HW2 4850  11.543  12.192   9.751
68276SOL     OW 4851  11.738  11.709  10.175
68276SOL    HW1 4852  11.750  11.775  10.101
68276SOL    HW2 4853  11.784  11.743  10.258
68277SOL     OW 4854  12.424  12.520   9.698
68277SOL    HW1 4855  12.474  12.597   9.738
68277SOL    HW2 4856  12.329  12.522   9.730
68278SOL     OW 4857  12.444  12.617  10.452
68278SOL    HW1 4858  12.491  12.630  10.539
68278SOL    HW2 4859  12.378  12.543  10.461
68279SOL     OW 4860  12.754  11.811   9.782
68279SOL    HW1 4861  12.723  11.872   9.855
68279SOL    HW2 4862  12.804  11.863   9.713
68280SOL     OW 4863  11.526  12.682  10.639
68280SOL    HW1 4864  11.505  12.638  10.552
68280SOL    HW2 4865  11.623  12.708  10.642
68281SOL     OW 4866  11.574  11.923  10.908
68281SOL    HW1 4867  11.642  11.978  10.861
68281SOL    HW2 4868  11.614  11.835  10.935
68282SOL     OW 4869  12.185  11.277  11.080
68282SOL    HW1 4870  12.191  11.362  11.028
68282SOL    HW2 4871  12.217  11.201  11.023
68283SOL     OW 4872  11.676  11.222  11.050
68283SOL    HW1 4873  11.634  11.165  10.980
68283SOL    HW2 4874  11.610  11.291  11.082
68284SOL     OW 4875  11.745  12.042  10.339
68284SOL    HW1 4876  11.789  12.131  10.330
68284SOL    HW2 4877  11.682  12.042  10.416
68285SOL     OW 4878  12.532  12.034  10.355
68285SOL    HW1 4879  12.457  12.034  10.289
68285SOL    HW2 4880  12.569  11.942  10.364
68286SOL     OW 4881  12.381  11.697   9.585
68286SOL    HW1 4882  12.394  11.613   9.639
68286SOL    HW2 4883  12.352  11.771   9.645
68287SOL     OW 4884  11.479  11.385  10.541
68287SOL    HW1 4885  11.456  11.422  10.631
68287SOL    HW2 4886  11.449  11.290  10.535
68288SOL     OW 4887  11.209  12.482  10.592
68288SOL    HW1 4888  11.262  12.433  10.660
68288SOL    HW2 4889  11.231  12.580  10.597
68289SOL     OW 4890  11.904  11.806  10.374
68289SOL    HW1 4891  11.963  11.780  10.298
68289SOL    HW2 4892  11.876  11.902  10.363
68290SOL     OW 4893  11.479  11.235   9.928
68290SOL    HW1 4894  11.468  11.329   9.961
68290SOL    HW2 4895  11.474  11.172  10.005
68291SOL     OW 4896  12.794  11.539   9.684
68291SOL    HW1 4897  12.796  11.463   9.748
68291SOL    HW2 4898  12.746  11.616   9.724
68292SOL     OW 4899  12.195  11.938  10.276
68292SOL    HW1 4900  12.210  11.959  10.372
68292SOL    HW2 4901  12.165  11.843  10.267
68293SOL     OW 4902  11.522  12.070  11.114
68293SOL    HW1 4903  11.598  12.114  11.162
68293SOL    HW2 4904  11.557  12.023  11.032
68294SOL     OW 4905  12.712  11.446   9.435
68294SOL    HW1 4906  12.651  11.371   9.458
68294SOL    HW2 4907  12.734  11.498   9.518
68295SOL     OW 4908  12.475  12.010   9.352
68295SOL    HW1 4909  12.509  11.917   9.367
68295SOL    HW2 4910  12.493  12.037   9.257
68296SOL     OW 4911  12.240  12.505  10.159
68296SOL    HW1 4912  12.247  12.421  10.104
68296SOL    HW2 4913  12.302  12.574  10.123
68297SOL     OW 4914  11.491  11.982  10.259
68297SOL    HW1 4915  11.584  12.018  10.264
68297SOL    HW2 4916  11.485  11.897  10.311
68298SOL     OW 4917  11.511  11.681  10.316
68298SOL    HW1 4918  11.459  11.598  10.299
68298SOL    HW2 4919  11.588  11.686  10.252
68299SOL     OW 4920  12.332  11.379  10.787
68299SOL    HW1 4921  12.332  11.443  10.864
68299SOL    HW2 4922  12.360  11.427  10.704
68300SOL     OW 4923  11.180  12.498   9.510
68300SOL    HW1 4924  11.087  12.519   9.479
68300SOL    HW2 4925  11.190  12.399   9.523
68301SOL     OW 4926  11.676  12.740  10.220
68301SOL    HW1 4927  11.742  12.814  10.229
68301SOL    HW2 4928  11.720  12.661  10.178
68302SOL     OW 4929  12.174  11.968  10.548
68302SOL    HW1 4930  12.215  11.936  10.634
68302SOL    HW2 4931  12.078  11.941  10.545
68303SOL     OW 4932  11.212  11.716  10.424
68303SOL    HW1 4933  11.297  11.683  10.383
68303SOL    HW2 4934  11.225  11.731  10.522
68304SOL     OW 4935  11.361  11.692  11.032
68304SOL    HW1 4936  11.420  11.652  10.962
68304SOL    HW2 4937  11.303  11.763  10.991
68305SOL     OW 4938  12.541  12.122  10.970
68305SOL    HW1 4939  12.580  12.211  10.990
68305SOL    HW2 4940  12.551  12.102  10.873
68306SOL     OW 4941  11.987  11.744   9.635
68306SOL    HW1 4942  11.994  11.655   9.589
68306SOL    HW2 4943  11.893  11.778   9.627
68307SOL     OW 4944  11.424  12.736  11.054
68307SOL    HW1 4945  11.394  12.793  11.130
68307SOL    HW2 4946  11.417  12.639  11.080
68308SOL     OW 4947  11.843  11.636  10.579
68308SOL    HW1 4948  11.809  11.547  10.549
68308SOL    HW2 4949  11.869  11.690  10.499
68309SOL     OW 4950  11.645  11.672   9.501
68309SOL    HW1 4951  11.706  11.752   9.505
68309SOL    HW2 4952  11.550  11.703   9.508
68310SOL     OW 4953  11.331  12.309  10.776
68310SOL    HW1 4954  11.353  12.248  10.852
68310SOL    HW2 4955  11.341  12.260  10.690
68311SOL     OW 4956  12.519  12.231  10.544
68311SOL    HW1 4957  12.543  12.168  10.470
68311SOL    HW2 4958  12.429  12.271  10.526
68312SOL     OW 4959  12.474  12.027   9.619
68312SOL    HW1 4960  12.388  11.996   9.661
68312SOL    HW2 4961  12.470  12.013   9.520
68313SOL     OW 4962  12.931  12.919  10.464
68313SOL    HW1 4963  12.992  12.949  10.391
68313SOL    HW2 4964  12.893  12.830  10.442
68314SOL     OW 4965  12.424  12.903  10.438
68314SOL    HW1 4966  12.508  12.908  10.384
68314SOL    HW2 4967  12.401  12.807  10.456
68315SOL     OW 4968  11.255  12.430  10.332
68315SOL    HW1 4969  11.250  12.429  10.432
68315SOL    HW2 4970  11.172  12.389  10.294
68316SOL     OW 4971  12.898  11.307   9.833
68316SOL    HW1 4972  12.971  11.290   9.766
68316SOL    HW2 4973  12.867  11.220   9.871
68317SOL     OW 4974  11.302  12.966  11.161
68317SOL    HW1 4975  11.261  12.892  11.214
68317SOL    HW2 4976  11.366  13.017  11.219
68318SOL     OW 4977  12.452  12.099   9.982
68318SOL    HW1 4978  12.512  12.018   9.984
68318SOL    HW2 4979  12.492  12.168   9.922
68319SOL     OW 4980  12.002  12.445  10.732
68319SOL    HW1 4981  11.997  12.478  10.827
68319SOL    HW2 4982  11.916  12.464  10.686
68320SOL     OW 4983  11.844  12.788   9.464
68320SOL    HW1 4984  11.853  12.798   9.365
68320SOL    HW2 4985  11.804  12.699   9.485
68321SOL     OW 4986  11.435  11.498  10.030
68321SOL    HW1 4987  11.356  11.549   9.996
68321SOL    HW2 4988  11.426  11.483  10.128
68322SOL     OW 4989  12.366  12.784   9.341
68322SOL    HW1 4990  12.372  12.691   9.378
68322SOL    HW2 4991  12.307  12.784   9.261
68323SOL     OW 4992  11.994  12.174  10.682
68323SOL    HW1 4993  12.034  12.173  10.590
68323SOL    HW2 4994  12.004  12.266  10.722
68324SOL     OW 4995  12.088  12.082   9.601
68324SOL    HW1 4996  12.151  12.120   9.533
68324SOL    HW2 4997  12.128  11.999   9.640
68325SOL     OW 4998  11.544  12.460  10.800
68325SOL    HW1 4999  11.531  12.553  10.766
68325SOL    HW2 5000  11.460  12.408  10.787
68326SOL     OW 5001  12.211  12.270  10.006
68326SOL    HW1 5002  12.141  12.223  10.060
68326SOL    HW2 5003  12.270  12.202   9.963
68327SOL     OW 5004  12.186  11.408  10.281
68327SOL    HW1 5005  12.178  11.372  10.188
68327SOL    HW2 5006  12.184  11.332  10.346
68328SOL     OW 5007  11.762  12.659   9.801
68328SOL    HW1 5008  11.804  12.601   9.731
68328SOL    HW2 5009  11.718  12.738   9.757
68329SOL     OW 5010  11.427  12.520   9.600
68329SOL    HW1 5011  11.331  12.521   9.573
68329SOL    HW2 5012  11.439  12.573   9.684
68330SOL     OW 5013  11.844  11.375  10.799
68330SOL    HW1 5014  11.934  11.359  10.759
68330SOL    HW2 5015  11.852  11.380  10.898
68331SOL     OW 5016  11.247  11.517   9.343
68331SOL    HW1 5017  11.155  11.489   9.314
68331SOL    HW2 5018  11.278  11.594   9.287
68332SOL     OW 5019  12.612  12.028  10.708
68332SOL    HW1 5020  12.555  12.080  10.645
68332SOL    HW2 5021  12.708  12.040  10.684
68333SOL     OW 5022  11.244  11.338   9.628
68333SOL    HW1 5023  11.227  11.421   9.574
68333SOL    HW2 5024  11.334  11.301   9.606
68334SOL     OW 5025  12.355  12.507   9.429
68334SOL    HW1 5026  12.256  12.496   9.431
68334SOL    HW2 5027  12.389  12.522   9.522
68335SOL     OW 5028  11.785  12.014  10.741
68335SOL    HW1 5029  11.841  12.095  10.724
68335SOL    HW2 5030  11.844  11.934  10.744
68336SOL     OW 5031  11.888  11.737  11.018
68336SOL    HW1 5032  11.907  11.802  11.092
68336SOL    HW2 5033  11.948  11.657  11.027
68337SOL     OW 5034  12.622  12.392  10.943
68337SOL    HW1 5035  12.613  12.382  11.042
68337SOL    HW2 5036  12.718  12.385  10.917
68338SOL     OW 5037  12.397  11.497   9.759
68338SOL    HW1 5038  12.462  11.423   9.748
68338SOL    HW2 5039  12.417  11.547   9.843
68339SOL     OW 5040  11.766  11.917   9.962
68339SOL    HW1 5041  11.816  12.002   9.943
68339SOL    HW2 5042  11.678  11.919   9.914
68340SOL     OW 5043  12.031  12.546   9.326
68340SOL    HW1 5044  11.985  12.561   9.414
68340SOL    HW2 5045  12.075  12.631   9.296
68341SOL     OW 5046  12.580  13.023  11.030
68341SOL    HW1 5047  12.484  13.012  11.003
68341SOL    HW2 5048  12.636  12.956  10.982
68342SOL     OW 5049  12.031  12.128  10.171
68342SOL    HW1 5050  12.085  12.059  10.219
68342SOL    HW2 5051  11.999  12.197  10.237
68343SOL     OW 5052  12.255  12.156   9.397
68343SOL    HW1 5053  12.232  12.209   9.315
68343SOL    HW2 5054  12.336  12.100   9.378
68344SOL     OW 5055  13.033  12.741  10.161
68344SOL    HW1 5056  12.962  12.729  10.091
68344SOL    HW2 5057  13.034  12.662  10.221
68345SOL     OW 5058  11.393  12.486  11.154
68345SOL    HW1 5059  11.328  12.413  11.133
68345SOL    HW2 5060  11.397  12.500  11.252
68346SOL     OW 5061  11.251  12.412   9.963
68346SOL    HW1 5062  11.250  12.365  10.051
68346SOL    HW2 5063  11.333  12.384   9.912
68347SOL     OW 5064  11.844  12.563  10.934
68347SOL    HW1 5065  11.766  12.513  10.972
68347SOL    HW2 5066  11.841  12.658  10.965
68348SOL     OW 5067  11.600  11.596   9.830
68348SOL    HW1 5068  11.630  11.524   9.768
68348SOL    HW2 5069  11.561  11.556   9.913
68349SOL     OW 5070  11.489  11.719  10.590
68349SOL    HW1 5071  11.527  11.660  10.662
68349SOL    HW2 5072  11.529  11.693  10.502
68350SOL     OW 5073  12.596  11.386  10.422
68350SOL    HW1 5074  12.648  11.321  10.477
68350SOL    HW2 5075  12.547  11.449  10.483
68351SOL     OW 5076  12.173  11.206  10.464
68351SOL    HW1 5077  12.110  11.134  10.433
68351SOL    HW2 5078  12.266  11.170  10.464
68352SOL     OW 5079  11.942  12.502   9.611
68352SOL    HW1 5080  11.896  12.415   9.628
68352SOL    HW2 5081  12.033  12.499   9.652
68353SOL     OW 5082  11.790  12.739  10.594
68353SOL    HW1 5083  11.785  12.821  10.651
68353SOL    HW2 5084  11.879  12.736  10.549
68354SOL     OW 5085  12.524  11.224   9.478
68354SOL    HW1 5086  12.559  11.183   9.394
68354SOL    HW2 5087  12.434  11.186   9.498
68355SOL     OW 5088  12.472  11.625  10.001
68355SOL    HW1 5089  12.413  11.705  10.005
68355SOL    HW2 5090  12.487  11.590  10.094
68356SOL     OW 5091  12.765  11.393  10.192
68356SOL    HW1 5092  12.681  11.392  10.246
68356SOL    HW2 5093  12.767  11.476  10.136
68357SOL     OW 5094  11.211  12.249   9.610
68357SOL    HW1 5095  11.310  12.238   9.601
68357SOL    HW2 5096  11.171  12.163   9.642
68358SOL     OW 5097  11.402  11.800  11.285
68358SOL    HW1 5098  11.309  11.798  11.322
68358SOL    HW2 5099  11.403  11.761  11.193
68359SOL     OW 5100  11.397  11.447  12.168
68359SOL    HW1 5101  11.432  11.430  12.260
68359SOL    HW2 5102  11.309  11.402  12.156
68360SOL     OW 5103  11.191  11.540  11.819
68360SOL    HW1 5104  11.109  11.583  11.858
68360SOL    HW2 5105  11.163  11.467  11.756
68361SOL     OW 5106  11.741  12.447  12.337
68361SOL    HW1 5107  11.648  12.440  12.300
68361SOL    HW2 5108  11.752  12.536  12.381
68362SOL     OW 5109  12.727  12.683  11.875
68362SOL    HW1 5110  12.670  12.667  11.956
68362SOL    HW2 5111  12.668  12.693  11.795
68363SOL     OW 5112  12.307  11.875  11.889
68363SOL    HW1 5113  12.364  11.953  11.864
68363SOL    HW2 5114  12.247  11.901  11.965
68364SOL     OW 5115  11.940  12.316  12.195
68364SOL    HW1 5116  11.862  12.333  12.255
68364SOL    HW2 5117  11.974  12.403  12.159
68365SOL     OW 5118  11.857  12.184  11.837
68365SOL    HW1 5119  11.926  12.168  11.907
68365SOL    HW2 5120  11.784  12.241  11.875
68366SOL     OW 5121  11.507  12.607  12.233
68366SOL    HW1 5122  11.429  12.576  12.180
68366SOL    HW2 5123  11.565  12.665  12.176
68367SOL     OW 5124  12.632  12.677  12.511
68367SOL    HW1 5125  12.656  12.771  12.537
68367SOL    HW2 5126  12.616  12.623  12.593
68368SOL     OW 5127  11.610  11.564  12.671
68368SOL    HW1 5128  11.692  11.508  12.680
68368SOL    HW2 5129  11.529  11.506  12.675
68369SOL     OW 5130  11.412  12.263  12.058
68369SOL    HW1 5131  11.426  12.179  12.110
68369SOL    HW2 5132  11.357  12.327  12.113
68370SOL     OW 5133  11.778  12.136  11.295
68370SOL    HW1 5134  11.785  12.220  11.241
68370SOL    HW2 5135  11.824  12.149  11.383
68371SOL     OW 5136  12.766  11.286  12.652
68371SOL    HW1 5137  12.748  11.353  12.580
68371SOL    HW2 5138  12.763  11.332  12.741
68372SOL     OW 5139  11.294  11.815  11.735
68372SOL    HW1 5140  11.249  11.727  11.752
68372SOL    HW2 5141  11.293  11.869  11.819
68373SOL     OW 5142  11.199  12.768  11.289
68373SOL    HW1 5143  11.180  12.672  11.310
68373SOL    HW2 5144  11.166  12.826  11.364
68374SOL     OW 5145  12.861  12.094  11.784
68374SOL    HW1 5146  12.956  12.065  11.792
68374SOL    HW2 5147  12.853  12.159  11.709
68375SOL     OW 5148  11.285  11.909  12.769
68375SOL    HW1 5149  11.373  11.896  12.814
68375SOL    HW2 5150  11.272  12.006  12.747
68376SOL     OW 5151  11.785  12.537  11.898
68376SOL    HW1 5152  11.736  12.450  11.907
68376SOL    HW2 5153  11.762  12.580  11.811
68377SOL     OW 5154  12.465  12.400  12.595
68377SOL    HW1 5155  12.502  12.327  12.537
68377SOL    HW2 5156  12.517  12.405  12.680
68378SOL     OW 5157  11.981  11.176  11.674
68378SOL    HW1 5158  12.021  11.267  11.665
68378SOL    HW2 5159  11.881  11.184  11.680
68379SOL     OW 5160  11.369  12.148  12.436
68379SOL    HW1 5161  11.458  12.103  12.422
68379SOL    HW2 5162  11.296  12.083  12.417
68380SOL     OW 5163  12.638  12.589  12.125
68380SOL    HW1 5164  12.579  12.595  12.205
68380SOL    HW2 5165  12.623  12.501  12.079
68381SOL     OW 5166  11.770  11.901  11.442
68381SOL    HW1 5167  11.794  11.970  11.374
68381SOL    HW2 5168  11.692  11.934  11.496
68382SOL     OW 5169  12.453  11.517  12.116
68382SOL    HW1 5170  12.367  11.467  12.103
68382SOL    HW2 5171  12.515  11.463  12.172
68383SOL     OW 5172  11.979  11.777  12.637
68383SOL    HW1 5173  11.932  11.774  12.726
68383SOL    HW2 5174  11.928  11.722  12.571
68384SOL     OW 5175  12.145  12.062  12.744
68384SOL    HW1 5176  12.191  11.978  12.715
68384SOL    HW2 5177  12.089  12.096  12.669
68385SOL     OW 5178  12.163  11.582  12.414
68385SOL    HW1 5179  12.086  11.616  12.468
68385SOL    HW2 5180  12.129  11.531  12.335
68386SOL     OW 5181  12.213  11.873  11.601
68386SOL    HW1 5182  12.239  11.869  11.697
68386SOL    HW2 5183  12.128  11.822  11.587
68387SOL     OW 5184  11.248  11.983  11.961
68387SOL    HW1 5185  11.347  11.971  11.970
68387SOL    HW2 5186  11.224  12.078  11.982
68388SOL     OW 5187  12.037  11.520  11.367
68388SOL    HW1 5188  12.096  11.583  11.318
68388SOL    HW2 5189  12.056  11.426  11.338
68389SOL     OW 5190  12.534  12.316  11.717
68389SOL    HW1 5191  12.617  12.287  11.669
68389SOL    HW2 5192  12.485  12.383  11.661
68390SOL     OW 5193  11.722  11.368  12.057
68390SOL    HW1 5194  11.717  11.363  12.157
68390SOL    HW2 5195  11.724  11.464  12.028
68391SOL     OW 5196  12.180  12.628  11.649
68391SOL    HW1 5197  12.134  12.700  11.597
68391SOL    HW2 5198  12.176  12.648  11.747
68392SOL     OW 5199  12.399  12.722  12.678
68392SOL    HW1 5200  12.405  12.645  12.742
68392SOL    HW2 5201  12.347  12.696  12.598
68393SOL     OW 5202  11.493  12.115  11.414
68393SOL    HW1 5203  11.575  12.154  11.372
68393SOL    HW2 5204  11.466  12.033  11.365
68394SOL     OW 5205  12.630  11.907  11.900
68394SOL    HW1 5206  12.625  11.842  11.975
68394SOL    HW2 5207  12.710  11.966  11.913
68395SOL     OW 5208  11.374  11.457  12.670
68395SOL    HW1 5209  11.294  11.517  12.657
68395SOL    HW2 5210  11.364  11.408  12.756
68396SOL     OW 5211  12.572  11.279  11.598
68396SOL    HW1 5212  12.548  11.242  11.508
68396SOL    HW2 5213  12.671  11.295  11.602
68397SOL     OW 5214  11.554  11.872  11.652
68397SOL    HW1 5215  11.599  11.782  11.649
68397SOL    HW2 5216  11.460  11.861  11.685
68398SOL     OW 5217  11.786  11.294  11.289
68398SOL    HW1 5218  11.884  11.272  11.296
68398SOL    HW2 5219  11.755  11.277  11.196
68399SOL     OW 5220  12.523  11.762  12.605
68399SOL    HW1 5221  12.551  11.719  12.690
68399SOL    HW2 5222  12.548  11.858  12.606
68400SOL     OW 5223  11.975  12.574  12.096
68400SOL    HW1 5224  12.065  12.588  12.054
68400SOL    HW2 5225  11.904  12.576  12.025
68401SOL     OW 5226  12.094  11.675  12.071
68401SOL    HW1 5227  12.069  11.666  11.975
68401SOL    HW2 5228  12.142  11.593  12.102
68402SOL     OW 5229  11.711  11.236  11.684
68402SOL    HW1 5230  11.630  11.237  11.742
68402SOL    HW2 5231  11.714  11.319  11.629
68403SOL     OW 5232  12.606  12.360  11.213
68403SOL    HW1 5233  12.638  12.284  11.270
68403SOL    HW2 5234  12.514  12.387  11.243
68404SOL     OW 5235  11.469  11.207  11.343
68404SOL    HW1 5236  11.518  11.291  11.322
68404SOL    HW2 5237  11.531  11.142  11.388
68405SOL     OW 5238  12.107  11.408  11.652
68405SOL    HW1 5239  12.059  11.449  11.574
68405SOL    HW2 5240  12.206  11.406  11.633
68406SOL     OW 5241  12.248  11.855  12.636
68406SOL    HW1 5242  12.168  11.794  12.639
68406SOL    HW2 5243  12.329  11.802  12.612
68407SOL     OW 5244  12.399  12.742  11.965
68407SOL    HW1 5245  12.420  12.816  11.900
68407SOL    HW2 5246  12.467  12.742  12.038
68408SOL     OW 5247  11.631  12.324  11.913
68408SOL    HW1 5248  11.560  12.297  11.978
68408SOL    HW2 5249  11.605  12.296  11.820
68409SOL     OW 5250  12.204  11.721  11.188
68409SOL    HW1 5251  12.163  11.803  11.149
68409SOL    HW2 5252  12.268  11.747  11.261
68410SOL     OW 5253  11.250  11.728  12.558
68410SOL    HW1 5254  11.342  11.727  12.517
68410SOL    HW2 5255  11.244  11.802  12.625
68411SOL     OW 5256  11.733  11.394  12.319
68411SOL    HW1 5257  11.771  11.310  12.356
68411SOL    HW2 5258  11.645  11.413  12.363
68412SOL     OW 5259  12.038  11.626  11.814
68412SOL    HW1 5260  12.006  11.698  11.752
68412SOL    HW2 5261  12.062  11.545  11.761
68413SOL     OW 5262  12.189  11.211  11.925
68413SOL    HW1 5263  12.117  11.216  11.856
68413SOL    HW2 5264  12.165  11.142  11.994
68414SOL     OW 5265  12.601  12.345  12.039
68414SOL    HW1 5266  12.546  12.261  12.032
68414SOL    HW2 5267  12.627  12.374  11.947
68415SOL     OW 5268  12.638  11.762  12.164
68415SOL    HW1 5269  12.608  11.667  12.171
68415SOL    HW2 5270  12.711  11.778  12.230
68416SOL     OW 5271  11.660  12.557  11.346
68416SOL    HW1 5272  11.573  12.542  11.393
68416SOL    HW2 5273  11.643  12.583  11.251
68417SOL     OW 5274  12.562  11.747  11.250
68417SOL    HW1 5275  12.508  11.726  11.331
68417SOL    HW2 5276  12.653  11.706  11.259
68418SOL     OW 5277  11.699  11.428  11.500
68418SOL    HW1 5278  11.726  11.369  11.425
68418SOL    HW2 5279  11.699  11.523  11.469
68419SOL     OW 5280  12.236  12.519  12.512
68419SOL    HW1 5281  12.156  12.496  12.567
68419SOL    HW2 5282  12.319  12.493  12.561
68420SOL     OW 5283  12.283  12.367  12.272
68420SOL    HW1 5284  12.243  12.411  12.353
68420SOL    HW2 5285  12.242  12.404  12.189
68421SOL     OW 5286  12.087  11.261  12.574
68421SOL    HW1 5287  12.112  11.241  12.479
68421SOL    HW2 5288  12.159  11.317  12.616
68422SOL     OW 5289  11.877  12.222  11.540
68422SOL    HW1 5290  11.863  12.229  11.639
68422SOL    HW2 5291  11.961  12.171  11.522
68423SOL     OW 5292  11.582  11.985  12.423
68423SOL    HW1 5293  11.668  11.997  12.473
68423SOL    HW2 5294  11.540  11.898  12.450
68424SOL     OW 5295  12.446  11.558  12.434
68424SOL    HW1 5296  12.467  11.632  12.498
68424SOL    HW2 5297  12.357  11.575  12.391
68425SOL     OW 5298  11.236  12.736  12.503
68425SOL    HW1 5299  11.190  12.818  12.469
68425SOL    HW2 5300  11.334  12.755  12.512
68426SOL     OW 5301  11.539  12.272  11.673
68426SOL    HW1 5302  11.532  12.355  11.617
68426SOL    HW2 5303  11.543  12.192  11.613
68427SOL     OW 5304  11.738  11.709  12.037
68427SOL    HW1 5305  11.750  11.775  11.963
68427SOL    HW2 5306  11.784  11.743  12.120
68428SOL     OW 5307  12.424  12.520  11.560
68428SOL    HW1 5308  12.474  12.597  11.600
68428SOL    HW2 5309  12.329  12.522  11.592
68429SOL     OW 5310  12.444  12.617  12.314
68429SOL    HW1 5311  12.491  12.630  12.401
68429SOL    HW2 5312  12.378  12.543  12.323
68430SOL     OW 5313  12.754  11.811  11.644
68430SOL    HW1 5314  12.723  11.872  11.717
68430SOL    HW2 5315  12.804  11.863  11.575
68431SOL     OW 5316  11.526  12.682  12.501
68431SOL    HW1 5317  11.505  12.638  12.414
68431SOL    HW2 5318  11.623  12.708  12.504
68432SOL     OW 5319  11.574  11.923  12.770
68432SOL    HW1 5320  11.642  11.978  12.723
68432SOL    HW2 5321  11.614  11.835  12.797
68433SOL     OW 5322  11.745  12.042  12.201
68433SOL    HW1 5323  11.789  12.131  12.192
68433SOL    HW2 5324  11.682  12.042  12.278
68434SOL     OW 5325  12.532  12.034  12.217
68434SOL    HW1 5326  12.457  12.034  12.151
68434SOL    HW2 5327  12.569  11.942  12.226
68435SOL     OW 5328  12.381  11.697  11.447
68435SOL    HW1 5329  12.394  11.613  11.501
68435SOL    HW2 5330  12.352  11.771  11.507
68436SOL     OW 5331  11.479  11.385  12.403
68436SOL    HW1 5332  11.456  11.422  12.493
68436SOL    HW2 5333  11.449  11.290  12.397
68437SOL     OW 5334  11.209  12.482  12.454
68437SOL    HW1 5335  11.262  12.433  12.522
68437SOL    HW2 5336  11.231  12.580  12.459
68438SOL     OW 5337  11.904  11.806  12.236
68438SOL    HW1 5338  11.963  11.780  12.160
68438SOL    HW2 5339  11.876  11.902  12.225
68439SOL     OW 5340  11.479  11.235  11.790
68439SOL    HW1 5341  11.468  11.329  11.823
68439SOL    HW2 5342  11.474  11.172  11.867
68440SOL     OW 5343  12.794  11.539  11.546
68440SOL    HW1 5344  12.796  11.463  11.610
68440SOL    HW2 5345  12.746  11.616  11.586
68441SOL     OW 5346  12.195  11.938  12.138
68441SOL    HW1 5347  12.210  11.959  12.234
68441SOL    HW2 5348  12.165  11.843  12.129
68442SOL     OW 5349  13.031  12.690  12.777
68442SOL    HW1 5350  13.045  12.717  12.682
68442SOL    HW2 5351  13.114  12.712  12.830
68443SOL     OW 5352  12.712  11.446  11.297
68443SOL    HW1 5353  12.651  11.371  11.320
68443SOL    HW2 5354  12.734  11.498  11.380
68444SOL     OW 5355  12.475  12.010  11.214
68444SOL    HW1 5356  12.509  11.917  11.229
68444SOL    HW2 5357  12.493  12.037  11.119
68445SOL     OW 5358  12.240  12.505  12.021
68445SOL    HW1 5359  12.247  12.421  11.966
68445SOL    HW2 5360  12.302  12.574  11.985
68446SOL     OW 5361  11.491  11.982  12.121
68446SOL    HW1 5362  11.584  12.018  12.126
68446SOL    HW2 5363  11.485  11.897  12.173
68447SOL     OW 5364  11.511  11.681  12.178
68447SOL    HW1 5365  11.459  11.598  12.161
68447SOL    HW2 5366  11.588  11.686  12.114
68448SOL     OW 5367  12.332  11.379  12.649
68448SOL    HW1 5368  12.332  11.443  12.726
68448SOL    HW2 5369  12.360  11.427  12.566
68449SOL     OW 5370  11.180  12.498  11.372
68449SOL    HW1 5371  11.087  12.519  11.341
68449SOL    HW2 5372  11.190  12.399  11.385
68450SOL     OW 5373  11.676  12.740  12.082
68450SOL    HW1 5374  11.742  12.814  12.091
68450SOL    HW2 5375  11.720  12.661  12.040
68451SOL     OW 5376  12.174  11.968  12.410
68451SOL    HW1 5377  12.215  11.936  12.496
68451SOL    HW2 5378  12.078  11.941  12.407
68452SOL     OW 5379  11.212  11.716  12.286
68452SOL    HW1 5380  11.297  11.683  12.245
68452SOL    HW2 5381  11.225  11.731  12.384
68453SOL     OW 5382  11.987  11.744  11.497
68453SOL    HW1 5383  11.994  11.655  11.451
68453SOL    HW2 5384  11.893  11.778  11.489
68454SOL     OW 5385  11.843  11.636  12.441
68454SOL    HW1 5386  11.809  11.547  12.411
68454SOL    HW2 5387  11.869  11.690  12.361
68455SOL     OW 5388  11.645  11.672  11.363
68455SOL    HW1 5389  11.706  11.752  11.367
68455SOL    HW2 5390  11.550  11.703  11.370
68456SOL     OW 5391  11.331  12.309  12.638
68456SOL    HW1 5392  11.353  12.248  12.714
68456SOL    HW2 5393  11.341  12.260  12.552
68457SOL     OW 5394  12.519  12.231  12.406
68457SOL    HW1 5395  12.543  12.168  12.332
68457SOL    HW2 5396  12.429  12.271  12.388
68458SOL     OW 5397  12.474  12.027  11.481
68458SOL    HW1 5398  12.388  11.996  11.523
68458SOL    HW2 5399  12.470  12.013  11.382
68459SOL     OW 5400  12.931  12.919  12.326
68459SOL    HW1 5401  12.992  12.949  12.253
68459SOL    HW2 5402  12.893  12.830  12.304
68460SOL     OW 5403  12.424  12.903  12.300
68460SOL    HW1 5404  12.508  12.908  12.246
68460SOL    HW2 5405  12.401  12.807  12.318
68461SOL     OW 5406  11.255  12.430  12.194
68461SOL    HW1 5407  11.250  12.429  12.294
68461SOL    HW2 5408  11.172  12.389  12.156
68462SOL     OW 5409  12.898  11.307  11.695
68462SOL    HW1 5410  12.971  11.290  11.628
68462SOL    HW2 5411  12.867  11.220  11.733
68463SOL     OW 5412  12.452  12.099  11.844
68463SOL    HW1 5413  12.512  12.018  11.846
68463SOL    HW2 5414  12.492  12.168  11.784
68464SOL     OW 5415  12.002  12.445  12.594
68464SOL    HW1 5416  11.997  12.478  12.689
68464SOL    HW2 5417  11.916  12.464  12.548
68465SOL     OW 5418  11.844  12.788  11.326
68465SOL    HW1 5419  11.853  12.798  11.227
68465SOL    HW2 5420  11.804  12.699  11.347
68466SOL     OW 5421  11.435  11.498  11.892
68466SOL    HW1 5422  11.356  11.549  11.858
68466SOL    HW2 5423  11.426  11.483  11.990
68467SOL     OW 5424  12.366  12.784  11.203
68467SOL    HW1 5425  12.372  12.691  11.240
68467SOL    HW2 5426  12.307  12.784  11.123
68468SOL     OW 5427  11.994  12.174  12.544
68468SOL    HW1 5428  12.034  12.173  12.452
68468SOL    HW2 5429  12.004  12.266  12.584
68469SOL     OW 5430  12.088  12.082  11.463
68469SOL    HW1 5431  12.151  12.120  11.395
68469SOL    HW2 5432  12.128  11.999  11.502
68470SOL     OW 5433  11.544  12.460  12.662
68470SOL    HW1 5434  11.531  12.553  12.628
68470SOL    HW2 5435  11.460  12.408  12.649
68471SOL     OW 5436  12.211  12.270  11.868
68471SOL    HW1 5437  12.141  12.223  11.922
68471SOL    HW2 5438  12.270  12.202  11.825
68472SOL     OW 5439  12.186  11.408  12.143
68472SOL    HW1 5440  12.178  11.372  12.050
68472SOL    HW2 5441  12.184  11.332  12.208
68473SOL     OW 5442  11.762  12.659  11.663
68473SOL    HW1 5443  11.804  12.601  11.593
68473SOL    HW2 5444  11.718  12.738  11.619
68474SOL     OW 5445  11.427  12.520  11.462
68474SOL    HW1 5446  11.331  12.521  11.435
68474SOL    HW2 5447  11.439  12.573  11.546
68475SOL     OW 5448  11.277  12.185  12.898
68475SOL    HW1 5449  11.200  12.152  12.952
68475SOL    HW2 5450  11.362  12.155  12.940
68476SOL     OW 5451  11.844  11.375  12.661
68476SOL    HW1 5452  11.934  11.359  12.621
68476SOL    HW2 5453  11.852  11.380  12.760
68477SOL     OW 5454  11.247  11.517  11.205
68477SOL    HW1 5455  11.155  11.489  11.176
68477SOL    HW2 5456  11.278  11.594  11.149
68478SOL     OW 5457  12.612  12.028  12.570
68478SOL    HW1 5458  12.555  12.080  12.507
68478SOL    HW2 5459  12.708  12.040  12.546
68479SOL     OW 5460  11.244  11.338  11.490
68479SOL    HW1 5461  11.227  11.421  11.436
68479SOL    HW2 5462  11.334  11.301  11.468
68480SOL     OW 5463  12.355  12.507  11.291
68480SOL    HW1 5464  12.256  12.496  11.293
68480SOL    HW2 5465  12.389  12.522  11.384
68481SOL     OW 5466  11.785  12.014  12.603
68481SOL    HW1 5467  11.841  12.095  12.586
68481SOL    HW2 5468  11.844  11.934  12.606
68482SOL     OW 5469  11.888  11.737  12.880
68482SOL    HW1 5470  11.907  11.802  12.954
68482SOL    HW2 5471  11.948  11.657  12.889
68483SOL     OW 5472  11.562  12.913  12.732
68483SOL    HW1 5473  11.471  12.954  12.730
68483SOL    HW2 5474  11.555  12.819  12.764
68484SOL     OW 5475  12.397  11.497  11.621
68484SOL    HW1 5476  12.462  11.423  11.610
68484SOL    HW2 5477  12.417  11.547  11.705
68485SOL     OW 5478  11.766  11.917  11.824
68485SOL    HW1 5479  11.816  12.002  11.805
68485SOL    HW2 5480  11.678  11.919  11.776
68486SOL     OW 5481  12.031  12.546  11.188
68486SOL    HW1 5482  11.985  12.561  11.276
68486SOL    HW2 5483  12.075  12.631  11.158
68487SOL     OW 5484  12.031  12.128  12.033
68487SOL    HW1 5485  12.085  12.059  12.081
68487SOL    HW2 5486  11.999  12.197  12.099
68488SOL     OW 5487  12.255  12.156  11.259
68488SOL    HW1 5488  12.232  12.209  11.177
68488SOL    HW2 5489  12.336  12.100  11.240
68489SOL     OW 5490  13.033  12.741  12.023
68489SOL    HW1 5491  12.962  12.729  11.953
68489SOL    HW2 5492  13.034  12.662  12.083
68490SOL     OW 5493  11.251  12.412  11.825
68490SOL    HW1 5494  11.250  12.365  11.913
68490SOL    HW2 5495  11.333  12.384  11.774
68491SOL     OW 5496  11.844  12.563  12.796
68491SOL    HW1 5497  11.766  12.513  12.834
68491SOL    HW2 5498  11.841  12.658  12.827
68492SOL     OW 5499  11.600  11.596  11.692
68492SOL    HW1 5500  11.630  11.524  11.630
68492SOL    HW2 5501  11.561  11.556  11.775
68493SOL     OW 5502  11.489  11.719  12.452
68493SOL    HW1 5503  11.527  11.660  12.524
68493SOL    HW2 5504  11.529  11.693  12.364
68494SOL     OW 5505  12.596  11.386  12.284
68494SOL    HW1 5506  12.648  11.321  12.339
68494SOL    HW2 5507  12.547  11.449  12.345
68495SOL     OW 5508  12.173  11.206  12.326
68495SOL    HW1 5509  12.110  11.134  12.295
68495SOL    HW2 5510  12.266  11.170  12.326
68496SOL     OW 5511  11.942  12.502  11.473
68496SOL    HW1 5512  11.896  12.415  11.490
68496SOL    HW2 5513  12.033  12.499  11.514
68497SOL     OW 5514  11.790  12.739  12.456
68497SOL    HW1 5515  11.785  12.821  12.513
68497SOL    HW2 5516  11.879  12.736  12.411
68498SOL     OW 5517  12.524  11.224  11.340
68498SOL    HW1 5518  12.559  11.183  11.256
68498SOL    HW2 5519  12.434  11.186  11.360
68499SOL     OW 5520  12.472  11.625  11.863
68499SOL    HW1 5521  12.413  11.705  11.867
68499SOL    HW2 5522  12.487  11.590  11.956
68500SOL     OW 5523  12.765  11.393  12.054
68500SOL    HW1 5524  12.681  11.392  12.108
68500SOL    HW2 5525  12.767  11.476  11.998
68501SOL     OW 5526  11.211  12.249  11.472
68501SOL    HW1 5527  11.310  12.238  11.463
68501SOL    HW2 5528  11.171  12.163  11.504
68502NA      NA 5529   1.614   1.292   3.151
68503NA      NA 5530   1.466   0.590  10.302
68504NA      NA 5531   0.202   0.285  12.670
68505NA      NA 5532   0.770   5.054   4.025
68506NA      NA 5533   0.686   4.885   7.389
68507NA      NA 5534   1.111   5.500   5.823
68508NA      NA 5535   1.555   7.097   0.703
68509NA      NA 5536   0.672   7.202   2.016
68510NA      NA 5537   0.225   5.861  10.306
68511NA      NA 5538   1.614   6.878  10.599
68512NA      NA 5539   0.159  10.447   3.328
68513NA      NA 5540   0.865   9.658   3.919
68514NA      NA 5541   1.777   9.652   5.366
68515NA      NA 5542   1.076   9.993   7.050
68516NA      NA 5543   1.622  11.539   2.236
68517NA      NA 5544   1.138  11.552   3.540
68518NA      NA 5545   1.064  12.519  10.650
68519NA      NA 5546   0.807  11.777  12.637
68520NA      NA 5547   2.876   0.236   0.971
68521NA      NA 5548   2.480   1.567   1.284
68522NA      NA 5549   2.548   1.161   5.527
68523NA      NA 5550   2.213   1.801   4.577
68524NA      NA 5551   3.143   0.345   6.530
68525NA      NA 5552   2.684   1.002  12.544
68526NA      NA 5553   3.056   3.474   1.893
68527NA      NA 5554   2.632   3.192   4.025
68528NA      NA 5555   2.926   3.209  12.512
68529NA      NA 5556   2.853   4.134   1.242
68530NA      NA 5557   2.111   5.509   6.827
68531NA      NA 5558   3.590   4.659   9.302
68532NA      NA 5559   1.940   4.280  10.696
68533NA      NA 5560   2.534   5.115  10.934
68534NA      NA 5561   2.428   6.123   0.865
68535NA      NA 5562   2.842   7.159   3.562
68536NA      NA 5563   2.366   7.154   4.634
68537NA      NA 5564   3.136   5.972   6.848
68538NA      NA 5565   2.272   6.399   8.699
68539NA      NA 5566   2.630   6.730  12.195
68540NA      NA 5567   3.590   8.383   3.716
68541NA      NA 5568   3.256   9.779   5.398
68542NA      NA 5569   2.989  10.651   9.138
68543NA      NA 5570   2.335   9.810   7.639
68544NA      NA 5571   2.475  10.675  11.898
68545NA      NA 5572   2.159  11.207   3.895
68546NA      NA 5573   3.590  12.107   5.578
68547NA      NA 5574   2.721  12.546  11.188
68548NA      NA 5575   5.190   1.417   4.677
68549NA      NA 5576   4.725   0.034   4.878
68550NA      NA 5577   4.639   0.089   6.988
68551NA      NA 5578   4.583   0.956   8.309
68552NA      NA 5579   4.998   0.386  12.434
68553NA      NA 5580   5.027   2.700   0.042
68554NA      NA 5581   4.342   3.429   1.284
68555NA      NA 5582   3.955   3.575   4.207
68556NA      NA 5583   3.954   4.352   0.113
68557NA      NA 5584   4.338   3.846   0.117
68558NA      NA 5585   4.031   3.787   8.066
68559NA      NA 5586   4.494   5.054   9.611
68560NA      NA 5587   5.346   5.953   4.098
68561NA      NA 5588   5.388   6.866   6.243
68562NA      NA 5589   4.998   5.972   6.848
68563NA      NA 5590   4.835   7.362  11.409
68564NA      NA 5591   3.955   9.161   0.483
68565NA      NA 5592   3.854   9.242   3.713
68566NA      NA 5593   5.164   8.304   5.122
68567NA      NA 5594   4.395   9.774   1.269
68568NA      NA 5595   4.096  10.598   5.214
68569NA      NA 5596   4.533  11.176   0.502
68570NA      NA 5597   4.396  12.788   0.154
68571NA      NA 5598   4.862  11.552   5.402
68572NA      NA 5599   7.208   0.367   0.374
68573NA      NA 5600   6.867   0.345   4.668
68574NA      NA 5601   6.045   1.152  10.051
68575NA      NA 5602   7.224   2.961   1.079
68576NA      NA 5603   6.090   1.912   9.188
68577NA      NA 5604   6.401   4.296   0.325
68578NA      NA 5605   6.521   3.960   2.342
68579NA      NA 5606   7.275   4.646   8.060
68580NA      NA 5607   7.162   7.248   0.307
68581NA      NA 5608   6.955   6.536   3.522
68582NA      NA 5609   7.236   7.306   5.118
68583NA      NA 5610   6.389   6.988  10.234
68584NA      NA 5611   5.623   6.896  10.592
68585NA      NA 5612   6.986   7.555   2.288
68586NA      NA 5613   7.236   9.168   3.256
68587NA      NA 5614   6.811   7.773   4.173
68588NA      NA 5615   7.227   8.556   6.018
68589NA      NA 5616   6.184   8.177   7.718
68590NA      NA 5617   7.260   8.331   8.702
68591NA      NA 5618   7.141   8.959  10.013
68592NA      NA 5619   5.817   9.161   9.793
68593NA      NA 5620   5.662   8.259  10.099
68594NA      NA 5621   7.052   8.865  12.125
68595NA      NA 5622   6.603   9.349   2.615
68596NA      NA 5623   7.275  10.232   4.336
68597NA      NA 5624   6.291  10.360   5.954
68598NA      NA 5625   6.594  10.766   9.787
68599NA      NA 5626   6.588  10.106  10.548
68600NA      NA 5627   6.976  11.747   1.940
68601NA      NA 5628   6.445  12.128  12.033
68602NA      NA 5629   8.795   1.059  10.544
68603NA      NA 5630   9.051   2.309   0.737
68604NA      NA 5631   7.936   3.247   0.174
68605NA      NA 5632   9.035   2.641   7.256
68606NA      NA 5633   8.872   2.076   8.560
68607NA      NA 5634   8.810   3.006   9.855
68608NA      NA 5635   8.559   3.638   9.547
68609NA      NA 5636   8.263   4.296   0.325
68610NA      NA 5637   8.061   5.089   2.588
68611NA      NA 5638   7.952   5.292   6.496
68612NA      NA 5639   9.309   5.293   6.437
68613NA      NA 5640   8.134   4.885  11.113
68614NA      NA 5641   8.836   5.297  11.649
68615NA      NA 5642   7.467   5.954   0.647
68616NA      NA 5643   8.042   6.331   0.652
68617NA      NA 5644   8.180   6.220   8.512
68618NA      NA 5645   8.908   8.953   6.925
68619NA      NA 5646   8.021   8.318   8.477
68620NA      NA 5647   9.115   9.162   9.882
68621NA      NA 5648   8.673   7.773   9.759
68622NA      NA 5649   8.914   9.900   0.992
68623NA      NA 5650   8.061  10.675   4.450
68624NA      NA 5651   9.024  10.972   4.031
68625NA      NA 5652   8.480   9.859   5.602
68626NA      NA 5653   8.914   9.900   8.440
68627NA      NA 5654   8.888  12.028   3.260
68628NA      NA 5655   8.153  12.222   4.092
68629NA      NA 5656   7.531  12.430  12.194
68630NA      NA 5657  10.897   0.779   1.670
68631NA      NA 5658  10.734   0.214   1.112
68632NA      NA 5659  10.657   1.059   3.096
68633NA      NA 5660   9.712   0.751   7.184
68634NA      NA 5661   9.499   0.520   9.170
68635NA      NA 5662   9.540   2.490   1.975
68636NA      NA 5663  11.065   2.469   2.093
68637NA      NA 5664  10.902   3.491   3.487
68638NA      NA 5665  10.519   2.387   7.723
68639NA      NA 5666  10.903   2.083  10.192
68640NA      NA 5667   9.748   4.116  12.671
68641NA      NA 5668  11.169   7.104   1.605
68642NA      NA 5669   9.499   6.106   1.722
68643NA      NA 5670   9.607   5.621   9.481
68644NA      NA 5671  10.290   8.564   1.719
68645NA      NA 5672   9.738   7.872   0.520
68646NA      NA 5673  10.670   8.310   6.631
68647NA      NA 5674   9.382   7.614   7.766
68648NA      NA 5675  10.657   8.507  10.544
68649NA      NA 5676   9.860   9.506   2.747
68650NA      NA 5677  10.535   9.635   4.173
68651NA      NA 5678   9.904  10.055   6.238
68652NA      NA 5679   9.540  10.744   7.986
68653NA      NA 5680  10.590  10.237   8.120
68654NA      NA 5681  10.342   9.859  11.188
68655NA      NA 5682   9.550  12.263   2.748
68656NA      NA 5683   9.617  11.385  12.403
68657NA      NA 5684  12.037   0.348   5.781
68658NA      NA 5685  12.446   0.386  10.572
68659NA      NA 5686  11.435   0.326  10.030
68660NA      NA 5687  12.638   2.452   2.854
68661NA      NA 5688  11.255   3.120   2.884
68662NA      NA 5689  11.544   3.150   5.214
68663NA      NA 5690  12.630   2.597   8.176
68664NA      NA 5691  12.444   3.307   8.590
68665NA      NA 5692  12.355   3.197  11.291
68666NA      NA 5693  11.994   4.726   1.372
68667NA      NA 5694  11.507   5.159   2.923
68668NA      NA 5695  11.981   3.728   2.364
68669NA      NA 5696  12.355   5.059   1.981
68670NA      NA 5697  12.002   4.997   7.008
68671NA      NA 5698  11.711   5.650   4.236
68672NA      NA 5699  12.665   7.353   4.683
68673NA      NA 5700  11.421   7.371   8.689
68674NA      NA 5701  11.191   5.954   9.957
68675NA      NA 5702  12.088   6.496   9.601
68676NA      NA 5703  11.539   8.548   2.363
68677NA      NA 5704  11.421   9.233   4.965
68678NA      NA 5705  11.244   7.614   4.042
68679NA      NA 5706  11.785   8.813   6.312
68680NA      NA 5707  12.534   8.592   6.131
68681NA      NA 5708  11.582   8.261   8.699
68682NA      NA 5709  12.397   7.773   7.897
68683NA      NA 5710  11.785  10.152   1.431
68684NA      NA 5711  11.539  10.410   4.225
68685NA      NA 5712  12.204   9.859   5.602
68686NA      NA 5713  12.173   9.344   8.602
68687NA      NA 5714  11.858  10.471  11.113
68688NA      NA 5715  12.038  11.626   0.642
68689NA      NA 5716  12.572  11.279   2.288
68690NA      NA 5717  12.519  12.231   3.096
68691NA      NA 5718  11.248  11.983   6.375
68692NA      NA 5719  12.310  11.552  10.988
68693NA      NA 5720  11.277  12.185  11.036
68694CL      CL 5721   0.354   1.510   5.053
68695CL      CL 5722   1.614   1.292   5.013
68696CL      CL 5723   1.594   1.976   1.480
68697CL      CL 5724   0.252   3.426   9.192
68698CL      CL 5725   1.657   4.328  12.378
68699CL      CL 5726   1.032   6.135   3.740
68700CL      CL 5727   0.613   6.428   8.879
68701CL      CL 5728   0.930   7.264  10.775
68702CL      CL 5729   0.083   6.844  12.194
68703CL      CL 5730   1.641   8.556   2.294
68704CL      CL 5731   0.850   8.246   5.547
68705CL      CL 5732   0.113   8.185   7.183
68706CL      CL 5733   0.076  10.121   2.651
68707CL      CL 5734   0.078   9.866   6.972
68708CL      CL 5735   0.037  10.620  10.592
68709CL      CL 5736   0.064  12.736   5.055
68710CL      CL 5737   1.135  11.875   6.303
68711CL      CL 5738   1.755  11.779   7.679
68712CL      CL 5739   1.777  11.514   9.090
68713CL      CL 5740   0.438  11.564  10.809
68714CL      CL 5741   2.727   0.348   0.195
68715CL      CL 5742   3.114   1.731   1.128
68716CL      CL 5743   2.476   0.122   1.979
68717CL      CL 5744   1.901   1.077   4.024
68718CL      CL 5745   2.435   0.870  10.339
68719CL      CL 5746   1.945   1.258  10.332
68720CL      CL 5747   3.721   3.380   5.329
68721CL      CL 5748   3.328   3.279   6.539
68722CL      CL 5749   2.567   2.912   7.816
68723CL      CL 5750   3.703   2.037  10.273
68724CL      CL 5751   2.083   5.038   9.292
68725CL      CL 5752   2.300   4.116  12.671
68726CL      CL 5753   2.885   4.490  12.138
68727CL      CL 5754   1.975   8.185   1.597
68728CL      CL 5755   2.468   8.412   3.847
68729CL      CL 5756   3.143   7.793   6.530
68730CL      CL 5757   3.022   7.655  12.649
68731CL      CL 5758   3.639   7.790  12.814
68732CL      CL 5759   3.721  10.828   3.467
68733CL      CL 5760   2.389   9.566   4.052
68734CL      CL 5761   2.111  11.095   8.689
68735CL      CL 5762   2.083  10.624  11.154
68736CL      CL 5763   1.881   9.678  11.819
68737CL      CL 5764   2.643  11.436   5.473
68738CL      CL 5765   2.181  11.982   4.673
68739CL      CL 5766   2.366  12.740   4.634
68740CL      CL 5767   3.045  12.507   9.429
68741CL      CL 5768   2.894  11.721  11.188
68742CL      CL 5769   4.664   1.698   0.904
68743CL      CL 5770   3.802   0.556   3.248
68744CL      CL 5771   3.987   0.326   4.444
68745CL      CL 5772   3.837   0.737   7.183
68746CL      CL 5773   4.429   2.912   2.230
68747CL      CL 5774   3.829   2.875   3.588
68748CL      CL 5775   5.365   2.970   4.156
68749CL      CL 5776   4.884   2.069   5.201
68750CL      CL 5777   3.837   2.599   7.183
68751CL      CL 5778   3.837   2.599   9.045
68752CL      CL 5779   4.539   2.434   7.773
68753CL      CL 5780   4.951   3.432  11.965
68754CL      CL 5781   4.659   3.960   4.204
68755CL      CL 5782   4.492   4.868   8.471
68756CL      CL 5783   4.188   5.467   7.771
68757CL      CL 5784   4.800   6.269   3.326
68758CL      CL 5785   4.907   6.921   9.429
68759CL      CL 5786   5.317   5.807  10.192
68760CL      CL 5787   4.505   7.712   3.611
68761CL      CL 5788   5.217   9.215   2.821
68762CL      CL 5789   5.566   9.215   4.083
68763CL      CL 5790   4.492   8.592   6.609
68764CL      CL 5791   4.338   7.570   5.703
68765CL      CL 5792   3.921   8.424   8.712
68766CL      CL 5793   4.951   9.018   8.241
68767CL      CL 5794   3.796   7.614   9.628
68768CL      CL 5795   4.396   7.651  12.661
68769CL      CL 5796   3.955  11.023  11.655
68770CL      CL 5797   4.800   9.993  12.636
68771CL      CL 5798   5.004  10.237  11.844
68772CL      CL 5799   5.381  11.776   1.206
68773CL      CL 5800   4.212  12.557   3.898
68774CL      CL 5801   5.249  12.171   5.776
68775CL      CL 5802   4.996  12.617   8.590
68776CL      CL 5803   4.274  11.368  10.195
68777CL      CL 5804   6.566   1.116   1.719
68778CL      CL 5805   6.155   1.275   3.027
68779CL      CL 5806   6.650   1.347   6.926
68780CL      CL 5807   7.218   1.377   9.391
68781CL      CL 5808   6.559   2.752   1.572
68782CL      CL 5809   7.010   2.076   2.974
68783CL      CL 5810   7.173   2.641   5.394
68784CL      CL 5811   6.367   2.126   7.335
68785CL      CL 5812   6.618   2.411   9.326
68786CL      CL 5813   6.258   3.253  12.796
68787CL      CL 5814   7.179   2.083  12.054
68788CL      CL 5815   7.250   5.004   0.657
68789CL      CL 5816   5.996   4.537   3.113
68790CL      CL 5817   6.445   5.098   5.602
68791CL      CL 5818   5.883   3.759   9.481
68792CL      CL 5819   6.125   3.788  11.684
68793CL      CL 5820   6.147   5.808   1.147
68794CL      CL 5821   6.401   6.158   4.049
68795CL      CL 5822   7.275   6.508   9.922
68796CL      CL 5823   6.318   6.220  10.374
68797CL      CL 5824   6.713   8.789   1.690
68798CL      CL 5825   6.416   8.721   3.284
68799CL      CL 5826   7.141   8.959   8.151
68800CL      CL 5827   6.980   7.917  10.984
68801CL      CL 5828   6.257   7.912  10.579
68802CL      CL 5829   6.697  10.505   4.824
68803CL      CL 5830   6.986   9.417   6.012
68804CL      CL 5831   6.886   9.763  10.001
68805CL      CL 5832   6.271  10.322  11.837
68806CL      CL 5833   5.788  11.457   3.360
68807CL      CL 5834   6.059  11.672   2.053
68808CL      CL 5835   6.625  12.270   2.558
68809CL      CL 5836   6.024  11.564   8.947
68810CL      CL 5837   8.133   1.012   4.389
68811CL      CL 5838   8.298   0.798   9.271
68812CL      CL 5839   7.553   1.013  11.036
68813CL      CL 5840   7.561   0.737  12.769
68814CL      CL 5841   8.906   2.597   2.590
68815CL      CL 5842   7.520   2.028   9.628
68816CL      CL 5843   9.070   4.091  11.546
68817CL      CL 5844   8.480   6.135   1.878
68818CL      CL 5845   8.700   6.934   2.250
68819CL      CL 5846   8.700   6.934   5.974
68820CL      CL 5847   8.278   6.859  12.594
68821CL      CL 5848   8.462   7.684   0.971
68822CL      CL 5849   7.745   7.483   2.033
68823CL      CL 5850   8.836   9.021   2.339
68824CL      CL 5851   8.800   7.500   3.892
68825CL      CL 5852   7.456   8.774  11.372
68826CL      CL 5853   7.755   9.373   2.480
68827CL      CL 5854   9.153  10.797   6.690
68828CL      CL 5855   7.799  11.111   8.301
68829CL      CL 5856   8.164   9.875  11.018
68830CL      CL 5857   7.987   9.374  11.684
68831CL      CL 5858   8.439  11.582   3.104
68832CL      CL 5859   8.516  12.505   8.297
68833CL      CL 5860   9.309  12.741   8.299
68834CL      CL 5861   9.337   1.596   0.117
68835CL      CL 5862  10.886   1.662   2.169
68836CL      CL 5863  10.225   0.089   5.126
68837CL      CL 5864   9.998   1.662   5.440
68838CL      CL 5865  10.226   0.910   5.877
68839CL      CL 5866   9.541   1.713   9.793
68840CL      CL 5867   9.769   1.152  10.051
68841CL      CL 5868   9.350   0.544  10.424
68842CL      CL 5869  10.318   1.456  11.649
68843CL      CL 5870   9.837   0.256  11.500
68844CL      CL 5871   9.388   2.418   8.834
68845CL      CL 5872   9.540   4.352   5.699
68846CL      CL 5873   9.908   4.453   7.718
68847CL      CL 5874   9.879   6.861   6.751
68848CL      CL 5875  10.327   5.625   6.339
68849CL      CL 5876   9.393   6.844   8.470
68850CL      CL 5877   9.349   6.663   7.748
68851CL      CL 5878  10.603   6.814  12.595
68852CL      CL 5879   9.382   5.752  11.490
68853CL      CL 5880   9.883   8.318   2.891
68854CL      CL 5881  10.245   7.684   6.066
68855CL      CL 5882  10.122   9.034   8.135
68856CL      CL 5883  10.132  10.312   1.372
68857CL      CL 5884   9.423  10.047   5.321
68858CL      CL 5885   9.769  10.462   4.465
68859CL      CL 5886  10.942  10.687   7.529
68860CL      CL 5887   9.573   9.636  10.030
68861CL      CL 5888  10.113  12.574   8.372
68862CL      CL 5889  10.378  12.505  10.159
68863CL      CL 5890   9.700  12.913  12.732
68864CL      CL 5891  12.898   0.135   6.109
68865CL      CL 5892  12.622   1.220   7.219
68866CL      CL 5893  12.112   3.560   0.904
68867CL      CL 5894  11.393   3.176   1.844
68868CL      CL 5895  12.665   3.629   2.821
68869CL      CL 5896  11.987   2.434  11.497
68870CL      CL 5897  11.402   5.158   6.124
68871CL      CL 5898  12.332   3.931   7.063
68872CL      CL 5899  11.987   4.296   5.911
68873CL      CL 5900  12.632   5.229  12.511
68874CL      CL 5901  12.038   6.040   0.642
68875CL      CL 5902  12.240   6.919   0.849
68876CL      CL 5903  11.984   7.172   4.411
68877CL      CL 5904  11.582   6.399   8.699
68878CL      CL 5905  12.712   7.722  11.297
68879CL      CL 5906  11.526  10.820  12.501
68880CL      CL 5907  12.794  11.539   4.098
68881CL      CL 5908  12.002  12.445   5.146
68882CL      CL 5909  11.402  11.800   5.699
68883CL      CL 5910  11.211  12.249   7.748
68884CL      CL 5911  11.402  12.606  11.710
  12.83690  12.83690  12.83690
